# vtk DataFile Version 3.1
material model VTK file
ASCII
DATASET UNSTRUCTURED_GRID
POINTS         2700 float
      0.000000E+00      0.000000E+00      0.000000E+00
      0.400000E+01      0.000000E+00      0.000000E+00
      0.000000E+00      0.000000E+00      0.400000E+01
      0.400000E+01      0.000000E+00      0.400000E+01
      0.400000E+01      0.000000E+00      0.000000E+00
      0.800000E+01      0.000000E+00      0.000000E+00
      0.400000E+01      0.000000E+00      0.400000E+01
      0.800000E+01      0.000000E+00      0.400000E+01
      0.800000E+01      0.000000E+00      0.000000E+00
      0.120000E+02      0.000000E+00      0.000000E+00
      0.800000E+01      0.000000E+00      0.400000E+01
      0.120000E+02      0.000000E+00      0.400000E+01
      0.120000E+02      0.000000E+00      0.000000E+00
      0.160000E+02      0.000000E+00      0.000000E+00
      0.120000E+02      0.000000E+00      0.400000E+01
      0.160000E+02      0.000000E+00      0.400000E+01
      0.160000E+02      0.000000E+00      0.000000E+00
      0.200000E+02      0.000000E+00      0.000000E+00
      0.160000E+02      0.000000E+00      0.400000E+01
      0.200000E+02      0.000000E+00      0.400000E+01
      0.200000E+02      0.000000E+00      0.000000E+00
      0.240000E+02      0.000000E+00      0.000000E+00
      0.200000E+02      0.000000E+00      0.400000E+01
      0.240000E+02      0.000000E+00      0.400000E+01
      0.240000E+02      0.000000E+00      0.000000E+00
      0.280000E+02      0.000000E+00      0.000000E+00
      0.240000E+02      0.000000E+00      0.400000E+01
      0.280000E+02      0.000000E+00      0.400000E+01
      0.280000E+02      0.000000E+00      0.000000E+00
      0.320000E+02      0.000000E+00      0.000000E+00
      0.280000E+02      0.000000E+00      0.400000E+01
      0.320000E+02      0.000000E+00      0.400000E+01
      0.320000E+02      0.000000E+00      0.000000E+00
      0.360000E+02      0.000000E+00      0.000000E+00
      0.320000E+02      0.000000E+00      0.400000E+01
      0.360000E+02      0.000000E+00      0.400000E+01
      0.360000E+02      0.000000E+00      0.000000E+00
      0.400000E+02      0.000000E+00      0.000000E+00
      0.360000E+02      0.000000E+00      0.400000E+01
      0.400000E+02      0.000000E+00      0.400000E+01
      0.400000E+02      0.000000E+00      0.000000E+00
      0.440000E+02      0.000000E+00      0.000000E+00
      0.400000E+02      0.000000E+00      0.400000E+01
      0.440000E+02      0.000000E+00      0.400000E+01
      0.440000E+02      0.000000E+00      0.000000E+00
      0.480000E+02      0.000000E+00      0.000000E+00
      0.440000E+02      0.000000E+00      0.400000E+01
      0.480000E+02      0.000000E+00      0.400000E+01
      0.480000E+02      0.000000E+00      0.000000E+00
      0.520000E+02      0.000000E+00      0.000000E+00
      0.480000E+02      0.000000E+00      0.400000E+01
      0.520000E+02      0.000000E+00      0.400000E+01
      0.520000E+02      0.000000E+00      0.000000E+00
      0.560000E+02      0.000000E+00      0.000000E+00
      0.520000E+02      0.000000E+00      0.400000E+01
      0.560000E+02      0.000000E+00      0.400000E+01
      0.560000E+02      0.000000E+00      0.000000E+00
      0.600000E+02      0.000000E+00      0.000000E+00
      0.560000E+02      0.000000E+00      0.400000E+01
      0.600000E+02      0.000000E+00      0.400000E+01
      0.600000E+02      0.000000E+00      0.000000E+00
      0.640000E+02      0.000000E+00      0.000000E+00
      0.600000E+02      0.000000E+00      0.400000E+01
      0.640000E+02      0.000000E+00      0.400000E+01
      0.640000E+02      0.000000E+00      0.000000E+00
      0.680000E+02      0.000000E+00      0.000000E+00
      0.640000E+02      0.000000E+00      0.400000E+01
      0.680000E+02      0.000000E+00      0.400000E+01
      0.680000E+02      0.000000E+00      0.000000E+00
      0.720000E+02      0.000000E+00      0.000000E+00
      0.680000E+02      0.000000E+00      0.400000E+01
      0.720000E+02      0.000000E+00      0.400000E+01
      0.720000E+02      0.000000E+00      0.000000E+00
      0.760000E+02      0.000000E+00      0.000000E+00
      0.720000E+02      0.000000E+00      0.400000E+01
      0.760000E+02      0.000000E+00      0.400000E+01
      0.760000E+02      0.000000E+00      0.000000E+00
      0.800000E+02      0.000000E+00      0.000000E+00
      0.760000E+02      0.000000E+00      0.400000E+01
      0.800000E+02      0.000000E+00      0.400000E+01
      0.800000E+02      0.000000E+00      0.000000E+00
      0.840000E+02      0.000000E+00      0.000000E+00
      0.800000E+02      0.000000E+00      0.400000E+01
      0.840000E+02      0.000000E+00      0.400000E+01
      0.840000E+02      0.000000E+00      0.000000E+00
      0.880000E+02      0.000000E+00      0.000000E+00
      0.840000E+02      0.000000E+00      0.400000E+01
      0.880000E+02      0.000000E+00      0.400000E+01
      0.880000E+02      0.000000E+00      0.000000E+00
      0.920000E+02      0.000000E+00      0.000000E+00
      0.880000E+02      0.000000E+00      0.400000E+01
      0.920000E+02      0.000000E+00      0.400000E+01
      0.920000E+02      0.000000E+00      0.000000E+00
      0.960000E+02      0.000000E+00      0.000000E+00
      0.920000E+02      0.000000E+00      0.400000E+01
      0.960000E+02      0.000000E+00      0.400000E+01
      0.960000E+02      0.000000E+00      0.000000E+00
      0.100000E+03      0.000000E+00      0.000000E+00
      0.960000E+02      0.000000E+00      0.400000E+01
      0.100000E+03      0.000000E+00      0.400000E+01
      0.100000E+03      0.000000E+00      0.000000E+00
      0.104000E+03      0.000000E+00      0.000000E+00
      0.100000E+03      0.000000E+00      0.400000E+01
      0.104000E+03      0.000000E+00      0.400000E+01
      0.104000E+03      0.000000E+00      0.000000E+00
      0.108000E+03      0.000000E+00      0.000000E+00
      0.104000E+03      0.000000E+00      0.400000E+01
      0.108000E+03      0.000000E+00      0.400000E+01
      0.108000E+03      0.000000E+00      0.000000E+00
      0.112000E+03      0.000000E+00      0.000000E+00
      0.108000E+03      0.000000E+00      0.400000E+01
      0.112000E+03      0.000000E+00      0.400000E+01
      0.112000E+03      0.000000E+00      0.000000E+00
      0.116000E+03      0.000000E+00      0.000000E+00
      0.112000E+03      0.000000E+00      0.400000E+01
      0.116000E+03      0.000000E+00      0.400000E+01
      0.116000E+03      0.000000E+00      0.000000E+00
      0.120000E+03      0.000000E+00      0.000000E+00
      0.116000E+03      0.000000E+00      0.400000E+01
      0.120000E+03      0.000000E+00      0.400000E+01
      0.120000E+03      0.000000E+00      0.000000E+00
      0.124000E+03      0.000000E+00      0.000000E+00
      0.120000E+03      0.000000E+00      0.400000E+01
      0.124000E+03      0.000000E+00      0.400000E+01
      0.124000E+03      0.000000E+00      0.000000E+00
      0.128000E+03      0.000000E+00      0.000000E+00
      0.124000E+03      0.000000E+00      0.400000E+01
      0.128000E+03      0.000000E+00      0.400000E+01
      0.128000E+03      0.000000E+00      0.000000E+00
      0.132000E+03      0.000000E+00      0.000000E+00
      0.128000E+03      0.000000E+00      0.400000E+01
      0.132000E+03      0.000000E+00      0.400000E+01
      0.132000E+03      0.000000E+00      0.000000E+00
      0.136000E+03      0.000000E+00      0.000000E+00
      0.132000E+03      0.000000E+00      0.400000E+01
      0.136000E+03      0.000000E+00      0.400000E+01
      0.136000E+03      0.000000E+00      0.000000E+00
      0.140000E+03      0.000000E+00      0.000000E+00
      0.136000E+03      0.000000E+00      0.400000E+01
      0.140000E+03      0.000000E+00      0.400000E+01
      0.140000E+03      0.000000E+00      0.000000E+00
      0.144000E+03      0.000000E+00      0.000000E+00
      0.140000E+03      0.000000E+00      0.400000E+01
      0.144000E+03      0.000000E+00      0.400000E+01
      0.144000E+03      0.000000E+00      0.000000E+00
      0.148000E+03      0.000000E+00      0.000000E+00
      0.144000E+03      0.000000E+00      0.400000E+01
      0.148000E+03      0.000000E+00      0.400000E+01
      0.148000E+03      0.000000E+00      0.000000E+00
      0.152000E+03      0.000000E+00      0.000000E+00
      0.148000E+03      0.000000E+00      0.400000E+01
      0.152000E+03      0.000000E+00      0.400000E+01
      0.152000E+03      0.000000E+00      0.000000E+00
      0.156000E+03      0.000000E+00      0.000000E+00
      0.152000E+03      0.000000E+00      0.400000E+01
      0.156000E+03      0.000000E+00      0.400000E+01
      0.156000E+03      0.000000E+00      0.000000E+00
      0.160000E+03      0.000000E+00      0.000000E+00
      0.156000E+03      0.000000E+00      0.400000E+01
      0.160000E+03      0.000000E+00      0.400000E+01
      0.160000E+03      0.000000E+00      0.000000E+00
      0.164000E+03      0.000000E+00      0.000000E+00
      0.160000E+03      0.000000E+00      0.400000E+01
      0.164000E+03      0.000000E+00      0.400000E+01
      0.164000E+03      0.000000E+00      0.000000E+00
      0.168000E+03      0.000000E+00      0.000000E+00
      0.164000E+03      0.000000E+00      0.400000E+01
      0.168000E+03      0.000000E+00      0.400000E+01
      0.168000E+03      0.000000E+00      0.000000E+00
      0.172000E+03      0.000000E+00      0.000000E+00
      0.168000E+03      0.000000E+00      0.400000E+01
      0.172000E+03      0.000000E+00      0.400000E+01
      0.172000E+03      0.000000E+00      0.000000E+00
      0.176000E+03      0.000000E+00      0.000000E+00
      0.172000E+03      0.000000E+00      0.400000E+01
      0.176000E+03      0.000000E+00      0.400000E+01
      0.176000E+03      0.000000E+00      0.000000E+00
      0.180000E+03      0.000000E+00      0.000000E+00
      0.176000E+03      0.000000E+00      0.400000E+01
[...]
POINT_DATA             2700
SCALARS gll_data float
LOOKUP_TABLE default
   1885.31699629810     
   1885.29587207545     
   1822.79846458144     
   1822.82042912728     
   1885.29477493461     
   1885.31076050922     
   1822.82053388401     
   1822.85058674335     
   1885.31079374607     
   1885.31265265425     
   1822.85046454284     
   1822.87915243137     
   1885.31265265425     
   1885.31919277796     
   1822.87901211846     
   1822.90341448489     
   1885.31919277796     
   1885.33469257220     
   1822.90344956489     
   1822.92563858399     
   1885.33469257220     
   1885.35415277531     
   1822.92567365677     
   1822.94131494489     
   1885.35415277531     
   1885.36923700797     
   1822.94131494489     
   1822.94521526300     
   1885.36927092686     
   1885.37021661233     
   1822.94521526300     
   1822.93495746394     
   1885.37040233325     
   1885.36156023412     
   1822.93495746394     
   1822.91457585968     
   1885.36146007075     
   1885.35144752400     
   1822.91454077885     
   1822.88807220057     
   1885.35131400700     
   1885.33753836960     
   1822.88807220057     
   1822.85635131274     
   1885.33740539919     
   1885.32445710620     
   1822.85615927229     
   1822.82385725559     
   1885.32434070083     
   1885.32043717904     
   1822.82383980830     
   1822.79513933589     
   1885.32030407655     
   1885.31637262395     
   1822.79517389230     
   1822.77098320911     
   1885.31627279623     
   1885.31848794883     
   1822.77098320911     
   1822.75466199751     
   1885.31838811534     
   1885.32934691596     
   1822.75462757936     
   1822.74537281710     
   1885.32924708296     
   1885.33506248696     
   1822.74537281710     
   1822.73521439853     
   1885.33496265420     
   1885.33324406578     
   1822.73521439853     
   1822.71812033711     
   1885.33327734338     
   1885.32923411121     
   1822.71812033711     
   1822.69712064191     
   1885.32910100054     
   1885.32896788986     
   1822.69712064191     
   1822.67777567390     
   1885.32886805684     
   1885.33507433267     
   1822.67784451696     
   1822.66429959506     
   1885.33507433267     
   1885.34658833451     
   1822.66429959506     
   1822.65860278082     
   1885.34658833451     
   1885.35680445647     
   1822.65860278082     
   1822.65934285135     
   1885.35683773365     
   1885.36109720781     
   1822.65929121853     
   1822.66331857394     
   1885.36109720781     
   1885.36069788251     
   1822.66331857394     
   1822.66860231305     
   1885.36069788251     
   1885.35412564157     
   1822.66860231305     
   1822.67235427485     
   1885.35422547325     
   1885.33960007589     
   1822.67235427485     
   1822.67249196138     
   1885.33956679840     
   1885.32033231436     
   1822.67249196138     
   1822.67006523486     
   1885.32043214783     
   1885.30201278335     
   1822.67006523486     
   1822.66879452765     
   1885.30211261779     
   1885.28820230169     
   1822.66872568425     
   1822.67186996165     
   1885.28830213686     
   1885.27785269370     
   1822.67186996165     
   1822.67873674484     
   1885.27808564370     
   1885.26974934361     
   1822.67870232332     
   1822.68740632617     
   1885.26993237654     
   1885.26517545439     
   1822.68737190473     
   1822.69739833970     
   1885.26524201201     
   1885.26778697270     
   1822.69736392002     
   1822.71021032597     
   1885.26792008781     
   1885.27980057299     
   1822.71017590719     
   1822.72756328923     
   1885.27980057299     
   1885.29832000353     
   1822.72756328923     
   1822.74891982650     
   1885.29832000353     
   1885.31833675756     
   1822.74888540843     
   1822.77254767810     
   1885.31833675756     
   1885.33547479040     
   1822.77258209572     
   1822.79565896569     
   1885.33547479040     
   1885.34545803869     
   1822.79565896569     
   1822.81441913965     
   1885.34549131610     
   1885.34729760403     
   1822.81441913965     
   1822.82787005154     
   1885.34743071356     
   1885.34744650939     
   1822.82773238723     
   1822.83841519220     
   1885.34744650939     
   1885.35120912908     
   1822.83841519220     
   1822.84865445122     
   1885.35120912908     
   1885.35351541792     
   1822.84865445122     
   1822.85264994167     
   1885.35353205659     
   1885.33007139199     
   1822.85264994167     
   1822.84267296155     
   1885.33176855625     
   1885.31820783840     
   1822.84250094417     
   1822.82956519088     
   1822.79797571113     
   1822.82056880291     
   1760.34326991624     
   1760.38334081630     
   1822.82065610017     
   1822.85058674335     
   1760.38334081630     
   1760.42465603481     
   1822.85058674335     
   1822.87938043982     
   1760.42465603481     
   1760.45554059851     
   1822.87941551804     
   1822.90408100482     
   1760.45546729969     
   1760.47412752105     
   1822.90408100482     
   1822.92628743038     
   1760.47412752105     
   1760.48522525684     
   1822.92625235761     
   1822.94191105022     
   1760.48522525684     
   1760.48825941263     
   1822.94198118025     
   1822.94593409368     
   1760.48827784765     
   1760.48204060982     
   1822.94593409368     
   1822.93581707858     
   1760.48196686955     
   1760.46750537622     
   1822.93578199228     
   1822.91538271859     
   1760.46750537622     
   1760.44955150834     
   1822.91541779941     
   1822.88831761821     
   1760.44944090186     
   1760.42823372905     
   1822.88831761821     
   1822.85635131274     
   1760.42821548689     
   1760.40258999332     
   1822.85631639630     
   1822.82375257183     
   1760.40255350903     
   1760.37391422601     
   1822.82371767725     
   1822.79519117050     
   1760.37400505377     
   1760.34487689233     
   1822.79515661409     
   1822.77089680668     
   1760.34487689233     
   1760.31581267642     
   1822.77084496522     
   1822.75455874305     
   1760.31588534570     
   1760.29245736503     
   1822.75452432489     
   1822.74539002459     
   1760.29247545667     
   1760.27487723328     
   1822.74549326957     
   1822.73521439853     
   1760.27493144158     
   1760.25586862763     
   1822.73521439853     
   1822.71801707476     
   1760.25585073892     
   1760.23047133425     
   1822.71801707476     
   1822.69701737837     
   1760.23057824245     
   1760.20153050453     
   1822.69705179955     
   1822.67774125237     
   1760.20156614657     
   1760.17410119323     
   1822.67774125237     
   1822.66419632971     
   1760.17410119323     
   1760.15115933433     
   1822.66419632971     
   1822.65846509324     
   1760.15115933433     
   1760.13463812326     
   1822.65843067135     
   1822.65917074195     
   1760.13463812326     
   1760.12597645549     
   1822.65920516383     
   1822.66337020664     
   1760.12597645549     
   1760.12526355912     
   1822.66323251943     
   1822.66858510220     
   1760.12521009188     
   1760.13119841256     
   1822.66844741538     
   1822.67225100995     
   1760.13123405726     
   1760.13989569916     
   1822.67225100995     
   1822.67238869648     
   1760.13978876557     
   1760.14588154202     
   1822.67238869648     
   1822.66992754815     
   1760.14577460878     
   1760.14794163441     
   1822.66992754815     
   1822.66869126255     
   1760.14783470123     
   1760.14987692484     
   1822.66869126255     
   1822.67176669662     
   1760.14976999200     
   1760.15584873143     
   1822.67176669662     
   1822.67873674484     
   1760.15577744867     
   1760.16518973638     
   1822.67870232332     
   1822.68740632617     
   1760.16518973638     
   1760.17539964991     
   1822.68737190473     
   1822.69729508066     
   1760.17525714977     
   1760.18373300036     
   1822.69729508066     
   1822.71010706962     
   1760.18380451701     
   1760.19271346373     
   1822.71008986022     
   1822.72742561534     
   1760.19271346373     
   1760.20422067407     
   1822.72739119686     
   1822.74878215422     
   1760.20422067407     
   1760.21986202584     
   1822.74874773614     
   1822.77247884285     
   1760.21986202584     
   1760.23999097505     
   1822.77244442523     
   1822.79552129694     
   1760.23999097505     
   1760.26246275116     
   1822.79552129694     
   1822.81441913965     
   1760.26246275116     
   1760.28329321763     
   1822.81441913965     
   1822.82787005154     
   1760.28334689326     
   1760.30062181329     
   1822.82773238723     
   1822.83841519220     
   1760.30062181329     
   1760.31601821927     
   1822.83841519220     
   1822.84865445122     
   1760.31594597655     
   1760.33265605684     
   1822.84865445122     
   1822.85278755481     
   1760.33265605684     
   1760.34641403791     
   1822.85282195809     
   1822.84267296155     
   1760.34641403791     
   1760.35232856297     
   1822.84263855808     
   1822.82884271259     
   1760.35232856297     
   1760.35659713751     
   1760.34336114413     
   1760.38343204207     
   1697.92139970780     
   1697.95005186705     
   1760.38341379692     
   1760.42483847869     
   1697.95009025958     
   1697.97007204248     
   1760.42483847869     
   1760.45544897498     
   1697.97009123871     
   1697.96398134049     
   1760.45530237731     
   1760.47351908090     
   1697.96409651134     
   1697.94118734380     
   1760.47351908090     
   1760.48446943377     
   1697.94118734380     
   1697.91578140451     
   1760.48446943377     
   1760.48746670664     
   1697.91578140451     
   1697.89136816364     
   1760.48746670664     
   1760.48106355101     
   1697.89136816364     
   1697.86914225848     
   1760.48106355101     
   1760.46678639705     
   1697.86914225848     
   1697.85327590449     
   1760.46671265558     
   1760.44885100051     
   1697.85316076518     
   1697.85109376632     
   1760.44888786935     
   1760.42830669770     
   1697.85109376632     
   1697.85964030645     
   1760.42850736147     
   1760.40273593048     
   1697.85962110919     
   1697.86839731986     
   1760.40269944619     
   1760.37436836475     
   1697.86828213386     
   1697.87792145490     
   1760.37440469584     
   1760.34498587206     
   1697.87805588347     
   1697.88232675317     
   1760.34498587206     
   1760.31590351303     
   1697.88232675317     
   1697.87816572062     
   1760.31590351303     
   1760.29258400648     
   1697.87828040360     
   1697.87110330637     
   1760.29260209811     
   1760.27489530272     
   1697.87119880006     
   1697.86038781772     
   1760.27480495556     
   1760.25586862763     
   1697.86044455980     
   1697.83897122517     
   1760.25586862763     
   1760.23070296867     
   1697.83883937074     
   1697.80594604086     
   1760.23073860473     
   1760.20153050453     
   1697.80575788799     
   1697.76842166200     
   1760.20163743064     
   1760.17410119323     
   1697.76842166200     
   1697.73571726372     
   1760.17406554936     
   1760.15112369003     
   1697.73588369258     
   1697.70951744890     
   1760.15112369003     
   1760.13463812326     
   1697.70936963686     
   1697.68826043535     
   1760.13463812326     
   1760.12594081067     
   1697.68824195742     
   1697.67273457254     
   1760.12594081067     
   1760.12522791430     
   1697.67269761636     
   1697.66551427137     
   1760.12526355912     
   1760.13132316902     
   1697.66551427137     
   1697.66795466249     
   1760.13134099137     
   1760.13989569916     
   1697.66795466249     
   1697.67653067153     
   1760.13989569916     
   1760.14586371981     
   1697.67649371770     
   1697.68357657692     
   1760.14588154202     
   1760.14794163441     
   1697.68359505389     
   1697.68555951157     
   1760.14794163441     
   1760.14993039125     
   1697.68555951157     
   1697.68700763402     
   1760.14987692484     
   1760.15574180728     
   1697.68700763402     
   1697.69347225898     
   1760.15574180728     
   1760.16477993626     
   1697.69334098101     
   1697.70423057108     
   1760.16477993626     
   1760.17495433694     
   1697.70423057108     
   1697.71461797888     
   1760.17477621172     
   1760.18346481287     
   1697.71456146496     
   1697.72008307743     
   1760.18360784620     
   1760.19265978516     
   1697.72012074582     
   1697.72228234501     
   1760.19260610659     
   1760.20411331808     
   1697.72228234501     
   1697.72447627753     
   1760.20411331808     
   1760.21970099332     
   1697.72447627753     
   1697.73009691340     
   1760.21984413334     
   1760.23988362126     
   1697.73009691340     
   1697.74156288208     
   1760.23988362126     
   1760.26237329081     
   1697.74156288208     
   1697.75889635347     
   1760.26237329081     
   1760.28334689326     
   1697.75889635347     
   1697.77810984294     
   1760.28331110950     
   1760.30065760266     
   1697.77810984294     
   1697.79464486056     
   1760.30062181329     
   1760.31601821927     
   1697.79479553250     
   1697.80802135273     
   1760.31601821927     
   1760.33265605684     
   1697.80798368676     
   1697.82090914209     
   1760.33265605684     
   1760.34641403791     
   1697.82090914209     
   1697.83399313201     
   1760.34641403791     
   1760.35229238856     
   1697.83399313201     
   1697.84546215405     
   1760.35229238856     
   1760.35641626592     
   1697.84542448908     
   1697.86227947976     
   1697.92115015017     
   1697.94993668945     
   1635.46179417866     
   1635.45409407338     
   1697.94997508199     
   1697.96984168771     
   1635.45409407338     
   1635.42348593909     
   1697.96984168771     
   1697.96398134049     
   1635.42348593909     
   1635.35585090976     
   1697.96398134049     
   1697.94118734380     
   1635.35585090976     
   1635.27577293256     
   1697.94118734380     
   1697.91576221538     
   1635.27577293256     
   1635.20716714076     
   1697.91576221538     
   1697.89157924688     
   1635.20704500326     
   1635.15244171375     
   1697.89161762564     
   1697.86939172339     
   1635.15246207525     
   1635.10934739034     
   1697.86939172339     
   1697.85352537296     
   1635.10934739034     
   1635.08387860244     
   1697.85337185390     
   1697.85120891180     
   1635.08387860244     
   1635.08994543138     
   1697.85120891180     
   1697.85923716410     
   1635.08937499125     
   1635.12364871045     
   1697.85923716410     
   1697.86803256416     
   1635.12400715765     
   1635.16782622776     
   1697.86803256416     
   1697.87757578140     
   1635.16786601121     
   1635.22850476318     
   1697.87757578140     
   1697.88209651939     
   1635.22826577864     
   1635.28928621311     
   1697.88209651939     
   1697.87807015147     
   1635.28920651691     
   1635.34193275637     
   1697.87805103764     
   1697.87083592403     
   1635.34193275637     
   1635.38707945767     
   1697.87096961521     
   1697.85983931082     
   1635.38721897611     
   1635.41724065409     
   1697.86000953711     
   1697.83863217090     
   1635.41747993839     
   1635.42346356344     
   1697.83848148009     
   1697.80568262683     
   1635.42358267448     
   1635.40358448303     
   1697.80553210451     
   1697.76829079020     
   1635.40356482198     
   1635.36862784497     
   1697.76832818215     
   1697.73562480324     
   1635.36878426478     
   1635.33447740496     
   1697.73569877163     
   1697.70951744890     
   1635.33436052669     
   1635.30748098167     
   1697.70936963686     
   1697.68826043535     
   1635.30748098167     
   1635.28626639091     
   1697.68826043535     
   1697.67273457254     
   1635.28626639091     
   1635.26695463133     
   1697.67273457254     
   1697.66551427137     
   1635.26683958194     
   1635.25182377513     
   1697.66536644605     
   1697.66795466249     
   1635.25182377513     
   1635.24731727641     
   1697.66795466249     
   1697.67664153304     
   1635.24731727641     
   1635.25317430539     
   1697.67664153304     
   1697.68357657692     
   1635.25305873399     
   1635.26209516972     
   1697.68359505389     
   1697.68578134244     
   1635.26209516972     
   1635.26671820286     
   1697.68578134244     
   1697.68717473515     
   1635.26671820286     
   1635.27233531021     
   1697.68724900232     
   1697.69371606091     
   1635.27221796046     
   1635.28760796185     
   1697.69345350499     
   1697.70472056301     
   1635.28756885674     
   1635.30982336405     
   1697.70473940885     
   1697.71507009024     
   1635.30992108569     
   1635.32762099132     
   1697.71518311806     
   1697.72055393218     
   1635.32764058753     
   1635.33423632017     
   1697.72059160056     
   1697.72267785733     
   1635.33423632017     
   1635.33263796531     
   1697.72275319301     
   1697.72487180399     
   1635.33263796531     
   1635.32776406872     
   1697.72487180399     
   1697.73045477971     
   1635.32788166447     
   1635.32336350022     
   1697.73045477971     
   1697.74195841567     
   1635.32336350022     
   1635.32215168057     
   1697.74195841567     
   1697.75916003932     
   1635.32203441750     
   1635.32652072306     
   1697.75912236992     
   1697.77820401478     
   1635.32652072306     
   1635.33595125383     
   1697.77820401478     
   1697.79477669851     
   1635.33595125383     
   1635.34559733334     
   1697.79477669851     
   1697.80787068883     
   1635.34559733334     
   1635.35070255836     
   1697.80787068883     
   1697.82090914209     
   1635.35072210105     
   1635.35010134073     
   1697.82090914209     
   1697.83399313201     
   1635.35012088439     
   1635.34484964229     
   1697.83399313201     
   1697.84546215405     
   1635.34473238015     
   1635.33948390493     
   1697.84542448908     
   1697.86229831206     
   1635.33948390493     
   1635.34704731951     
   1635.46324794834     
   1635.45530813943     
   1572.91431716909     
   1572.88490108571     
   1635.45518872314     
   1635.42370465377     
   1572.88478813154     
   1572.80920248646     
   1635.42370465377     
   1635.35485536009     
   1572.80933843282     
   1572.69728161503     
   1635.35483544909     
   1635.27526627909     
   1572.69714526508     
   1572.58933744180     
   1635.27512441608     
   1635.20849029646     
   1572.58936078144     
   1572.51099888018     
   1635.20851065270     
   1635.15490545319     
   1572.51111635926     
   1572.44862691215     
   1635.15490545319     
   1635.11242240056     
   1572.44846262509     
   1572.38904337653     
   1635.11242240056     
   1635.08642326232     
   1572.38939545316     
   1572.34437628722     
   1635.08642326232     
   1635.09084183690     
   1572.34376507203     
   1572.32726070114     
   1635.09021027852     
   1635.11853087237     
   1572.32590800558     
   1572.33738634775     
   1635.11900880345     
   1635.16368874392     
   1572.33850003799     
   1572.37805575256     
   1635.16382798634     
   1635.22679203990     
   1572.37941554032     
   1572.46352740573     
   1635.22655305511     
   1635.28856894713     
   1572.46156252701     
   1572.54355947514     
   1635.28856894713     
   1635.34215195312     
   1572.54383469401     
   1572.63878873778     
   1635.34215195312     
   1635.38731863213     
   1572.63803843554     
   1572.73510044175     
   1635.38745815055     
   1635.41785880512     
   1572.73495572292     
   1572.82814330974     
   1635.41795850688     
   1635.42360252632     
   1572.82822599383     
   1572.90573891400     
   1635.42372163735     
   1635.40330922828     
   1572.90588393953     
   1572.95264468027     
   1635.40330922828     
   1635.36901889448     
   1572.95276904960     
   1572.96289818224     
   1635.36901889448     