 -4.000000000000000E-002    0.000000000000000E+000
 -3.990000000000000E-002   -2.966439180055910E-008
 -3.980000000000000E-002   -8.469587092485758E-008
 -3.970000000000000E-002   -1.568545050155461E-007
 -3.960000000000000E-002   -2.349387372370507E-007
 -3.950000000000000E-002   -3.058976669853716E-007
 -3.940000000000000E-002   -3.559901483129398E-007
 -3.930000000000000E-002   -3.719049474376035E-007
 -3.920000000000000E-002   -3.417619275252609E-007
 -3.910000000000000E-002   -2.559272655194742E-007
 -3.900000000000000E-002   -1.075949632837539E-007
 -3.890000000000000E-002    1.068889661780112E-007
 -3.880000000000000E-002    3.879582960701097E-007
 -3.870000000000000E-002    7.329901990155066E-007
 -3.860000000000000E-002    1.136655946798370E-006
 -3.850000000000000E-002    1.591403461696830E-006
 -3.840000000000000E-002    2.088009350797115E-006
 -3.830000000000000E-002    2.616142833960364E-006
 -3.820000000000000E-002    3.164889394109538E-006
 -3.810000000000000E-002    3.723198016157776E-006
 -3.800000000000000E-002    4.280228723868314E-006
 -3.790000000000000E-002    4.825594888008099E-006
 -3.780000000000000E-002    5.349506246923514E-006
 -3.770000000000000E-002    5.842830325883865E-006
 -3.760000000000000E-002    6.297098122902016E-006
 -3.750000000000000E-002    6.704475709875159E-006
 -3.740000000000000E-002    7.057730907862240E-006
 -3.730000000000000E-002    7.350214599905946E-006
 -3.720000000000000E-002    7.575868368369650E-006
 -3.710000000000000E-002    7.729269879831348E-006
 -3.700000000000000E-002    7.805712127277719E-006
 -3.690000000000000E-002    7.801315146837931E-006
 -3.680000000000000E-002    7.713153582016532E-006
 -3.670000000000000E-002    7.539390204390478E-006
 -3.660000000000000E-002    7.279392914237479E-006
 -3.650000000000000E-002    6.933822054050424E-006
 -3.640000000000000E-002    6.504666408025190E-006
 -3.630000000000000E-002    5.995214958106345E-006
 -3.620000000000000E-002    5.409956881523997E-006
 -3.610000000000000E-002    4.754397830160095E-006
 -3.600000000000000E-002    4.034801888012853E-006
 -3.590000000000000E-002    3.257862859698665E-006
 -3.580000000000000E-002    2.430325170554314E-006
 -3.570000000000000E-002    1.558571220471687E-006
 -3.560000000000000E-002    6.482113275653718E-007
 -3.550000000000000E-002   -2.963029099871193E-007
 -3.540000000000000E-002   -1.272015386623097E-006
 -3.530000000000000E-002   -2.277716522336360E-006
 -3.520000000000000E-002   -3.314113233428101E-006
 -3.510000000000000E-002   -4.383882692841886E-006
 -3.500000000000000E-002   -5.491638707197589E-006
 -3.490000000000000E-002   -6.643805254199393E-006
 -3.480000000000000E-002   -7.848419187116581E-006
 -3.470000000000000E-002   -9.114889424618978E-006
 -3.460000000000000E-002   -1.045371726624658E-005
 -3.450000000000000E-002   -1.187623434769607E-005
 -3.440000000000000E-002   -1.339433609294252E-005
 -3.430000000000000E-002   -1.502025242924138E-005
 -3.420000000000000E-002   -1.676634111726019E-005
 -3.410000000000000E-002   -1.864492411913797E-005
 -3.400000000000000E-002   -2.066814511543264E-005
 -3.390000000000000E-002   -2.284786672998311E-005
 -3.380000000000000E-002   -2.519559016071250E-005
 -3.370000000000000E-002   -2.772238246923246E-005
 -3.360000000000000E-002   -3.043888488489468E-005
 -3.350000000000000E-002   -3.335533352476200E-005
 -3.340000000000000E-002   -3.648161475103529E-005
 -3.330000000000000E-002   -3.982742463340604E-005
 -3.320000000000000E-002   -4.340246560371928E-005
 -3.310000000000000E-002   -4.721669698002897E-005
 -3.300000000000000E-002   -5.128060789738073E-005
 -3.290000000000000E-002   -5.560557674883311E-005
 -3.280000000000000E-002   -6.020417496552814E-005
 -3.270000000000000E-002   -6.509045160303882E-005
 -3.260000000000000E-002   -7.028019097289399E-005
 -3.250000000000000E-002   -7.579108412865777E-005
 -3.240000000000000E-002   -8.164281667566849E-005
 -3.230000000000000E-002   -8.785708676916287E-005
 -3.220000000000000E-002   -9.445757265408657E-005
 -3.210000000000000E-002   -1.014698102407239E-004
 -3.200000000000000E-002   -1.089211655632902E-004
 -3.190000000000000E-002   -1.168406633864927E-004
 -3.180000000000000E-002   -1.252590356036365E-004
 -3.170000000000000E-002   -1.342085868341788E-004
 -3.160000000000000E-002   -1.437234279848188E-004
 -3.150000000000000E-002   -1.538393776795300E-004
 -3.140000000000000E-002   -1.645942175639989E-004
 -3.130000000000000E-002   -1.760277934141690E-004
 -3.120000000000000E-002   -1.881820615897029E-004
 -3.110000000000000E-002   -2.011011603592135E-004
 -3.100000000000000E-002   -2.148314453526664E-004
 -3.090000000000000E-002   -2.294213909733806E-004
 -3.080000000000000E-002   -2.449216068086934E-004
 -3.070000000000000E-002   -2.613845730716783E-004
 -3.060000000000000E-002   -2.788647704642139E-004
 -3.050000000000000E-002   -2.974184231155312E-004
 -3.040000000000000E-002   -3.171037896402674E-004
 -3.030000000000000E-002   -3.379811155723436E-004
 -3.020000000000000E-002   -3.601130123990760E-004
 -3.010000000000000E-002   -3.835645649818765E-004
 -3.000000000000000E-002   -4.084039588751932E-004
 -2.990000000000000E-002   -4.347027163572672E-004
 -2.980000000000000E-002   -4.625362598910987E-004
 -2.970000000000000E-002   -4.919840680294014E-004
 -2.960000000000000E-002   -5.231303077984227E-004
 -2.950000000000000E-002   -5.560635979006897E-004
 -2.940000000000000E-002   -5.908776050905968E-004
 -2.930000000000000E-002   -6.276709996776773E-004
 -2.920000000000000E-002   -6.665474588712901E-004
 -2.910000000000000E-002   -7.076159886145892E-004
 -2.900000000000000E-002   -7.509907445871132E-004
 -2.890000000000000E-002   -7.967915455952311E-004
 -2.880000000000000E-002   -8.451437703500327E-004
 -2.870000000000000E-002   -8.961787963518774E-004
 -2.860000000000000E-002   -9.500341378507495E-004
 -2.850000000000000E-002   -1.006853909665549E-003
 -2.840000000000000E-002   -1.066789135911386E-003
 -2.830000000000000E-002   -1.129997919052128E-003
 -2.820000000000000E-002   -1.196645515137672E-003
 -2.810000000000000E-002   -1.266904975909732E-003
 -2.800000000000000E-002   -1.340957093800697E-003
 -2.790000000000000E-002   -1.418990014284344E-003
 -2.780000000000000E-002   -1.501199960118186E-003
 -2.770000000000000E-002   -1.587791380125323E-003
 -2.760000000000000E-002   -1.678976537474474E-003
 -2.750000000000000E-002   -1.774975972759503E-003
 -2.740000000000000E-002   -1.876019399626815E-003
 -2.730000000000000E-002   -1.982345046202374E-003
 -2.720000000000000E-002   -2.094200571885151E-003
 -2.710000000000000E-002   -2.211843696033593E-003
 -2.700000000000000E-002   -2.335542029254794E-003
 -2.690000000000000E-002   -2.465574108734737E-003
 -2.680000000000000E-002   -2.602229208292240E-003
 -2.670000000000000E-002   -2.745808531942337E-003
 -2.660000000000000E-002   -2.896624311817903E-003
 -2.650000000000000E-002   -3.055002127817176E-003
 -2.640000000000000E-002   -3.221279117969027E-003
 -2.630000000000000E-002   -3.395805699708998E-003
 -2.620000000000000E-002   -3.578945930052723E-003
 -2.610000000000000E-002   -3.771077519298724E-003
 -2.600000000000000E-002   -3.972592907150220E-003
 -2.590000000000000E-002   -4.183898775390883E-003
 -2.580000000000000E-002   -4.405417863806597E-003
 -2.570000000000000E-002   -4.637588866081016E-003
 -2.560000000000000E-002   -4.880866469475955E-003
 -2.550000000000000E-002   -5.135722412029737E-003
 -2.540000000000000E-002   -5.402645654319293E-003
 -2.530000000000000E-002   -5.682143542510885E-003
 -2.520000000000000E-002   -5.974739744040804E-003
 -2.510000000000000E-002   -6.280977506408048E-003
 -2.500000000000000E-002   -6.601418442930952E-003
 -2.490000000000000E-002   -6.936642947584865E-003
 -2.480000000000000E-002   -7.287249382478307E-003
 -2.470000000000000E-002   -7.653857493626947E-003
 -2.460000000000000E-002   -8.037106244185886E-003
 -2.450000000000000E-002   -8.437655347648695E-003
 -2.440000000000000E-002   -8.856185833407535E-003
 -2.430000000000000E-002   -9.293398883303427E-003
 -2.420000000000000E-002   -9.750019850071697E-003
 -2.410000000000000E-002   -1.022679378387585E-002
 -2.400000000000000E-002   -1.072449166352508E-002
 -2.390000000000000E-002   -1.124390509968371E-002
 -2.380000000000000E-002   -1.178584851926372E-002
 -2.370000000000000E-002   -1.235116089807105E-002
 -2.360000000000000E-002   -1.294070648373914E-002
 -2.350000000000000E-002   -1.355537463649503E-002
 -2.340000000000000E-002   -1.419607710228023E-002
 -2.330000000000000E-002   -1.486375220015453E-002
 -2.320000000000000E-002   -1.555936608551838E-002
 -2.310000000000000E-002   -1.628390922357834E-002
 -2.300000000000000E-002   -1.703840029064095E-002
 -2.290000000000000E-002   -1.782388731747299E-002
 -2.280000000000000E-002   -1.864144426913070E-002
 -2.270000000000000E-002   -1.949217258182624E-002
 -2.260000000000000E-002   -2.037720446001920E-002
 -2.250000000000000E-002   -2.129770131685680E-002
 -2.240000000000000E-002   -2.225485232041313E-002
 -2.230000000000000E-002   -2.324987239925520E-002
 -2.220000000000000E-002   -2.428401099456208E-002
 -2.210000000000000E-002   -2.535854213799546E-002
 -2.200000000000000E-002   -2.647477482528867E-002
 -2.190000000000000E-002   -2.763404052568150E-002
 -2.180000000000000E-002   -2.883770380858944E-002
 -2.170000000000000E-002   -3.008715670275840E-002
 -2.160000000000000E-002   -3.138382571808698E-002
 -2.150000000000000E-002   -3.272916539289484E-002
 -2.140000000000000E-002   -3.412465491467478E-002
 -2.130000000000000E-002   -3.557181279196555E-002
 -2.120000000000000E-002   -3.707217911930051E-002
 -2.110000000000000E-002   -3.862732641710597E-002
 -2.100000000000000E-002   -4.023885066947228E-002
 -2.090000000000000E-002   -4.190838183411466E-002
 -2.080000000000000E-002   -4.363757475461899E-002
 -2.070000000000000E-002   -4.542810951193959E-002
 -2.060000000000000E-002   -4.728169781814038E-002
 -2.050000000000000E-002   -4.920007771254591E-002
 -2.040000000000000E-002   -5.118500643846537E-002
 -2.030000000000000E-002   -5.323827481198329E-002
 -2.020000000000000E-002   -5.536170155872897E-002
 -2.010000000000000E-002   -5.755712450868165E-002
 -2.000000000000000E-002   -5.982640150899138E-002
 -1.990000000000000E-002   -6.217142753103630E-002
 -1.980000000000000E-002   -6.459410841840352E-002
 -1.970000000000000E-002   -6.709638139678177E-002
 -1.960000000000000E-002   -6.968019370626052E-002
 -1.950000000000000E-002   -7.234752374960322E-002
 -1.940000000000000E-002   -7.510035655826000E-002
 -1.930000000000000E-002   -7.794069440077779E-002
 -1.920000000000000E-002   -8.087056562624044E-002
 -1.910000000000000E-002   -8.389200229135610E-002
 -1.900000000000000E-002   -8.700705254847545E-002
 -1.890000000000000E-002   -9.021777569167230E-002
 -1.880000000000000E-002   -9.352625137604324E-002
 -1.870000000000000E-002   -9.693456658615288E-002
 -1.860000000000000E-002   -0.100444794175561     
 -1.850000000000000E-002   -0.104059037873602     
 -1.840000000000000E-002   -0.107779391383307     
 -1.830000000000000E-002   -0.111607939607257     
 -1.820000000000000E-002   -0.115546795765430     
 -1.810000000000000E-002   -0.119598049250349     
 -1.800000000000000E-002   -0.123763774741478     
 -1.790000000000000E-002   -0.128046068781498     
 -1.780000000000000E-002   -0.132446979146728     
 -1.770000000000000E-002   -0.136968578228854     
 -1.760000000000000E-002   -0.141612887840211     
 -1.750000000000000E-002   -0.146381938954747     
 -1.740000000000000E-002   -0.151277735424843     
 -1.730000000000000E-002   -0.156302246636698     
 -1.720000000000000E-002   -0.161457423971733     
 -1.710000000000000E-002   -0.166745181936591     
 -1.700000000000000E-002   -0.172167427056298     
 -1.690000000000000E-002   -0.177725990770597     
 -1.680000000000000E-002   -0.183422684566116     
 -1.670000000000000E-002   -0.189259299163387     
 -1.660000000000000E-002   -0.195237539996084     
 -1.650000000000000E-002   -0.201359112095458     
 -1.640000000000000E-002   -0.207625617300587     
 -1.630000000000000E-002   -0.214038614234449     
 -1.620000000000000E-002   -0.220599641299362     
 -1.610000000000000E-002   -0.227310111435365     
 -1.600000000000000E-002   -0.234171431407416     
 -1.590000000000000E-002   -0.241184905500287     
 -1.580000000000000E-002   -0.248351756368089     
 -1.570000000000000E-002   -0.255673125451440     
 -1.560000000000000E-002   -0.263150091350919     
 -1.550000000000000E-002   -0.270783650650168     
 -1.540000000000000E-002   -0.278574672675485     
 -1.530000000000000E-002   -0.286523961734001     
 -1.520000000000000E-002   -0.294632235122823     
 -1.510000000000000E-002   -0.302900088948559     
 -1.500000000000000E-002   -0.311327981292927     
 -1.490000000000000E-002   -0.319916300375370     
 -1.480000000000000E-002   -0.328665309446454     
 -1.470000000000000E-002   -0.337575127969548     
 -1.460000000000000E-002   -0.346645763988544     
 -1.450000000000000E-002   -0.355877115964187     
 -1.440000000000000E-002   -0.365268904392567     
 -1.430000000000000E-002   -0.374820747563034     
 -1.420000000000000E-002   -0.384532092716681     
 -1.410000000000000E-002   -0.394402268872998     
 -1.400000000000000E-002   -0.404430445811989     
 -1.390000000000000E-002   -0.414615640615692     
 -1.380000000000000E-002   -0.424956702729534     
 -1.370000000000000E-002   -0.435452301508496     
 -1.360000000000000E-002   -0.446100959203295     
 -1.350000000000000E-002   -0.456901023352326     
 -1.340000000000000E-002   -0.467850641565064     
 -1.330000000000000E-002   -0.478947862038422     
 -1.320000000000000E-002   -0.490190424933488     
 -1.310000000000000E-002   -0.501576023950042     
 -1.300000000000000E-002   -0.513102003005369     
 -1.290000000000000E-002   -0.524765666606511     
 -1.280000000000000E-002   -0.536564022988224     
 -1.270000000000000E-002   -0.548493938135023     
 -1.260000000000000E-002   -0.560552046213142     
 -1.250000000000000E-002   -0.572734739540735     
 -1.240000000000000E-002   -0.585038269012268     
 -1.230000000000000E-002   -0.597458667975541     
 -1.220000000000000E-002   -0.609991665548303     
 -1.210000000000000E-002   -0.622632889799346     
 -1.200000000000000E-002   -0.635377686176171     
 -1.190000000000000E-002   -0.648221208239537     
 -1.180000000000000E-002   -0.661158345455243     
 -1.170000000000000E-002   -0.674183819729963     
 -1.160000000000000E-002   -0.687292067099792     
 -1.150000000000000E-002   -0.700477390283508     
 -1.140000000000000E-002   -0.713733728506109     
 -1.130000000000000E-002   -0.727054943094926     
 -1.120000000000000E-002   -0.740434529979434     
 -1.110000000000000E-002   -0.753865856421770     
 -1.100000000000000E-002   -0.767342042963000     
 -1.090000000000000E-002   -0.780855936044829     
 -1.080000000000000E-002   -0.794400185038434     
 -1.070000000000000E-002   -0.807967257043963     
 -1.060000000000000E-002   -0.821549307560782     
 -1.050000000000000E-002   -0.835138358613865     
 -1.040000000000000E-002   -0.848726113493430     
 -1.030000000000000E-002   -0.862304169267778     
 -1.020000000000000E-002   -0.875863828165291     
 -1.010000000000000E-002   -0.889396214803799     
 -1.000000000000000E-002   -0.902892139464815     
 -9.899999999999999E-003   -0.916342439999601     
 -9.800000000000000E-003   -0.929737540548180     
 -9.699999999999999E-003   -0.943067730658356     
 -9.599999999999999E-003   -0.956323165102064     
 -9.500000000000000E-003   -0.969493734393327     
 -9.399999999999999E-003   -0.982569091310412     
 -9.299999999999999E-003   -0.995538830143838     
 -9.200000000000000E-003    -1.00839240599578     
 -9.099999999999999E-003    -1.02111895989909     
 -8.999999999999999E-003    -1.03370755907361     
 -8.900000000000000E-003    -1.04614710039315     
 -8.799999999999999E-003    -1.05842630019722     
 -8.699999999999999E-003    -1.07053388535546     
 -8.600000000000000E-003    -1.08245822048642     
 -8.499999999999999E-003    -1.09418780291356     
 -8.399999999999999E-003    -1.10571079893660     
 -8.300000000000000E-003    -1.11701531482007     
 -8.199999999999999E-003    -1.12808944361509     
 -8.100000000000000E-003    -1.13892119735510     
 -8.000000000000000E-003    -1.14949835547632     
 -7.899999999999999E-003    -1.15980880068802     
 -7.800000000000000E-003    -1.16984032935719     
 -7.699999999999999E-003    -1.17958056574152     
 -7.599999999999999E-003    -1.18901723381405     
 -7.499999999999999E-003    -1.19813804195727     
 -7.399999999999999E-003    -1.20693055203963     
 -7.299999999999999E-003    -1.21538251949860     
 -7.199999999999999E-003    -1.22348149366107     
 -7.100000000000000E-003    -1.23121524092422     
 -6.999999999999999E-003    -1.23857147164779     
 -6.899999999999999E-003    -1.24553785665018     
 -6.800000000000000E-003    -1.25210228263779     
 -6.699999999999999E-003    -1.25825274481079     
 -6.599999999999999E-003    -1.26397716666440     
 -6.499999999999999E-003    -1.26926357854457     
 -6.399999999999999E-003    -1.27410019250150     
 -6.299999999999999E-003    -1.27847543309539     
 -6.199999999999999E-003    -1.28237780422750     
 -6.100000000000000E-003    -1.28579587661421     
 -5.999999999999999E-003    -1.28871842779646     
 -5.899999999999999E-003    -1.29113445036655     
 -5.800000000000000E-003    -1.29303320840100     
 -5.699999999999999E-003    -1.29440398956097     
 -5.599999999999999E-003    -1.29523647853567     
 -5.499999999999999E-003    -1.29552052884134     
 -5.399999999999999E-003    -1.29524629030489     
 -5.299999999999999E-003    -1.29440413614630     
 -5.199999999999999E-003    -1.29298469748402     
 -5.099999999999999E-003    -1.29097899235489     
 -4.999999999999999E-003    -1.28837822810112     
 -4.899999999999999E-003    -1.28517402207441     
 -4.799999999999999E-003    -1.28135829817245     
 -4.699999999999999E-003    -1.27692322575149     
 -4.599999999999999E-003    -1.27186156205381     
 -4.499999999999999E-003    -1.26616630237208     
 -4.399999999999999E-003    -1.25983081950419     
 -4.299999999999999E-003    -1.25284882286558     
 -4.199999999999999E-003    -1.24521459193709     
 -4.099999999999999E-003    -1.23692274170478     
 -3.999999999999999E-003    -1.22796839138542     
 -3.899999999999999E-003    -1.21834696179236     
 -3.799999999999999E-003    -1.20805439854868     
 -3.699999999999999E-003    -1.19708715657461     
 -3.599999999999999E-003    -1.18544213228441     
 -3.499999999999999E-003    -1.17311674166842     
 -3.399999999999999E-003    -1.16010882495900     
 -3.299999999999999E-003    -1.14641685849675     
 -3.199999999999999E-003    -1.13203961318932     
 -3.099999999999999E-003    -1.11697659985970     
 -2.999999999999999E-003    -1.10122770129264     
 -2.899999999999999E-003    -1.08479343960360     
 -2.799999999999999E-003    -1.06767483198302     
 -2.699999999999999E-003    -1.04987342475608     
 -2.599999999999999E-003    -1.03139134778454     
 -2.499999999999999E-003    -1.01223127409784     
 -2.399999999999999E-003   -0.992396418417483     
 -2.299999999999999E-003   -0.971890563414957     
 -2.199999999999999E-003   -0.950718112386801     
 -2.099999999999999E-003   -0.928883917483265     
 -1.999999999999999E-003   -0.906393515585718     
 -1.899999999999999E-003   -0.883252984949356     
 -1.799999999999999E-003   -0.859468935165782     
 -1.699999999999999E-003   -0.835048612897357     
 -1.599999999999999E-003   -0.809999760754929     
 -1.499999999999999E-003   -0.784330749943634     
 -1.399999999999999E-003   -0.758050451544738     
 -1.299999999999999E-003   -0.731168417879445     
 -1.199999999999999E-003   -0.703694661203101     
 -1.099999999999999E-003   -0.675639755162824     
 -9.999999999999989E-004   -0.647014859795390     
 -8.999999999999990E-004   -0.617831673119976     
 -7.999999999999990E-004   -0.588102418098870     
 -6.999999999999989E-004   -0.557839875605847     
 -5.999999999999990E-004   -0.527057315322603     
 -4.999999999999989E-004   -0.495768532785532     
 -3.999999999999989E-004   -0.463987845533126     
 -2.999999999999989E-004   -0.431730055661630     
 -1.999999999999989E-004   -0.399010463683476     
 -9.999999999999892E-005   -0.365844833678032     
  1.084202172485504E-018   -0.332249392196487     
  1.000000000000011E-004   -0.298240830616057     
  2.000000000000011E-004   -0.263836297099735     
  3.000000000000011E-004   -0.229053359487708     
  4.000000000000011E-004   -0.193909978511381     
  5.000000000000011E-004   -0.158424535709902     
  6.000000000000011E-004   -0.122615826282750     
  7.000000000000011E-004   -8.650295379381691E-002
  8.000000000000011E-004   -5.010542756374491E-002
  9.000000000000012E-004   -1.344305764062197E-002
  1.000000000000001E-003    2.346401248293175E-002
  1.100000000000001E-003    6.059531282354229E-002
  1.200000000000001E-003    9.793013400576445E-002
  1.300000000000001E-003    0.135447463581650     
  1.400000000000001E-003    0.173126035393178     
  1.500000000000001E-003    0.210944388247926     
  1.600000000000001E-003    0.248880743161916     
  1.700000000000001E-003    0.286913329278377     
  1.800000000000001E-003    0.325020036419549     
  1.900000000000001E-003    0.363178625200827     
  2.000000000000001E-003    0.401366761904569     
  2.100000000000001E-003    0.439562057385926     
  2.200000000000001E-003    0.477741915661907     
  2.300000000000001E-003    0.515883713509927     
  2.400000000000001E-003    0.553964804819993     
  2.500000000000001E-003    0.591962489602545     
  2.600000000000001E-003    0.629854142030307     
  2.700000000000001E-003    0.667616964001583     
  2.800000000000001E-003    0.705228473282116     
  2.900000000000001E-003    0.742665920750794     
  3.000000000000001E-003    0.779906946813135     
  3.100000000000001E-003    0.816929029144646     
  3.200000000000001E-003    0.853709972637274     
  3.300000000000001E-003    0.890227583799963     
  3.400000000000001E-003    0.926459895825394     
  3.500000000000001E-003    0.962385094357592     
  3.600000000000001E-003    0.997981711806037     
  3.700000000000001E-003     1.03322832897891     
  3.800000000000001E-003     1.06810376874601     
  3.900000000000001E-003     1.10258724087668     
  4.000000000000001E-003     1.13665814867111     
  4.100000000000001E-003     1.17029629506006     
  4.200000000000001E-003     1.20348172231363     
  4.300000000000001E-003     1.23619492736352     
  4.400000000000001E-003     1.26841662555259     
  4.500000000000001E-003     1.30012792394280     
  4.600000000000002E-003     1.33131050768320     
  4.700000000000001E-003     1.36194620672065     
  4.800000000000001E-003     1.39201752391675     
  4.900000000000002E-003     1.42150725550185     
  5.000000000000001E-003     1.45039870730280     
  5.100000000000001E-003     1.47867568489703     
  5.200000000000001E-003     1.50632245416267     
  5.300000000000002E-003     1.53332379770951     
  5.400000000000001E-003     1.55966496868238     
  5.500000000000001E-003     1.58533186071316     
  5.600000000000002E-003     1.61031080008320     
  5.700000000000001E-003     1.63458872882931     
  5.800000000000001E-003     1.65815312599910     
  5.900000000000002E-003     1.68099197662379     
  6.000000000000001E-003     1.70309398730572     
  6.100000000000001E-003     1.72444855957478     
  6.200000000000002E-003     1.74504524929845     
  6.300000000000002E-003     1.76487466240971     
  6.400000000000001E-003     1.78392780830683     
  6.500000000000001E-003     1.80219651563523     
  6.600000000000002E-003     1.81967281436643     
  6.700000000000001E-003     1.83634973302901     
  6.800000000000001E-003     1.85222091657173     
  6.900000000000002E-003     1.86728049817071     
  7.000000000000001E-003     1.88152344734720     
  7.100000000000001E-003     1.89494509589032     
  7.200000000000002E-003     1.90754151395374     
  7.300000000000002E-003     1.91930954776588     
  7.400000000000001E-003     1.93024646870600     
  7.500000000000001E-003     1.94035056068984     
  7.600000000000002E-003     1.94962036631594     
  7.700000000000001E-003     1.95805539807258     
  7.800000000000001E-003     1.96565538996882     
  7.900000000000001E-003     1.97242090092247     
  8.000000000000002E-003     1.97835310964031     
  8.100000000000001E-003     1.98345394772856     
  8.200000000000001E-003     1.98772583617650     
  8.300000000000002E-003     1.99117162839000     
  8.400000000000001E-003     1.99379524712917     
  8.500000000000002E-003     1.99560067995108     
  8.600000000000002E-003     1.99659279976185     
  8.700000000000001E-003     1.99677706805019     
  8.800000000000002E-003     1.99615945373452     
  8.900000000000002E-003     1.99474618320060     
  9.000000000000001E-003     1.99254440957531     
  9.100000000000002E-003     1.98956169194300     
  9.200000000000002E-003     1.98580608906966     
  9.300000000000001E-003     1.98128633183813     
  9.400000000000002E-003     1.97601141249993     
  9.500000000000001E-003     1.96999094798416     
  9.600000000000001E-003     1.96323477621108     
  9.700000000000002E-003     1.95575366973566     
  9.800000000000001E-003     1.94755835480098     
  9.900000000000001E-003     1.93866023467542     
  1.000000000000000E-002     1.92907111795611     
  1.010000000000000E-002     1.91880311831647     
  1.020000000000000E-002     1.90786874697999     
  1.030000000000000E-002     1.89628100831220     
  1.040000000000000E-002     1.88405305754306     
  1.050000000000000E-002     1.87119866307788     
  1.060000000000000E-002     1.85773160988033     
  1.070000000000000E-002     1.84366618030170     
  1.080000000000000E-002     1.82901678817179     
  1.090000000000000E-002     1.81379836653701     
  1.100000000000000E-002     1.79802584571237     
  1.110000000000000E-002     1.78171448091275     
  1.120000000000000E-002     1.76487973841278     
  1.130000000000000E-002     1.74753736048587     
  1.140000000000000E-002     1.72970314923903     
  1.150000000000000E-002     1.71139317049208     
  1.160000000000000E-002     1.69262355386070     
  1.170000000000000E-002     1.67341065965765     
  1.180000000000000E-002     1.65377089310141     
  1.190000000000000E-002     1.63372077818297     
  1.200000000000000E-002     1.61327698779877     
  1.210000000000000E-002     1.59245618602119     
  1.220000000000000E-002     1.57127509586746     
  1.230000000000000E-002     1.54975050614299     
  1.240000000000000E-002     1.52789923913035     
  1.250000000000000E-002     1.50573804357342     
  1.260000000000000E-002     1.48328371146168     
  1.270000000000000E-002     1.46055309721959     
  1.280000000000000E-002     1.43756276907474     
  1.290000000000000E-002     1.41432953752726     
  1.300000000000000E-002     1.39086983757847     
  1.310000000000000E-002     1.36720029208091     
  1.320000000000000E-002     1.34333734824479     
  1.330000000000000E-002     1.31929729009323     
  1.340000000000000E-002     1.29509623444584     
  1.350000000000000E-002     1.27075015022552     
  1.360000000000000E-002     1.24627509102419     
  1.370000000000000E-002     1.22168670085175     
  1.380000000000000E-002     1.19700057188209     
  1.390000000000000E-002     1.17223211501983     
  1.400000000000000E-002     1.14739645633270     
  1.410000000000000E-002     1.12250853502878     
  1.420000000000000E-002     1.09758316893288     
  1.430000000000000E-002     1.07263493055553     
  1.440000000000000E-002     1.04767809811844     
  1.450000000000000E-002     1.02272672578086     
  1.460000000000000E-002    0.997794560200061     
  1.470000000000000E-002    0.972895209219556     
  1.480000000000000E-002    0.948041917015247     
  1.490000000000000E-002    0.923247698621824     
  1.500000000000000E-002    0.898525302110119     
  1.510000000000000E-002    0.873887093293706     
  1.520000000000000E-002    0.849345230101253     
  1.530000000000000E-002    0.824911595359640     
  1.540000000000000E-002    0.800597734076366     
  1.550000000000000E-002    0.776414862668303     
  1.560000000000000E-002    0.752373903887749     
  1.570000000000000E-002    0.728485442840242     
  1.580000000000000E-002    0.704759828579250     
  1.590000000000000E-002    0.681206962593992     
  1.600000000000000E-002    0.657836495837807     
  1.610000000000000E-002    0.634657766191330     
  1.620000000000000E-002    0.611679743099572     
  1.630000000000000E-002    0.588911074980360     
  1.640000000000000E-002    0.566360074790778     
  1.650000000000000E-002    0.544034766730736     
  1.660000000000000E-002    0.521942796903587     
  1.670000000000000E-002    0.500091495733873     
  1.680000000000000E-002    0.478487860817872     
  1.690000000000000E-002    0.457138546705636     
  1.700000000000000E-002    0.436049901043313     
  1.710000000000000E-002    0.415227974921053     
  1.720000000000000E-002    0.394678421230163     
  1.730000000000000E-002    0.374406601068656     
  1.740000000000000E-002    0.354417576266700     
  1.750000000000000E-002    0.334716064791289     
  1.760000000000000E-002    0.315306468772016     
  1.770000000000000E-002    0.296192908972645     
  1.780000000000000E-002    0.277379142342536     
  1.790000000000000E-002    0.258868675020537     
  1.800000000000000E-002    0.240664688017314     
  1.810000000000000E-002    0.222770080169178     
  1.820000000000000E-002    0.205187444269967     
  1.830000000000000E-002    0.187919086145085     
  1.840000000000000E-002    0.170967039231744     
  1.850000000000000E-002    0.154333055625008     
  1.860000000000000E-002    0.138018602711645     
  1.870000000000000E-002    0.122024911967800     