 -4.000000000000000E-002    0.000000000000000E+000
 -3.990000000000000E-002    0.000000000000000E+000
 -3.980000000000000E-002    0.000000000000000E+000
 -3.970000000000000E-002    0.000000000000000E+000
 -3.960000000000000E-002    0.000000000000000E+000
 -3.950000000000000E-002    0.000000000000000E+000
 -3.940000000000000E-002    0.000000000000000E+000
 -3.930000000000000E-002    0.000000000000000E+000
 -3.920000000000000E-002    0.000000000000000E+000
 -3.910000000000000E-002    0.000000000000000E+000
 -3.900000000000000E-002    0.000000000000000E+000
 -3.890000000000000E-002    0.000000000000000E+000
 -3.880000000000000E-002   -2.069451140670296E-038
 -3.870000000000000E-002   -7.336008671134005E-037
 -3.860000000000000E-002   -1.172596474292678E-035
 -3.850000000000000E-002   -1.194352596475109E-034
 -3.840000000000000E-002   -8.934291644480056E-034
 -3.830000000000000E-002   -5.297561780075529E-033
 -3.820000000000000E-002   -2.609541554903044E-032
 -3.810000000000000E-002   -1.101764139821899E-031
 -3.800000000000000E-002   -4.074865160859532E-031
 -3.790000000000000E-002   -1.340889888857061E-030
 -3.780000000000000E-002   -3.969413955499890E-030
 -3.770000000000000E-002   -1.064980608234855E-029
 -3.760000000000000E-002   -2.600287785350775E-029
 -3.750000000000000E-002   -5.780307729313409E-029
 -3.740000000000000E-002   -1.164459982816568E-028
 -3.730000000000000E-002   -2.097729224442730E-028
 -3.720000000000000E-002   -3.270663295853425E-028
 -3.710000000000000E-002   -4.024048320794699E-028
 -3.700000000000000E-002   -2.450370489607669E-028
 -3.690000000000000E-002    5.730493686602531E-028
 -3.680000000000000E-002    2.867850060834140E-027
 -3.670000000000000E-002    7.992457851556368E-027
 -3.660000000000000E-002    1.787902364981673E-026
 -3.650000000000000E-002    3.476861188464130E-026
 -3.640000000000000E-002    6.030274110388405E-026
 -3.630000000000000E-002    9.354708659527179E-026
 -3.620000000000000E-002    1.275127260203907E-025
 -3.610000000000000E-002    1.439588304081777E-025
 -3.600000000000000E-002    1.068611491584802E-025
 -3.590000000000000E-002   -4.393748996374061E-026
 -3.580000000000000E-002   -3.956565847943790E-025
 -3.570000000000000E-002   -1.056686843810421E-024
 -3.560000000000000E-002   -2.134374165785212E-024
 -3.550000000000000E-002   -3.687898664411529E-024
 -3.540000000000000E-002   -5.649079646525408E-024
 -3.530000000000000E-002   -7.709639666783952E-024
 -3.520000000000000E-002   -9.185142632421106E-024
 -3.510000000000000E-002   -8.884354799450856E-024
 -3.500000000000000E-002   -5.037084494911257E-024
 -3.490000000000000E-002    4.640460308304763E-024
 -3.480000000000000E-002    2.264413756305390E-023
 -3.470000000000000E-002    5.104452328500100E-023
 -3.460000000000000E-002    9.044662743395472E-023
 -3.450000000000000E-002    1.385604238757164E-022
 -3.440000000000000E-002    1.885339044234636E-022
 -3.430000000000000E-002    2.273913559010195E-022
 -3.420000000000000E-002    2.351390335730084E-022
 -3.410000000000000E-002    1.852968444453887E-022
 -3.400000000000000E-002    4.770848323721018E-023
 -3.390000000000000E-002   -2.056245284876703E-022
 -3.380000000000000E-002   -5.913492316215641E-022
 -3.370000000000000E-002   -1.102655781641555E-021
 -3.360000000000000E-002   -1.695861271232842E-021
 -3.350000000000000E-002   -2.278696004214409E-021
 -3.340000000000000E-002   -2.704699670730515E-021
 -3.330000000000000E-002   -2.779092177969013E-021
 -3.320000000000000E-002   -2.281433989961375E-021
 -3.310000000000000E-002   -1.008765860984107E-021
 -3.300000000000000E-002    1.160783881846383E-021
 -3.290000000000000E-002    4.189803694366883E-021
 -3.280000000000000E-002    7.802353298629308E-021
 -3.270000000000000E-002    1.142541915137343E-020
 -3.260000000000000E-002    1.417961438853798E-020
 -3.250000000000000E-002    1.495026904625317E-020
 -3.240000000000000E-002    1.256539162894368E-020
 -3.230000000000000E-002    6.092288181199013E-021
 -3.220000000000000E-002   -4.761557235443284E-021
 -3.210000000000000E-002   -1.919455996086237E-020
 -3.200000000000000E-002   -3.489853633076295E-020
 -3.190000000000000E-002   -4.782367554076321E-020
 -3.180000000000000E-002   -5.228500267744153E-020
 -3.170000000000000E-002   -4.157448594942924E-020
 -3.160000000000000E-002   -9.200590498299617E-021
 -3.150000000000000E-002    4.921831535174236E-020
 -3.140000000000000E-002    1.335314803043253E-019
 -3.130000000000000E-002    2.364263545726330E-019
 -3.120000000000000E-002    3.411312217029634E-019
 -3.110000000000000E-002    4.201836178390438E-019
 -3.100000000000000E-002    4.361121278723806E-019
 -3.090000000000000E-002    3.448496635667049E-019
 -3.080000000000000E-002    1.024636850805692E-019
 -3.070000000000000E-002   -3.246852027820904E-019
 -3.060000000000000E-002   -9.469574964969174E-019
 -3.050000000000000E-002   -1.737121850548303E-018
 -3.040000000000000E-002   -2.617177157697368E-018
 -3.030000000000000E-002   -3.449615448662085E-018
 -3.020000000000000E-002   -4.036933218643078E-018
 -3.010000000000000E-002   -4.133098801617342E-018
 -3.000000000000000E-002   -3.469790082505877E-018
 -2.990000000000000E-002   -1.798387053352848E-018
 -2.980000000000000E-002    1.054020007616966E-018
 -2.970000000000000E-002    5.119754705589644E-018
 -2.960000000000000E-002    1.022560686289273E-017
 -2.950000000000000E-002    1.593986846610597E-017
 -2.940000000000000E-002    2.154548747403398E-017
 -2.930000000000000E-002    2.605362216899773E-017
 -2.920000000000000E-002    2.826936627716875E-017
 -2.910000000000000E-002    2.691597522571715E-017
 -2.900000000000000E-002    2.081559680780126E-017
 -2.890000000000000E-002    9.114010549114363E-018
 -2.880000000000000E-002   -8.474455098780732E-018
 -2.870000000000000E-002   -3.143605257517098E-017
 -2.860000000000000E-002   -5.828227533319948E-017
 -2.850000000000000E-002   -8.647361152934712E-017
 -2.840000000000000E-002   -1.124810775623283E-016
 -2.830000000000000E-002   -1.320117181907341E-016
 -2.820000000000000E-002   -1.404045066854843E-016
 -2.810000000000000E-002   -1.331777022620542E-016
 -2.800000000000000E-002   -1.066816605332589E-016
 -2.790000000000000E-002   -5.878562373646365E-017
 -2.780000000000000E-002    1.049101123460263E-017
 -2.770000000000000E-002    9.849982190964694E-017
 -2.760000000000000E-002    1.997261709168809E-016
 -2.750000000000000E-002    3.058611229292910E-016
 -2.740000000000000E-002    4.062143690679290E-016
 -2.730000000000000E-002    4.884564994309448E-016
 -2.720000000000000E-002    5.396339994026706E-016
 -2.710000000000000E-002    5.473628527412016E-016
 -2.700000000000000E-002    5.010833229478490E-016
 -2.690000000000000E-002    3.932561522968275E-016
 -2.680000000000000E-002    2.203999250215641E-016
 -2.670000000000000E-002   -1.609365142917131E-017
 -2.660000000000000E-002   -3.093833748174985E-016
 -2.650000000000000E-002   -6.468155526564627E-016
 -2.640000000000000E-002   -1.009726669465173E-015
 -2.630000000000000E-002   -1.373373733848294E-015
 -2.620000000000000E-002   -1.707004785414770E-015
 -2.610000000000000E-002   -1.974168226088547E-015
 -2.600000000000000E-002   -2.133471200946049E-015
 -2.590000000000000E-002   -2.140101638165171E-015
 -2.580000000000000E-002   -1.948495116259750E-015
 -2.570000000000000E-002   -1.516505883828624E-015
 -2.560000000000000E-002   -8.113130895960859E-016
 -2.550000000000000E-002    1.829844022278600E-016
 -2.540000000000000E-002    1.456529787597697E-015
 -2.530000000000000E-002    2.964571556315850E-015
 -2.520000000000000E-002    4.619486245391618E-015
 -2.510000000000000E-002    6.285850186588505E-015
 -2.500000000000000E-002    7.780674333106676E-015
 -2.490000000000000E-002    8.880809740500095E-015
 -2.480000000000000E-002    9.339010633607736E-015
 -2.470000000000000E-002    8.909161020519925E-015
 -2.460000000000000E-002    7.379770759494501E-015
 -2.450000000000000E-002    4.613171027406926E-015
 -2.440000000000000E-002    5.860982388828975E-016
 -2.430000000000000E-002   -4.574157899990832E-015
 -2.420000000000000E-002   -1.056478779166544E-014
 -2.410000000000000E-002   -1.690048167810347E-014
 -2.400000000000000E-002   -2.293017296261649E-014
 -2.390000000000000E-002   -2.788097783112888E-014
 -2.380000000000000E-002   -3.092939979332402E-014
 -2.370000000000000E-002   -3.129575092203152E-014
 -2.360000000000000E-002   -2.835328267735625E-014
 -2.350000000000000E-002   -2.173951192883818E-014
 -2.340000000000000E-002   -1.145447279138556E-014
 -2.330000000000000E-002    2.070457237752892E-015
 -2.320000000000000E-002    1.794800282066145E-014
 -2.310000000000000E-002    3.486562919832031E-014
 -2.300000000000000E-002    5.117597987134690E-014
 -2.290000000000000E-002    6.504364725157414E-014
 -2.280000000000000E-002    7.463617367018310E-014
 -2.270000000000000E-002    7.833907550491629E-014
 -2.260000000000000E-002    7.496868489573507E-014
 -2.250000000000000E-002    6.395403523948750E-014
 -2.240000000000000E-002    4.546043881104046E-014
 -2.230000000000000E-002    2.043345596969178E-014
 -2.220000000000000E-002   -9.448105567077064E-015
 -2.210000000000000E-002   -4.190892022575471E-014
 -2.200000000000000E-002   -7.428878250415551E-014
 -2.190000000000000E-002   -1.038023284265831E-013
 -2.180000000000000E-002   -1.278116724751075E-013
 -2.170000000000000E-002   -1.440739368995783E-013
 -2.160000000000000E-002   -1.509295085212633E-013
 -2.150000000000000E-002   -1.474070939647649E-013
 -2.140000000000000E-002   -1.332371120349815E-013
 -2.130000000000000E-002   -1.087826951964001E-013
 -2.120000000000000E-002   -7.491498516068523E-014
 -2.110000000000000E-002   -3.287156091863472E-014
 -2.100000000000000E-002    1.585790781314020E-014
 -2.090000000000000E-002    6.958025758784699E-014
 -2.080000000000000E-002    1.263581875763581E-013
 -2.070000000000000E-002    1.838810526698152E-013
 -2.060000000000000E-002    2.392762534420247E-013
 -2.050000000000000E-002    2.889181084158634E-013
 -2.040000000000000E-002    3.283117992560428E-013
 -2.030000000000000E-002    3.521367916166220E-013
 -2.020000000000000E-002    3.545237057388904E-013
 -2.010000000000000E-002    3.296084318313087E-013
 -2.000000000000000E-002    2.723590133389140E-013
 -1.990000000000000E-002    1.796114467997493E-013
 -1.980000000000000E-002    5.118844722079001E-014
 -1.970000000000000E-002   -1.090780072603928E-013
 -1.960000000000000E-002   -2.926306258372019E-013
 -1.950000000000000E-002   -4.859870546349813E-013
 -1.940000000000000E-002   -6.712270138326171E-013
 -1.930000000000000E-002   -8.272589653430312E-013
 -1.920000000000000E-002   -9.318481200522037E-013
 -1.910000000000000E-002   -9.642576230819784E-013
 -1.900000000000000E-002   -9.082254013721458E-013
 -1.890000000000000E-002   -7.548924368647875E-013
 -1.880000000000000E-002   -5.052359473868344E-013
 -1.870000000000000E-002   -1.715632336701139E-013
 -1.860000000000000E-002    2.223061992187971E-013
 -1.850000000000000E-002    6.423957258809620E-013
 -1.840000000000000E-002    1.047487836277484E-012
 -1.830000000000000E-002    1.393389935390545E-012
 -1.820000000000000E-002    1.638107219175232E-012
 -1.810000000000000E-002    1.747286451821997E-012
 -1.800000000000000E-002    1.699181790522810E-012
 -1.790000000000000E-002    1.488383389883325E-012
 -1.780000000000000E-002    1.127661199183568E-012
 -1.770000000000000E-002    6.474976835349275E-013
 -1.760000000000000E-002    9.319674247489477E-014
 -1.750000000000000E-002   -4.801837767405825E-013
 -1.740000000000000E-002   -1.014478428419947E-012
 -1.730000000000000E-002   -1.455754564011704E-012
 -1.720000000000000E-002   -1.761297548355511E-012
 -1.710000000000000E-002   -1.905183215756884E-012
 -1.700000000000000E-002   -1.881541247111977E-012
 -1.690000000000000E-002   -1.704935899850656E-012
 -1.680000000000000E-002   -1.407724813031381E-012
 -1.670000000000000E-002   -1.034744872811463E-012
 -1.660000000000000E-002   -6.361278392815191E-013
 -1.650000000000000E-002   -2.593947673367531E-013
 -1.640000000000000E-002    5.785609000642377E-014
 -1.630000000000000E-002    2.934086495595195E-013
 -1.620000000000000E-002    4.430570745627582E-013
 -1.610000000000000E-002    5.198950598913682E-013
 -1.600000000000000E-002    5.503508746291287E-013
 -1.590000000000000E-002    5.676620718333268E-013
 -1.580000000000000E-002    6.040020185095494E-013
 -1.570000000000000E-002    6.827909175135919E-013
 -1.560000000000000E-002    8.127745484281908E-013
 -1.550000000000000E-002    9.851999432178608E-013
 -1.540000000000000E-002    1.174881983261664E-012
 -1.530000000000000E-002    1.345216700529014E-012
 -1.520000000000000E-002    1.456380651547527E-012
 -1.510000000000000E-002    1.475208953167466E-012
 -1.500000000000000E-002    1.384725698944193E-012
 -1.490000000000000E-002    1.191127877255198E-012
 -1.480000000000000E-002    9.262770799818676E-013
 -1.470000000000000E-002    6.444309741307435E-013
 -1.460000000000000E-002    4.129628352073611E-013
 -1.450000000000000E-002    2.980291639267821E-013
 -1.440000000000000E-002    3.473323749616068E-013
 -1.430000000000000E-002    5.730743320651794E-013
 -1.420000000000000E-002    9.386789412368530E-013
 -1.410000000000000E-002    1.352745312015344E-012
 -1.400000000000000E-002    1.672904594802666E-012
 -1.390000000000000E-002    1.720857800602020E-012
 -1.380000000000000E-002    1.308035244780601E-012
 -1.370000000000000E-002    2.693149626146087E-013
 -1.360000000000000E-002   -1.499613711688248E-012
 -1.350000000000000E-002   -4.006994194380660E-012
 -1.340000000000000E-002   -7.138169265096535E-012
 -1.330000000000000E-002   -1.064305023862459E-011
 -1.320000000000000E-002   -1.414234076894689E-011
 -1.310000000000000E-002   -1.715460938883354E-011
 -1.300000000000000E-002   -1.914337036099719E-011
 -1.290000000000000E-002   -1.958017196072274E-011
 -1.280000000000000E-002   -1.801683136952485E-011
 -1.270000000000000E-002   -1.415783816981755E-011
 -1.260000000000000E-002   -7.922989505342867E-012
 -1.250000000000000E-002    5.092620117872534E-013
 -1.240000000000000E-002    1.068543536044380E-011
 -1.230000000000000E-002    2.189221152665836E-011
 -1.220000000000000E-002    3.320390320823517E-011
 -1.210000000000000E-002    4.355866877175699E-011
 -1.200000000000000E-002    5.185605898803969E-011
 -1.190000000000000E-002    5.706543134484549E-011
 -1.180000000000000E-002    5.833318529606410E-011
 -1.170000000000000E-002    5.507665922679435E-011
 -1.160000000000000E-002    4.705426363274121E-011
 -1.150000000000000E-002    3.440426802749090E-011
 -1.140000000000000E-002    1.764879176865668E-011
 -1.130000000000000E-002   -2.336323427370982E-012
 -1.120000000000000E-002   -2.438109022402402E-011
 -1.110000000000000E-002   -4.710277358407859E-011
 -1.100000000000000E-002   -6.899982926439195E-011
 -1.090000000000000E-002   -8.854901266725781E-011
 -1.080000000000000E-002   -1.042976759691274E-010
 -1.070000000000000E-002   -1.149456111908379E-010
 -1.060000000000000E-002   -1.194138254159889E-010
 -1.050000000000000E-002   -1.169004932385795E-010
 -1.040000000000000E-002   -1.069261746800072E-010
 -1.030000000000000E-002   -8.937150361845430E-011
 -1.020000000000000E-002   -6.450969967471544E-011
 -1.010000000000000E-002   -3.303451663687984E-011
 -1.000000000000000E-002    3.918848198414343E-012
 -9.899999999999999E-003    4.476542341094212E-011
 -9.800000000000000E-003    8.748289737909892E-011
 -9.699999999999999E-003    1.296544640995173E-010
 -9.599999999999999E-003    1.685511216693547E-010
 -9.500000000000000E-003    2.012595840886546E-010
 -9.399999999999999E-003    2.248572287450898E-010
 -9.299999999999999E-003    2.366285577658595E-010
 -9.200000000000000E-003    2.343104814606551E-010
 -9.099999999999999E-003    2.163462105592578E-010
 -8.999999999999999E-003    1.821223642865849E-010
 -8.900000000000000E-003    1.321606271930399E-010
 -8.799999999999999E-003    6.823583983075248E-011
 -8.699999999999999E-003   -6.603244411801761E-012
 -8.600000000000000E-003   -8.812630302337898E-011
 -8.499999999999999E-003   -1.711319469541450E-010
 -8.399999999999999E-003   -2.497688650744129E-010
 -8.300000000000000E-003   -3.179474133281943E-010
 -8.199999999999999E-003   -3.698103577010954E-010
 -8.100000000000000E-003   -4.002231342104663E-010
 -8.000000000000000E-003   -4.052399376766640E-010
 -7.899999999999999E-003   -3.825023882071247E-010
 -7.800000000000000E-003   -3.315328720920860E-010
 -7.699999999999999E-003   -2.538932438066773E-010
 -7.599999999999999E-003   -1.531923822528476E-010
 -7.499999999999999E-003   -3.493894015875884E-011
 -7.399999999999999E-003    9.375092637958609E-011
 -7.299999999999999E-003    2.245696475108101E-010
 -7.199999999999999E-003    3.485276761208279E-010
 -7.100000000000000E-003    4.565211070289306E-010
 -6.999999999999999E-003    5.399196481017729E-010
 -6.899999999999999E-003    5.911391097721573E-010
 -6.800000000000000E-003    6.041658930892623E-010
 -6.699999999999999E-003    5.750060508315261E-010
 -6.599999999999999E-003    5.020377204876771E-010
 -6.499999999999999E-003    3.862504122593138E-010
 -6.399999999999999E-003    2.313595380151511E-010
 -6.299999999999999E-003    4.378822818297106E-011
 -6.199999999999999E-003   -1.674884562202617E-010
 -6.100000000000000E-003   -3.912395571426641E-010
 -5.999999999999999E-003   -6.144123414493068E-010
 -5.899999999999999E-003   -8.226992161611739E-010
 -5.800000000000000E-003   -1.001225463434829E-009
 -5.699999999999999E-003   -1.135338006701382E-009
 -5.599999999999999E-003   -1.211467292299855E-009
 -5.499999999999999E-003   -1.218025702850993E-009
 -5.399999999999999E-003   -1.146296384458420E-009
 -5.299999999999999E-003   -9.912620054455580E-010
 -5.199999999999999E-003   -7.523187382117637E-010
 -5.099999999999999E-003   -4.338212946438359E-010
 -4.999999999999999E-003   -4.541115248945189E-011
 -4.899999999999999E-003    3.979124377381789E-010
 -4.799999999999999E-003    8.760053002253971E-010
 -4.699999999999999E-003    1.364088407229183E-009
 -4.599999999999999E-003    1.833549332259087E-009
 -4.499999999999999E-003    2.253018642920611E-009
 -4.399999999999999E-003    2.589687115034443E-009
 -4.299999999999999E-003    2.810821925433167E-009
 -4.199999999999999E-003    2.885429125446020E-009
 -4.099999999999999E-003    2.786010105236870E-009
 -3.999999999999999E-003    2.490354399578763E-009
 -3.899999999999999E-003    1.983315437849565E-009
 -3.799999999999999E-003    1.258517450153834E-009
 -3.699999999999999E-003    3.199443200018940E-010
 -3.599999999999999E-003   -8.166333064875623E-010
 -3.499999999999999E-003   -2.122435903362523E-009
 -3.399999999999999E-003   -3.554696430219907E-009
 -3.299999999999999E-003   -5.055963462434123E-009
 -3.199999999999999E-003   -6.553720026025398E-009
 -3.099999999999999E-003   -7.960345775011639E-009
 -2.999999999999999E-003   -9.173448619399332E-009
 -2.899999999999999E-003   -1.007657792776564E-008
 -2.799999999999999E-003   -1.054032598625472E-008
 -2.699999999999999E-003   -1.042380477876871E-008
 -2.599999999999999E-003   -9.576477197968275E-009
 -2.499999999999999E-003   -7.840298143399421E-009
 -2.399999999999999E-003   -5.052112661399100E-009
 -2.299999999999999E-003   -1.046240442560192E-009
 -2.199999999999999E-003    4.342833435783278E-009
 -2.099999999999999E-003    1.127775858962600E-008
 -1.999999999999999E-003    1.991570637089654E-008
 -1.899999999999999E-003    3.040593104132655E-008
 -1.799999999999999E-003    4.288763268493815E-008
 -1.699999999999999E-003    5.748816975246361E-008
 -1.599999999999999E-003    7.432177463862467E-008
 -1.499999999999999E-003    9.348875312777578E-008
 -1.399999999999999E-003    1.150753460060034E-007
 -1.299999999999999E-003    1.391541729787902E-007
 -1.199999999999999E-003    1.657853805655597E-007
 -1.099999999999999E-003    1.950184104236027E-007
 -9.999999999999989E-004    2.268944654049166E-007
 -8.999999999999990E-004    2.614494348515797E-007
 -7.999999999999990E-004    2.987174983295743E-007
 -6.999999999999989E-004    3.387349911712131E-007
 -5.999999999999990E-004    3.815444574516036E-007
 -4.999999999999989E-004    4.271990633892067E-007
 -3.999999999999989E-004    4.757666285375523E-007
 -2.999999999999989E-004    5.273338241753443E-007
 -1.999999999999989E-004    5.820096681568454E-007
 -9.999999999999892E-005    6.399285179335475E-007
  1.084202172485504E-018    7.012526430829253E-007
  1.000000000000011E-004    7.661737907203388E-007
  2.000000000000011E-004    8.349141943913137E-007
  3.000000000000011E-004    9.077265002858386E-007
  4.000000000000011E-004    9.848930861895105E-007
  5.000000000000011E-004    1.066724465216264E-006
  6.000000000000011E-004    1.153557573894504E-006
  7.000000000000011E-004    1.245752925270418E-006
  8.000000000000011E-004    1.343691973783601E-006
  9.000000000000012E-004    1.447774132788355E-006
  1.000000000000001E-003    1.558414303448653E-006
  1.100000000000001E-003    1.676040278847234E-006
  1.200000000000001E-003    1.801090839955502E-006
  1.300000000000001E-003    1.934014924464389E-006
  1.400000000000001E-003    2.075270956623170E-006
  1.500000000000001E-003    2.225327458227091E-006
  1.600000000000001E-003    2.384664850812503E-006
  1.700000000000001E-003    2.553777386418874E-006
  1.800000000000001E-003    2.733177587330082E-006
  1.900000000000001E-003    2.923398945123369E-006
  2.000000000000001E-003    3.125001819069728E-006
  2.100000000000001E-003    3.338577690468080E-006
  2.200000000000001E-003    3.564754736085213E-006
  2.300000000000001E-003    3.804203069023700E-006
  2.400000000000001E-003    4.057639295932630E-006
  2.500000000000001E-003    4.325830957353307E-006
  2.600000000000001E-003    4.609600358052363E-006
  2.700000000000001E-003    4.909826936293285E-006
  2.800000000000001E-003    5.227450619165820E-006
  2.900000000000001E-003    5.563471469772081E-006
  3.000000000000001E-003    5.918950998832216E-006
  3.100000000000001E-003    6.295011549790034E-006
  3.200000000000001E-003    6.692835933619751E-006
  3.300000000000001E-003    7.113666154602174E-006
  3.400000000000001E-003    7.558801869051099E-006
  3.500000000000001E-003    8.029599244444504E-006
  3.600000000000001E-003    8.527470518531163E-006
  3.700000000000001E-003    9.053883302356542E-006
  3.800000000000001E-003    9.610362362508520E-006
  3.900000000000001E-003    1.019848858028798E-005
  4.000000000000001E-003    1.081990477635429E-005
  4.100000000000001E-003    1.147631591388188E-005
  4.200000000000001E-003    1.216949634661357E-005
  4.300000000000001E-003    1.290129293050792E-005
  4.400000000000001E-003    1.367363418599501E-005
  4.500000000000001E-003    1.448853478041516E-005
  4.600000000000002E-003    1.534810278816260E-005
  4.700000000000001E-003    1.625454899959722E-005
  4.800000000000001E-003    1.721018899145910E-005
  4.900000000000002E-003    1.821745779170973E-005
  5.000000000000001E-003    1.927890744424655E-005
  5.100000000000001E-003    2.039721759308414E-005
  5.200000000000001E-003    2.157519668686599E-005
  5.300000000000002E-003    2.281578596699455E-005
  5.400000000000001E-003    2.412206553363723E-005
  5.500000000000001E-003    2.549725475034324E-005
  5.600000000000002E-003    2.694471764886869E-005
  5.700000000000001E-003    2.846796535839848E-005
  5.800000000000001E-003    3.007066182915440E-005
  5.900000000000002E-003    3.175663147764295E-005
  6.000000000000001E-003    3.352986279921166E-005
  6.100000000000001E-003    3.539451924400236E-005
  6.200000000000002E-003    3.735494989964047E-005
  6.300000000000002E-003    3.941569300028667E-005
  6.400000000000001E-003    4.158148743026083E-005
  6.500000000000001E-003    4.385728695364488E-005
  6.600000000000002E-003    4.624825888911288E-005
  6.700000000000001E-003    4.875980639231355E-005
  6.800000000000001E-003    5.139755468561107E-005
  6.900000000000002E-003    5.416737129594705E-005
  7.000000000000001E-003    5.707535800652111E-005
  7.100000000000001E-003    6.012785089439903E-005
  7.200000000000002E-003    6.333143360493323E-005
  7.300000000000002E-003    6.669292914710579E-005
  7.400000000000001E-003    7.021940035513334E-005
  7.500000000000001E-003    7.391814879114712E-005
  7.600000000000002E-003    7.779673531966812E-005
  7.700000000000001E-003    8.186296661782666E-005
  7.800000000000001E-003    8.612492208865543E-005
  7.900000000000001E-003    9.059096811488607E-005
  8.000000000000002E-003    9.526975067522070E-005
  8.100000000000001E-003    1.001702397876835E-004
  8.200000000000001E-003    1.053017316681696E-004
  8.300000000000002E-003    1.106738696695677E-004
  8.400000000000001E-003    1.162966700134023E-004
  8.500000000000002E-003    1.221805253469229E-004
  8.600000000000002E-003    1.283362378987939E-004
  8.700000000000001E-003    1.347750337231831E-004
  8.800000000000002E-003    1.415085440667033E-004
  8.900000000000002E-003    1.485488576237088E-004
  9.000000000000001E-003    1.559084943122853E-004
  9.100000000000002E-003    1.636004482548273E-004
  9.200000000000002E-003    1.716381442689202E-004
  9.300000000000001E-003    1.800354806719308E-004
  9.400000000000002E-003    1.888068372629914E-004
  9.500000000000001E-003    1.979670630096955E-004
  9.600000000000001E-003    2.075314750294803E-004
  9.700000000000002E-003    2.175159140442736E-004
  9.800000000000001E-003    2.279367014194053E-004
  9.900000000000001E-003    2.388106752527539E-004
  1.000000000000000E-002    2.501552427577555E-004
  1.010000000000000E-002    2.619882661412317E-004
  1.020000000000000E-002    2.743282501415348E-004
  1.030000000000000E-002    2.871942284456174E-004
  1.040000000000000E-002    3.006058045964959E-004
  1.050000000000000E-002    3.145831803066760E-004
  1.060000000000000E-002    3.291471726372369E-004
  1.070000000000000E-002    3.443192189535963E-004
  1.080000000000000E-002    3.601213460666395E-004
  1.090000000000000E-002    3.765762254759548E-004
  1.100000000000000E-002    3.937071885363169E-004
  1.110000000000000E-002    4.115381566781272E-004
  1.120000000000000E-002    4.300937576751657E-004
  1.130000000000000E-002    4.493992403163285E-004
  1.140000000000000E-002    4.694804892712575E-004
  1.150000000000000E-002    4.903641391716716E-004
  1.160000000000000E-002    5.120773692065573E-004
  1.170000000000000E-002    5.346481708017417E-004
  1.180000000000000E-002    5.581052202385928E-004
  1.190000000000000E-002    5.824778582964780E-004
  1.200000000000000E-002    6.077962437105080E-004
  1.210000000000000E-002    6.340912293475384E-004
  1.220000000000000E-002    6.613944462856624E-004
  1.230000000000000E-002    6.897383563434048E-004
  1.240000000000000E-002    7.191562521989860E-004
  1.250000000000000E-002    7.496821820483659E-004
  1.260000000000000E-002    7.813510357598660E-004
  1.270000000000000E-002    8.141985602341741E-004
  1.280000000000000E-002    8.482613248771479E-004
  1.290000000000000E-002    8.835767277969650E-004
  1.300000000000000E-002    9.201830362729995E-004
  1.310000000000000E-002    9.581193007239738E-004
  1.320000000000000E-002    9.974252805203393E-004
  1.330000000000000E-002    1.038141664686609E-003
  1.340000000000000E-002    1.080309814408525E-003
  1.350000000000000E-002    1.123971807390210E-003
  1.360000000000000E-002    1.169170571689740E-003
  1.370000000000000E-002    1.215949562950657E-003
  1.380000000000000E-002    1.264353196162407E-003
  1.390000000000000E-002    1.314426390756997E-003
  1.400000000000000E-002    1.366214878398913E-003
  1.410000000000000E-002    1.419765078315027E-003
  1.420000000000000E-002    1.475124202912747E-003
  1.430000000000000E-002    1.532340076589381E-003
  1.440000000000000E-002    1.591461202300875E-003
  1.450000000000000E-002    1.652536942794577E-003
  1.460000000000000E-002    1.715617267439174E-003
  1.470000000000000E-002    1.780752971616169E-003
  1.480000000000000E-002    1.847995415883281E-003
  1.490000000000000E-002    1.917396574477641E-003
  1.500000000000000E-002    1.989009344573293E-003
  1.510000000000000E-002    2.062887058338676E-003
  1.520000000000000E-002    2.139083599616038E-003
  1.530000000000000E-002    2.217653415861203E-003
  1.540000000000000E-002    2.298651450883561E-003
  1.550000000000000E-002    2.382133151716048E-003
  1.560000000000000E-002    2.468154470244917E-003
  1.570000000000000E-002    2.556771870683897E-003
  1.580000000000000E-002    2.648041930190128E-003
  1.590000000000000E-002    2.742021848123148E-003
  1.600000000000000E-002    2.838768901297740E-003
  1.610000000000000E-002    2.938340590068290E-003
  1.620000000000000E-002    3.040795140171506E-003
  1.630000000000000E-002    3.146190406650314E-003
  1.640000000000000E-002    3.254584640362672E-003
  1.650000000000000E-002    3.366036294241677E-003
  1.660000000000000E-002    3.480603842699185E-003
  1.670000000000000E-002    3.598345533697367E-003
  1.680000000000000E-002    3.719319283406576E-003
  1.690000000000000E-002    3.843583302260938E-003
  1.700000000000000E-002    3.971195361164467E-003
  1.710000000000000E-002    4.102212945347830E-003
  1.720000000000000E-002    4.236693305982611E-003
  1.730000000000000E-002    4.374693161890014E-003
  1.740000000000000E-002    4.516268748144219E-003
  1.750000000000000E-002    4.661476012852663E-003
  1.760000000000000E-002    4.810370226969368E-003
  1.770000000000000E-002    4.963005975554304E-003
  1.780000000000000E-002    5.119436948691838E-003
  1.790000000000000E-002    5.279716407317244E-003
  1.800000000000000E-002    5.443896744042540E-003
  1.810000000000000E-002    5.612029294420695E-003
  1.820000000000000E-002    5.784164377766909E-003
  1.830000000000000E-002    5.960350711695309E-003
  1.840000000000000E-002    6.140636272642604E-003
  1.850000000000000E-002    6.325067737531772E-003
  1.860000000000000E-002    6.513690059798969E-003
  1.870000000000000E-002    6.706546484664914E-003