 -4.000000000000000E-002    0.000000000000000E+000
 -3.990000000000000E-002    0.000000000000000E+000
 -3.980000000000000E-002    0.000000000000000E+000
 -3.970000000000000E-002    0.000000000000000E+000
 -3.960000000000000E-002    0.000000000000000E+000
 -3.950000000000000E-002    0.000000000000000E+000
 -3.940000000000000E-002    0.000000000000000E+000
 -3.930000000000000E-002    0.000000000000000E+000
 -3.920000000000000E-002    0.000000000000000E+000
 -3.910000000000000E-002    0.000000000000000E+000
 -3.900000000000000E-002    0.000000000000000E+000
 -3.890000000000000E-002    0.000000000000000E+000
 -3.880000000000000E-002    0.000000000000000E+000
 -3.870000000000000E-002    0.000000000000000E+000
 -3.860000000000000E-002    0.000000000000000E+000
 -3.850000000000000E-002    0.000000000000000E+000
 -3.840000000000000E-002    0.000000000000000E+000
 -3.830000000000000E-002    0.000000000000000E+000
 -3.820000000000000E-002    0.000000000000000E+000
 -3.810000000000000E-002    0.000000000000000E+000
 -3.800000000000000E-002    0.000000000000000E+000
 -3.790000000000000E-002    0.000000000000000E+000
 -3.780000000000000E-002    0.000000000000000E+000
 -3.770000000000000E-002    0.000000000000000E+000
 -3.760000000000000E-002    0.000000000000000E+000
 -3.750000000000000E-002    0.000000000000000E+000
 -3.740000000000000E-002    0.000000000000000E+000
 -3.730000000000000E-002    0.000000000000000E+000
 -3.720000000000000E-002    0.000000000000000E+000
 -3.710000000000000E-002    0.000000000000000E+000
 -3.700000000000000E-002    0.000000000000000E+000
 -3.690000000000000E-002    0.000000000000000E+000
 -3.680000000000000E-002    0.000000000000000E+000
 -3.670000000000000E-002    0.000000000000000E+000
 -3.660000000000000E-002    0.000000000000000E+000
 -3.650000000000000E-002    0.000000000000000E+000
 -3.640000000000000E-002    0.000000000000000E+000
 -3.630000000000000E-002    0.000000000000000E+000
 -3.620000000000000E-002    0.000000000000000E+000
 -3.610000000000000E-002    0.000000000000000E+000
 -3.600000000000000E-002    0.000000000000000E+000
 -3.590000000000000E-002    0.000000000000000E+000
 -3.580000000000000E-002    0.000000000000000E+000
 -3.570000000000000E-002    0.000000000000000E+000
 -3.560000000000000E-002    0.000000000000000E+000
 -3.550000000000000E-002    0.000000000000000E+000
 -3.540000000000000E-002    0.000000000000000E+000
 -3.530000000000000E-002    0.000000000000000E+000
 -3.520000000000000E-002    0.000000000000000E+000
 -3.510000000000000E-002    0.000000000000000E+000
 -3.500000000000000E-002    0.000000000000000E+000
 -3.490000000000000E-002    0.000000000000000E+000
 -3.480000000000000E-002    0.000000000000000E+000
 -3.470000000000000E-002    0.000000000000000E+000
 -3.460000000000000E-002    0.000000000000000E+000
 -3.450000000000000E-002    0.000000000000000E+000
 -3.440000000000000E-002    0.000000000000000E+000
 -3.430000000000000E-002    0.000000000000000E+000
 -3.420000000000000E-002    0.000000000000000E+000
 -3.410000000000000E-002    0.000000000000000E+000
 -3.400000000000000E-002    0.000000000000000E+000
 -3.390000000000000E-002    0.000000000000000E+000
 -3.380000000000000E-002    0.000000000000000E+000
 -3.370000000000000E-002    0.000000000000000E+000
 -3.360000000000000E-002    0.000000000000000E+000
 -3.350000000000000E-002    0.000000000000000E+000
 -3.340000000000000E-002    0.000000000000000E+000
 -3.330000000000000E-002    0.000000000000000E+000
 -3.320000000000000E-002    0.000000000000000E+000
 -3.310000000000000E-002    0.000000000000000E+000
 -3.300000000000000E-002    0.000000000000000E+000
 -3.290000000000000E-002    0.000000000000000E+000
 -3.280000000000000E-002    0.000000000000000E+000
 -3.270000000000000E-002    0.000000000000000E+000
 -3.260000000000000E-002    0.000000000000000E+000
 -3.250000000000000E-002    0.000000000000000E+000
 -3.240000000000000E-002    0.000000000000000E+000
 -3.230000000000000E-002    0.000000000000000E+000
 -3.220000000000000E-002    0.000000000000000E+000
 -3.210000000000000E-002    0.000000000000000E+000
 -3.200000000000000E-002    2.138211768073757E-048
 -3.190000000000000E-002    6.121959411835589E-047
 -3.180000000000000E-002    1.053334940921217E-046
 -3.170000000000000E-002    2.064573021995424E-046
 -3.160000000000000E-002    3.097193220750368E-046
 -3.150000000000000E-002    4.044284948782362E-046
 -3.140000000000000E-002    4.691359653769566E-046
 -3.130000000000000E-002    3.501179159691628E-046
 -3.120000000000000E-002   -3.090247244208537E-046
 -3.110000000000000E-002   -1.542275919477780E-045
 -3.100000000000000E-002   -3.705609186021140E-045
 -3.090000000000000E-002   -7.699622319082809E-045
 -3.080000000000000E-002   -1.274877231204953E-044
 -3.070000000000000E-002   -1.872121184999985E-044
 -3.060000000000000E-002   -2.435477888743516E-044
 -3.050000000000000E-002   -2.786235320550176E-044
 -3.040000000000000E-002   -2.486943154374269E-044
 -3.030000000000000E-002   -8.745210671748659E-045
 -3.020000000000000E-002    3.170077917423827E-044
 -3.010000000000000E-002    1.096525553177174E-043
 -3.000000000000000E-002    2.366319846103714E-043
 -2.990000000000000E-002    4.221510036365657E-043
 -2.980000000000000E-002    6.611227163182755E-043
 -2.970000000000000E-002    9.240383743041885E-043
 -2.960000000000000E-002    1.141024762212555E-042
 -2.950000000000000E-002    1.182914136522145E-042
 -2.940000000000000E-002    8.457801000680017E-043
 -2.930000000000000E-002   -1.570102885454472E-043
 -2.920000000000000E-002   -2.184858327817790E-042
 -2.910000000000000E-002   -5.621751577569674E-042
 -2.900000000000000E-002   -1.077231438761761E-041
 -2.890000000000000E-002   -1.769063940416555E-041
 -2.880000000000000E-002   -2.591172842134810E-041
 -2.870000000000000E-002   -3.409404272248912E-041
 -2.860000000000000E-002   -3.958458471939457E-041
 -2.850000000000000E-002   -3.798456061098704E-041
 -2.840000000000000E-002   -2.281808419116255E-041
 -2.830000000000000E-002    1.446416091646247E-041
 -2.820000000000000E-002    8.385363878748335E-041
 -2.810000000000000E-002    1.951356040019908E-040
 -2.800000000000000E-002    3.547413769398286E-040
 -2.790000000000000E-002    5.606770892321318E-040
 -2.780000000000000E-002    7.952455145205196E-040
 -2.770000000000000E-002    1.015703322562021E-039
 -2.760000000000000E-002    1.143766459095431E-039
 -2.750000000000000E-002    1.056038923451713E-039
 -2.740000000000000E-002    5.790896636623233E-040
 -2.730000000000000E-002   -5.051027058589360E-040
 -2.720000000000000E-002   -2.435620010457024E-039
 -2.710000000000000E-002   -5.421753489077538E-039
 -2.700000000000000E-002   -9.555675688461803E-039
 -2.690000000000000E-002   -1.468232332029381E-038
 -2.680000000000000E-002   -2.022753053838572E-038
 -2.670000000000000E-002   -2.499875235176840E-038
 -2.660000000000000E-002   -2.699313850563580E-038
 -2.650000000000000E-002   -2.327485422226452E-038
 -2.640000000000000E-002   -1.001498608943205E-038
 -2.630000000000000E-002    1.718303911875172E-038
 -2.620000000000000E-002    6.253189152580026E-038
 -2.610000000000000E-002    1.287509889389735E-037
 -2.600000000000000E-002    2.151217510471402E-037
 -2.590000000000000E-002    3.149478034049048E-037
 -2.580000000000000E-002    4.126577505573752E-037
 -2.570000000000000E-002    4.810670917305474E-037
 -2.560000000000000E-002    4.796601135894941E-037
 -2.550000000000000E-002    3.551115590165989E-037
 -2.540000000000000E-002    4.555520172791387E-038
 -2.530000000000000E-002   -5.098090844613002E-037
 -2.520000000000000E-002   -1.354457952025323E-036
 -2.510000000000000E-002   -2.491146953307789E-036
 -2.500000000000000E-002   -3.852389823321246E-036
 -2.490000000000000E-002   -5.268089486179923E-036
 -2.480000000000000E-002   -6.436498435427418E-036
 -2.470000000000000E-002   -6.907914225736998E-036
 -2.460000000000000E-002   -6.093436289021881E-036
 -2.450000000000000E-002   -3.312818106543400E-036
 -2.440000000000000E-002    2.105255154080929E-036
 -2.430000000000000E-002    1.066150003000457E-035
 -2.420000000000000E-002    2.246315623148363E-035
 -2.410000000000000E-002    3.695458599645004E-035
 -2.400000000000000E-002    5.263545448485793E-035
 -2.390000000000000E-002    6.682317580864910E-035
 -2.380000000000000E-002    7.553837346899517E-035
 -2.370000000000000E-002    7.360848441764742E-035
 -2.360000000000000E-002    5.508820493176058E-035
 -2.350000000000000E-002    1.407932873936197E-035
 -2.340000000000000E-002   -5.401053761660186E-035
 -2.330000000000000E-002   -1.508038880534622E-034
 -2.320000000000000E-002   -2.730197523012716E-034
 -2.310000000000000E-002   -4.105298239773656E-034
 -2.300000000000000E-002   -5.447910333767712E-034
 -2.290000000000000E-002   -6.481487301034666E-034
 -2.280000000000000E-002   -6.845609586202528E-034
 -2.270000000000000E-002   -6.122654052749447E-034
 -2.260000000000000E-002   -3.887685723107639E-034
 -2.250000000000000E-002    2.173641422007432E-035
 -2.240000000000000E-002    6.388189624813487E-034
 -2.230000000000000E-002    1.454922179799090E-033
 -2.220000000000000E-002    2.424473689772209E-033
 -2.210000000000000E-002    3.454830146492118E-033
 -2.200000000000000E-002    4.401244105985392E-033
 -2.190000000000000E-002    5.068147404283357E-033
 -2.180000000000000E-002    5.218829865688978E-033
 -2.170000000000000E-002    4.595007756720005E-033
 -2.160000000000000E-002    2.946848494580342E-033
 -2.150000000000000E-002    7.282891198617980E-035
 -2.140000000000000E-002   -4.132528214455465E-033
 -2.130000000000000E-002   -9.626293597684167E-033
 -2.120000000000000E-002   -1.616459623008056E-032
 -2.110000000000000E-002   -2.325533226364471E-032
 -2.100000000000000E-002   -3.012243939593538E-032
 -2.090000000000000E-002   -3.568899133522741E-032
 -2.080000000000000E-002   -3.858764290640907E-032
 -2.070000000000000E-002   -3.720872753552589E-032
 -2.060000000000000E-002   -2.979850859994118E-032
 -2.050000000000000E-002   -1.462226174716506E-032
 -2.040000000000000E-002    9.792245037857778E-033
 -2.030000000000000E-002    4.431762517522358E-032
 -2.020000000000000E-002    8.879076562120585E-032
 -2.010000000000000E-002    1.414890875513059E-031
 -2.000000000000000E-002    1.985576830036858E-031
 -1.990000000000000E-002    2.534646234251863E-031
 -1.980000000000000E-002    2.966093439976785E-031
 -1.970000000000000E-002    3.152590888863164E-031
 -1.960000000000000E-002    2.940297044230596E-031
 -1.950000000000000E-002    2.161425517538892E-031
 -1.940000000000000E-002    6.566040538579050E-032
 -1.930000000000000E-002   -1.691886265542891E-031
 -1.920000000000000E-002   -4.916635573150090E-031
 -1.910000000000000E-002   -8.914593094937140E-031
 -1.900000000000000E-002   -1.339595863627951E-030
 -1.890000000000000E-002   -1.784245824599789E-030
 -1.880000000000000E-002   -2.148817219028427E-030
 -1.870000000000000E-002   -2.333801948193050E-030
 -1.860000000000000E-002   -2.223869263181320E-030
 -1.850000000000000E-002   -1.701320113602126E-030
 -1.840000000000000E-002   -6.662549359090522E-031
 -1.830000000000000E-002    9.373797600443116E-031
 -1.820000000000000E-002    3.092247037799588E-030
 -1.810000000000000E-002    5.678686639723113E-030
 -1.800000000000000E-002    8.452146173722007E-030
 -1.790000000000000E-002    1.103388274433505E-029
 -1.780000000000000E-002    1.292210695920260E-029
 -1.770000000000000E-002    1.352966906687393E-029
 -1.760000000000000E-002    1.225172305145057E-029
 -1.750000000000000E-002    8.562414845402838E-030
 -1.740000000000000E-002    2.133868489643197E-030
 -1.730000000000000E-002   -7.035900409503924E-030
 -1.720000000000000E-002   -1.850587245709510E-029
 -1.710000000000000E-002   -3.131026947976188E-029
 -1.700000000000000E-002   -4.393850731582181E-029
 -1.690000000000000E-002   -5.440053747597720E-029
 -1.680000000000000E-002   -6.039340148664992E-029
 -1.670000000000000E-002   -5.957142394217984E-029
 -1.660000000000000E-002   -4.990464366719575E-029
 -1.650000000000000E-002   -3.008992140132640E-029
 -1.640000000000000E-002    4.020779871800340E-032
 -1.630000000000000E-002    3.918022368411944E-029
 -1.620000000000000E-002    8.436062233738865E-029
 -1.610000000000000E-002    1.309709084572501E-028
 -1.600000000000000E-002    1.730427797279660E-028
 -1.590000000000000E-002    2.038048453416952E-028
 -1.580000000000000E-002    2.164748110129361E-028
 -1.570000000000000E-002    2.052068953562097E-028
 -1.560000000000000E-002    1.660691274740649E-028
 -1.550000000000000E-002    9.789831153315160E-029
 -1.540000000000000E-002    2.877868270911500E-030
 -1.530000000000000E-002   -1.132877789714949E-028
 -1.520000000000000E-002   -2.416701057312422E-028
 -1.510000000000000E-002   -3.708693462912269E-028
 -1.500000000000000E-002   -4.881161764593996E-028
 -1.490000000000000E-002   -5.805323005233823E-028
 -1.480000000000000E-002   -6.363122834011190E-028
 -1.470000000000000E-002   -6.455924689410366E-028
 -1.460000000000000E-002   -6.008429700386732E-028
 -1.450000000000000E-002   -4.967543200558041E-028
 -1.440000000000000E-002   -3.297658486846803E-028
 -1.430000000000000E-002   -9.757188355367660E-029
 -1.420000000000000E-002    2.009212404439069E-028
 -1.410000000000000E-002    5.646741904984676E-028
 -1.400000000000000E-002    9.882350927192027E-028
 -1.390000000000000E-002    1.458001047705942E-027
 -1.380000000000000E-002    1.947385593840681E-027
 -1.370000000000000E-002    2.411827648936193E-027
 -1.360000000000000E-002    2.785143758283223E-027
 -1.350000000000000E-002    2.979125983031592E-027
 -1.340000000000000E-002    2.888370215815265E-027
 -1.330000000000000E-002    2.401897670827737E-027
 -1.320000000000000E-002    1.422153560803065E-027
 -1.310000000000000E-002   -1.095713723956049E-028
 -1.300000000000000E-002   -2.184185715021797E-027
 -1.290000000000000E-002   -4.697210800638050E-027
 -1.280000000000000E-002   -7.429103180755741E-027
 -1.270000000000000E-002   -1.004079775621891E-026
 -1.260000000000000E-002   -1.209117546478001E-026
 -1.250000000000000E-002   -1.308083242057603E-026
 -1.240000000000000E-002   -1.252242825774906E-026
 -1.230000000000000E-002   -1.003235255114100E-026
 -1.220000000000000E-002   -5.432166072060862E-027
 -1.210000000000000E-002    1.157505230190773E-027
 -1.200000000000000E-002    9.251863169582435E-027
 -1.190000000000000E-002    1.798739652737019E-026
 -1.180000000000000E-002    2.617576640669791E-026
 -1.170000000000000E-002    3.243489543263537E-026
 -1.160000000000000E-002    3.539250604129987E-026
 -1.150000000000000E-002    3.394060056670228E-026
 -1.140000000000000E-002    2.750254219519841E-026
 -1.130000000000000E-002    1.626079692896134E-026
 -1.120000000000000E-002    1.287246927917341E-027
 -1.110000000000000E-002   -1.547730054961021E-026
 -1.100000000000000E-002   -3.143003120054465E-026
 -1.090000000000000E-002   -4.370422462784802E-026
 -1.080000000000000E-002   -4.972257253519105E-026
 -1.070000000000000E-002   -4.782515592083579E-026
 -1.060000000000000E-002   -3.785165110202300E-026
 -1.050000000000000E-002   -2.153297819470145E-026
 -1.040000000000000E-002   -2.548153712054890E-027
 -1.030000000000000E-002    1.386465754477228E-026
 -1.020000000000000E-002    2.178617628570563E-026
 -1.010000000000000E-002    1.592811939302420E-026
 -1.000000000000000E-002   -6.790361073446564E-027
 -9.899999999999999E-003   -4.568431829895323E-026
 -9.800000000000000E-003   -9.512855533007392E-026
 -9.699999999999999E-003   -1.441610357879251E-025
 -9.599999999999999E-003   -1.772085510312544E-025
 -9.500000000000000E-003   -1.761386106342421E-025
 -9.399999999999999E-003   -1.236143881065299E-025
 -9.299999999999999E-003   -7.439152057623444E-027
 -9.200000000000000E-003    1.747336214977841E-025
 -9.099999999999999E-003    4.112202511865676E-025
 -8.999999999999999E-003    6.737144271216881E-025
 -8.900000000000000E-003    9.173296418118192E-025
 -8.799999999999999E-003    1.084094455092499E-024
 -8.699999999999999E-003    1.110252085673896E-024
 -8.600000000000000E-003    9.370527320295929E-025
 -8.499999999999999E-003    5.239322245563783E-025
 -8.399999999999999E-003   -1.378110172485651E-025
 -8.300000000000000E-003   -1.013354795142522E-024
 -8.199999999999999E-003   -2.017517220074576E-024
 -8.100000000000000E-003   -3.015374229291791E-024
 -8.000000000000000E-003   -3.832228723352579E-024
 -7.899999999999999E-003   -4.273541518137547E-024
 -7.800000000000000E-003   -4.153719222788480E-024
 -7.699999999999999E-003   -3.330730868949498E-024
 -7.599999999999999E-003   -1.741726891350389E-024
 -7.499999999999999E-003    5.664789281986817E-025
 -7.399999999999999E-003    3.418638533491545E-024
 -7.299999999999999E-003    6.509909845530706E-024
 -7.199999999999999E-003    9.426281048066893E-024
 -7.100000000000000E-003    1.168747599215861E-023
 -6.999999999999999E-003    1.280939710770727E-023
 -6.899999999999999E-003    1.237911317663440E-023
 -6.800000000000000E-003    1.013187093445693E-023
 -6.699999999999999E-003    6.017414939792132E-024
 -6.599999999999999E-003    2.426827161221826E-025
 -6.499999999999999E-003   -6.719886140442168E-024
 -6.399999999999999E-003   -1.416460793571635E-023
 -6.299999999999999E-003   -2.122508819372303E-023
 -6.199999999999999E-003   -2.697926581586523E-023
 -6.100000000000000E-003   -3.057218152474737E-023
 -5.999999999999999E-003   -3.133655072098405E-023
 -5.899999999999999E-003   -2.888933005931990E-023
 -5.800000000000000E-003   -2.318499685493899E-023
 -5.699999999999999E-003   -1.451316699624254E-023
 -5.599999999999999E-003   -3.439016012997658E-024
 -5.499999999999999E-003    9.302143798353800E-024
 -5.399999999999999E-003    2.293219815732744E-023
 -5.299999999999999E-003    3.674639183448445E-023
 -5.199999999999999E-003    5.018231740803008E-023
 -5.099999999999999E-003    6.281132034969833E-023
 -4.999999999999999E-003    7.423644540960751E-023
 -4.899999999999999E-003    8.390391462273045E-023
 -4.799999999999999E-003    9.086250104945130E-023
 -4.699999999999999E-003    9.353216292267121E-023
 -4.599999999999999E-003    8.956359365768069E-023
 -4.499999999999999E-003    7.587688337149795E-023
 -4.399999999999999E-003    4.895524418651869E-023
 -4.299999999999999E-003    5.435942399405656E-024
 -4.199999999999999E-003   -5.701425561302426E-023
 -4.099999999999999E-003   -1.386211120234309E-022
 -3.999999999999999E-003   -2.363783395708239E-022
 -3.899999999999999E-003   -3.430963529692037E-022
 -3.799999999999999E-003   -4.468838108211269E-022
 -3.699999999999999E-003   -5.313194173451862E-022
 -3.599999999999999E-003   -5.765203628985166E-022
 -3.499999999999999E-003   -5.612072898077600E-022
 -3.399999999999999E-003   -4.657124801916680E-022
 -3.299999999999999E-003   -2.756924049151331E-022
 -3.199999999999999E-003    1.388356400387959E-023
 -3.099999999999999E-003    3.950581817785591E-022
 -2.999999999999999E-003    8.442125094686109E-022
 -2.899999999999999E-003    1.321085592853519E-021
 -2.799999999999999E-003    1.770063033459044E-021
 -2.699999999999999E-003    2.124082580381445E-021
 -2.599999999999999E-003    2.311161659410781E-021
 -2.499999999999999E-003    2.263148254510075E-021
 -2.399999999999999E-003    1.925877015185632E-021
 -2.299999999999999E-003    1.269544463907660E-021
 -2.199999999999999E-003    2.978742234338817E-022
 -2.099999999999999E-003   -9.454218721629175E-022
 -1.999999999999999E-003   -2.374228985400830E-021
 -1.899999999999999E-003   -3.862627972116060E-021
 -1.799999999999999E-003   -5.252906285821824E-021
 -1.699999999999999E-003   -6.368691083869297E-021
 -1.599999999999999E-003   -7.032184519415424E-021
 -1.499999999999999E-003   -7.083856738015483E-021
 -1.399999999999999E-003   -6.402470806644324E-021
 -1.299999999999999E-003   -4.923162464099520E-021
 -1.199999999999999E-003   -2.651406321033650E-021
 -1.099999999999999E-003    3.288505736193485E-022
 -9.999999999999989E-004    3.853926809724823E-021
 -8.999999999999990E-004    7.686244009005323E-021
 -7.999999999999990E-004    1.152671547254140E-020
 -6.999999999999989E-004    1.503248410347812E-020
 -5.999999999999990E-004    1.783846491394541E-020
 -4.999999999999989E-004    1.958115284705415E-020
 -3.999999999999989E-004    1.992342680851898E-020
 -2.999999999999989E-004    1.857965538218316E-020
 -1.999999999999989E-004    1.534094931677332E-020
 -9.999999999999892E-005    1.010082093515791E-020
  1.084202172485504E-018    2.881514401353397E-021
  1.000000000000011E-004   -6.139279444856372E-021
  2.000000000000011E-004   -1.660276221885398E-020
  3.000000000000011E-004   -2.794748548302873E-020
  4.000000000000011E-004   -3.939686672797351E-020
  5.000000000000011E-004   -4.996236704453620E-020
  6.000000000000011E-004   -5.846995599982174E-020
  7.000000000000011E-004   -6.361707896928476E-020
  8.000000000000011E-004   -6.406556089346294E-020
  9.000000000000012E-004   -5.857197000299025E-020
  1.000000000000001E-003   -4.615141565474366E-020
  1.100000000000001E-003   -2.626389457903508E-020
  1.200000000000001E-003    9.949932788611197E-022
  1.300000000000001E-003    3.472375595478775E-020
  1.400000000000001E-003    7.309449174604899E-020
  1.500000000000001E-003    1.133125736957060E-019
  1.600000000000001E-003    1.516839970421414E-019
  1.700000000000001E-003    1.838096646029733E-019
  1.800000000000001E-003    2.049131040878987E-019
  1.900000000000001E-003    2.102915107439075E-019
  2.000000000000001E-003    1.958615902974432E-019
  2.100000000000001E-003    1.587525157625346E-019
  2.200000000000001E-003    9.788368434329301E-020
  2.300000000000001E-003    1.445435906812162E-020
  2.400000000000001E-003   -8.772944686273261E-020
  2.500000000000001E-003   -2.021581083218746E-019
  2.600000000000001E-003   -3.198021474019392E-019
  2.700000000000001E-003   -4.296012614879322E-019
  2.800000000000001E-003   -5.192515272484334E-019
  2.900000000000001E-003   -5.762492793273192E-019
  3.000000000000001E-003   -5.891158198704618E-019
  3.100000000000001E-003   -5.486995445303171E-019
  3.200000000000001E-003   -4.494325263911056E-019
  3.300000000000001E-003   -2.904117333980434E-019
  3.400000000000001E-003   -7.618070145312541E-020
  3.500000000000001E-003    1.828940053550067E-019
  3.600000000000001E-003    4.707265952095270E-019
  3.700000000000001E-003    7.661351544390093E-019
  3.800000000000001E-003    1.043980479675712E-018
  3.900000000000001E-003    1.276776764476687E-018
  4.000000000000001E-003    1.436692919219710E-018
  4.100000000000001E-003    1.497830293442148E-018
  4.200000000000001E-003    1.438639555168345E-018
  4.300000000000001E-003    1.244321341589646E-018
  4.400000000000001E-003    9.090427881466306E-019
  4.500000000000001E-003    4.377969943004501E-019
  4.600000000000002E-003   -1.522722928179899E-019
  4.700000000000001E-003   -8.312541627113702E-019
  4.800000000000001E-003   -1.556727153403949E-018
  4.900000000000002E-003   -2.275034329962756E-018
  5.000000000000001E-003   -2.923681646012313E-018
  5.100000000000001E-003   -3.434916623893021E-018
  5.200000000000001E-003   -3.740445253963841E-018
  5.300000000000002E-003   -3.777155165288864E-018
  5.400000000000001E-003   -3.493564938780849E-018
  5.500000000000001E-003   -2.856588955980425E-018
  5.600000000000002E-003   -1.858057163115306E-018
  5.700000000000001E-003   -5.203109569099972E-019
  5.800000000000001E-003    1.099877206741430E-018
  5.900000000000002E-003    2.909819588926896E-018
  6.000000000000001E-003    4.782547633308074E-018
  6.100000000000001E-003    6.562067097799054E-018
  6.200000000000002E-003    8.072452053710768E-018
  6.300000000000002E-003    9.130636151004193E-018
  6.400000000000001E-003    9.562330337796197E-018
  6.500000000000001E-003    9.220046992317210E-018
  6.600000000000002E-003    8.001788702255607E-018
  6.700000000000001E-003    5.868635955760360E-018
  6.800000000000001E-003    2.859267096948206E-018
  6.900000000000002E-003   -9.005779838565575E-019
  7.000000000000001E-003   -5.195452174242267E-018
  7.100000000000001E-003   -9.725743111583000E-018
  7.200000000000002E-003   -1.412214929736191E-017
  7.300000000000002E-003   -1.796901044623962E-017
  7.400000000000001E-003   -2.083557840154915E-017
  7.500000000000001E-003   -2.231338341489099E-017
  7.600000000000002E-003   -2.205700840361932E-017
  7.700000000000001E-003   -1.982492967076738E-017
  7.800000000000001E-003   -1.551663885252167E-017
  7.900000000000001E-003   -9.202148616867016E-018
  8.000000000000002E-003   -1.140178942376244E-018
  8.100000000000001E-003    8.218078874729721E-018
  8.200000000000001E-003    1.824182474136839E-017
  8.300000000000002E-003    2.815116051680357E-017
  8.400000000000001E-003    3.706484470939241E-017
  8.500000000000002E-003    4.406336060303430E-017
  8.600000000000002E-003    4.826383722651010E-017
  8.700000000000001E-003    4.890199828308914E-017
  8.800000000000002E-003    4.541497677028692E-017
  8.900000000000002E-003    3.751817672743955E-017
  9.000000000000001E-003    2.526876028263000E-017
  9.100000000000002E-003    9.108632760318073E-018
  9.200000000000002E-003   -1.011961897619289E-017
  9.300000000000001E-003   -3.118887865743868E-017
  9.400000000000002E-003   -5.253902382640144E-017
  9.500000000000001E-003   -7.236445822690753E-017
  9.600000000000001E-003   -8.873528277754499E-017
  9.700000000000002E-003   -9.974681486493418E-017
  9.800000000000001E-003   -1.036885517601463E-016
  9.900000000000001E-003   -9.922088283111921E-017
  1.000000000000000E-002   -8.554531777710230E-017
  1.010000000000000E-002   -6.255236251921928E-017
  1.020000000000000E-002   -3.093075368122506E-017
  1.030000000000000E-002    7.777414289710307E-018
  1.040000000000000E-002    5.118870831098154E-017
  1.050000000000000E-002    9.616633068691947E-017
  1.060000000000000E-002    1.389877464373703E-016
  1.070000000000000E-002    1.755888418467435E-016
  1.080000000000000E-002    2.018741148840362E-016
  1.090000000000000E-002    2.140750829613457E-016
  1.100000000000000E-002    2.091318382198665E-016
  1.110000000000000E-002    1.850672757918027E-016
  1.120000000000000E-002    1.413189921732471E-016
  1.130000000000000E-002    7.899356205083996E-017
  1.140000000000000E-002    1.008472285527388E-018
  1.150000000000000E-002   -8.790688724803630E-017
  1.160000000000000E-002   -1.813721704404116E-016
  1.170000000000000E-002   -2.716877695973988E-016
  1.180000000000000E-002   -3.503330073911369E-016
  1.190000000000000E-002   -4.086100521441402E-016
  1.200000000000000E-002   -4.383977373059826E-016
  1.210000000000000E-002   -4.329635596669703E-016
  1.220000000000000E-002   -3.877697483022251E-016
  1.230000000000000E-002   -3.012004952992075E-016
  1.240000000000000E-002   -1.751329675077516E-016
  1.250000000000000E-002   -1.527798955408541E-017
  1.260000000000000E-002    1.687743958546793E-016
  1.270000000000000E-002    3.638525876419940E-016
  1.280000000000000E-002    5.538690071116975E-016
  1.290000000000000E-002    7.208471016862191E-016
  1.300000000000000E-002    8.462709830814903E-016
  1.310000000000000E-002    9.126840360280381E-016
  1.320000000000000E-002    9.054265906902184E-016
  1.330000000000000E-002    8.143763675907992E-016
  1.340000000000000E-002    6.355328705328414E-016
  1.350000000000000E-002    3.722773002347066E-016
  1.360000000000000E-002    3.614781363884766E-017
  1.370000000000000E-002   -3.530145443450422E-016
  1.380000000000000E-002   -7.676512436553398E-016
  1.390000000000000E-002   -1.173858625818127E-015
  1.400000000000000E-002   -1.533529499271862E-015
  1.410000000000000E-002   -1.807185381094822E-015
  1.420000000000000E-002   -1.957334896302630E-015
  1.430000000000000E-002   -1.952131848178770E-015
  1.440000000000000E-002   -1.769043175743324E-015
  1.450000000000000E-002   -1.398197992036422E-015
  1.460000000000000E-002   -8.450778487739889E-016
  1.470000000000000E-002   -1.322163489905858E-016
  1.480000000000000E-002    7.003750407610430E-016
  1.490000000000000E-002    1.596261805837461E-015
  1.500000000000000E-002    2.485228604438947E-015
  1.510000000000000E-002    3.287492229733786E-015
  1.520000000000000E-002    3.919317834267444E-015
  1.530000000000000E-002    4.299752926645259E-015
  1.540000000000000E-002    4.358041794951737E-015
  1.550000000000000E-002    4.041180810910323E-015
  1.560000000000000E-002    3.320995278841255E-015
  1.570000000000000E-002    2.200073285753624E-015
  1.580000000000000E-002    7.159118902647118E-016
  1.590000000000000E-002   -1.057318081706594E-015
  1.600000000000000E-002   -3.009847469142385E-015
  1.610000000000000E-002   -5.000535931594898E-015
  1.620000000000000E-002   -6.864320896508335E-015
  1.630000000000000E-002   -8.422725800570326E-015
  1.640000000000000E-002   -9.496982913777192E-015
  1.650000000000000E-002   -9.923066427370445E-015
  1.660000000000000E-002   -9.567632132191695E-015
  1.670000000000000E-002   -8.343711925120442E-015
  1.680000000000000E-002   -6.224790278029739E-015
  1.690000000000000E-002   -3.255873527131696E-015
  1.700000000000000E-002    4.398227408915817E-016
  1.710000000000000E-002    4.659770977366316E-015
  1.720000000000000E-002    9.127525890690780E-015
  1.730000000000000E-002    1.350513475603071E-014
  1.740000000000000E-002    1.741252042548747E-014
  1.750000000000000E-002    2.045326590256978E-014
  1.760000000000000E-002    2.224551081120821E-014
  1.770000000000000E-002    2.245611135360859E-014
  1.780000000000000E-002    2.083559437406086E-014
  1.790000000000000E-002    1.725107753915352E-014
  1.800000000000000E-002    1.171403665102478E-014
  1.810000000000000E-002    4.399804702398603E-015
  1.820000000000000E-002   -4.343974287194584E-015
  1.830000000000000E-002   -1.400222858558892E-014
  1.840000000000000E-002   -2.391205926576876E-014
  1.850000000000000E-002   -3.329741711013038E-014
  1.860000000000000E-002   -4.131789285183931E-014
  1.870000000000000E-002   -4.712939078752172E-014