 -4.000000000000000E-002    0.000000000000000E+000
 -3.990000000000000E-002    0.000000000000000E+000
 -3.980000000000000E-002    0.000000000000000E+000
 -3.970000000000000E-002   -5.082152403475740E-014
 -3.960000000000000E-002   -3.052120741642729E-013
 -3.950000000000000E-002   -1.017906846182366E-012
 -3.940000000000000E-002   -2.462465945959984E-012
 -3.930000000000000E-002   -4.763741018075097E-012
 -3.920000000000000E-002   -7.678233654456348E-012
 -3.910000000000000E-002   -1.038133629238320E-011
 -3.900000000000000E-002   -1.133348073217827E-011
 -3.890000000000000E-002   -8.292787080081030E-012
 -3.880000000000000E-002    1.480115924507754E-012
 -3.870000000000000E-002    2.081523043052810E-011
 -3.860000000000000E-002    5.205747614145768E-011
 -3.850000000000000E-002    9.639728457381752E-011
 -3.840000000000000E-002    1.532150797911089E-010
 -3.830000000000000E-002    2.195627950835341E-010
 -3.820000000000000E-002    2.899002186493156E-010
 -3.810000000000000E-002    3.561768318562633E-010
 -3.800000000000000E-002    4.083040799603416E-010
 -3.790000000000000E-002    4.350062501098654E-010
 -3.780000000000000E-002    4.249780772548726E-010
 -3.770000000000000E-002    3.682258368937656E-010
 -3.760000000000000E-002    2.574323472662923E-010
 -3.750000000000000E-002    8.917437499181363E-011
 -3.740000000000000E-002   -1.351674261983730E-010
 -3.730000000000000E-002   -4.089293203916351E-010
 -3.720000000000000E-002   -7.201856317262927E-010
 -3.710000000000000E-002   -1.052276708609337E-009
 -3.700000000000000E-002   -1.384787089546470E-009
 -3.690000000000000E-002   -1.694865894046334E-009
 -3.680000000000000E-002   -1.958746816465621E-009
 -3.670000000000000E-002   -2.153312386176184E-009
 -3.660000000000000E-002   -2.257559479439519E-009
 -3.650000000000000E-002   -2.253852238787371E-009
 -3.640000000000000E-002   -2.128892338765656E-009
 -3.630000000000000E-002   -1.874386383417630E-009
 -3.620000000000000E-002   -1.487434120955620E-009
 -3.610000000000000E-002   -9.706964477990999E-010
 -3.600000000000000E-002   -3.324211336249252E-010
 -3.590000000000000E-002    4.135970022319364E-010
 -3.580000000000000E-002    1.248061270281813E-009
 -3.570000000000000E-002    2.146197411501120E-009
 -3.560000000000000E-002    3.077768574880796E-009
 -3.550000000000000E-002    4.007143703560866E-009
 -3.540000000000000E-002    4.893506864032479E-009
 -3.530000000000000E-002    5.691338217278326E-009
 -3.520000000000000E-002    6.351292872738649E-009
 -3.510000000000000E-002    6.821598599216131E-009
 -3.500000000000000E-002    7.050062027426755E-009
 -3.490000000000000E-002    6.986711323792483E-009
 -3.480000000000000E-002    6.587035438899670E-009
 -3.470000000000000E-002    5.815695663272497E-009
 -3.460000000000000E-002    4.650493593543636E-009
 -3.450000000000000E-002    3.086302794772266E-009
 -3.440000000000000E-002    1.138609062748934E-009
 -3.430000000000000E-002   -1.153733880447690E-009
 -3.420000000000000E-002   -3.726916786920294E-009
 -3.410000000000000E-002   -6.492094516480755E-009
 -3.400000000000000E-002   -9.337060554551288E-009
 -3.390000000000000E-002   -1.212979367487347E-008
 -3.380000000000000E-002   -1.472383650128803E-008
 -3.370000000000000E-002   -1.696529274722030E-008
 -3.360000000000000E-002   -1.870106825705847E-008
 -3.350000000000000E-002   -1.978784031473806E-008
 -3.340000000000000E-002   -2.010115289646738E-008
 -3.330000000000000E-002   -1.954398967497580E-008
 -3.320000000000000E-002   -1.805421468447219E-008
 -3.310000000000000E-002   -1.561034611795292E-008
 -3.300000000000000E-002   -1.223527925351716E-008
 -3.290000000000000E-002   -7.997734938488631E-009
 -3.280000000000000E-002   -3.011377548657018E-009
 -3.270000000000000E-002    2.568269803104615E-009
 -3.260000000000000E-002    8.548872188046153E-009
 -3.250000000000000E-002    1.470794865876099E-008
 -3.240000000000000E-002    2.080080495297944E-008
 -3.230000000000000E-002    2.656937478483854E-008
 -3.220000000000000E-002    3.175165488403222E-008
 -3.210000000000000E-002    3.609150446475598E-008
 -3.200000000000000E-002    3.934861878246949E-008
 -3.190000000000000E-002    4.130853384041818E-008
 -3.180000000000000E-002    4.179254055427833E-008
 -3.170000000000000E-002    4.066732323586120E-008
 -3.160000000000000E-002    3.785412437770853E-008
 -3.150000000000000E-002    3.333709904014417E-008
 -3.140000000000000E-002    2.717047558036787E-008
 -3.130000000000000E-002    1.948405502729412E-008
 -3.120000000000000E-002    1.048652786536094E-008
 -3.110000000000000E-002    4.661192723867830E-010
 -3.100000000000000E-002   -1.021186706798738E-008
 -3.090000000000000E-002   -2.111090797778536E-008
 -3.080000000000000E-002   -3.173259450906113E-008
 -3.070000000000000E-002   -4.152939693164624E-008
 -3.060000000000000E-002   -4.992043054447961E-008
 -3.050000000000000E-002   -5.630958590351496E-008
 -3.040000000000000E-002   -6.010516276375005E-008
 -3.030000000000000E-002   -6.073994269147561E-008
 -3.020000000000000E-002   -5.769038593747947E-008
 -3.010000000000000E-002   -5.049369382745206E-008
 -3.000000000000000E-002   -3.876153088507839E-008
 -2.990000000000000E-002   -2.218912984501255E-008
 -2.980000000000000E-002   -5.590165968744209E-010
 -2.970000000000000E-002    2.626109437419809E-008
 -2.960000000000000E-002    5.832631461408808E-008
 -2.950000000000000E-002    9.562778929502135E-008
 -2.940000000000000E-002    1.381102476589479E-007
 -2.930000000000000E-002    1.856919414757058E-007
 -2.920000000000000E-002    2.382851836534763E-007
 -2.910000000000000E-002    2.958152537888743E-007
 -2.900000000000000E-002    3.582355301729116E-007
 -2.890000000000000E-002    4.255368334933526E-007
 -2.880000000000000E-002    4.977501966856518E-007
 -2.870000000000000E-002    5.749421024955650E-007
 -2.860000000000000E-002    6.572033218116836E-007
 -2.850000000000000E-002    7.446325361282229E-007
 -2.840000000000000E-002    8.373172749363327E-007
 -2.830000000000000E-002    9.353151561786125E-007
 -2.820000000000000E-002    1.038638641799125E-006
 -2.810000000000000E-002    1.147246608506796E-006
 -2.800000000000000E-002    1.261044686756691E-006
 -2.790000000000000E-002    1.379896009414271E-006
 -2.780000000000000E-002    1.503642537969727E-006
 -2.770000000000000E-002    1.632135400838721E-006
 -2.760000000000000E-002    1.765271919833294E-006
 -2.750000000000000E-002    1.903035677946308E-006
 -2.740000000000000E-002    2.045535505009721E-006
 -2.730000000000000E-002    2.193038605866207E-006
 -2.720000000000000E-002    2.345995732158110E-006
 -2.710000000000000E-002    2.505054502153297E-006
 -2.700000000000000E-002    2.671059482574057E-006
 -2.690000000000000E-002    2.845040400153276E-006
 -2.680000000000000E-002    3.028189187530937E-006
 -2.670000000000000E-002    3.221828166907499E-006
 -2.660000000000000E-002    3.427374228781973E-006
 -2.650000000000000E-002    3.646300757717144E-006
 -2.640000000000000E-002    3.880101159803475E-006
 -2.630000000000000E-002    4.130258155756827E-006
 -2.620000000000000E-002    4.398217183137428E-006
 -2.610000000000000E-002    4.685368560536045E-006
 -2.600000000000000E-002    4.993035314497982E-006
 -2.590000000000000E-002    5.322468100652394E-006
 -2.580000000000000E-002    5.674844096376482E-006
 -2.570000000000000E-002    6.051274647025425E-006
 -2.560000000000000E-002    6.452811723412735E-006
 -2.550000000000000E-002    6.880464305145440E-006
 -2.540000000000000E-002    7.335216774061190E-006
 -2.530000000000000E-002    7.818053215105904E-006
 -2.520000000000000E-002    8.329987176557769E-006
 -2.510000000000000E-002    8.872096847719384E-006
 -2.500000000000000E-002    9.445563893127291E-006
 -2.490000000000000E-002    1.005171178365815E-005
 -2.480000000000000E-002    1.069204814679843E-005
 -2.470000000000000E-002    1.136829605328481E-005
 -2.460000000000000E-002    1.208241797318424E-005
 -2.450000000000000E-002    1.283663246569825E-005
 -2.440000000000000E-002    1.363341091610176E-005
 -2.430000000000000E-002    1.447546251444839E-005
 -2.420000000000000E-002    1.536570964805787E-005
 -2.410000000000000E-002    1.630724904098662E-005
 -2.400000000000000E-002    1.730330922726667E-005
 -2.390000000000000E-002    1.835720951185214E-005
 -2.380000000000000E-002    1.947232105888896E-005
 -2.370000000000000E-002    2.065203967125559E-005
 -2.360000000000000E-002    2.189977264462340E-005
 -2.350000000000000E-002    2.321893982575083E-005
 -2.340000000000000E-002    2.461298685064708E-005
 -2.330000000000000E-002    2.608541243344982E-005
 -2.320000000000000E-002    2.763979639079887E-005
 -2.310000000000000E-002    2.927984347539946E-005
 -2.300000000000000E-002    3.100941241588449E-005
 -2.290000000000000E-002    3.283254182005224E-005
 -2.280000000000000E-002    3.475347558178017E-005
 -2.270000000000000E-002    3.677667066517386E-005
 -2.260000000000000E-002    3.890681077703065E-005
 -2.250000000000000E-002    4.114879501528632E-005
 -2.240000000000000E-002    4.350774213349672E-005
 -2.230000000000000E-002    4.598899193259641E-005
 -2.220000000000000E-002    4.859811398400282E-005
 -2.210000000000000E-002    5.134091559549248E-005
 -2.200000000000000E-002    5.422346161476175E-005
 -2.190000000000000E-002    5.725210568478541E-005
 -2.180000000000000E-002    6.043350496497064E-005
 -2.170000000000000E-002    6.377466955521157E-005
 -2.160000000000000E-002    6.728297343869324E-005
 -2.150000000000000E-002    7.096618640755332E-005
 -2.140000000000000E-002    7.483247655276388E-005
 -2.130000000000000E-002    7.889043390500192E-005
 -2.120000000000000E-002    8.314905359056237E-005
 -2.110000000000000E-002    8.761773795254895E-005
 -2.100000000000000E-002    9.230627937526434E-005
 -2.090000000000000E-002    9.722486995254413E-005
 -2.080000000000000E-002    1.023840547549444E-004
 -2.070000000000000E-002    1.077947704667409E-004
 -2.060000000000000E-002    1.134682951774582E-004
 -2.050000000000000E-002    1.194162701031368E-004
 -2.040000000000000E-002    1.256507000442779E-004
 -2.030000000000000E-002    1.321839346574723E-004
 -2.020000000000000E-002    1.390286948462123E-004
 -2.010000000000000E-002    1.461980783955617E-004
 -2.000000000000000E-002    1.537055661207469E-004
 -1.990000000000000E-002    1.615650460245420E-004
 -1.980000000000000E-002    1.697908317085734E-004
 -1.970000000000000E-002    1.783977222868891E-004
 -1.960000000000000E-002    1.874010246743983E-004
 -1.950000000000000E-002    1.968166544940100E-004
 -1.940000000000000E-002    2.066611442609309E-004
 -1.930000000000000E-002    2.169517208419100E-004
 -1.920000000000000E-002    2.277064200573143E-004
 -1.910000000000000E-002    2.389440725542453E-004
 -1.900000000000000E-002    2.506843736212651E-004
 -1.890000000000000E-002    2.629479024924289E-004
 -1.880000000000000E-002    2.757560831351572E-004
 -1.870000000000000E-002    2.891312160031406E-004
 -1.860000000000000E-002    3.030964125307723E-004
 -1.850000000000000E-002    3.176755323445874E-004
 -1.840000000000000E-002    3.328932065839071E-004
 -1.830000000000000E-002    3.487747135089305E-004
 -1.820000000000000E-002    3.653460130146798E-004
 -1.810000000000000E-002    3.826336405121138E-004
 -1.800000000000000E-002    4.006648007077611E-004
 -1.790000000000000E-002    4.194673786526941E-004
 -1.780000000000000E-002    4.390699558386109E-004
 -1.770000000000000E-002    4.595018161347772E-004
 -1.760000000000000E-002    4.807930866331172E-004
 -1.750000000000000E-002    5.029747823584168E-004
 -1.740000000000000E-002    5.260788146049943E-004
 -1.730000000000000E-002    5.501380687996160E-004
 -1.720000000000000E-002    5.751864329063697E-004
 -1.710000000000000E-002    6.012589126486646E-004
 -1.700000000000000E-002    6.283915318688281E-004
 -1.690000000000000E-002    6.566213818394337E-004
 -1.680000000000000E-002    6.859867490206201E-004
 -1.670000000000000E-002    7.165269214561816E-004
 -1.660000000000000E-002    7.482823200718430E-004
 -1.650000000000000E-002    7.812944585483016E-004
 -1.640000000000000E-002    8.156058541205623E-004
 -1.630000000000000E-002    8.512600872355063E-004
 -1.620000000000000E-002    8.883017925978075E-004
 -1.610000000000000E-002    9.267764193113848E-004
 -1.600000000000000E-002    9.667304944658726E-004
 -1.590000000000000E-002    1.008211319984909E-003
 -1.580000000000000E-002    1.051267263198583E-003
 -1.570000000000000E-002    1.095947345203863E-003
 -1.560000000000000E-002    1.142301691681006E-003
 -1.550000000000000E-002    1.190381369963038E-003
 -1.540000000000000E-002    1.240238269863451E-003
 -1.530000000000000E-002    1.291925414718613E-003
 -1.520000000000000E-002    1.345496996155136E-003
 -1.510000000000000E-002    1.401008283959220E-003
 -1.500000000000000E-002    1.458515874998416E-003
 -1.490000000000000E-002    1.518077674226874E-003
 -1.480000000000000E-002    1.579752636408679E-003
 -1.470000000000000E-002    1.643601038022528E-003
 -1.460000000000000E-002    1.709684526010790E-003
 -1.450000000000000E-002    1.778065577343212E-003
 -1.440000000000000E-002    1.848807913965583E-003
 -1.430000000000000E-002    1.921976396768965E-003
 -1.420000000000000E-002    1.997636510169052E-003
 -1.410000000000000E-002    2.075855038433538E-003
 -1.400000000000000E-002    2.156699263070970E-003
 -1.390000000000000E-002    2.240237772215496E-003
 -1.380000000000000E-002    2.326539846135052E-003
 -1.370000000000000E-002    2.415675590337228E-003
 -1.360000000000000E-002    2.507715960781148E-003
 -1.350000000000000E-002    2.602733094005905E-003
 -1.340000000000000E-002    2.700799738063278E-003
 -1.330000000000000E-002    2.801989463204637E-003
 -1.320000000000000E-002    2.906376339828869E-003
 -1.310000000000000E-002    3.014035076019114E-003
 -1.300000000000000E-002    3.125041062703088E-003
 -1.290000000000000E-002    3.239469315754325E-003
 -1.280000000000000E-002    3.357396008771942E-003
 -1.270000000000000E-002    3.478896890303905E-003
 -1.260000000000000E-002    3.604047722538989E-003
 -1.250000000000000E-002    3.732924644798269E-003
 -1.240000000000000E-002    3.865603636267761E-003
 -1.230000000000000E-002    4.002161302711502E-003
 -1.220000000000000E-002    4.142673761301928E-003
 -1.210000000000000E-002    4.287217584330908E-003
 -1.200000000000000E-002    4.435869322768024E-003
 -1.190000000000000E-002    4.588705021104022E-003
 -1.180000000000000E-002    4.745801150416277E-003
 -1.170000000000000E-002    4.907233954732138E-003
 -1.160000000000000E-002    5.073079060945116E-003
 -1.150000000000000E-002    5.243411000752179E-003
 -1.140000000000000E-002    5.418304553001829E-003
 -1.130000000000000E-002    5.597832949293929E-003
 -1.120000000000000E-002    5.782067911810010E-003
 -1.110000000000000E-002    5.971081020441412E-003
 -1.100000000000000E-002    6.164941946977108E-003
 -1.090000000000000E-002    6.363719205208684E-003
 -1.080000000000000E-002    6.567479851890144E-003
 -1.070000000000000E-002    6.776289682893588E-003
 -1.060000000000000E-002    6.990211942922065E-003
 -1.050000000000000E-002    7.209308818035031E-003
 -1.040000000000000E-002    7.433640031099918E-003
 -1.030000000000000E-002    7.663263229342866E-003
 -1.020000000000000E-002    7.898233658879931E-003
 -1.010000000000000E-002    8.138603408751372E-003
 -1.000000000000000E-002    8.384421879841198E-003
 -9.899999999999999E-003    8.635735128482203E-003
 -9.800000000000000E-003    8.892586497021515E-003
 -9.699999999999999E-003    9.155014842341972E-003
 -9.599999999999999E-003    9.423056589331411E-003
 -9.500000000000000E-003    9.696742783104751E-003
 -9.399999999999999E-003    9.976102231845379E-003
 -9.299999999999999E-003    1.026115845232236E-002
 -9.200000000000000E-003    1.055193163101277E-002
 -9.099999999999999E-003    1.084843761909909E-002
 -8.999999999999999E-003    1.115068760448593E-002
 -8.900000000000000E-003    1.145868697749294E-002
 -8.799999999999999E-003    1.177243806317379E-002
 -8.699999999999999E-003    1.209193696273152E-002
 -8.600000000000000E-003    1.241717478642704E-002
 -8.499999999999999E-003    1.274813617647787E-002
 -8.399999999999999E-003    1.308480043210412E-002
 -8.300000000000000E-003    1.342714037599534E-002
 -8.199999999999999E-003    1.377512361003742E-002
 -8.100000000000000E-003    1.412870898050233E-002
 -8.000000000000000E-003    1.448785119686529E-002
 -7.899999999999999E-003    1.485249588436466E-002
 -7.800000000000000E-003    1.522258211346178E-002
 -7.699999999999999E-003    1.559804086317629E-002
 -7.599999999999999E-003    1.597879547129912E-002
 -7.499999999999999E-003    1.636476031763498E-002
 -7.399999999999999E-003    1.675584135945952E-002
 -7.299999999999999E-003    1.715193619274402E-002
 -7.199999999999999E-003    1.755293245109533E-002
 -7.100000000000000E-003    1.795870739582732E-002
 -6.999999999999999E-003    1.836913150988396E-002
 -6.899999999999999E-003    1.878406217640637E-002
 -6.800000000000000E-003    1.920334918567156E-002
 -6.699999999999999E-003    1.962683079792138E-002
 -6.599999999999999E-003    2.005433639562952E-002
 -6.499999999999999E-003    2.048568426501833E-002
 -6.399999999999999E-003    2.092068123671188E-002
 -6.299999999999999E-003    2.135912405225503E-002
 -6.199999999999999E-003    2.180079907967052E-002
 -6.100000000000000E-003    2.224547909809207E-002
 -5.999999999999999E-003    2.269292682945397E-002
 -5.899999999999999E-003    2.314289376260681E-002
 -5.800000000000000E-003    2.359511600767377E-002
 -5.699999999999999E-003    2.404931902923996E-002
 -5.599999999999999E-003    2.450521700548366E-002
 -5.499999999999999E-003    2.496250794658685E-002
 -5.399999999999999E-003    2.542087994784400E-002
 -5.299999999999999E-003    2.588000591197829E-002
 -5.199999999999999E-003    2.633954642188886E-002
 -5.099999999999999E-003    2.679914743960435E-002
 -4.999999999999999E-003    2.725844149301181E-002
 -4.899999999999999E-003    2.771704834463965E-002
 -4.799999999999999E-003    2.817457543675039E-002
 -4.699999999999999E-003    2.863061282650384E-002
 -4.599999999999999E-003    2.908473806030970E-002
 -4.499999999999999E-003    2.953651461656140E-002
 -4.399999999999999E-003    2.998549202689884E-002
 -4.299999999999999E-003    3.043120523651341E-002
 -4.199999999999999E-003    3.087317357685853E-002
 -4.099999999999999E-003    3.131090166810410E-002
 -3.999999999999999E-003    3.174388251601521E-002
 -3.899999999999999E-003    3.217158930612798E-002
 -3.799999999999999E-003    3.259348224058311E-002
 -3.699999999999999E-003    3.300901104555121E-002
 -3.599999999999999E-003    3.341760538275219E-002
 -3.499999999999999E-003    3.381868511945844E-002
 -3.399999999999999E-003    3.421165105909405E-002
 -3.299999999999999E-003    3.459589042095453E-002
 -3.199999999999999E-003    3.497077821784523E-002
 -3.099999999999999E-003    3.533566941678665E-002
 -2.999999999999999E-003    3.568991606522497E-002
 -2.899999999999999E-003    3.603284365629957E-002
 -2.799999999999999E-003    3.636377120651881E-002
 -2.699999999999999E-003    3.668200292979422E-002
 -2.599999999999999E-003    3.698682880106479E-002
 -2.499999999999999E-003    3.727752495568928E-002
 -2.399999999999999E-003    3.755335850238005E-002
 -2.299999999999999E-003    3.781357729434161E-002
 -2.199999999999999E-003    3.805742463201291E-002
 -2.099999999999999E-003    3.828412364049241E-002
 -1.999999999999999E-003    3.849289271275812E-002
 -1.899999999999999E-003    3.868293865974036E-002
 -1.799999999999999E-003    3.885344817449587E-002
 -1.699999999999999E-003    3.900360680322759E-002
 -1.599999999999999E-003    3.913258649096288E-002
 -1.499999999999999E-003    3.923955034239493E-002
 -1.399999999999999E-003    3.932364891461097E-002
 -1.299999999999999E-003    3.938402878797069E-002
 -1.199999999999999E-003    3.941982362596032E-002
 -1.099999999999999E-003    3.943015874402287E-002
 -9.999999999999989E-004    3.941415619666878E-002
 -8.999999999999990E-004    3.937093206165594E-002
 -7.999999999999990E-004    3.929959128072520E-002
 -6.999999999999989E-004    3.919923736534101E-002
 -5.999999999999990E-004    3.906896450451858E-002
 -4.999999999999989E-004    3.890786879001476E-002
 -3.999999999999989E-004    3.871503919294141E-002
 -2.999999999999989E-004    3.848955993529350E-002
 -1.999999999999989E-004    3.823051624510897E-002
 -9.999999999999892E-005    3.793699144633660E-002
  1.084202172485504E-018    3.760806743738929E-002
  1.000000000000011E-004    3.724282710328645E-002
  2.000000000000011E-004    3.684035492360464E-002
  3.000000000000011E-004    3.639973746627959E-002
  4.000000000000011E-004    3.592006200924466E-002
  5.000000000000011E-004    3.540042624723661E-002
  6.000000000000011E-004    3.483992664166716E-002
  7.000000000000011E-004    3.423766689861675E-002
  8.000000000000011E-004    3.359275659186499E-002
  9.000000000000012E-004    3.290431681607172E-002
  1.000000000000001E-003    3.217147604978943E-002
  1.100000000000001E-003    3.139337014267043E-002
  1.200000000000001E-003    3.056914767773188E-002
  1.300000000000001E-003    2.969796733345589E-002
  1.400000000000001E-003    2.877900259376865E-002
  1.500000000000001E-003    2.781143745331958E-002
  1.600000000000001E-003    2.679447508261429E-002
  1.700000000000001E-003    2.572733079802390E-002
  1.800000000000001E-003    2.460923790217409E-002
  1.900000000000001E-003    2.343944815820534E-002
  2.000000000000001E-003    2.221723623597644E-002
  2.100000000000001E-003    2.094189204457918E-002
  2.200000000000001E-003    1.961272919381890E-002
  2.300000000000001E-003    1.822908582430529E-002
  2.400000000000001E-003    1.679032028161247E-002
  2.500000000000001E-003    1.529581844004031E-002
  2.600000000000001E-003    1.374499187785634E-002
  2.700000000000001E-003    1.213727817951116E-002
  2.800000000000001E-003    1.047214457886139E-002
  2.900000000000001E-003    8.749087441407221E-003
  3.000000000000001E-003    6.967634439258991E-003
  3.100000000000001E-003    5.127344591010534E-003
  3.200000000000001E-003    3.227810086969955E-003
  3.300000000000001E-003    1.268656828663022E-003
  3.400000000000001E-003   -7.504512955861241E-004
  3.500000000000001E-003   -2.829821001114561E-003
  3.600000000000001E-003   -4.969714674194712E-003
  3.700000000000001E-003   -7.170358577514463E-003
  3.800000000000001E-003   -9.431938815751285E-003
  3.900000000000001E-003   -1.175460209208287E-002
  4.000000000000001E-003   -1.413845481830153E-002
  4.100000000000001E-003   -1.658355694032855E-002
  4.200000000000001E-003   -1.908992782168675E-002
  4.300000000000001E-003   -2.165753996361722E-002
  4.400000000000001E-003   -2.428632088626086E-002
  4.500000000000001E-003   -2.697615067511518E-002
  4.600000000000002E-003   -2.972686236200479E-002
  4.700000000000001E-003   -3.253824065717596E-002
  4.800000000000001E-003   -3.541001910751905E-002
  4.900000000000002E-003   -3.834188581843735E-002
  5.000000000000001E-003   -4.133347495903010E-002
  5.100000000000001E-003   -4.438436711223613E-002
  5.200000000000001E-003   -4.749409594746264E-002
  5.300000000000002E-003   -5.066213835770102E-002
  5.400000000000001E-003   -5.388791678802662E-002
  5.500000000000001E-003   -5.717080485464025E-002
  5.600000000000002E-003   -6.051011706512891E-002
  5.700000000000001E-003   -6.390511668604661E-002
  5.800000000000001E-003   -6.735500892722031E-002
  5.900000000000002E-003   -7.085893928181472E-002
  6.000000000000001E-003   -7.441600568629075E-002
  6.100000000000001E-003   -7.802524527057418E-002
  6.200000000000002E-003   -8.168563468535914E-002
  6.300000000000002E-003   -8.539610033979864E-002
  6.400000000000001E-003   -8.915550770194219E-002
  6.500000000000001E-003   -9.296266247151272E-002
  6.600000000000002E-003   -9.681632113937370E-002
  6.700000000000001E-003   -0.100715179362014     
  6.800000000000001E-003   -0.104657867640133     
  6.900000000000002E-003   -0.108642967387437     
  7.000000000000001E-003   -0.112669004980190     
  7.100000000000001E-003   -0.116734445465803     
  7.200000000000002E-003   -0.120837705235878     
  7.300000000000002E-003   -0.124977128129687     
  7.400000000000001E-003   -0.129151014706732     
  7.500000000000001E-003   -0.133357606723799     
  7.600000000000002E-003   -0.137595099083197     
  7.700000000000001E-003   -0.141861618474989     
  7.800000000000001E-003   -0.146155251292279     
  7.900000000000001E-003   -0.150474021603282     
  8.000000000000002E-003   -0.154815912003828     
  8.100000000000001E-003   -0.159178836351277     
  8.200000000000001E-003   -0.163560681199826     
  8.300000000000002E-003   -0.167959266411734     
  8.400000000000001E-003   -0.172372380686026     
  8.500000000000002E-003   -0.176797751470350     
  8.600000000000002E-003   -0.181233058553120     
  8.700000000000001E-003   -0.185675950728299     
  8.800000000000002E-003   -0.190124017134260     
  8.900000000000002E-003   -0.194574840218242     
  9.000000000000001E-003   -0.199025909710678     
  9.100000000000002E-003   -0.203474726205361     
  9.200000000000002E-003   -0.207918713699150     
  9.300000000000001E-003   -0.212355298588279     
  9.400000000000002E-003   -0.216781845358713     
  9.500000000000001E-003   -0.221195691841977     
  9.600000000000001E-003   -0.225594158733588     
  9.700000000000002E-003   -0.229974527693652     
  9.800000000000001E-003   -0.234334055561772     
  9.900000000000001E-003   -0.238669963648834     
  1.000000000000000E-002   -0.242979461752533     
  1.010000000000000E-002   -0.247259740293110     
  1.020000000000000E-002   -0.251507977687496     
  1.030000000000000E-002   -0.255721310478101     
  1.040000000000000E-002   -0.259896898669013     
  1.050000000000000E-002   -0.264031850972675     
  1.060000000000000E-002   -0.268123292419725     
  1.070000000000000E-002   -0.272168315208702     
  1.080000000000000E-002   -0.276164058388253     
  1.090000000000000E-002   -0.280107586884362     
  1.100000000000000E-002   -0.283996022716290     
  1.110000000000000E-002   -0.287826462591904     
  1.120000000000000E-002   -0.291596005167289     
  1.130000000000000E-002   -0.295301790420689     
  1.140000000000000E-002   -0.298940905718179     
  1.150000000000000E-002   -0.302510499653656     
  1.160000000000000E-002   -0.306007763368090     
  1.170000000000000E-002   -0.309429820163623     
  1.180000000000000E-002   -0.312773873719558     
  1.190000000000000E-002   -0.316037149453009     
  1.200000000000000E-002   -0.319216878984746     
  1.210000000000000E-002   -0.322310315629573     
  1.220000000000000E-002   -0.325314745589701     
  1.230000000000000E-002   -0.328227501162657     
  1.240000000000000E-002   -0.331045970818744     
  1.250000000000000E-002   -0.333767522225608     
  1.260000000000000E-002   -0.336389606948256     
  1.270000000000000E-002   -0.338909695541705     
  1.280000000000000E-002   -0.341325329808241     
  1.290000000000000E-002   -0.343634092191098     
  1.300000000000000E-002   -0.345833590168782     
  1.310000000000000E-002   -0.347921522185417     
  1.320000000000000E-002   -0.349895588977214     
  1.330000000000000E-002   -0.351753610844780     
  1.340000000000000E-002   -0.353493420886884     
  1.350000000000000E-002   -0.355112949096832     
  1.360000000000000E-002   -0.356610157232029     
  1.370000000000000E-002   -0.357983068563868     
  1.380000000000000E-002   -0.359229820429706     
  1.390000000000000E-002   -0.360348607265176     
  1.400000000000000E-002   -0.361337668890663     
  1.410000000000000E-002   -0.362195322701335     
  1.420000000000000E-002   -0.362920021934556     
  1.430000000000000E-002   -0.363510229736843     
  1.440000000000000E-002   -0.363964484261780     
  1.450000000000000E-002   -0.364281466685943     
  1.460000000000000E-002   -0.364459911323000     
  1.470000000000000E-002   -0.364498640513993     
  1.480000000000000E-002   -0.364396559018723     
  1.490000000000000E-002   -0.364152670597101     
  1.500000000000000E-002   -0.363766038473986     
  1.510000000000000E-002   -0.363235863043930     
  1.520000000000000E-002   -0.362561414164636     
  1.530000000000000E-002   -0.361742042159447     
  1.540000000000000E-002   -0.360777224519522     
  1.550000000000000E-002   -0.359666519750429     
  1.560000000000000E-002   -0.358409565353602     
  1.570000000000000E-002   -0.357006136241126     
  1.580000000000000E-002   -0.355456070137157     
  1.590000000000000E-002   -0.353759295887531     
  1.600000000000000E-002   -0.351915888316162     
  1.610000000000000E-002   -0.349925994744326     
  1.620000000000000E-002   -0.347789877459647     
  1.630000000000000E-002   -0.345507849642812     
  1.640000000000000E-002   -0.343080393400981     
  1.650000000000000E-002   -0.340508060719887     
  1.660000000000000E-002   -0.337791479228695     
  1.670000000000000E-002   -0.334931434186167     
  1.680000000000000E-002   -0.331928760080775     
  1.690000000000000E-002   -0.328784424411130     
  1.700000000000000E-002   -0.325499449695544     
  1.710000000000000E-002   -0.322075037604870     
  1.720000000000000E-002   -0.318512394142448     
  1.730000000000000E-002   -0.314812896004736     
  1.740000000000000E-002   -0.310977973097560     
  1.750000000000000E-002   -0.307009170299568     
  1.760000000000000E-002   -0.302908120012421     
  1.770000000000000E-002   -0.298676561018003     
  1.780000000000000E-002   -0.294316339227497     
  1.790000000000000E-002   -0.289829363499411     
  1.800000000000000E-002   -0.285217622756209     
  1.810000000000000E-002   -0.280483210903836     
  1.820000000000000E-002   -0.275628316863744     
  1.830000000000000E-002   -0.270655209635295     
  1.840000000000000E-002   -0.265566234446706     
  1.850000000000000E-002   -0.260363813413594     
  1.860000000000000E-002   -0.255050484969436     
  1.870000000000000E-002   -0.249628818543653     