 -4.000000000000000E-002    0.000000000000000E+000
 -3.990000000000000E-002    0.000000000000000E+000
 -3.980000000000000E-002   -3.114994189401577E-012
 -3.970000000000000E-002   -1.526357543915615E-011
 -3.960000000000000E-002   -4.337795195983127E-011
 -3.950000000000000E-002   -9.282066671987764E-011
 -3.940000000000000E-002   -1.644301381535470E-010
 -3.930000000000000E-002   -2.514900974456748E-010
 -3.920000000000000E-002   -3.370361609220029E-010
 -3.910000000000000E-002   -3.922010082454811E-010
 -3.900000000000000E-002   -3.765527169181270E-010
 -3.890000000000000E-002   -2.413897415207424E-010
 -3.880000000000000E-002    6.343425467449408E-011
 -3.870000000000000E-002    5.793836590687016E-010
 -3.860000000000000E-002    1.327087363469802E-009
 -3.850000000000000E-002    2.294472099447077E-009
 -3.840000000000000E-002    3.428218054422394E-009
 -3.830000000000000E-002    4.631614196641514E-009
 -3.820000000000000E-002    5.771210706660961E-009
 -3.810000000000000E-002    6.693140204462838E-009
 -3.800000000000000E-002    7.247921508777989E-009
 -3.790000000000000E-002    7.320332981827536E-009
 -3.780000000000000E-002    6.859010667021721E-009
 -3.770000000000000E-002    5.899311318032948E-009
 -3.760000000000000E-002    4.573043753653295E-009
 -3.750000000000000E-002    3.100103511009163E-009
 -3.740000000000000E-002    1.759754474193168E-009
 -3.730000000000000E-002    8.428813863785190E-010
 -3.720000000000000E-002    5.904884560631206E-010
 -3.710000000000000E-002    1.127272104048577E-009
 -3.700000000000000E-002    2.401439012988838E-009
 -3.690000000000000E-002    4.142767537410955E-009
 -3.680000000000000E-002    5.849525774947605E-009
 -3.670000000000000E-002    6.811609871921732E-009
 -3.660000000000000E-002    6.172328648973167E-009
 -3.650000000000000E-002    3.025450958076188E-009
 -3.640000000000000E-002   -3.461687624154890E-009
 -3.630000000000000E-002   -1.391311373730395E-008
 -3.620000000000000E-002   -2.861418416977164E-008
 -3.610000000000000E-002   -4.740425966790888E-008
 -3.600000000000000E-002   -6.960746289591813E-008
 -3.590000000000000E-002   -9.401247553699095E-008
 -3.580000000000000E-002   -1.189058024587106E-007
 -3.570000000000000E-002   -1.421558109382020E-007
 -3.560000000000000E-002   -1.613378931939214E-007
 -3.550000000000000E-002   -1.738856858853710E-007
 -3.540000000000000E-002   -1.772499939443062E-007
 -3.530000000000000E-002   -1.690468700009512E-007
 -3.520000000000000E-002   -1.471790637237193E-007
 -3.510000000000000E-002   -1.099195336578904E-007
 -3.500000000000000E-002   -5.595294242610227E-008
 -3.490000000000000E-002    1.562220154957882E-008
 -3.480000000000000E-002    1.053220457666167E-007
 -3.470000000000000E-002    2.133231697383312E-007
 -3.460000000000000E-002    3.395108226583898E-007
 -3.450000000000000E-002    4.835162394784001E-007
 -3.440000000000000E-002    6.447330233445038E-007
 -3.430000000000000E-002    8.223094528323246E-007
 -3.420000000000000E-002    1.015119054903280E-006
 -3.410000000000000E-002    1.221719133948684E-006
 -3.400000000000000E-002    1.440311178475881E-006
 -3.390000000000000E-002    1.668718232369168E-006
 -3.380000000000000E-002    1.904395040404411E-006
 -3.370000000000000E-002    2.144480967498849E-006
 -3.360000000000000E-002    2.385898812554468E-006
 -3.350000000000000E-002    2.625498868089806E-006
 -3.340000000000000E-002    2.860233518520744E-006
 -3.330000000000000E-002    3.087347313267017E-006
 -3.320000000000000E-002    3.304560618302232E-006
 -3.310000000000000E-002    3.510225807243592E-006
 -3.300000000000000E-002    3.703436800902086E-006
 -3.290000000000000E-002    3.884081379818672E-006
 -3.280000000000000E-002    4.052831407275580E-006
 -3.270000000000000E-002    4.211074009439232E-006
 -3.260000000000000E-002    4.360797183916204E-006
 -3.250000000000000E-002    4.504448823290319E-006
 -3.240000000000000E-002    4.644785513658230E-006
 -3.230000000000000E-002    4.784730857466986E-006
 -3.220000000000000E-002    4.927260941136825E-006
 -3.210000000000000E-002    5.075318950289919E-006
 -3.200000000000000E-002    5.231763010704741E-006
 -3.190000000000000E-002    5.399340156923438E-006
 -3.180000000000000E-002    5.580668079493184E-006
 -3.170000000000000E-002    5.778219105086406E-006
 -3.160000000000000E-002    5.994285542225541E-006
 -3.150000000000000E-002    6.230924466641138E-006
 -3.140000000000000E-002    6.489871964839645E-006
 -3.130000000000000E-002    6.772448117294622E-006
 -3.120000000000000E-002    7.079451023999410E-006
 -3.110000000000000E-002    7.411074853859426E-006
 -3.100000000000000E-002    7.766866460429663E-006
 -3.090000000000000E-002    8.145741042276554E-006
 -3.080000000000000E-002    8.546074878690815E-006
 -3.070000000000000E-002    8.965869214936435E-006
 -3.060000000000000E-002    9.402985851305116E-006
 -3.050000000000000E-002    9.855425071050432E-006
 -3.040000000000000E-002    1.032162607066982E-005
 -3.030000000000000E-002    1.080073640548209E-005
 -3.020000000000000E-002    1.129283523841960E-005
 -3.010000000000000E-002    1.179906087529915E-005
 -3.000000000000000E-002    1.232163222482682E-005
 -2.990000000000000E-002    1.286375942840674E-005
 -2.980000000000000E-002    1.342943937066857E-005
 -2.970000000000000E-002    1.402317882071411E-005
 -2.960000000000000E-002    1.464966700126712E-005
 -2.950000000000000E-002    1.531344042561992E-005
 -2.940000000000000E-002    1.601860216409080E-005
 -2.930000000000000E-002    1.676859475745286E-005
 -2.920000000000000E-002    1.756608875444720E-005
 -2.910000000000000E-002    1.841296533260437E-005
 -2.900000000000000E-002    1.931041276806697E-005
 -2.890000000000000E-002    2.025909520919912E-005
 -2.880000000000000E-002    2.125936657811966E-005
 -2.870000000000000E-002    2.231150222103490E-005
 -2.860000000000000E-002    2.341588404372454E-005
 -2.850000000000000E-002    2.457315113395727E-005
 -2.840000000000000E-002    2.578425171594520E-005
 -2.830000000000000E-002    2.705043223006795E-005
 -2.820000000000000E-002    2.837315293062185E-005
 -2.810000000000000E-002    2.975395996680001E-005
 -2.800000000000000E-002    3.119434158132118E-005
 -2.790000000000000E-002    3.269561349504255E-005
 -2.780000000000000E-002    3.425883692924001E-005
 -2.770000000000000E-002    3.588481510484177E-005
 -2.760000000000000E-002    3.757416350822056E-005
 -2.750000000000000E-002    3.932743122218684E-005
 -2.740000000000000E-002    4.114528254773885E-005
 -2.730000000000000E-002    4.302866568418206E-005
 -2.720000000000000E-002    4.497900353085962E-005
 -2.710000000000000E-002    4.699828805234661E-005
 -2.700000000000000E-002    4.908913026509125E-005
 -2.690000000000000E-002    5.125471915464016E-005
 -2.680000000000000E-002    5.349870066844635E-005
 -2.670000000000000E-002    5.582498526907845E-005
 -2.660000000000000E-002    5.823753180991581E-005
 -2.650000000000000E-002    6.074013642478952E-005
 -2.640000000000000E-002    6.333622912235075E-005
 -2.630000000000000E-002    6.602876421320616E-005
 -2.620000000000000E-002    6.882016409161392E-005
 -2.610000000000000E-002    7.171232796358306E-005
 -2.600000000000000E-002    7.470678186579295E-005
 -2.590000000000000E-002    7.780478223279571E-005
 -2.580000000000000E-002    8.100751632160406E-005
 -2.570000000000000E-002    8.431621357485784E-005
 -2.560000000000000E-002    8.773227413123200E-005
 -2.550000000000000E-002    9.125728354947907E-005
 -2.540000000000000E-002    9.489298184258841E-005
 -2.530000000000000E-002    9.864115944410673E-005
 -2.520000000000000E-002    1.025034791051264E-004
 -2.510000000000000E-002    1.064813299195335E-004
 -2.500000000000000E-002    1.105755898472629E-004
 -2.490000000000000E-002    1.147865665383423E-004
 -2.480000000000000E-002    1.191139168584291E-004
 -2.470000000000000E-002    1.235566266079112E-004
 -2.460000000000000E-002    1.281131472840675E-004
 -2.450000000000000E-002    1.327815590735235E-004
 -2.440000000000000E-002    1.375596645607786E-004
 -2.430000000000000E-002    1.424452728217832E-004
 -2.420000000000000E-002    1.474362864000723E-004
 -2.410000000000000E-002    1.525307901157898E-004
 -2.400000000000000E-002    1.577270231007740E-004
 -2.390000000000000E-002    1.630233495870444E-004
 -2.380000000000000E-002    1.684179754462723E-004
 -2.370000000000000E-002    1.739088232539771E-004
 -2.360000000000000E-002    1.794932596987017E-004
 -2.350000000000000E-002    1.851678038436913E-004
 -2.340000000000000E-002    1.909280026319066E-004
 -2.330000000000000E-002    1.967683388042416E-004
 -2.320000000000000E-002    2.026821059947264E-004
 -2.310000000000000E-002    2.086615446799962E-004
 -2.300000000000000E-002    2.146979675378453E-004
 -2.290000000000000E-002    2.207819022689552E-004
 -2.280000000000000E-002    2.269031890522489E-004
 -2.270000000000000E-002    2.330512202715528E-004
 -2.260000000000000E-002    2.392150517660531E-004
 -2.250000000000000E-002    2.453831824321867E-004
 -2.240000000000000E-002    2.515436686641460E-004
 -2.230000000000000E-002    2.576839040638602E-004
 -2.220000000000000E-002    2.637902367482666E-004
 -2.210000000000000E-002    2.698478722480782E-004
 -2.200000000000000E-002    2.758404831336257E-004
 -2.190000000000000E-002    2.817500802776472E-004
 -2.180000000000000E-002    2.875569060565431E-004
 -2.170000000000000E-002    2.932391832993077E-004
 -2.160000000000000E-002    2.987732741746330E-004
 -2.150000000000000E-002    3.041335775054203E-004
 -2.140000000000000E-002    3.092929752136359E-004
 -2.130000000000000E-002    3.142227102654595E-004
 -2.120000000000000E-002    3.188924303101584E-004
 -2.110000000000000E-002    3.232704313446687E-004
 -2.100000000000000E-002    3.273237029222753E-004
 -2.090000000000000E-002    3.310174692647102E-004
 -2.080000000000000E-002    3.343154899436384E-004
 -2.070000000000000E-002    3.371796285815532E-004
 -2.060000000000000E-002    3.395696462486787E-004
 -2.050000000000000E-002    3.414429159887800E-004
 -2.040000000000000E-002    3.427545466636185E-004
 -2.030000000000000E-002    3.434565824755151E-004
 -2.020000000000000E-002    3.434984956561593E-004
 -2.010000000000000E-002    3.428270506770952E-004
 -2.000000000000000E-002    3.413860225350664E-004
 -1.990000000000000E-002    3.391166030936528E-004
 -1.980000000000000E-002    3.359572903041970E-004
 -1.970000000000000E-002    3.318436851368247E-004
 -1.960000000000000E-002    3.267088931394958E-004
 -1.950000000000000E-002    3.204831924456100E-004
 -1.940000000000000E-002    3.130940011570836E-004
 -1.930000000000000E-002    3.044655727733125E-004
 -1.920000000000000E-002    2.945192484388684E-004
 -1.910000000000000E-002    2.831723329773913E-004
 -1.900000000000000E-002    2.703385418961287E-004
 -1.890000000000000E-002    2.559274990643863E-004
 -1.880000000000000E-002    2.398444743975465E-004
 -1.870000000000000E-002    2.219906673011564E-004
 -1.860000000000000E-002    2.022626154576647E-004
 -1.850000000000000E-002    1.805526433107355E-004
 -1.840000000000000E-002    1.567486819395593E-004
 -1.830000000000000E-002    1.307340627852249E-004
 -1.820000000000000E-002    1.023882801384011E-004
 -1.810000000000000E-002    7.158604119082972E-005
 -1.800000000000000E-002    3.819843955746668E-005
 -1.790000000000000E-002    2.091658770783059E-006
 -1.780000000000000E-002   -3.687232783325118E-005
 -1.770000000000000E-002   -7.883624149537620E-005
 -1.760000000000000E-002   -1.239470914556944E-004
 -1.750000000000000E-002   -1.723579016512701E-004
 -1.740000000000000E-002   -2.242258664907352E-004
 -1.730000000000000E-002   -2.797148574187978E-004
 -1.720000000000000E-002   -3.389925335912312E-004
 -1.710000000000000E-002   -4.022330113992815E-004
 -1.700000000000000E-002   -4.696162303962784E-004
 -1.690000000000000E-002   -5.413261400130162E-004
 -1.680000000000000E-002   -6.175533396736424E-004
 -1.670000000000000E-002   -6.984929432589213E-004
 -1.660000000000000E-002   -7.843452295134336E-004
 -1.650000000000000E-002   -8.753168071976721E-004
 -1.640000000000000E-002   -9.716185937723203E-004
 -1.630000000000000E-002   -1.073467521330363E-003
 -1.620000000000000E-002   -1.181086601082686E-003
 -1.610000000000000E-002   -1.294703656800137E-003
 -1.600000000000000E-002   -1.414553168790519E-003
 -1.590000000000000E-002   -1.540874517961288E-003
 -1.580000000000000E-002   -1.673914815347378E-003
 -1.570000000000000E-002   -1.813926657451096E-003
 -1.560000000000000E-002   -1.961168146150501E-003
 -1.550000000000000E-002   -2.115904027734840E-003
 -1.540000000000000E-002   -2.278404801404875E-003
 -1.530000000000000E-002   -2.448946894975246E-003
 -1.520000000000000E-002   -2.627811334587411E-003
 -1.510000000000000E-002   -2.815285820961943E-003
 -1.500000000000000E-002   -3.011662895694944E-003
 -1.490000000000000E-002   -3.217240016567392E-003
 -1.480000000000000E-002   -3.432318965056989E-003
 -1.470000000000000E-002   -3.657208107875090E-003
 -1.460000000000000E-002   -3.892220207901627E-003
 -1.450000000000000E-002   -4.137671426084055E-003
 -1.440000000000000E-002   -4.393884280987167E-003
 -1.430000000000000E-002   -4.661186131121540E-003
 -1.420000000000000E-002   -4.939907420391009E-003
 -1.410000000000000E-002   -5.230383219231345E-003
 -1.400000000000000E-002   -5.532953951969239E-003
 -1.390000000000000E-002   -5.847962860629959E-003
 -1.380000000000000E-002   -6.175757406610043E-003
 -1.370000000000000E-002   -6.516687311452791E-003
 -1.360000000000000E-002   -6.871105595230114E-003
 -1.350000000000000E-002   -7.239366629822610E-003
 -1.340000000000000E-002   -7.621829198040407E-003
 -1.330000000000000E-002   -8.018851858507391E-003
 -1.320000000000000E-002   -8.430796630457272E-003
 -1.310000000000000E-002   -8.858027143002401E-003
 -1.300000000000000E-002   -9.300906713147225E-003
 -1.290000000000000E-002   -9.759802001178378E-003
 -1.280000000000000E-002   -1.023507879685805E-002
 -1.270000000000000E-002   -1.072710213320865E-002
 -1.260000000000000E-002   -1.123623952842391E-002
 -1.250000000000000E-002   -1.176285680368868E-002
 -1.240000000000000E-002   -1.230731804759773E-002
 -1.230000000000000E-002   -1.286998758532120E-002
 -1.220000000000000E-002   -1.345122760284333E-002
 -1.210000000000000E-002   -1.405139446439059E-002
 -1.200000000000000E-002   -1.467084317186057E-002
 -1.190000000000000E-002   -1.530992550433389E-002
 -1.180000000000000E-002   -1.596898490963151E-002
 -1.170000000000000E-002   -1.664836639795043E-002
 -1.160000000000000E-002   -1.734840280489737E-002
 -1.150000000000000E-002   -1.806942432543009E-002
 -1.140000000000000E-002   -1.881175310322540E-002
 -1.130000000000000E-002   -1.957570798427738E-002
 -1.120000000000000E-002   -2.036159227206472E-002
 -1.110000000000000E-002   -2.116971073420447E-002
 -1.100000000000000E-002   -2.200035185216556E-002
 -1.090000000000000E-002   -2.285379525117955E-002
 -1.080000000000000E-002   -2.373031512577501E-002
 -1.070000000000000E-002   -2.463016979053486E-002
 -1.060000000000000E-002   -2.555360634730683E-002
 -1.050000000000000E-002   -2.650085877603475E-002
 -1.040000000000000E-002   -2.747214690398476E-002
 -1.030000000000000E-002   -2.846767880125916E-002
 -1.020000000000000E-002   -2.948764384422936E-002
 -1.010000000000000E-002   -3.053222220255048E-002
 -1.000000000000000E-002   -3.160156745411434E-002
 -9.899999999999999E-003   -3.269582702848532E-002
 -9.800000000000000E-003   -3.381511994958170E-002
 -9.699999999999999E-003   -3.495955383072890E-002
 -9.599999999999999E-003   -3.612921659891731E-002
 -9.500000000000000E-003   -3.732417447766880E-002
 -9.399999999999999E-003   -3.854446811583606E-002
 -9.299999999999999E-003   -3.979011967704949E-002
 -9.200000000000000E-003   -4.106113484827308E-002
 -9.099999999999999E-003   -4.235748831718521E-002
 -8.999999999999999E-003   -4.367913268354235E-002
 -8.900000000000000E-003   -4.502599245062178E-002
 -8.799999999999999E-003   -4.639797160631955E-002
 -8.699999999999999E-003   -4.779494868787176E-002
 -8.600000000000000E-003   -4.921677272087053E-002
 -8.499999999999999E-003   -5.066326725057469E-002
 -8.399999999999999E-003   -5.213421889276269E-002
 -8.300000000000000E-003   -5.362939344105064E-002
 -8.199999999999999E-003   -5.514852527216652E-002
 -8.100000000000000E-003   -5.669132184180441E-002
 -8.000000000000000E-003   -5.825745233796591E-002
 -7.899999999999999E-003   -5.984655500598863E-002
 -7.800000000000000E-003   -6.145823519471220E-002
 -7.699999999999999E-003   -6.309206350853980E-002
 -7.599999999999999E-003   -6.474758907020053E-002
 -7.499999999999999E-003   -6.642430925138608E-002
 -7.399999999999999E-003   -6.812169379588898E-002
 -7.299999999999999E-003   -6.983917855221142E-002
 -7.199999999999999E-003   -7.157616342886289E-002
 -7.100000000000000E-003   -7.333201312048153E-002
 -6.999999999999999E-003   -7.510605216890007E-002
 -6.899999999999999E-003   -7.689757055283458E-002
 -6.800000000000000E-003   -7.870581910151830E-002
 -6.699999999999999E-003   -8.053001862586069E-002
 -6.599999999999999E-003   -8.236934787109243E-002
 -6.499999999999999E-003   -8.422293765116479E-002
 -6.399999999999999E-003   -8.608989463586618E-002
 -6.299999999999999E-003   -8.796929237023718E-002
 -6.199999999999999E-003   -8.986014830177871E-002
 -6.100000000000000E-003   -9.176144435582416E-002
 -5.999999999999999E-003   -9.367213108246918E-002
 -5.899999999999999E-003   -9.559113016475128E-002
 -5.800000000000000E-003   -9.751730287264437E-002
 -5.699999999999999E-003   -9.944947853224950E-002
 -5.599999999999999E-003   -0.101386465719926     
 -5.499999999999999E-003   -0.103327027799541     
 -5.399999999999999E-003   -0.105269879978566     
 -5.299999999999999E-003   -0.107213705045252     
 -5.199999999999999E-003   -0.109157161663402     
 -5.099999999999999E-003   -0.111098860676465     
 -4.999999999999999E-003   -0.113037385447569     
 -4.899999999999999E-003   -0.114971273827503     
 -4.799999999999999E-003   -0.116899055416747     
 -4.699999999999999E-003   -0.118819200959235     
 -4.599999999999999E-003   -0.120730155941707     
 -4.499999999999999E-003   -0.122630340006521     
 -4.399999999999999E-003   -0.124518134555150     
 -4.299999999999999E-003   -0.126391889384676     
 -4.199999999999999E-003   -0.128249946699740     
 -4.099999999999999E-003   -0.130090589036955     
 -3.999999999999999E-003   -0.131912097643945     
 -3.899999999999999E-003   -0.133712714827831     
 -3.799999999999999E-003   -0.135490668508111     
 -3.699999999999999E-003   -0.137244159184291     
 -3.599999999999999E-003   -0.138971378702076     
 -3.499999999999999E-003   -0.140670475066702     
 -3.399999999999999E-003   -0.142339601410165     
 -3.299999999999999E-003   -0.143976879743659     
 -3.199999999999999E-003   -0.145580427830838     
 -3.099999999999999E-003   -0.147148341371813     
 -2.999999999999999E-003   -0.148678711893651     
 -2.899999999999999E-003   -0.150169619415631     
 -2.799999999999999E-003   -0.151619141085284     
 -2.699999999999999E-003   -0.153025332133564     
 -2.599999999999999E-003   -0.154386269348444     
 -2.499999999999999E-003   -0.155700004843508     
 -2.399999999999999E-003   -0.156964597924758     
 -2.299999999999999E-003   -0.158178111607460     
 -2.199999999999999E-003   -0.159338600676452     
 -2.099999999999999E-003   -0.160444155219488     
 -1.999999999999999E-003   -0.161492855091074     
 -1.899999999999999E-003   -0.162482780639338     
 -1.799999999999999E-003   -0.163412034187649     
 -1.699999999999999E-003   -0.164278748929194     
 -1.599999999999999E-003   -0.165081049247386     
 -1.499999999999999E-003   -0.165817092706802     
 -1.399999999999999E-003   -0.166485068698510     
 -1.299999999999999E-003   -0.167083170768200     
 -1.199999999999999E-003   -0.167609628904823     
 -1.099999999999999E-003   -0.168062697462732     
 -9.999999999999989E-004   -0.168440659702080     
 -8.999999999999990E-004   -0.168741849097106     
 -7.999999999999990E-004   -0.168964618699586     
 -6.999999999999989E-004   -0.169107360711353     
 -5.999999999999990E-004   -0.169168509977451     
 -4.999999999999989E-004   -0.169146550080381     
 -3.999999999999989E-004   -0.169039997771392     
 -2.999999999999989E-004   -0.168847440987348     
 -1.999999999999989E-004   -0.168567487746400     
 -9.999999999999892E-005   -0.168198802891907     
  1.084202172485504E-018   -0.167740133415136     
  1.000000000000011E-004   -0.167190247704838     
  2.000000000000011E-004   -0.166547996106149     
  3.000000000000011E-004   -0.165812286905317     
  4.000000000000011E-004   -0.164982084040217     
  5.000000000000011E-004   -0.164056405081064     
  6.000000000000011E-004   -0.163034361901559     
  7.000000000000011E-004   -0.161915113646960     
  8.000000000000011E-004   -0.160697893700193     
  9.000000000000012E-004   -0.159382024685505     
  1.000000000000001E-003   -0.157966874472534     
  1.100000000000001E-003   -0.156451898916482     
  1.200000000000001E-003   -0.154836641394622     
  1.300000000000001E-003   -0.153120722784631     
  1.400000000000001E-003   -0.151303822290631     
  1.500000000000001E-003   -0.149385708945424     
  1.600000000000001E-003   -0.147366257852034     
  1.700000000000001E-003   -0.145245399646773     
  1.800000000000001E-003   -0.143023158414001     
  1.900000000000001E-003   -0.140699645995441     
  2.000000000000001E-003   -0.138275073001476     
  2.100000000000001E-003   -0.135749727632212     
  2.200000000000001E-003   -0.133123980248413     
  2.300000000000001E-003   -0.130398302489590     
  2.400000000000001E-003   -0.127573243231598     
  2.500000000000001E-003   -0.124649457927482     
  2.600000000000001E-003   -0.121627673678654     
  2.700000000000001E-003   -0.118508718615207     
  2.800000000000001E-003   -0.115293509862972     
  2.900000000000001E-003   -0.111983055852018     
  3.000000000000001E-003   -0.108578456218281     
  3.100000000000001E-003   -0.105080901645123     
  3.200000000000001E-003   -0.101491676213493     
  3.300000000000001E-003   -9.781214972689886E-002
  3.400000000000001E-003   -9.404377800286083E-002
  3.500000000000001E-003   -9.018810895901841E-002
  3.600000000000001E-003   -8.624679121867708E-002
  3.700000000000001E-003   -8.222154490104699E-002
  3.800000000000001E-003   -7.811418401715313E-002
  3.900000000000001E-003   -7.392659321619939E-002
  4.000000000000001E-003   -6.966076088532709E-002
  4.100000000000001E-003   -6.531874608623582E-002
  4.200000000000001E-003   -6.090269844240058E-002
  4.300000000000001E-003   -5.641484148793964E-002
  4.400000000000001E-003   -5.185746591425189E-002
  4.500000000000001E-003   -4.723295752007844E-002
  4.600000000000002E-003   -4.254376966117206E-002
  4.700000000000001E-003   -3.779241969000370E-002
  4.800000000000001E-003   -3.298150586992646E-002
  4.900000000000002E-003   -2.811369018606514E-002
  5.000000000000001E-003   -2.319169419309922E-002
  5.100000000000001E-003   -1.821831517042151E-002
  5.200000000000001E-003   -1.319640491064959E-002
  5.300000000000002E-003   -8.128871334073888E-003
  5.400000000000001E-003   -3.018683241770693E-003
  5.500000000000001E-003    2.131137561790310E-003
  5.600000000000002E-003    7.317525989521819E-003
  5.700000000000001E-003    1.253735657030041E-002
  5.800000000000001E-003    1.778747442777343E-002
  5.900000000000002E-003    2.306466527855374E-002
  6.000000000000001E-003    2.836568859763598E-002
  6.100000000000001E-003    3.368725860020286E-002
  6.200000000000002E-003    3.902606711580398E-002
  6.300000000000002E-003    4.437876471554920E-002
  6.400000000000001E-003    4.974198647199927E-002
  6.500000000000001E-003    5.511233616314605E-002
  6.600000000000002E-003    6.048639571915541E-002
  6.700000000000001E-003    6.586074690356698E-002
  6.800000000000001E-003    7.123194020364351E-002
  6.900000000000002E-003    7.659652117182945E-002
  7.000000000000001E-003    8.195103539863491E-002
  7.100000000000001E-003    8.729201674574960E-002
  7.200000000000002E-003    9.261600354401434E-002
  7.300000000000002E-003    9.791953904295755E-002
  7.400000000000001E-003    0.103199181138084     
  7.500000000000001E-003    0.108451484608792     
  7.600000000000002E-003    0.113673028683707     
  7.700000000000001E-003    0.118860393422025     
  7.800000000000001E-003    0.124010204444782     
  7.900000000000001E-003    0.129119102514415     
  8.000000000000002E-003    0.134183751195746     
  8.100000000000001E-003    0.139200841716450     
  8.200000000000001E-003    0.144167110695135     
  8.300000000000002E-003    0.149079326537067     
  8.400000000000001E-003    0.153934288465771     
  8.500000000000002E-003    0.158728858786870     
  8.600000000000002E-003    0.163459925369028     
  8.700000000000001E-003    0.168124458763729     
  8.800000000000002E-003    0.172719425813885     
  8.900000000000002E-003    0.177241917898591     
  9.000000000000001E-003    0.181689064271175     
  9.100000000000002E-003    0.186058014120476     
  9.200000000000002E-003    0.190346034273874     
  9.300000000000001E-003    0.194550424556373     
  9.400000000000002E-003    0.198668576874330     
  9.500000000000001E-003    0.202697929421274     
  9.600000000000001E-003    0.206636028591533     
  9.700000000000002E-003    0.210480441846256     
  9.800000000000001E-003    0.214228879316057     
  9.900000000000001E-003    0.217879095456350     
  1.000000000000000E-002    0.221428913364444     
  1.010000000000000E-002    0.224876282374391     
  1.020000000000000E-002    0.228219209153970     
  1.030000000000000E-002    0.231455789845916     
  1.040000000000000E-002    0.234584207456855     
  1.050000000000000E-002    0.237602758150837     
  1.060000000000000E-002    0.240509805189187     
  1.070000000000000E-002    0.243303801629831     
  1.080000000000000E-002    0.245983295377887     
  1.090000000000000E-002    0.248546969066779     
  1.100000000000000E-002    0.250993538888698     
  1.110000000000000E-002    0.253321888806545     
  1.120000000000000E-002    0.255530927024812     
  1.130000000000000E-002    0.257619701355518     
  1.140000000000000E-002    0.259587358769081     
  1.150000000000000E-002    0.261433155728263     
  1.160000000000000E-002    0.263156388526130     
  1.170000000000000E-002    0.264756529003590     
  1.180000000000000E-002    0.266233088351367     
  1.190000000000000E-002    0.267585698360394     
  1.200000000000000E-002    0.268814086954521     
  1.210000000000000E-002    0.269918112164081     
  1.220000000000000E-002    0.270897675317464     
  1.230000000000000E-002    0.271752791902647     
  1.240000000000000E-002    0.272483593325357     
  1.250000000000000E-002    0.273090284679382     
  1.260000000000000E-002    0.273573150599148     
  1.270000000000000E-002    0.273932621876634     
  1.280000000000000E-002    0.274169163118041     
  1.290000000000000E-002    0.274283388590882     
  1.300000000000000E-002    0.274275937855823     
  1.310000000000000E-002    0.274147580534694     
  1.320000000000000E-002    0.273899192175742     
  1.330000000000000E-002    0.273531672153149     
  1.340000000000000E-002    0.273046049723655     
  1.350000000000000E-002    0.272443397836291     
  1.360000000000000E-002    0.271724913170744     
  1.370000000000000E-002    0.270891824040531     
  1.380000000000000E-002    0.269945470480062     
  1.390000000000000E-002    0.268887266175989     
  1.400000000000000E-002    0.267718638143135     
  1.410000000000000E-002    0.266441176239129     
  1.420000000000000E-002    0.265056439124593     
  1.430000000000000E-002    0.263566125565775     
  1.440000000000000E-002    0.261971995301499     
  1.450000000000000E-002    0.260275829412051     
  1.460000000000000E-002    0.258479494747222     
  1.470000000000000E-002    0.256584915019803     
  1.480000000000000E-002    0.254594048187286     
  1.490000000000000E-002    0.252508907235997     
  1.500000000000000E-002    0.250331563263080     
  1.510000000000000E-002    0.248064126763817     
  1.520000000000000E-002    0.245708764195773     
  1.530000000000000E-002    0.243267663349712     
  1.540000000000000E-002    0.240743051556175     
  1.550000000000000E-002    0.238137222764157     
  1.560000000000000E-002    0.235452443180443     
  1.570000000000000E-002    0.232691075923639     
  1.580000000000000E-002    0.229855473656514     
  1.590000000000000E-002    0.226948039474056     
  1.600000000000000E-002    0.223971160164096     
  1.610000000000000E-002    0.220927299236808     
  1.620000000000000E-002    0.217818889600120     
  1.630000000000000E-002    0.214648405690647     
  1.640000000000000E-002    0.211418326033594     
  1.650000000000000E-002    0.208131143420307     
  1.660000000000000E-002    0.204789366335913     
  1.670000000000000E-002    0.201395496397013     
  1.680000000000000E-002    0.197952029969615     
  1.690000000000000E-002    0.194461473932088     
  1.700000000000000E-002    0.190926331698546     
  1.710000000000000E-002    0.187349115910857     
  1.720000000000000E-002    0.183732320070868     
  1.730000000000000E-002    0.180078448833036     
  1.740000000000000E-002    0.176389975422620     
  1.750000000000000E-002    0.172669378396519     
  1.760000000000000E-002    0.168919106745167     
  1.770000000000000E-002    0.165141611389135     
  1.780000000000000E-002    0.161339305788133     
  1.790000000000000E-002    0.157514614782339     
  1.800000000000000E-002    0.153669911276477     
  1.810000000000000E-002    0.149807555867961     
  1.820000000000000E-002    0.145929898934874     
  1.830000000000000E-002    0.142039239013503     
  1.840000000000000E-002    0.138137851241602     
  1.850000000000000E-002    0.134227995551707     
  1.860000000000000E-002    0.130311892213751     
  1.870000000000000E-002    0.126391744371539     