 -4.000000000000000E-002    0.000000000000000E+000
 -3.990000000000000E-002    0.000000000000000E+000
 -3.980000000000000E-002    0.000000000000000E+000
 -3.970000000000000E-002    0.000000000000000E+000
 -3.960000000000000E-002    0.000000000000000E+000
 -3.950000000000000E-002    0.000000000000000E+000
 -3.940000000000000E-002    0.000000000000000E+000
 -3.930000000000000E-002    0.000000000000000E+000
 -3.920000000000000E-002    0.000000000000000E+000
 -3.910000000000000E-002    0.000000000000000E+000
 -3.900000000000000E-002    0.000000000000000E+000
 -3.890000000000000E-002    0.000000000000000E+000
 -3.880000000000000E-002    0.000000000000000E+000
 -3.870000000000000E-002   -7.494395658763670E-042
 -3.860000000000000E-002   -1.838860092008160E-040
 -3.850000000000000E-002   -2.327331935501972E-039
 -3.840000000000000E-002   -2.022411096895646E-038
 -3.830000000000000E-002   -1.355266787795188E-037
 -3.820000000000000E-002   -7.458586926530658E-037
 -3.810000000000000E-002   -3.505941659712264E-036
 -3.800000000000000E-002   -1.445486335473426E-035
 -3.790000000000000E-002   -5.327684273387691E-035
 -3.780000000000000E-002   -1.780299815653915E-034
 -3.770000000000000E-002   -5.451409675177000E-034
 -3.760000000000000E-002   -1.542143204389590E-033
 -3.750000000000000E-002   -4.055343756767348E-033
 -3.740000000000000E-002   -9.958436218398505E-033
 -3.730000000000000E-002   -2.290534887389669E-032
 -3.720000000000000E-002   -4.942211940006131E-032
 -3.710000000000000E-002   -1.000054692290942E-031
 -3.700000000000000E-002   -1.892653032677698E-031
 -3.690000000000000E-002   -3.328355497714893E-031
 -3.680000000000000E-002   -5.365282947513520E-031
 -3.670000000000000E-002   -7.698042773827456E-031
 -3.660000000000000E-002   -9.111778779029947E-031
 -3.650000000000000E-002   -6.484581218325722E-031
 -3.640000000000000E-002    6.862208206796421E-031
 -3.630000000000000E-002    4.363937959439082E-030
 -3.620000000000000E-002    1.259189398258067E-029
 -3.610000000000000E-002    2.889940285800416E-029
 -3.600000000000000E-002    5.847880076442683E-029
 -3.590000000000000E-002    1.082770312259189E-028
 -3.580000000000000E-002    1.864831759319385E-028
 -3.570000000000000E-002    3.008707078463283E-028
 -3.560000000000000E-002    4.552598282399862E-028
 -3.550000000000000E-002    6.432278069704524E-028
 -3.540000000000000E-002    8.382135445944221E-028
 -3.530000000000000E-002    9.794831940613300E-028
 -3.520000000000000E-002    9.542269680911045E-028
 -3.510000000000000E-002    5.775260016164936E-028
 -3.500000000000000E-002   -4.257871216549893E-028
 -3.490000000000000E-002   -2.430231750041805E-027
 -3.480000000000000E-002   -5.898842011728731E-027
 -3.470000000000000E-002   -1.133761294758682E-026
 -3.460000000000000E-002   -1.919742285136726E-026
 -3.450000000000000E-002   -2.970490711445209E-026
 -3.440000000000000E-002   -4.260722115176657E-026
 -3.430000000000000E-002   -5.682544499933490E-026
 -3.420000000000000E-002   -7.002966669149292E-026
 -3.410000000000000E-002   -7.817686413976593E-026
 -3.400000000000000E-002   -7.509064562844145E-026
 -3.390000000000000E-002   -5.220747898382022E-026
 -3.380000000000000E-002    1.338273850698448E-027
 -3.370000000000000E-002    9.807734165635308E-026
 -3.360000000000000E-002    2.507821939626305E-025
 -3.350000000000000E-002    4.700375580957509E-025
 -3.340000000000000E-002    7.606522722790397E-025
 -3.330000000000000E-002    1.116896101340286E-024
 -3.320000000000000E-002    1.516759988784176E-024
 -3.310000000000000E-002    1.915732409362370E-024
 -3.300000000000000E-002    2.240942779770689E-024
 -3.290000000000000E-002    2.386911457270035E-024
 -3.280000000000000E-002    2.214511648267806E-024
 -3.270000000000000E-002    1.555013288495294E-024
 -3.260000000000000E-002    2.211618401304053E-025
 -3.250000000000000E-002   -1.972961680468311E-024
 -3.240000000000000E-002   -5.182110205867176E-024
 -3.230000000000000E-002   -9.489872599916580E-024
 -3.220000000000000E-002   -1.485972355067747E-023
 -3.210000000000000E-002   -2.108013458587566E-023
 -3.200000000000000E-002   -2.770881372903112E-023
 -3.190000000000000E-002   -3.402327587657777E-023
 -3.180000000000000E-002   -3.898684785148995E-023
 -3.170000000000000E-002   -4.124070955997325E-023
 -3.160000000000000E-002   -3.913319432131027E-023
 -3.150000000000000E-002   -3.079722839161873E-023
 -3.140000000000000E-002   -1.428519612429548E-023
 -3.130000000000000E-002    1.223243923499774E-023
 -3.120000000000000E-002    5.020270283582432E-023
 -3.110000000000000E-002    1.003632656796984E-022
 -3.100000000000000E-002    1.623632755538240E-022
 -3.090000000000000E-002    2.343495661731154E-022
 -3.080000000000000E-002    3.125445463148473E-022
 -3.070000000000000E-002    3.908520234492892E-022
 -3.060000000000000E-002    4.605377382467332E-022
 -3.050000000000000E-002    5.100441319781229E-022
 -3.040000000000000E-002    5.250120539738125E-022
 -3.030000000000000E-002    4.885956680340941E-022
 -3.020000000000000E-002    3.821694373167962E-022
 -3.010000000000000E-002    1.865333437118293E-022
 -3.000000000000000E-002   -1.162794071245396E-022
 -2.990000000000000E-002   -5.405057537718006E-022
 -2.980000000000000E-002   -1.093422840972439E-021
 -2.970000000000000E-002   -1.771412669879702E-021
 -2.960000000000000E-002   -2.555461375338046E-021
 -2.950000000000000E-002   -3.406384787120072E-021
 -2.940000000000000E-002   -4.260260682777551E-021
 -2.930000000000000E-002   -5.024764756921002E-021
 -2.920000000000000E-002   -5.577324617303448E-021
 -2.910000000000000E-002   -5.766190720308331E-021
 -2.900000000000000E-002   -5.415629649989709E-021
 -2.890000000000000E-002   -4.336418586823337E-021
 -2.880000000000000E-002   -2.342604662174012E-021
 -2.870000000000000E-002    7.249655679546901E-022
 -2.860000000000000E-002    4.968569080284814E-021
 -2.850000000000000E-002    1.039819560387734E-020
 -2.840000000000000E-002    1.689325400655500E-020
 -2.830000000000000E-002    2.416520666691508E-020
 -2.820000000000000E-002    3.172628004718825E-020
 -2.810000000000000E-002    3.887054625564585E-020
 -2.800000000000000E-002    4.467430521730871E-020
 -2.790000000000000E-002    4.802267721982023E-020
 -2.780000000000000E-002    4.766826448961320E-020
 -2.770000000000000E-002    4.232563061761470E-020
 -2.760000000000000E-002    3.080200364721053E-020
 -2.750000000000000E-002    1.216017525646132E-020
 -2.740000000000000E-002   -1.409570714297406E-020
 -2.730000000000000E-002   -4.782630898169902E-020
 -2.720000000000000E-002   -8.807545949366358E-020
 -2.710000000000000E-002   -1.329251067583117E-019
 -2.700000000000000E-002   -1.794135068327341E-019
 -2.690000000000000E-002   -2.235428662066886E-019
 -2.680000000000000E-002   -2.603987471537351E-019
 -2.670000000000000E-002   -2.843960952279296E-019
 -2.660000000000000E-002   -2.896556041622044E-019
 -2.650000000000000E-002   -2.705003954458474E-019
 -2.640000000000000E-002   -2.220471243232388E-019
 -2.630000000000000E-002   -1.408501266037302E-019
 -2.620000000000000E-002   -2.554341698927344E-020
 -2.610000000000000E-002    1.225842069565354E-019
 -2.600000000000000E-002    2.991493822939963E-019
 -2.590000000000000E-002    4.964341660744863E-019
 -2.580000000000000E-002    7.033984409025881E-019
 -2.570000000000000E-002    9.059772175725480E-019
 -2.560000000000000E-002    1.087670084478137E-018
 -2.550000000000000E-002    1.230400381723279E-018
 -2.540000000000000E-002    1.315592688650699E-018
 -2.530000000000000E-002    1.325393281664258E-018
 -2.520000000000000E-002    1.243942091020359E-018
 -2.510000000000000E-002    1.058600411334288E-018
 -2.500000000000000E-002    7.610489450400980E-019
 -2.490000000000000E-002    3.481935285444649E-019
 -2.480000000000000E-002   -1.771502740741237E-019
 -2.470000000000000E-002   -8.057840956398860E-019
 -2.460000000000000E-002   -1.521817755621651E-018
 -2.450000000000000E-002   -2.302451876726224E-018
 -2.440000000000000E-002   -3.117771833287065E-018
 -2.430000000000000E-002   -3.930493413679462E-018
 -2.420000000000000E-002   -4.695648956414191E-018
 -2.410000000000000E-002   -5.360280257762594E-018
 -2.400000000000000E-002   -5.863305254841931E-018
 -2.390000000000000E-002   -6.135830305024312E-018
 -2.380000000000000E-002   -6.102277786277611E-018
 -2.370000000000000E-002   -5.682759197635232E-018
 -2.360000000000000E-002   -4.797125612572370E-018
 -2.350000000000000E-002   -3.371056761958582E-018
 -2.340000000000000E-002   -1.344374492480020E-018
 -2.330000000000000E-002    1.318497498682278E-018
 -2.320000000000000E-002    4.616361357861330E-018
 -2.310000000000000E-002    8.498202658147497E-018
 -2.300000000000000E-002    1.285055473633453E-017
 -2.290000000000000E-002    1.748692708496515E-017
 -2.280000000000000E-002    2.214123523874131E-017
 -2.270000000000000E-002    2.646727517345278E-017
 -2.260000000000000E-002    3.004613911802598E-017
 -2.250000000000000E-002    3.240308718255496E-017
 -2.240000000000000E-002    3.303465295722366E-017
 -2.230000000000000E-002    3.144583839636828E-017
 -2.220000000000000E-002    2.719603884970980E-017
 -2.210000000000000E-002    1.995110715377135E-017
 -2.200000000000000E-002    9.537709238497806E-018
 -2.190000000000000E-002   -4.004953627289657E-018
 -2.180000000000000E-002   -2.038161941165947E-017
 -2.170000000000000E-002   -3.901148264043658E-017
 -2.160000000000000E-002   -5.901812108186296E-017
 -2.150000000000000E-002   -7.924321246026409E-017
 -2.140000000000000E-002   -9.828668609988137E-017
 -2.130000000000000E-002   -1.145737368672462E-016
 -2.120000000000000E-002   -1.264465902899079E-016
 -2.110000000000000E-002   -1.322762065199832E-016
 -2.100000000000000E-002   -1.305866682298387E-016
 -2.090000000000000E-002   -1.201830443338325E-016
 -2.080000000000000E-002   -1.002723588490706E-016
 -2.070000000000000E-002   -7.056714821246317E-017
 -2.060000000000000E-002   -3.136206418574385E-017
 -2.050000000000000E-002    1.642408257052271E-017
 -2.040000000000000E-002    7.124525009730732E-017
 -2.030000000000000E-002    1.309650129887519E-016
 -2.020000000000000E-002    1.929306287268298E-016
 -2.010000000000000E-002    2.540778658946460E-016
 -2.000000000000000E-002    3.110576424806880E-016
 -1.990000000000000E-002    3.603741274849144E-016
 -1.980000000000000E-002    3.985238041594257E-016
 -1.970000000000000E-002    4.221270383964355E-016
 -1.960000000000000E-002    4.280467501274753E-016
 -1.950000000000000E-002    4.134931270024411E-016
 -1.940000000000000E-002    3.761181531379277E-016
 -1.930000000000000E-002    3.141081024473581E-016
 -1.920000000000000E-002    2.262855523273317E-016
 -1.910000000000000E-002    1.122334172420163E-016
 -1.900000000000000E-002   -2.754813467854836E-017
 -1.890000000000000E-002   -1.914456715393021E-016
 -1.880000000000000E-002   -3.764994457627766E-016
 -1.870000000000000E-002   -5.781453821747161E-016
 -1.860000000000000E-002   -7.899571006880123E-016
 -1.850000000000000E-002   -1.003424558221839E-015
 -1.840000000000000E-002   -1.207816999725368E-015
 -1.830000000000000E-002   -1.390184381111871E-015
 -1.820000000000000E-002   -1.535553688711555E-015
 -1.810000000000000E-002   -1.627370023997933E-015
 -1.800000000000000E-002   -1.648219825338814E-015
 -1.790000000000000E-002   -1.580851552625495E-015
 -1.780000000000000E-002   -1.409480539465177E-015
 -1.770000000000000E-002   -1.121331270222386E-015
 -1.760000000000000E-002   -7.083339752149254E-016
 -1.750000000000000E-002   -1.688578889960251E-016
 -1.740000000000000E-002    4.906669762737253E-016
 -1.730000000000000E-002    1.254406313503339E-015
 -1.720000000000000E-002    2.096230435095826E-015
 -1.710000000000000E-002    2.979441460016150E-015
 -1.700000000000000E-002    3.857257296311428E-015
 -1.690000000000000E-002    4.674148791474390E-015
 -1.680000000000000E-002    5.368065990791951E-015
 -1.670000000000000E-002    5.873522962937340E-015
 -1.660000000000000E-002    6.125433650297139E-015
 -1.650000000000000E-002    6.063518080922932E-015
 -1.640000000000000E-002    5.637027907770380E-015
 -1.630000000000000E-002    4.809498523123625E-015
 -1.620000000000000E-002    3.563189067983415E-015
 -1.610000000000000E-002    1.902877893051186E-015
 -1.600000000000000E-002   -1.413087655196790E-016
 -1.590000000000000E-002   -2.512304489698129E-015
 -1.580000000000000E-002   -5.125957737612523E-015
 -1.570000000000000E-002   -7.872451404567367E-015
 -1.560000000000000E-002   -1.061932082051361E-014
 -1.550000000000000E-002   -1.321599555523103E-014
 -1.540000000000000E-002   -1.549972100387079E-014
 -1.530000000000000E-002   -1.730262271329367E-014
 -1.520000000000000E-002   -1.845964110580558E-014
 -1.510000000000000E-002   -1.881701921967210E-014
 -1.500000000000000E-002   -1.824101984459745E-014
 -1.490000000000000E-002   -1.662656112139966E-014
 -1.480000000000000E-002   -1.390546753743576E-014
 -1.470000000000000E-002   -1.005406264618418E-014
 -1.460000000000000E-002   -5.099843612493874E-015
 -1.450000000000000E-002    8.730231571500995E-016
 -1.440000000000000E-002    7.719648761372559E-015
 -1.430000000000000E-002    1.523212831800834E-014
 -1.420000000000000E-002    2.313934654026406E-014
 -1.410000000000000E-002    3.110929125860630E-014
 -1.400000000000000E-002    3.875431472489271E-014
 -1.390000000000000E-002    4.563981439758726E-014
 -1.380000000000000E-002    5.129676246960892E-014
 -1.370000000000000E-002    5.523841608999904E-014
 -1.360000000000000E-002    5.698140007203764E-014
 -1.350000000000000E-002    5.607104170195939E-014
 -1.340000000000000E-002    5.211055452567057E-014
 -1.330000000000000E-002    4.479321386712138E-014
 -1.320000000000000E-002    3.393619345577451E-014
 -1.310000000000000E-002    1.951426892708311E-014
 -1.300000000000000E-002    1.691174706413572E-015
 -1.290000000000000E-002   -1.915406458131076E-014
 -1.280000000000000E-002   -4.240863809686697E-014
 -1.270000000000000E-002   -6.721817280493728E-014
 -1.260000000000000E-002   -9.249244773341894E-014
 -1.250000000000000E-002   -1.169268105638196E-013
 -1.240000000000000E-002   -1.390409311827093E-013
 -1.230000000000000E-002   -1.572354293858382E-013
 -1.220000000000000E-002   -1.698659524072243E-013
 -1.210000000000000E-002   -1.753327131973004E-013
 -1.200000000000000E-002   -1.721822700906351E-013
 -1.190000000000000E-002   -1.592170279718047E-013
 -1.180000000000000E-002   -1.356064600645993E-013
 -1.170000000000000E-002   -1.009933422913836E-013
 -1.160000000000000E-002   -5.558759468752037E-014
 -1.150000000000000E-002   -2.399344663555178E-016
 -1.140000000000000E-002    6.351189576544898E-014
 -1.130000000000000E-002    1.334308966197915E-013
 -1.120000000000000E-002    2.066078920356298E-013
 -1.110000000000000E-002    2.795313051615917E-013
 -1.100000000000000E-002    3.482008962522710E-013
 -1.090000000000000E-002    4.082843408038706E-013
 -1.080000000000000E-002    4.553127249853418E-013
 -1.070000000000000E-002    4.849086539532773E-013
 -1.060000000000000E-002    4.930378854247138E-013
 -1.050000000000000E-002    4.762734467348273E-013
 -1.040000000000000E-002    4.320592638207945E-013
 -1.030000000000000E-002    3.589592640210503E-013
 -1.020000000000000E-002    2.568769151040257E-013
 -1.010000000000000E-002    1.272309650636536E-013
 -1.000000000000000E-002   -2.692712414198630E-014
 -9.899999999999999E-003   -2.008656514873487E-013
 -9.800000000000000E-003   -3.882060161088377E-013
 -9.699999999999999E-003   -5.810436671498539E-013
 -9.599999999999999E-003   -7.701609590685589E-013
 -9.500000000000000E-003   -9.453318022586952E-013
 -9.399999999999999E-003   -1.095713941066030E-012
 -9.299999999999999E-003   -1.210320343167709E-012
 -9.200000000000000E-003   -1.278556065939890E-012
 -9.099999999999999E-003   -1.290802896029594E-012
 -8.999999999999999E-003   -1.239030016146924E-012
 -8.900000000000000E-003   -1.117402892593125E-012
 -8.799999999999999E-003   -9.228625297504494E-013
 -8.699999999999999E-003   -6.556417346423929E-013
 -8.600000000000000E-003   -3.196847586508586E-013
 -8.499999999999999E-003    7.706276267194273E-014
 -8.399999999999999E-003    5.225266994880797E-013
 -8.300000000000000E-003    1.000568519938248E-012
 -8.199999999999999E-003    1.491263657809523E-012
 -8.100000000000000E-003    1.971411716232111E-012
 -8.000000000000000E-003    2.415283174928500E-012
 -7.899999999999999E-003    2.795598699781220E-012
 -7.800000000000000E-003    3.084722911582818E-012
 -7.699999999999999E-003    3.256039939250182E-012
 -7.599999999999999E-003    3.285463600566343E-012
 -7.499999999999999E-003    3.153021266008032E-012
 -7.399999999999999E-003    2.844436377382192E-012
 -7.299999999999999E-003    2.352623447787950E-012
 -7.199999999999999E-003    1.679004173407855E-012
 -7.100000000000000E-003    8.345457160263677E-013
 -6.999999999999999E-003   -1.595701812184458E-013
 -6.899999999999999E-003   -1.271736811153083E-012
 -6.800000000000000E-003   -2.460241485993552E-012
 -6.699999999999999E-003   -3.674165978206890E-012
 -6.599999999999999E-003   -4.854895209698474E-012
 -6.499999999999999E-003   -5.938229430915574E-012
 -6.399999999999999E-003   -6.857058749537236E-012
 -6.299999999999999E-003   -7.544523226167580E-012
 -6.199999999999999E-003   -7.937545292001705E-012
 -6.100000000000000E-003   -7.980585315877484E-012
 -5.999999999999999E-003   -7.629446174614626E-012
 -5.899999999999999E-003   -6.854914702532006E-012
 -5.800000000000000E-003   -5.646038433671231E-012
 -5.699999999999999E-003   -4.012806078878711E-012
 -5.599999999999999E-003   -1.988032151604412E-012
 -5.499999999999999E-003    3.717526936783900E-013
 -5.399999999999999E-003    2.986552794228345E-012
 -5.299999999999999E-003    5.754408609183947E-012
 -5.199999999999999E-003    8.554208427836928E-012
 -5.099999999999999E-003    1.124978519034488E-011
 -4.999999999999999E-003    1.369523057724311E-011
 -4.899999999999999E-003    1.574125874133801E-011
 -4.799999999999999E-003    1.724241231559677E-011
 -4.699999999999999E-003    1.806480499965516E-011
 -4.599999999999999E-003    1.809407833059315E-011
 -4.499999999999999E-003    1.724317278100404E-011
 -4.399999999999999E-003    1.545950292075059E-011
 -4.299999999999999E-003    1.273113574984886E-011
 -4.199999999999999E-003    9.091543559738936E-012
 -4.099999999999999E-003    4.622564689876246E-012
 -3.999999999999999E-003   -5.447348925138142E-013
 -3.899999999999999E-003   -6.231561858083686E-012
 -3.799999999999999E-003   -1.221539680172118E-011
 -3.699999999999999E-003   -1.823654028416439E-011
 -3.599999999999999E-003   -2.400713683332541E-011
 -3.499999999999999E-003   -2.922246087698356E-011
 -3.399999999999999E-003   -3.357413212017863E-011
 -3.299999999999999E-003   -3.676481291310778E-011
 -3.199999999999999E-003   -3.852378664653659E-011
 -3.099999999999999E-003   -3.862278024853288E-011
 -2.999999999999999E-003   -3.689123256684088E-011
 -2.899999999999999E-003   -3.323025447866633E-011
 -2.799999999999999E-003   -2.762443169551776E-011
 -2.699999999999999E-003   -2.015071109129600E-011
 -2.599999999999999E-003   -1.098363027022337E-011
 -2.499999999999999E-003   -3.962813037359697E-013
 -2.399999999999999E-003    1.124345510861425E-011
 -2.299999999999999E-003    2.348167305739924E-011
 -2.199999999999999E-003    3.579226778401135E-011
 -2.099999999999999E-003    4.759561720241710E-011
 -1.999999999999999E-003    5.828168142762571E-011
 -1.899999999999999E-003    6.723676046236409E-011
 -1.799999999999999E-003    7.387296235125678E-011
 -1.699999999999999E-003    7.765914701090905E-011
 -1.599999999999999E-003    7.815197877058060E-011
 -1.499999999999999E-003    7.502546578948083E-011
 -1.399999999999999E-003    6.809746237103677E-011
 -1.299999999999999E-003    5.735147058558638E-011
 -1.199999999999999E-003    4.295222461921088E-011
 -1.099999999999999E-003    2.525375688023504E-011
 -9.999999999999989E-004    4.798830726791193E-012
 -8.999999999999990E-004   -1.769096570383643E-011
 -7.999999999999990E-004   -4.133477399211200E-011
 -6.999999999999989E-004   -6.512150547465162E-011
 -5.999999999999990E-004   -8.794771093963693E-011
 -4.999999999999989E-004   -1.086631164123613E-010
 -3.999999999999989E-004   -1.261221845511973E-010
 -2.999999999999989E-004   -1.392395465101727E-010
 -1.999999999999989E-004   -1.470469036277654E-010
 -9.999999999999892E-005   -1.487486302148565E-010
  1.084202172485504E-018   -1.437732684964222E-010
  1.000000000000011E-004   -1.318179686528859E-010
  2.000000000000011E-004   -1.128831905529259E-010
  3.000000000000011E-004   -8.729531071835382E-011
  4.000000000000011E-004   -5.571504552443370E-011
  5.000000000000011E-004   -1.913044816816170E-011
  6.000000000000011E-004    2.116636870812125E-011
  7.000000000000011E-004    6.361857121547431E-011
  8.000000000000011E-004    1.064592459824670E-010
  9.000000000000012E-004    1.477795745915212E-010
  1.000000000000001E-003    1.856080744487749E-010
  1.100000000000001E-003    2.179978315560059E-010
  1.200000000000001E-003    2.431178981727095E-010
  1.300000000000001E-003    2.593447998183387E-010
  1.400000000000001E-003    2.653497133772479E-010
  1.500000000000001E-003    2.601770485665340E-010
  1.600000000000001E-003    2.433100984911758E-010
  1.700000000000001E-003    2.147201873335587E-010
  1.800000000000001E-003    1.748959775828216E-010
  1.900000000000001E-003    1.248505437438412E-010
  2.000000000000001E-003    6.610507927997630E-011
  2.100000000000001E-003    6.484115122499468E-013
  2.200000000000001E-003   -6.912655811007304E-011
  2.300000000000001E-003   -1.405078476896060E-010
  2.400000000000001E-003   -2.105678134547999E-010
  2.500000000000001E-003   -2.762810807335531E-010
  2.600000000000001E-003   -3.346522622241440E-010
  2.700000000000001E-003   -3.828479325720237E-010
  2.800000000000001E-003   -4.183269658753593E-010
  2.900000000000001E-003   -4.389635589932466E-010
  3.000000000000001E-003   -4.431563581224991E-010
  3.100000000000001E-003   -4.299186868440502E-010
  3.200000000000001E-003   -3.989448649292835E-010
  3.300000000000001E-003   -3.506483140670661E-010
  3.400000000000001E-003   -2.861691933389505E-010
  3.500000000000001E-003   -2.073496032964569E-010
  3.600000000000001E-003   -1.166769166632478E-010
  3.700000000000001E-003   -1.719633621249124E-011
  3.800000000000001E-003    8.760375879975420E-011
  3.900000000000001E-003    1.939291306581881E-010
  4.000000000000001E-003    2.978336963446648E-010
  4.100000000000001E-003    3.953831460765060E-010
  4.200000000000001E-003    4.828204208101449E-010
  4.300000000000001E-003    5.567247659029409E-010
  4.400000000000001E-003    6.141561608671362E-010
  4.500000000000001E-003    6.527775879915992E-010
  4.600000000000002E-003    6.709483828040776E-010
  4.700000000000001E-003    6.677832798520943E-010
  4.800000000000001E-003    6.431736459265947E-010
  4.900000000000002E-003    5.977694133998448E-010
  5.000000000000001E-003    5.329224458687686E-010
  5.100000000000001E-003    4.505946091154129E-010
  5.200000000000001E-003    3.532355503355092E-010
  5.300000000000002E-003    2.436378240008894E-010
  5.400000000000001E-003    1.247788389120914E-010
  5.500000000000001E-003   -3.406430782502893E-013
  5.600000000000002E-003   -1.288499307080659E-010
  5.700000000000001E-003   -2.581428930573959E-010
  5.800000000000001E-003   -3.859830627743169E-010
  5.900000000000002E-003   -5.105709958895794E-010
  6.000000000000001E-003   -6.305665205348148E-010
  6.100000000000001E-003   -7.450625318828338E-010
  6.200000000000002E-003   -8.535085483372924E-010
  6.300000000000002E-003   -9.555875166181421E-010
  6.400000000000001E-003   -1.051051403544703E-009
  6.500000000000001E-003   -1.139524896727393E-009
  6.600000000000002E-003   -1.220290133336044E-009
  6.700000000000001E-003   -1.292067634597863E-009
  6.800000000000001E-003   -1.352810405454497E-009
  6.900000000000002E-003   -1.399528833948374E-009
  7.000000000000001E-003   -1.428164892258955E-009
  7.100000000000001E-003   -1.433532852285110E-009
  7.200000000000002E-003   -1.409341434927569E-009
  7.300000000000002E-003   -1.348308939567842E-009
  7.400000000000001E-003   -1.242380638764732E-009
  7.500000000000001E-003   -1.083050821354220E-009
  7.600000000000002E-003   -8.617875074704747E-010
  7.700000000000001E-003   -5.705530393777117E-010
  7.800000000000001E-003   -2.024060502945128E-010
  7.900000000000001E-003    2.478342663834276E-010
  8.000000000000002E-003    7.828862544988602E-010
  8.100000000000001E-003    1.402295979724023E-009
  8.200000000000001E-003    2.101754585122608E-009
  8.300000000000002E-003    2.872476841538755E-009
  8.400000000000001E-003    3.700682552995884E-009
  8.500000000000002E-003    4.567218043529403E-009
  8.600000000000002E-003    5.447356212374854E-009
  8.700000000000001E-003    6.310808973326141E-009
  8.800000000000002E-003    7.121984996067260E-009
  8.900000000000002E-003    7.840514781822828E-009
  9.000000000000001E-003    8.422063647812368E-009
  9.100000000000002E-003    8.819437194307801E-009
  9.200000000000002E-003    8.983982523683096E-009
  9.300000000000001E-003    8.867269220076895E-009
  9.400000000000002E-003    8.423029535818171E-009
  9.500000000000001E-003    7.609320759877464E-009
  9.600000000000001E-003    6.390866839432385E-009
  9.700000000000002E-003    4.741522786497885E-009
  9.800000000000001E-003    2.646797577917200E-009
  9.900000000000001E-003    1.063608132814665E-010
  1.000000000000000E-002   -2.863536967264254E-009
  1.010000000000000E-002   -6.227816693165337E-009
  1.020000000000000E-002   -9.930569726078310E-009
  1.030000000000000E-002   -1.389338442504365E-008
  1.040000000000000E-002   -1.801406103506703E-008
  1.050000000000000E-002   -2.216578991569200E-008
  1.060000000000000E-002   -2.619682927339968E-008
  1.070000000000000E-002   -2.993072666356162E-008
  1.080000000000000E-002   -3.316709742885564E-008
  1.090000000000000E-002   -3.568296854334855E-008
  1.100000000000000E-002   -3.723467521713878E-008
  1.110000000000000E-002   -3.756025802824790E-008
  1.120000000000000E-002   -3.638233653311036E-008
  1.130000000000000E-002   -3.341137770200492E-008
  1.140000000000000E-002   -2.834927291347521E-008
  1.150000000000000E-002   -2.089315817705587E-008
  1.160000000000000E-002   -1.073933664335809E-008
  1.170000000000000E-002    2.412778584242692E-009
  1.180000000000000E-002    1.885680587546797E-008
  1.190000000000000E-002    3.887576447462582E-008
  1.200000000000000E-002    6.273871072457852E-008
  1.210000000000000E-002    9.069786389153769E-008
  1.220000000000000E-002    1.229861498939462E-007
  1.230000000000000E-002    1.598153833094376E-007
  1.240000000000000E-002    2.013750821879372E-007
  1.250000000000000E-002    2.478319836957206E-007
  1.260000000000000E-002    2.993302517089589E-007
  1.270000000000000E-002    3.559924921233234E-007
  1.280000000000000E-002    4.179214678330274E-007
  1.290000000000000E-002    4.852025290180033E-007
  1.300000000000000E-002    5.579067347434149E-007
  1.310000000000000E-002    6.360945599388991E-007
  1.320000000000000E-002    7.198202885792285E-007
  1.330000000000000E-002    8.091366967995953E-007
  1.340000000000000E-002    9.041001965660988E-007
  1.350000000000000E-002    1.004776288196719E-006
  1.360000000000000E-002    1.111245051528215E-006
  1.370000000000000E-002    1.223606680451024E-006
  1.380000000000000E-002    1.341987187278456E-006
  1.390000000000000E-002    1.466543398002130E-006
  1.400000000000000E-002    1.597468338139571E-006
  1.410000000000000E-002    1.734995462251069E-006
  1.420000000000000E-002    1.879403108978695E-006
  1.430000000000000E-002    2.031018192085694E-006
  1.440000000000000E-002    2.190218705938178E-006
  1.450000000000000E-002    2.357437200871152E-006
  1.460000000000000E-002    2.533161733404126E-006
  1.470000000000000E-002    2.717937740926803E-006
  1.480000000000000E-002    2.912368306938871E-006
  1.490000000000000E-002    3.117115143613950E-006
  1.500000000000000E-002    3.332898045759848E-006
  1.510000000000000E-002    3.560494311870474E-006
  1.520000000000000E-002    3.800738968394369E-006
  1.530000000000000E-002    4.054522244651108E-006
  1.540000000000000E-002    4.322791055056883E-006
  1.550000000000000E-002    4.606546662847665E-006
  1.560000000000000E-002    4.906843648998549E-006
  1.570000000000000E-002    5.224791424473135E-006
  1.580000000000000E-002    5.561551613581958E-006
  1.590000000000000E-002    5.918340224080757E-006
  1.600000000000000E-002    6.296426315671113E-006
  1.610000000000000E-002    6.697134128853564E-006
  1.620000000000000E-002    7.121843280889057E-006
  1.630000000000000E-002    7.571990447712266E-006
  1.640000000000000E-002    8.049071177885069E-006
  1.650000000000000E-002    8.554641425250275E-006
  1.660000000000000E-002    9.090321190653868E-006
  1.670000000000000E-002    9.657794319913695E-006
  1.680000000000000E-002    1.025881324760078E-005
  1.690000000000000E-002    1.089520110782380E-005
  1.700000000000000E-002    1.156885531974801E-005
  1.710000000000000E-002    1.228174914550475E-005
  1.720000000000000E-002    1.303593576327105E-005
  1.730000000000000E-002    1.383355327941496E-005
  1.740000000000000E-002    1.467682420040580E-005
  1.750000000000000E-002    1.556806532641357E-005
  1.760000000000000E-002    1.650968647235673E-005
  1.770000000000000E-002    1.750419875806958E-005
  1.780000000000000E-002    1.855421586275337E-005
  1.790000000000000E-002    1.966246487606554E-005
  1.800000000000000E-002    2.083178304358960E-005
  1.810000000000000E-002    2.206513605062405E-005
  1.820000000000000E-002    2.336561391242364E-005
  1.830000000000000E-002    2.473644695638963E-005
  1.840000000000000E-002    2.618100868568002E-005
  1.850000000000000E-002    2.770282647671541E-005
  1.860000000000000E-002    2.930558840353202E-005
  1.870000000000000E-002    3.099315642764476E-005