 -4.000000000000000E-002    0.000000000000000E+000
 -3.990000000000000E-002    0.000000000000000E+000
 -3.980000000000000E-002    0.000000000000000E+000
 -3.970000000000000E-002    0.000000000000000E+000
 -3.960000000000000E-002    0.000000000000000E+000
 -3.950000000000000E-002    0.000000000000000E+000
 -3.940000000000000E-002   -1.080547974925058E-022
 -3.930000000000000E-002   -1.279222011455828E-021
 -3.920000000000000E-002   -8.092252914561630E-021
 -3.910000000000000E-002   -3.626120423167829E-020
 -3.900000000000000E-002   -1.288075202941493E-019
 -3.890000000000000E-002   -3.850259742086039E-019
 -3.880000000000000E-002   -1.004209707578713E-018
 -3.870000000000000E-002   -2.340126091832895E-018
 -3.860000000000000E-002   -4.951513051256523E-018
 -3.850000000000000E-002   -9.618639508250187E-018
 -3.840000000000000E-002   -1.727839764057118E-017
 -3.830000000000000E-002   -2.881495791806940E-017
 -3.820000000000000E-002   -4.463660185138362E-017
 -3.810000000000000E-002   -6.398027754514494E-017
 -3.800000000000000E-002   -8.392229392983119E-017
 -3.790000000000000E-002   -9.814214929160665E-017
 -3.780000000000000E-002   -9.558790636796914E-017
 -3.770000000000000E-002   -5.931839415353222E-017
 -3.760000000000000E-002    3.406715372591175E-017
 -3.750000000000000E-002    2.138852045728849E-016
 -3.740000000000000E-002    5.131219900521974E-016
 -3.730000000000000E-002    9.639321440218877E-016
 -3.720000000000000E-002    1.590495925365645E-015
 -3.710000000000000E-002    2.399172895792700E-015
 -3.700000000000000E-002    3.366376335495711E-015
 -3.690000000000000E-002    4.425212259778231E-015
 -3.680000000000000E-002    5.452614605363659E-015
 -3.670000000000000E-002    6.259373526765336E-015
 -3.660000000000000E-002    6.585960980745015E-015
 -3.650000000000000E-002    6.107263225803851E-015
 -3.640000000000000E-002    4.449118883590750E-015
 -3.630000000000000E-002    1.218801776310923E-015
 -3.620000000000000E-002   -3.949740014697209E-015
 -3.610000000000000E-002   -1.133694038739060E-014
 -3.600000000000000E-002   -2.106827754366514E-014
 -3.590000000000000E-002   -3.304027443372588E-014
 -3.580000000000000E-002   -4.684985271110981E-014
 -3.570000000000000E-002   -6.173677153138712E-014
 -3.560000000000000E-002   -7.654977735813792E-014
 -3.550000000000000E-002   -8.974668036686849E-014
 -3.540000000000000E-002   -9.943690926762584E-014
 -3.530000000000000E-002   -1.034717960432392E-013
 -3.520000000000000E-002   -9.958355817235164E-014
 -3.510000000000000E-002   -8.556854938558820E-014
 -3.500000000000000E-002   -5.950478183937590E-014
 -3.490000000000000E-002   -1.998867087266183E-014
 -3.480000000000000E-002    3.362837888054084E-014
 -3.470000000000000E-002    1.010248229616017E-013
 -3.460000000000000E-002    1.807369357942573E-013
 -3.450000000000000E-002    2.700490702891800E-013
 -3.440000000000000E-002    3.649606713888865E-013
 -3.430000000000000E-002    4.602386762996580E-013
 -3.420000000000000E-002    5.495563721619370E-013
 -3.410000000000000E-002    6.257130537566234E-013
 -3.400000000000000E-002    6.809234858003574E-013
 -3.390000000000000E-002    7.071621122916892E-013
 -3.380000000000000E-002    6.965471300705249E-013
 -3.370000000000000E-002    6.417508131321188E-013
 -3.360000000000000E-002    5.364275713637505E-013
 -3.350000000000000E-002    3.756564993661310E-013
 -3.340000000000000E-002    1.564002425705006E-013
 -3.330000000000000E-002   -1.220152301069069E-013
 -3.320000000000000E-002   -4.573967371335855E-013
 -3.310000000000000E-002   -8.441594955763202E-013
 -3.300000000000000E-002   -1.272799670720070E-012
 -3.290000000000000E-002   -1.729397670684953E-012
 -3.280000000000000E-002   -2.195210979607177E-012
 -3.270000000000000E-002   -2.646435523388707E-012
 -3.260000000000000E-002   -3.054236598661981E-012
 -3.250000000000000E-002   -3.385158707890108E-012
 -3.240000000000000E-002   -3.602025480978040E-012
 -3.230000000000000E-002   -3.665419839908887E-012
 -3.220000000000000E-002   -3.535801711845378E-012
 -3.210000000000000E-002   -3.176262257724238E-012
 -3.200000000000000E-002   -2.555843770929042E-012
 -3.190000000000000E-002   -1.653272441953228E-012
 -3.180000000000000E-002   -4.608665187737963E-013
 -3.170000000000000E-002    1.011696470082782E-012
 -3.160000000000000E-002    2.734126874070624E-012
 -3.150000000000000E-002    4.653190365403680E-012
 -3.140000000000000E-002    6.691694687169652E-012
 -3.130000000000000E-002    8.749145365298413E-012
 -3.120000000000000E-002    1.070432861569817E-011
 -3.110000000000000E-002    1.241994180614751E-011
 -3.100000000000000E-002    1.374923213560464E-011
 -3.090000000000000E-002    1.454441506257283E-011
 -3.080000000000000E-002    1.466646446725790E-011
 -3.070000000000000E-002    1.399569617418808E-011
 -3.060000000000000E-002    1.244243225217209E-011
 -3.050000000000000E-002    9.956965904329779E-012
 -3.040000000000000E-002    6.538008314212281E-012
 -3.030000000000000E-002    2.238880845427230E-012
 -3.020000000000000E-002   -2.829191775712027E-012
 -3.010000000000000E-002   -8.497126382033393E-012
 -3.000000000000000E-002   -1.454160444960202E-011
 -2.990000000000000E-002   -2.069225071894347E-011
 -2.980000000000000E-002   -2.664210329879740E-011
 -2.970000000000000E-002   -3.206088384621446E-011
 -2.960000000000000E-002   -3.661039655324880E-011
 -2.950000000000000E-002   -3.996125618419463E-011
 -2.940000000000000E-002   -4.181008470248861E-011
 -2.930000000000000E-002   -4.189632410885264E-011
 -2.920000000000000E-002   -4.001784700955940E-011
 -2.910000000000000E-002   -3.604470744597615E-011
 -2.900000000000000E-002   -2.993044239434111E-011
 -2.890000000000000E-002   -2.172051170834161E-011
 -2.880000000000000E-002   -1.155758150317992E-011
 -2.870000000000000E-002    3.165492377502850E-013
 -2.860000000000000E-002    1.356250444653726E-011
 -2.850000000000000E-002    2.774845675552709E-011
 -2.840000000000000E-002    4.235890384527016E-011
 -2.830000000000000E-002    5.680716678611046E-011
 -2.820000000000000E-002    7.045163703696622E-011
 -2.810000000000000E-002    8.261582281183614E-011
 -2.800000000000000E-002    9.261206302543415E-011
 -2.790000000000000E-002    9.976866272688359E-011
 -2.780000000000000E-002    1.034599638110127E-010
 -2.770000000000000E-002    1.031386485973722E-010
 -2.760000000000000E-002    9.836908833318443E-011
 -2.750000000000000E-002    8.886043158662354E-011
 -2.740000000000000E-002    7.449763851593022E-011
 -2.730000000000000E-002    5.536856619554230E-011
 -2.720000000000000E-002    3.178490978499881E-011
 -2.710000000000000E-002    4.295031978699969E-012
 -2.700000000000000E-002   -2.631339853232068E-011
 -2.690000000000000E-002   -5.902247599421359E-011
 -2.680000000000000E-002   -9.260600372326167E-011
 -2.670000000000000E-002   -1.256647510769333E-010
 -2.660000000000000E-002   -1.566747855575368E-010
 -2.650000000000000E-002   -1.840477755882719E-010
 -2.640000000000000E-002   -2.062012624820370E-010
 -2.630000000000000E-002   -2.216363271632885E-010
 -2.620000000000000E-002   -2.290190755028918E-010
 -2.610000000000000E-002   -2.272621298349130E-010
 -2.600000000000000E-002   -2.156016828799812E-010
 -2.590000000000000E-002   -1.936657719410148E-010
 -2.580000000000000E-002   -1.615293352730778E-010
 -2.570000000000000E-002   -1.197520017594808E-010
 -2.560000000000000E-002   -6.939514161029235E-011
 -2.550000000000000E-002   -1.201547714700888E-011
 -2.540000000000000E-002    5.036654681342948E-011
 -2.530000000000000E-002    1.153243012308497E-010
 -2.520000000000000E-002    1.801077531133781E-010
 -2.510000000000000E-002    2.417495878555355E-010
 -2.500000000000000E-002    2.971914159587816E-010
 -2.490000000000000E-002    3.434254275050684E-010
 -2.480000000000000E-002    3.776457838806781E-010
 -2.470000000000000E-002    3.974026663934084E-010
 -2.460000000000000E-002    4.007515618348660E-010
 -2.450000000000000E-002    3.863894722270245E-010
 -2.440000000000000E-002    3.537698468372891E-010
 -2.430000000000000E-002    3.031884437091935E-010
 -2.420000000000000E-002    2.358331498960266E-010
 -2.410000000000000E-002    1.537921684920495E-010
 -2.400000000000000E-002    6.001664661996329E-011
 -2.390000000000000E-002   -4.176351597180328E-011
 -2.380000000000000E-002   -1.471699747112724E-010
 -2.370000000000000E-002   -2.513486061678676E-010
 -2.360000000000000E-002   -3.491783145073267E-010
 -2.350000000000000E-002   -4.355072724853157E-010
 -2.340000000000000E-002   -5.054061342631534E-010
 -2.330000000000000E-002   -5.544257767040114E-010
 -2.320000000000000E-002   -5.788469711963357E-010
 -2.310000000000000E-002   -5.759089740900759E-010
 -2.300000000000000E-002   -5.440047632663903E-010
 -2.290000000000000E-002   -4.828322214571252E-010
 -2.280000000000000E-002   -3.934925656964328E-010
 -2.270000000000000E-002   -2.785298282821855E-010
 -2.260000000000000E-002   -1.419076658357169E-010
 -2.250000000000000E-002    1.107728840511187E-011
 -2.240000000000000E-002    1.739435814523990E-010
 -2.230000000000000E-002    3.392309029594536E-010
 -2.220000000000000E-002    4.987576101993405E-010
 -2.210000000000000E-002    6.439225554410945E-010
 -2.200000000000000E-002    7.660426270376688E-010
 -2.190000000000000E-002    8.567169780252728E-010
 -2.180000000000000E-002    9.082069839400509E-010
 -2.170000000000000E-002    9.138224630217631E-010
 -2.160000000000000E-002    8.683017576486851E-010
 -2.150000000000000E-002    7.681734803207536E-010
 -2.140000000000000E-002    6.120858741399056E-010
 -2.130000000000000E-002    4.010895731752964E-010
 -2.120000000000000E-002    1.388559935696961E-010
 -2.110000000000000E-002   -1.681840118454206E-010
 -2.100000000000000E-002   -5.107998969892354E-010
 -2.090000000000000E-002   -8.770350981371244E-010
 -2.080000000000000E-002   -1.252408071355922E-009
 -2.070000000000000E-002   -1.620252681552493E-009
 -2.060000000000000E-002   -1.962198367504895E-009
 -2.050000000000000E-002   -2.258791153597275E-009
 -2.040000000000000E-002   -2.490239242392031E-009
 -2.030000000000000E-002   -2.637265195032783E-009
 -2.020000000000000E-002   -2.682030532875459E-009
 -2.010000000000000E-002   -2.609095682670191E-009
 -2.000000000000000E-002   -2.406365778009052E-009
 -1.990000000000000E-002   -2.065971127883140E-009
 -1.980000000000000E-002   -1.585030274666048E-009
 -1.970000000000000E-002   -9.662443955085111E-010
 -1.960000000000000E-002   -2.182790783962486E-010
 -1.950000000000000E-002    6.441003412426374E-010
 -1.940000000000000E-002    1.600159176285289E-009
 -1.930000000000000E-002    2.623594612815826E-009
 -1.920000000000000E-002    3.683195006326365E-009
 -1.910000000000000E-002    4.743728750115659E-009
 -1.900000000000000E-002    5.767019687028110E-009
 -1.890000000000000E-002    6.713155753864515E-009
 -1.880000000000000E-002    7.541768442162062E-009
 -1.870000000000000E-002    8.213327497976990E-009
 -1.860000000000000E-002    8.690388871922147E-009
 -1.850000000000000E-002    8.938755300124015E-009
 -1.840000000000000E-002    8.928510820292815E-009
 -1.830000000000000E-002    8.634922436660970E-009
 -1.820000000000000E-002    8.039202873550283E-009
 -1.810000000000000E-002    7.129164979771371E-009
 -1.800000000000000E-002    5.899788355261906E-009
 -1.790000000000000E-002    4.353756681641089E-009
 -1.780000000000000E-002    2.501998645633289E-009
 -1.770000000000000E-002    3.642836475300671E-010
 -1.760000000000000E-002   -2.030098292794042E-009
 -1.750000000000000E-002   -4.641554437212725E-009
 -1.740000000000000E-002   -7.419311544556816E-009
 -1.730000000000000E-002   -1.030046521306799E-008
 -1.720000000000000E-002   -1.320900681079641E-008
 -1.710000000000000E-002   -1.605489100613492E-008
 -1.700000000000000E-002   -1.873322478469532E-008
 -1.690000000000000E-002   -2.112366509370993E-008
 -1.680000000000000E-002   -2.309009994083028E-008
 -1.670000000000000E-002   -2.448067845822575E-008
 -1.660000000000000E-002   -2.512824588748719E-008
 -1.650000000000000E-002   -2.485118394544428E-008
 -1.640000000000000E-002   -2.345465632702288E-008
 -1.630000000000000E-002   -2.073219073514445E-008
 -1.620000000000000E-002   -1.646753191753934E-008
 -1.610000000000000E-002   -1.043664027449237E-008
 -1.600000000000000E-002   -2.409728163123126E-009
 -1.590000000000000E-002    7.846814167100533E-009
 -1.580000000000000E-002    2.056871669351871E-008
 -1.570000000000000E-002    3.599245802019937E-008
 -1.560000000000000E-002    5.435431185707331E-008
 -1.550000000000000E-002    7.588981491638683E-008
 -1.540000000000000E-002    1.008336846901946E-007
 -1.530000000000000E-002    1.294201366587191E-007
 -1.520000000000000E-002    1.618834497404920E-007
 -1.510000000000000E-002    1.984587594148201E-007
 -1.500000000000000E-002    2.393827940291426E-007
 -1.490000000000000E-002    2.848946462549910E-007
 -1.480000000000000E-002    3.352360872082422E-007
 -1.470000000000000E-002    3.906516871553492E-007
 -1.460000000000000E-002    4.513884843360450E-007
 -1.450000000000000E-002    5.176951764618183E-007
 -1.440000000000000E-002    5.898208446525563E-007
 -1.430000000000000E-002    6.680135570963557E-007
 -1.420000000000000E-002    7.525188653358647E-007
 -1.410000000000000E-002    8.435778746334660E-007
 -1.400000000000000E-002    9.414265291625015E-007
 -1.390000000000000E-002    1.046294461772489E-006
 -1.380000000000000E-002    1.158405161841853E-006
 -1.370000000000000E-002    1.277977124138757E-006
 -1.360000000000000E-002    1.405225810390570E-006
 -1.350000000000000E-002    1.540367208658843E-006
 -1.340000000000000E-002    1.683622167319996E-006
 -1.330000000000000E-002    1.835222467012319E-006
 -1.320000000000000E-002    1.995417615944734E-006
 -1.310000000000000E-002    2.164482456879048E-006
 -1.300000000000000E-002    2.342725332819797E-006
 -1.290000000000000E-002    2.530496782719028E-006
 -1.280000000000000E-002    2.728197968441902E-006
 -1.270000000000000E-002    2.936288277287474E-006
 -1.260000000000000E-002    3.155293040985831E-006
 -1.250000000000000E-002    3.385809502001442E-006
 -1.240000000000000E-002    3.628510845831120E-006
 -1.230000000000000E-002    3.884150957487190E-006
 -1.220000000000000E-002    4.153565601262541E-006
 -1.210000000000000E-002    4.437672073688643E-006
 -1.200000000000000E-002    4.737469505149953E-006
 -1.190000000000000E-002    5.054034921649825E-006
 -1.180000000000000E-002    5.388520582555685E-006
 -1.170000000000000E-002    5.742150255364998E-006
 -1.160000000000000E-002    6.116213907782735E-006
 -1.150000000000000E-002    6.512064278666540E-006
 -1.140000000000000E-002    6.931111544676937E-006
 -1.130000000000000E-002    7.374821871685574E-006
 -1.120000000000000E-002    7.844714000315358E-006
 -1.110000000000000E-002    8.342358161014389E-006
 -1.100000000000000E-002    8.869376904408304E-006
 -1.090000000000000E-002    9.427448845846043E-006
 -1.080000000000000E-002    1.001830978125266E-005
 -1.070000000000000E-002    1.064376071871773E-005
 -1.060000000000000E-002    1.130567275415836E-005
 -1.050000000000000E-002    1.200599357527819E-005
 -1.040000000000000E-002    1.274675868366079E-005
 -1.030000000000000E-002    1.353009747816960E-005
 -1.020000000000000E-002    1.435824136627354E-005
 -1.010000000000000E-002    1.523353466489389E-005
 -1.000000000000000E-002    1.615843954830461E-005
 -9.899999999999999E-003    1.713554335360970E-005
 -9.800000000000000E-003    1.816756447523363E-005
 -9.699999999999999E-003    1.925735208492165E-005
 -9.599999999999999E-003    2.040789676779924E-005
 -9.500000000000000E-003    2.162232754845680E-005
 -9.399999999999999E-003    2.290391297439967E-005
 -9.299999999999999E-003    2.425606300520480E-005
 -9.200000000000000E-003    2.568232971794681E-005
 -9.099999999999999E-003    2.718640946651004E-005
 -8.999999999999999E-003    2.877214341669187E-005
 -8.900000000000000E-003    3.044352169795603E-005
 -8.799999999999999E-003    3.220468435660370E-005
 -8.699999999999999E-003    3.405993504444954E-005
 -8.600000000000000E-003    3.601374272816885E-005
 -8.499999999999999E-003    3.807075988115636E-005
 -8.399999999999999E-003    4.023582232277785E-005
 -8.300000000000000E-003    4.251398070567318E-005
 -8.199999999999999E-003    4.491050022710934E-005
 -8.100000000000000E-003    4.743088094367778E-005
 -8.000000000000000E-003    5.008088442284680E-005
 -7.899999999999999E-003    5.286653882567420E-005
 -7.800000000000000E-003    5.579416276542974E-005
 -7.699999999999999E-003    5.887038269467361E-005
 -7.599999999999999E-003    6.210214527259988E-005
 -7.499999999999999E-003    6.549672843824474E-005
 -7.399999999999999E-003    6.906176062793917E-005
 -7.299999999999999E-003    7.280522069501857E-005
 -7.199999999999999E-003    7.673545631127637E-005
 -7.100000000000000E-003    8.086119615653714E-005
 -6.999999999999999E-003    8.519153630651663E-005
 -6.899999999999999E-003    8.973597408418336E-005
 -6.800000000000000E-003    9.450438523757954E-005
 -6.699999999999999E-003    9.950704491904551E-005
 -6.599999999999999E-003    1.047546360878879E-004
 -6.499999999999999E-003    1.102582513448853E-004
 -6.399999999999999E-003    1.160293716902056E-004
 -6.299999999999999E-003    1.220799314203401E-004
 -6.199999999999999E-003    1.284222806379761E-004
 -6.100000000000000E-003    1.350692193876995E-004
 -5.999999999999999E-003    1.420339798622524E-004
 -5.899999999999999E-003    1.493302755770025E-004
 -5.800000000000000E-003    1.569722754431288E-004
 -5.699999999999999E-003    1.649746498597317E-004
 -5.599999999999999E-003    1.733525702823863E-004
 -5.499999999999999E-003    1.821217143926801E-004
 -5.399999999999999E-003    1.912982860162618E-004
 -5.299999999999999E-003    2.008990196563767E-004
 -5.199999999999999E-003    2.109412176889736E-004
 -5.099999999999999E-003    2.214427320973041E-004
 -4.999999999999999E-003    2.324219827874302E-004
 -4.899999999999999E-003    2.438979860807329E-004
 -4.799999999999999E-003    2.558903536791124E-004
 -4.699999999999999E-003    2.684193369449300E-004
 -4.599999999999999E-003    2.815058070363697E-004
 -4.499999999999999E-003    2.951712909592926E-004
 -4.399999999999999E-003    3.094379831682774E-004
 -4.299999999999999E-003    3.243287834276205E-004
 -4.199999999999999E-003    3.398673469391319E-004
 -4.099999999999999E-003    3.560780680567008E-004
 -3.999999999999999E-003    3.729860772328942E-004
 -3.899999999999999E-003    3.906174096822913E-004
 -3.799999999999999E-003    4.089988611053338E-004
 -3.699999999999999E-003    4.281581244517104E-004
 -3.599999999999999E-003    4.481238079412422E-004
 -3.499999999999999E-003    4.689254362032558E-004
 -3.399999999999999E-003    4.905934145426773E-004
 -3.299999999999999E-003    5.131591937632154E-004
 -3.199999999999999E-003    5.366551470820963E-004
 -3.099999999999999E-003    5.611146350531372E-004
 -2.999999999999999E-003    5.865720120048824E-004
 -2.899999999999999E-003    6.130625963005119E-004
 -2.799999999999999E-003    6.406226674112454E-004
 -2.699999999999999E-003    6.692894915215226E-004
 -2.599999999999999E-003    6.991013289555125E-004
 -2.499999999999999E-003    7.300974191852124E-004
 -2.399999999999999E-003    7.623178765893328E-004
 -2.299999999999999E-003    7.958038261913638E-004
 -2.199999999999999E-003    8.305973220111370E-004
 -2.099999999999999E-003    8.667412716873248E-004
 -1.999999999999999E-003    9.042795860682442E-004
 -1.899999999999999E-003    9.432571194132005E-004
 -1.799999999999999E-003    9.837196385318559E-004
 -1.699999999999999E-003    1.025713781109870E-003
 -1.599999999999999E-003    1.069287221617396E-003
 -1.499999999999999E-003    1.114488562732923E-003
 -1.399999999999999E-003    1.161367233830680E-003
 -1.299999999999999E-003    1.209973824158689E-003
 -1.199999999999999E-003    1.260359646461531E-003
 -1.099999999999999E-003    1.312577229595428E-003
 -9.999999999999989E-004    1.366679921475242E-003
 -8.999999999999990E-004    1.422722203127823E-003
 -7.999999999999990E-004    1.480759453113963E-003
 -6.999999999999989E-004    1.540848101958575E-003
 -5.999999999999990E-004    1.603045675637295E-003
 -4.999999999999989E-004    1.667410674318796E-003
 -3.999999999999989E-004    1.734002509958471E-003
 -2.999999999999989E-004    1.802881927760695E-003
 -1.999999999999989E-004    1.874110591465172E-003
 -9.999999999999892E-005    1.947750952775990E-003
  1.084202172485504E-018    2.023866783450049E-003
  1.000000000000011E-004    2.102522757742681E-003
  2.000000000000011E-004    2.183784284209662E-003
  3.000000000000011E-004    2.267718190001295E-003
  4.000000000000011E-004    2.354391561132069E-003
  5.000000000000011E-004    2.443872761429094E-003
  6.000000000000011E-004    2.536230728763556E-003
  7.000000000000011E-004    2.631535249070287E-003
  8.000000000000011E-004    2.729856586191311E-003
  9.000000000000012E-004    2.831265596297955E-003
  1.000000000000001E-003    2.935833660246561E-003
  1.100000000000001E-003    3.043632655118724E-003
  1.200000000000001E-003    3.154734728764627E-003
  1.300000000000001E-003    3.269212338588771E-003
  1.400000000000001E-003    3.387138123953547E-003
  1.500000000000001E-003    3.508584718366187E-003
  1.600000000000001E-003    3.633625289303317E-003
  1.700000000000001E-003    3.762332776952995E-003
  1.800000000000001E-003    3.894780151240776E-003
  1.900000000000001E-003    4.031039905793401E-003
  2.000000000000001E-003    4.171185146296674E-003
  2.100000000000001E-003    4.315288058739643E-003
  2.200000000000001E-003    4.463421280521834E-003
  2.300000000000001E-003    4.615656675012034E-003
  2.400000000000001E-003    4.772065739697729E-003
  2.500000000000001E-003    4.932720114097371E-003
  2.600000000000001E-003    5.097690328139052E-003
  2.700000000000001E-003    5.267046789446005E-003
  2.800000000000001E-003    5.440858456972721E-003
  2.900000000000001E-003    5.619194373559783E-003
  3.000000000000001E-003    5.802122438432666E-003
  3.100000000000001E-003    5.989709188084462E-003
  3.200000000000001E-003    6.182020612769847E-003
  3.300000000000001E-003    6.379121063085927E-003
  3.400000000000001E-003    6.581073720175129E-003
  3.500000000000001E-003    6.787940481544801E-003
  3.600000000000001E-003    6.999781488910846E-003
  3.700000000000001E-003    7.216654486844725E-003
  3.800000000000001E-003    7.438615912182955E-003
  3.900000000000001E-003    7.665720087618948E-003
  4.000000000000001E-003    7.898018467134423E-003
  4.100000000000001E-003    8.135560494964448E-003
  4.200000000000001E-003    8.378392547627352E-003
  4.300000000000001E-003    8.626558469019677E-003
  4.400000000000001E-003    8.880100035444280E-003
  4.500000000000001E-003    9.139054373566668E-003
  4.600000000000002E-003    9.403456530969533E-003
  4.700000000000001E-003    9.673337411510259E-003
  4.800000000000001E-003    9.948725709953032E-003
  4.900000000000002E-003    1.022964498107806E-002
  5.000000000000001E-003    1.051611581407916E-002
  5.100000000000001E-003    1.080815490542180E-002
  5.200000000000001E-003    1.110577484184177E-002
  5.300000000000002E-003    1.140898410347539E-002
  5.400000000000001E-003    1.171778642000718E-002
  5.500000000000001E-003    1.203218148705961E-002
  5.600000000000002E-003    1.235216449740115E-002
  5.700000000000001E-003    1.267772529707986E-002
  5.800000000000001E-003    1.300884912261343E-002
  5.900000000000002E-003    1.334551572272910E-002
  6.000000000000001E-003    1.368770002484219E-002
  6.100000000000001E-003    1.403537032326091E-002
  6.200000000000002E-003    1.438849119820832E-002
  6.300000000000002E-003    1.474701928607722E-002
  6.400000000000001E-003    1.511090518320683E-002
  6.500000000000001E-003    1.548009606593882E-002
  6.600000000000002E-003    1.585452935151772E-002
  6.700000000000001E-003    1.623413578173599E-002
  6.800000000000001E-003    1.661884334848710E-002
  6.900000000000002E-003    1.700856895692646E-002
  7.000000000000001E-003    1.740322256274211E-002
  7.100000000000001E-003    1.780270960610263E-002
  7.200000000000002E-003    1.820692770400239E-002
  7.300000000000002E-003    1.861576395454565E-002
  7.400000000000001E-003    1.902909967924845E-002
  7.500000000000001E-003    1.944680784463072E-002
  7.600000000000002E-003    1.986875472951562E-002
  7.700000000000001E-003    2.029479724723433E-002
  7.800000000000001E-003    2.072478274892438E-002
  7.900000000000001E-003    2.115855260344729E-002
  8.000000000000002E-003    2.159593870579194E-002
  8.100000000000001E-003    2.203676542030543E-002
  8.200000000000001E-003    2.248084638727863E-002
  8.300000000000002E-003    2.292798936531379E-002
  8.400000000000001E-003    2.337798994809669E-002
  8.500000000000002E-003    2.383063827530537E-002
  8.600000000000002E-003    2.428571481510710E-002
  8.700000000000001E-003    2.474299053179599E-002
  8.800000000000002E-003    2.520222608384495E-002
  8.900000000000002E-003    2.566317603684417E-002
  9.000000000000001E-003    2.612558300318044E-002
  9.100000000000002E-003    2.658918267120123E-002
  9.200000000000002E-003    2.705370117007155E-002
  9.300000000000001E-003    2.751885655088719E-002
  9.400000000000002E-003    2.798435489582982E-002
  9.500000000000001E-003    2.844989585803877E-002
  9.600000000000001E-003    2.891516923904425E-002
  9.700000000000002E-003    2.937985571735222E-002
  9.800000000000001E-003    2.984362625901672E-002
  9.900000000000001E-003    3.030614586635165E-002
  1.000000000000000E-002    3.076706973668383E-002
  1.010000000000000E-002    3.122604004176107E-002
  1.020000000000000E-002    3.168269278690840E-002
  1.030000000000000E-002    3.213665742247448E-002
  1.040000000000000E-002    3.258755533554406E-002
  1.050000000000000E-002    3.303499296812130E-002
  1.060000000000000E-002    3.347857650571229E-002
  1.070000000000000E-002    3.391789931314257E-002
  1.080000000000000E-002    3.435255105676341E-002
  1.090000000000000E-002    3.478210678519116E-002
  1.100000000000000E-002    3.520614111106190E-002
  1.110000000000000E-002    3.562421856996625E-002
  1.120000000000000E-002    3.603589734803470E-002
  1.130000000000000E-002    3.644073026722285E-002
  1.140000000000000E-002    3.683825999809426E-002
  1.150000000000000E-002    3.722802363628568E-002
  1.160000000000000E-002    3.760955916228283E-002
  1.170000000000000E-002    3.798239255938233E-002
  1.180000000000000E-002    3.834604695402789E-002
  1.190000000000000E-002    3.870003764787834E-002
  1.200000000000000E-002    3.904388155456696E-002
  1.210000000000000E-002    3.937709092198044E-002
  1.220000000000000E-002    3.969917074055583E-002
  1.230000000000000E-002    4.000962436958808E-002
  1.240000000000000E-002    4.030795291069873E-002
  1.250000000000000E-002    4.059365774648212E-002
  1.260000000000000E-002    4.086623154320733E-002
  1.270000000000000E-002    4.112517132862308E-002
  1.280000000000000E-002    4.136997353540162E-002
  1.290000000000000E-002    4.160013015693331E-002
  1.300000000000000E-002    4.181513197357588E-002
  1.310000000000000E-002    4.201447880976004E-002
  1.320000000000000E-002    4.219766059189517E-002
  1.330000000000000E-002    4.236417516883464E-002
  1.340000000000000E-002    4.251352226763008E-002
  1.350000000000000E-002    4.264519923206940E-002
  1.360000000000000E-002    4.275871347599618E-002
  1.370000000000000E-002    4.285357337423773E-002
  1.380000000000000E-002    4.292928780442475E-002
  1.390000000000000E-002    4.298537418095562E-002
  1.400000000000000E-002    4.302135393214258E-002
  1.410000000000000E-002    4.303675699625328E-002
  1.420000000000000E-002    4.303111854476928E-002
  1.430000000000000E-002    4.300398206409706E-002
  1.440000000000000E-002    4.295489633374748E-002
  1.450000000000000E-002    4.288341700165187E-002
  1.460000000000000E-002    4.278911565339507E-002
  1.470000000000000E-002    4.267156631006601E-002
  1.480000000000000E-002    4.253035708546299E-002
  1.490000000000000E-002    4.236508935894279E-002
  1.500000000000000E-002    4.217537153699882E-002
  1.510000000000000E-002    4.196082651985010E-002
  1.520000000000000E-002    4.172109044642198E-002
  1.530000000000000E-002    4.145581159741389E-002
  1.540000000000000E-002    4.116465033923145E-002
  1.550000000000000E-002    4.084728857691068E-002
  1.560000000000000E-002    4.050341500148877E-002
  1.570000000000000E-002    4.013273977247513E-002
  1.580000000000000E-002    3.973498662249679E-002
  1.590000000000000E-002    3.930989693517691E-002
  1.600000000000000E-002    3.885723240074186E-002
  1.610000000000000E-002    3.837676752965730E-002
  1.620000000000000E-002    3.786829552275976E-002
  1.630000000000000E-002    3.733163395965285E-002
  1.640000000000000E-002    3.676661437093245E-002
  1.650000000000000E-002    3.617309196522342E-002
  1.660000000000000E-002    3.555093868805567E-002
  1.670000000000000E-002    3.490005182648396E-002
  1.680000000000000E-002    3.422034843765841E-002
  1.690000000000000E-002    3.351177010141451E-002
  1.700000000000000E-002    3.277427515697579E-002
  1.710000000000000E-002    3.200784948814093E-002
  1.720000000000000E-002    3.121250105541006E-002
  1.730000000000000E-002    3.038825964632472E-002
  1.740000000000000E-002    2.953518173248780E-002
  1.750000000000000E-002    2.865334600447188E-002
  1.760000000000000E-002    2.774285681836357E-002
  1.770000000000000E-002    2.680383962553334E-002
  1.780000000000000E-002    2.583645198068415E-002
  1.790000000000000E-002    2.484086914381645E-002
  1.800000000000000E-002    2.381729716880110E-002
  1.810000000000000E-002    2.276596352325943E-002
  1.820000000000000E-002    2.168712368872758E-002
  1.830000000000000E-002    2.058105913076444E-002
  1.840000000000000E-002    1.944807589070662E-002
  1.850000000000000E-002    1.828850576825731E-002
  1.860000000000000E-002    1.710270595951537E-002
  1.870000000000000E-002    1.589105945228689E-002