 -4.000000000000000E-002    0.000000000000000E+000
 -3.990000000000000E-002    0.000000000000000E+000
 -3.980000000000000E-002    0.000000000000000E+000
 -3.970000000000000E-002    0.000000000000000E+000
 -3.960000000000000E-002    0.000000000000000E+000
 -3.950000000000000E-002    0.000000000000000E+000
 -3.940000000000000E-002    0.000000000000000E+000
 -3.930000000000000E-002    0.000000000000000E+000
 -3.920000000000000E-002    0.000000000000000E+000
 -3.910000000000000E-002    0.000000000000000E+000
 -3.900000000000000E-002    1.663138774157331E-033
 -3.890000000000000E-002    2.470092921389363E-032
 -3.880000000000000E-002    1.635322897816641E-031
 -3.870000000000000E-002    4.961019954889276E-031
 -3.860000000000000E-002   -9.681680973499787E-031
 -3.850000000000000E-002   -2.101173945774603E-029
 -3.840000000000000E-002   -1.445965811068579E-028
 -3.830000000000000E-002   -7.004054479183601E-028
 -3.820000000000000E-002   -2.739386008543752E-027
 -3.810000000000000E-002   -9.143990610819719E-027
 -3.800000000000000E-002   -2.682856710015630E-026
 -3.790000000000000E-002   -7.042064519736647E-026
 -3.780000000000000E-002   -1.671547642898801E-025
 -3.770000000000000E-002   -3.608756420815570E-025
 -3.760000000000000E-002   -7.093817991827916E-025
 -3.750000000000000E-002   -1.263528155173157E-024
 -3.740000000000000E-002   -2.009289854179706E-024
 -3.730000000000000E-002   -2.748181555074677E-024
 -3.720000000000000E-002   -2.892818252071825E-024
 -3.710000000000000E-002   -1.172121684502905E-024
 -3.700000000000000E-002    4.714127112444303E-024
 -3.690000000000000E-002    1.836945504005299E-023
 -3.680000000000000E-002    4.466114748005953E-023
 -3.670000000000000E-002    8.898228411644934E-023
 -3.660000000000000E-002    1.553104824229647E-022
 -3.650000000000000E-002    2.425382075403778E-022
 -3.640000000000000E-002    3.387382130302981E-022
 -3.630000000000000E-002    4.135460329431362E-022
 -3.620000000000000E-002    4.097823360964755E-022
 -3.610000000000000E-002    2.368086173142118E-022
 -3.600000000000000E-002   -2.302482859462943E-022
 -3.590000000000000E-002   -1.139736290634665E-021
 -3.580000000000000E-002   -2.634742287951069E-021
 -3.570000000000000E-002   -4.800783845942479E-021
 -3.560000000000000E-002   -7.587731123297968E-021
 -3.550000000000000E-002   -1.071043762163720E-020
 -3.540000000000000E-002   -1.354265554967660E-020
 -3.530000000000000E-002   -1.503143658247186E-020
 -3.520000000000000E-002   -1.367205844525454E-020
 -3.510000000000000E-002   -7.592771539823665E-021
 -3.500000000000000E-002    5.200877547596480E-021
 -3.490000000000000E-002    2.638624795578398E-020
 -3.480000000000000E-002    5.668523603434073E-020
 -3.470000000000000E-002    9.507773910446564E-020
 -3.460000000000000E-002    1.379877988040779E-019
 -3.450000000000000E-002    1.786405792359208E-019
 -3.440000000000000E-002    2.068540386580261E-019
 -3.430000000000000E-002    2.095585556081965E-019
 -3.420000000000000E-002    1.723032325619192E-019
 -3.410000000000000E-002    8.188495608946906E-020
 -3.400000000000000E-002   -6.998784145633451E-020
 -3.390000000000000E-002   -2.824000390700765E-019
 -3.380000000000000E-002   -5.410750750129330E-019
 -3.370000000000000E-002   -8.154833188268145E-019
 -3.360000000000000E-002   -1.058563732912908E-018
 -3.350000000000000E-002   -1.210397092600354E-018
 -3.340000000000000E-002   -1.206801906734687E-018
 -3.330000000000000E-002   -9.930269452941346E-019
 -3.320000000000000E-002   -5.414916478190768E-019
 -3.310000000000000E-002    1.290129771191089E-019
 -3.300000000000000E-002    9.368617833345794E-019
 -3.290000000000000E-002    1.729375925680170E-018
 -3.280000000000000E-002    2.288901819741717E-018
 -3.270000000000000E-002    2.358549960099348E-018
 -3.260000000000000E-002    1.690638794010082E-018
 -3.250000000000000E-002    1.167980027155744E-019
 -3.240000000000000E-002   -2.366993883020454E-018
 -3.230000000000000E-002   -5.513753583396856E-018
 -3.220000000000000E-002   -8.756926168113756E-018
 -3.210000000000000E-002   -1.118424038235040E-017
 -3.200000000000000E-002   -1.157943069991256E-017
 -3.190000000000000E-002   -8.553207000289180E-018
 -3.180000000000000E-002   -7.744685237516521E-019
 -3.170000000000000E-002    1.270416066918443E-017
 -3.160000000000000E-002    3.205472980338233E-017
 -3.150000000000000E-002    5.626956394983532E-017
 -3.140000000000000E-002    8.282094128219299E-017
 -3.130000000000000E-002    1.074784534085877E-016
 -3.120000000000000E-002    1.243817958288775E-016
 -3.110000000000000E-002    1.264532348177893E-016
 -3.100000000000000E-002    1.061995247885352E-016
 -3.090000000000000E-002    5.689761230779771E-017
 -3.080000000000000E-002   -2.591436537363374E-017
 -3.070000000000000E-002   -1.428001863779281E-016
 -3.060000000000000E-002   -2.888796785890081E-016
 -3.050000000000000E-002   -4.526686844329016E-016
 -3.040000000000000E-002   -6.156220714009768E-016
 -3.030000000000000E-002   -7.526706629483815E-016
 -3.020000000000000E-002   -8.339589310979284E-016
 -3.010000000000000E-002   -8.278482817392626E-016
 -3.000000000000000E-002   -7.050627911028260E-016
 -2.990000000000000E-002   -4.436407688878121E-016
 -2.980000000000000E-002   -3.414568721199131E-017
 -2.970000000000000E-002    5.155775931508523E-016
 -2.960000000000000E-002    1.176902695654641E-015
 -2.950000000000000E-002    1.898960562943594E-015
 -2.940000000000000E-002    2.609852765887022E-015
 -2.930000000000000E-002    3.220903914890974E-015
 -2.920000000000000E-002    3.633941753454612E-015
 -2.910000000000000E-002    3.751170612605324E-015
 -2.900000000000000E-002    3.486764565961475E-015
 -2.890000000000000E-002    2.778969343832866E-015
 -2.880000000000000E-002    1.601280328682151E-015
 -2.870000000000000E-002   -2.875503196170393E-017
 -2.860000000000000E-002   -2.044370790508646E-015
 -2.850000000000000E-002   -4.328926423636429E-015
 -2.840000000000000E-002   -6.720102936797280E-015
 -2.830000000000000E-002   -9.018699784948606E-015
 -2.820000000000000E-002   -1.100123927142252E-014
 -2.810000000000000E-002   -1.243517766635990E-014
 -2.800000000000000E-002   -1.309536600030054E-014
 -2.790000000000000E-002   -1.278049187778872E-014
 -2.780000000000000E-002   -1.132860994341809E-014
 -2.770000000000000E-002   -8.631353106909096E-015
 -2.760000000000000E-002   -4.646981342057926E-015
 -2.750000000000000E-002    5.872015691066186E-016
 -2.740000000000000E-002    6.942446034936978E-015
 -2.730000000000000E-002    1.418594272006276E-014
 -2.720000000000000E-002    2.196862635803690E-014
 -2.710000000000000E-002    2.981527846382445E-014
 -2.700000000000000E-002    3.712030384531450E-014
 -2.690000000000000E-002    4.315385554798315E-014
 -2.680000000000000E-002    4.708381011432241E-014
 -2.670000000000000E-002    4.801894270355397E-014
 -2.660000000000000E-002    4.507725253922783E-014
 -2.650000000000000E-002    3.748049814817995E-014
 -2.640000000000000E-002    2.467185397690236E-014
 -2.630000000000000E-002    6.448376870373484E-015
 -2.620000000000000E-002   -1.690550356342442E-014
 -2.610000000000000E-002   -4.450210072848650E-014
 -2.600000000000000E-002   -7.477409908444330E-014
 -2.590000000000000E-002   -1.054601929715062E-013
 -2.580000000000000E-002   -1.336723611239689E-013
 -2.570000000000000E-002   -1.560580064532467E-013
 -2.560000000000000E-002   -1.690597630621695E-013
 -2.550000000000000E-002   -1.692630794976938E-013
 -2.540000000000000E-002   -1.538072772494240E-013
 -2.530000000000000E-002   -1.208221167737453E-013
 -2.520000000000000E-002   -6.984075412022177E-014
 -2.510000000000000E-002   -2.133959981500058E-015
 -2.500000000000000E-002    7.908950630370251E-014
 -2.490000000000000E-002    1.686636272285661E-013
 -2.480000000000000E-002    2.596590927862630E-013
 -2.470000000000000E-002    3.438011464126331E-013
 -2.460000000000000E-002    4.120962438910111E-013
 -2.450000000000000E-002    4.556257524667097E-013
 -2.440000000000000E-002    4.664400199666877E-013
 -2.430000000000000E-002    4.384682603943920E-013
 -2.420000000000000E-002    3.683484464061810E-013
 -2.410000000000000E-002    2.560832838912169E-013
 -2.400000000000000E-002    1.054393588931372E-013
 -2.390000000000000E-002   -7.597086703305835E-014
 -2.380000000000000E-002   -2.769549160289092E-013
 -2.370000000000000E-002   -4.833505294808122E-013
 -2.360000000000000E-002   -6.789423174165318E-013
 -2.350000000000000E-002   -8.466173905350540E-013
 -2.340000000000000E-002   -9.696692084213770E-013
 -2.330000000000000E-002   -1.033147122518266E-012
 -2.320000000000000E-002   -1.025147306471577E-012
 -2.310000000000000E-002   -9.379487298673080E-013
 -2.300000000000000E-002   -7.689133193547226E-013
 -2.290000000000000E-002   -5.210916693698987E-013
 -2.280000000000000E-002   -2.034940280494542E-013
 -2.270000000000000E-002    1.689915671572476E-013
 -2.260000000000000E-002    5.760388146943079E-013
 -2.250000000000000E-002    9.926732166602745E-013
 -2.240000000000000E-002    1.390399259835190E-012
 -2.230000000000000E-002    1.738644179957480E-012
 -2.220000000000000E-002    2.006489737003874E-012
 -2.210000000000000E-002    2.164649646379654E-012
 -2.200000000000000E-002    2.187629440438176E-012
 -2.190000000000000E-002    2.055976514082482E-012
 -2.180000000000000E-002    1.758494446658863E-012
 -2.170000000000000E-002    1.294258041750490E-012
 -2.160000000000000E-002    6.742380036339357E-013
 -2.150000000000000E-002   -7.767807540391519E-014
 -2.140000000000000E-002   -9.244756824439214E-013
 -2.130000000000000E-002   -1.816798703315987E-012
 -2.120000000000000E-002   -2.694855316940545E-012
 -2.110000000000000E-002   -3.491486228459539E-012
 -2.100000000000000E-002   -4.136333642483090E-012
 -2.090000000000000E-002   -4.560925295772928E-012
 -2.080000000000000E-002   -4.704368864578843E-012
 -2.070000000000000E-002   -4.519247631052285E-012
 -2.060000000000000E-002   -3.977224373232397E-012
 -2.050000000000000E-002   -3.073820270153431E-012
 -2.040000000000000E-002   -1.831848748518537E-012
 -2.030000000000000E-002   -3.030363147507530E-013
 -2.020000000000000E-002    1.432523437123105E-012
 -2.010000000000000E-002    3.269287570714840E-012
 -2.000000000000000E-002    5.081575991610236E-012
 -1.990000000000000E-002    6.731099852221345E-012
 -1.980000000000000E-002    8.076333005840679E-012
 -1.970000000000000E-002    8.983166119386173E-012
 -1.960000000000000E-002    9.336124249305464E-012
 -1.950000000000000E-002    9.049329721861223E-012
 -1.940000000000000E-002    8.076308706104720E-012
 -1.930000000000000E-002    6.417756857138333E-012
 -1.920000000000000E-002    4.126431247708301E-012
 -1.910000000000000E-002    1.308463716483932E-012
 -1.900000000000000E-002   -1.879409140619663E-012
 -1.890000000000000E-002   -5.236942102460061E-012
 -1.880000000000000E-002   -8.531731740154727E-012
 -1.870000000000000E-002   -1.151438123171783E-011
 -1.860000000000000E-002   -1.393666589106338E-011
 -1.850000000000000E-002   -1.557150767773531E-011
 -1.840000000000000E-002   -1.623324508487671E-011
 -1.830000000000000E-002   -1.579645385950183E-011
 -1.820000000000000E-002   -1.421146849687256E-011
 -1.810000000000000E-002   -1.151482994249250E-011
 -1.800000000000000E-002   -7.833154677031667E-012
 -1.790000000000000E-002   -3.379362512697487E-012
 -1.780000000000000E-002    1.559129415846780E-012
 -1.770000000000000E-002    6.639884119786663E-012
 -1.760000000000000E-002    1.149139131959109E-011
 -1.750000000000000E-002    1.574348551167390E-011
 -1.740000000000000E-002    1.905957414222192E-011
 -1.730000000000000E-002    2.116759099365452E-011
 -1.720000000000000E-002    2.188647469537440E-011
 -1.710000000000000E-002    2.114522701228257E-011
 -1.700000000000000E-002    1.899222593629330E-011
 -1.690000000000000E-002    1.559339424676319E-011
 -1.680000000000000E-002    1.121899065289037E-011
 -1.670000000000000E-002    6.220037046105082E-012
 -1.660000000000000E-002    9.965720762135176E-013
 -1.650000000000000E-002   -4.039120207246319E-012
 -1.640000000000000E-002   -8.500558605476103E-012
 -1.630000000000000E-002   -1.206249975375580E-011
 -1.620000000000000E-002   -1.449019038137299E-011
 -1.610000000000000E-002   -1.565963253412576E-011
 -1.600000000000000E-002   -1.556713088447639E-011
 -1.590000000000000E-002   -1.432766318681293E-011
 -1.580000000000000E-002   -1.216282919151912E-011
 -1.570000000000000E-002   -9.380163080849840E-012
 -1.560000000000000E-002   -6.346287508801672E-012
 -1.550000000000000E-002   -3.456628375095143E-012
 -1.540000000000000E-002   -1.104224219195915E-012
 -1.530000000000000E-002    3.503757482581094E-013
 -1.520000000000000E-002    6.068738192272004E-013
 -1.510000000000000E-002   -5.498677823932643E-013
 -1.500000000000000E-002   -3.227742711602915E-012
 -1.490000000000000E-002   -7.407927965589840E-012
 -1.480000000000000E-002   -1.292811532471552E-011
 -1.470000000000000E-002   -1.946925824241876E-011
 -1.460000000000000E-002   -2.654769678493016E-011
 -1.450000000000000E-002   -3.351565629218412E-011
 -1.440000000000000E-002   -3.957396472406587E-011
 -1.430000000000000E-002   -4.380119912248641E-011
 -1.420000000000000E-002   -4.520290936324390E-011
 -1.410000000000000E-002   -4.278299998635101E-011
 -1.400000000000000E-002   -3.563680942229208E-011
 -1.390000000000000E-002   -2.306197782598444E-011
 -1.380000000000000E-002   -4.679329642566650E-012
 -1.370000000000000E-002    1.944774546831685E-011
 -1.360000000000000E-002    4.870986712064403E-011
 -1.350000000000000E-002    8.188028474853121E-011
 -1.340000000000000E-002    1.170911990818890E-010
 -1.330000000000000E-002    1.518708019000103E-010
 -1.320000000000000E-002    1.832491720574972E-010
 -1.310000000000000E-002    2.079341761158245E-010
 -1.300000000000000E-002    2.225504982458302E-010
 -1.290000000000000E-002    2.239263697390089E-010
 -1.280000000000000E-002    2.094049414640273E-010
 -1.270000000000000E-002    1.771513462427110E-010
 -1.260000000000000E-002    1.264238746806075E-010
 -1.250000000000000E-002    5.777812327558143E-011
 -1.240000000000000E-002   -2.682223251669929E-011
 -1.230000000000000E-002   -1.240066016032944E-010
 -1.220000000000000E-002   -2.291180995174325E-010
 -1.210000000000000E-002   -3.364491630110275E-010
 -1.200000000000000E-002   -4.395749098284084E-010
 -1.190000000000000E-002   -5.317565789613861E-010
 -1.180000000000000E-002   -6.063792338563976E-010
 -1.170000000000000E-002   -6.573844578351738E-010
 -1.160000000000000E-002   -6.796587069181376E-010
 -1.150000000000000E-002   -6.693445407433132E-010
 -1.140000000000000E-002   -6.240500073276297E-010
 -1.130000000000000E-002   -5.429437971079359E-010
 -1.120000000000000E-002   -4.267368932435271E-010
 -1.110000000000000E-002   -2.775632177401603E-010
 -1.100000000000000E-002   -9.878237018800952E-011
 -1.090000000000000E-002    1.052654809380264E-010
 -1.080000000000000E-002    3.295207798301317E-010
 -1.070000000000000E-002    5.684507819556290E-010
 -1.060000000000000E-002    8.162550961955742E-010
 -1.050000000000000E-002    1.067013398594022E-009
 -1.040000000000000E-002    1.314766057837204E-009
 -1.030000000000000E-002    1.553529424891153E-009
 -1.020000000000000E-002    1.777251757857891E-009
 -1.010000000000000E-002    1.979725936176667E-009
 -1.000000000000000E-002    2.154473095550175E-009
 -9.899999999999999E-003    2.294616473228660E-009
 -9.800000000000000E-003    2.392760721427745E-009
 -9.699999999999999E-003    2.440893685245951E-009
 -9.599999999999999E-003    2.430325110026712E-009
 -9.500000000000000E-003    2.351681291705340E-009
 -9.399999999999999E-003    2.194975596217184E-009
 -9.299999999999999E-003    1.949781386252809E-009
 -9.200000000000000E-003    1.605541475433110E-009
 -9.099999999999999E-003    1.152051215463217E-009
 -8.999999999999999E-003    5.801576516674457E-010
 -8.900000000000000E-003   -1.172874824739376E-010
 -8.799999999999999E-003   -9.441906985532134E-010
 -8.699999999999999E-003   -1.899682375016433E-009
 -8.600000000000000E-003   -2.976296283216548E-009
 -8.499999999999999E-003   -4.157906951312483E-009
 -8.399999999999999E-003   -5.417497401871264E-009
 -8.300000000000000E-003   -6.714871929950933E-009
 -8.199999999999999E-003   -7.994453819757875E-009
 -8.100000000000000E-003   -9.183330187281840E-009
 -8.000000000000000E-003   -1.018971806708649E-008
 -7.899999999999999E-003   -1.090201218006074E-008
 -7.800000000000000E-003   -1.118856438577571E-008
 -7.699999999999999E-003   -1.089829465519374E-008
 -7.599999999999999E-003   -9.862183553912358E-009
 -7.499999999999999E-003   -7.895640739679051E-009
 -7.399999999999999E-003   -4.801672742465912E-009
 -7.299999999999999E-003   -3.747119480952812E-010
 -7.199999999999999E-003    5.595081467408167E-009
 -7.100000000000000E-003    1.331727700622060E-008
 -6.999999999999999E-003    2.299664588258342E-008
 -6.899999999999999E-003    3.482889145281488E-008
 -6.800000000000000E-003    4.899689191436476E-008
 -6.699999999999999E-003    6.566765597171221E-008
 -6.599999999999999E-003    8.499015597057904E-008
 -6.499999999999999E-003    1.070940820629317E-007
 -6.399999999999999E-003    1.320896869017260E-007
 -6.299999999999999E-003    1.600686094773813E-007
 -6.199999999999999E-003    1.911056398957537E-007
 -6.100000000000000E-003    2.252612892540761E-007
 -5.999999999999999E-003    2.625852152102052E-007
 -5.899999999999999E-003    3.031200518530908E-007
 -5.800000000000000E-003    3.469057885853165E-007
 -5.699999999999999E-003    3.939842595846854E-007
 -5.599999999999999E-003    4.444039374131896E-007
 -5.499999999999999E-003    4.982245642778033E-007
 -5.399999999999999E-003    5.555214184199725E-007
 -5.299999999999999E-003    6.163896129554215E-007
 -5.199999999999999E-003    6.809477313496509E-007
 -5.099999999999999E-003    7.493410193308666E-007
 -4.999999999999999E-003    8.217438741505923E-007
 -4.899999999999999E-003    8.983618702226306E-007
 -4.799999999999999E-003    9.794325214858632E-007
 -4.699999999999999E-003    1.065226353416019E-006
 -4.599999999999999E-003    1.156046272545002E-006
 -4.499999999999999E-003    1.252226810316606E-006
 -4.399999999999999E-003    1.354133221041169E-006
 -4.299999999999999E-003    1.462159363695145E-006
 -4.199999999999999E-003    1.576726555417981E-006
 -4.099999999999999E-003    1.698281282810660E-006
 -3.999999999999999E-003    1.827294024676078E-006
 -3.899999999999999E-003    1.964257774976246E-006
 -3.799999999999999E-003    2.109687159008724E-006
 -3.699999999999999E-003    2.264118304207022E-006
 -3.599999999999999E-003    2.428108655408979E-006
 -3.499999999999999E-003    2.602238069711793E-006
 -3.399999999999999E-003    2.787109697814430E-006
 -3.299999999999999E-003    2.983351639363820E-006
 -3.199999999999999E-003    3.191618670091166E-006
 -3.099999999999999E-003    3.412594551143445E-006
 -2.999999999999999E-003    3.646994147833359E-006
 -2.899999999999999E-003    3.895564952867435E-006
 -2.799999999999999E-003    4.159090590980270E-006
 -2.699999999999999E-003    4.438391298424208E-006
 -2.599999999999999E-003    4.734327137288137E-006
 -2.499999999999999E-003    5.047799678020716E-006
 -2.399999999999999E-003    5.379755061939037E-006
 -2.299999999999999E-003    5.731184869612752E-006
 -2.199999999999999E-003    6.103130859264990E-006
 -2.099999999999999E-003    6.496686861377620E-006
 -1.999999999999999E-003    6.913002959392828E-006
 -1.899999999999999E-003    7.353288191718239E-006
 -1.799999999999999E-003    7.818816941299780E-006
 -1.699999999999999E-003    8.310930647569332E-006
 -1.599999999999999E-003    8.831044716484897E-006
 -1.499999999999999E-003    9.380652316623977E-006
 -1.399999999999999E-003    9.961328319360145E-006
 -1.299999999999999E-003    1.057473298823948E-005
 -1.199999999999999E-003    1.122261786935984E-005
 -1.099999999999999E-003    1.190682544154427E-005
 -9.999999999999989E-004    1.262929466722420E-005
 -8.999999999999990E-004    1.339206293763777E-005
 -7.999999999999990E-004    1.419726444045110E-005
 -6.999999999999989E-004    1.504713516500082E-005
 -5.999999999999990E-004    1.594400950873251E-005
 -4.999999999999989E-004    1.689032442441233E-005
 -3.999999999999989E-004    1.788862164039846E-005
 -2.999999999999989E-004    1.894154736663399E-005
 -1.999999999999989E-004    2.005185335702738E-005
 -9.999999999999892E-005    2.122240613325199E-005
  1.084202172485504E-018    2.245618308368243E-005
  1.000000000000011E-004    2.375628738868404E-005
  2.000000000000011E-004    2.512594727503373E-005
  3.000000000000011E-004    2.656853165578694E-005
  4.000000000000011E-004    2.808755266897998E-005
  5.000000000000011E-004    2.968667860500670E-005
  6.000000000000011E-004    3.136974010201621E-005
  7.000000000000011E-004    3.314074672295676E-005
  8.000000000000011E-004    3.500389464918583E-005
  9.000000000000012E-004    3.696357519767107E-005
  1.000000000000001E-003    3.902438217623686E-005
  1.100000000000001E-003    4.119112814222871E-005
  1.200000000000001E-003    4.346884540100235E-005
  1.300000000000001E-003    4.586279794959805E-005
  1.400000000000001E-003    4.837848507152032E-005
  1.500000000000001E-003    5.102164386873198E-005
  1.600000000000001E-003    5.379825638124598E-005
  1.700000000000001E-003    5.671455698434797E-005
  1.800000000000001E-003    5.977703383505666E-005
  1.900000000000001E-003    6.299242245592714E-005
  2.000000000000001E-003    6.636772726784055E-005
  2.100000000000001E-003    6.991021242234584E-005
  2.200000000000001E-003    7.362740852462517E-005
  2.300000000000001E-003    7.752713226425604E-005
  2.400000000000001E-003    8.161747652475649E-005
  2.500000000000001E-003    8.590683683816493E-005
  2.600000000000001E-003    9.040391521131607E-005
  2.700000000000001E-003    9.511772709544137E-005
  2.800000000000001E-003    1.000576328799306E-004
  2.900000000000001E-003    1.052333374908692E-004
  3.000000000000001E-003    1.106549067640534E-004
  3.100000000000001E-003    1.163328029472209E-004
  3.200000000000001E-003    1.222778861652754E-004
  3.300000000000001E-003    1.285014158421683E-004
  3.400000000000001E-003    1.350151019498829E-004
  3.500000000000001E-003    1.418310951486509E-004
  3.600000000000001E-003    1.489619793706947E-004
  3.700000000000001E-003    1.564208072384757E-004
  3.800000000000001E-003    1.642211198720831E-004
  3.900000000000001E-003    1.723769137742615E-004
  4.000000000000001E-003    1.809026968850953E-004
  4.100000000000001E-003    1.898134298200766E-004
  4.200000000000001E-003    1.991245769939553E-004
  4.300000000000001E-003    2.088521410127641E-004
  4.400000000000001E-003    2.190126095261876E-004
  4.500000000000001E-003    2.296230097407259E-004
  4.600000000000002E-003    2.407008964557018E-004
  4.700000000000001E-003    2.522644354861425E-004
  4.800000000000001E-003    2.643323028933519E-004
  4.900000000000002E-003    2.769237972391354E-004
  5.000000000000001E-003    2.900588406555239E-004
  5.100000000000001E-003    3.037579545430030E-004
  5.200000000000001E-003    3.180423072931704E-004
  5.300000000000002E-003    3.329337447033608E-004
  5.400000000000001E-003    3.484547521063592E-004
  5.500000000000001E-003    3.646285007489738E-004
  5.600000000000002E-003    3.814788867871015E-004
  5.700000000000001E-003    3.990304796280137E-004
  5.800000000000001E-003    4.173085744456683E-004
  5.900000000000002E-003    4.363391830376201E-004
  6.000000000000001E-003    4.561490236654586E-004
  6.100000000000001E-003    4.767656101119423E-004
  6.200000000000002E-003    4.982171721934699E-004
  6.300000000000002E-003    5.205326942679739E-004
  6.400000000000001E-003    5.437419861403543E-004
  6.500000000000001E-003    5.678755964515316E-004
  6.600000000000002E-003    5.929649536562096E-004
  6.700000000000001E-003    6.190422254139362E-004
  6.800000000000001E-003    6.461404745343137E-004
  6.900000000000002E-003    6.742935828908273E-004
  7.000000000000001E-003    7.035362399051092E-004
  7.100000000000001E-003    7.339040387154840E-004
  7.200000000000002E-003    7.654334142991058E-004
  7.300000000000002E-003    7.981616495991744E-004
  7.400000000000001E-003    8.321268789047461E-004
  7.500000000000001E-003    8.673680113467847E-004
  7.600000000000002E-003    9.039249190679055E-004
  7.700000000000001E-003    9.418382985014956E-004
  7.800000000000001E-003    9.811495413408011E-004
  7.900000000000001E-003    1.021901165710228E-003
  8.000000000000002E-003    1.064136250604352E-003
  8.100000000000001E-003    1.107898908154090E-003
  8.200000000000001E-003    1.153234090799828E-003
  8.300000000000002E-003    1.200187611523514E-003
  8.400000000000001E-003    1.248806227881204E-003
  8.500000000000002E-003    1.299137450285245E-003
  8.600000000000002E-003    1.351229901036520E-003
  8.700000000000001E-003    1.405132858970775E-003
  8.800000000000002E-003    1.460896634255137E-003
  8.900000000000002E-003    1.518572489774509E-003
  9.000000000000001E-003    1.578212477466668E-003
  9.100000000000002E-003    1.639869640872925E-003
  9.200000000000002E-003    1.703597855845581E-003
  9.300000000000001E-003    1.769451654305346E-003
  9.400000000000002E-003    1.837486458389900E-003
  9.500000000000001E-003    1.907758650471802E-003
  9.600000000000001E-003    1.980324984330160E-003
  9.700000000000002E-003    2.055243137906893E-003
  9.800000000000001E-003    2.132571427273606E-003
  9.900000000000001E-003    2.212368742457675E-003
  1.000000000000000E-002    2.294694497834072E-003
  1.010000000000000E-002    2.379608884734724E-003
  1.020000000000000E-002    2.467172193212225E-003
  1.030000000000000E-002    2.557445699405286E-003
  1.040000000000000E-002    2.650490900970407E-003
  1.050000000000000E-002    2.746370012152973E-003
  1.060000000000000E-002    2.845145296193737E-003
  1.070000000000000E-002    2.946880017256951E-003
  1.080000000000000E-002    3.051637279021767E-003
  1.090000000000000E-002    3.159481019764993E-003
  1.100000000000000E-002    3.270475246409643E-003
  1.110000000000000E-002    3.384684259572267E-003
  1.120000000000000E-002    3.502172651020002E-003
  1.130000000000000E-002    3.623005044184954E-003
  1.140000000000000E-002    3.747246382094413E-003
  1.150000000000000E-002    3.874961547580586E-003
  1.160000000000000E-002    4.006214791342928E-003
  1.170000000000000E-002    4.141070906256416E-003
  1.180000000000000E-002    4.279593973630281E-003
  1.190000000000000E-002    4.421848114421085E-003
  1.200000000000000E-002    4.567896904871010E-003
  1.210000000000000E-002    4.717803802778581E-003
  1.220000000000000E-002    4.871631020634861E-003
  1.230000000000000E-002    5.029441207201018E-003
  1.240000000000000E-002    5.191295525647835E-003
  1.250000000000000E-002    5.357254794172843E-003
  1.260000000000000E-002    5.527379423596618E-003
  1.270000000000000E-002    5.701728535657896E-003
  1.280000000000000E-002    5.880360934337350E-003
  1.290000000000000E-002    6.063334033623418E-003
  1.300000000000000E-002    6.250703714977796E-003
  1.310000000000000E-002    6.442525453484597E-003
  1.320000000000000E-002    6.638853167200153E-003
  1.330000000000000E-002    6.839738938783010E-003
  1.340000000000000E-002    7.045233348347881E-003
  1.350000000000000E-002    7.255385165391436E-003
  1.360000000000000E-002    7.470241433176569E-003
  1.370000000000000E-002    7.689847283070875E-003
  1.380000000000000E-002    7.914245622880050E-003
  1.390000000000000E-002    8.143477105068735E-003
  1.400000000000000E-002    8.377580080836621E-003
  1.410000000000000E-002    8.616589962432360E-003
  1.420000000000000E-002    8.860541504960495E-003
  1.430000000000000E-002    9.109464934532290E-003
  1.440000000000000E-002    9.363389428772059E-003
  1.450000000000000E-002    9.622340132386855E-003
  1.460000000000000E-002    9.886339575923662E-003
  1.470000000000000E-002    1.015540899090949E-002
  1.480000000000000E-002    1.042956434656330E-002
  1.490000000000000E-002    1.070881950205990E-002
  1.500000000000000E-002    1.099318514310196E-002
  1.510000000000000E-002    1.128266812644043E-002
  1.520000000000000E-002    1.157727175952252E-002
  1.530000000000000E-002    1.187699420965831E-002
  1.540000000000000E-002    1.218183144253380E-002
  1.550000000000000E-002    1.249177486865474E-002
  1.560000000000000E-002    1.280681071439704E-002
  1.570000000000000E-002    1.312692059688302E-002
  1.580000000000000E-002    1.345208266845862E-002
  1.590000000000000E-002    1.378226955412842E-002
  1.600000000000000E-002    1.411744937011899E-002
  1.610000000000000E-002    1.445758506546309E-002
  1.620000000000000E-002    1.480263488033210E-002
  1.630000000000000E-002    1.515255191775387E-002
  1.640000000000000E-002    1.550728437637358E-002
  1.650000000000000E-002    1.586677376767700E-002
  1.660000000000000E-002    1.623095961172821E-002
  1.670000000000000E-002    1.659977313149904E-002
  1.680000000000000E-002    1.697313908228636E-002
  1.690000000000000E-002    1.735097976934477E-002
  1.700000000000000E-002    1.773320932799496E-002
  1.710000000000000E-002    1.811973668896850E-002
  1.720000000000000E-002    1.851046488775534E-002
  1.730000000000000E-002    1.890529118585934E-002
  1.740000000000000E-002    1.930410601541703E-002
  1.750000000000000E-002    1.970679224490647E-002
  1.760000000000000E-002    2.011322971679695E-002
  1.770000000000000E-002    2.052328748778619E-002
  1.780000000000000E-002    2.093683075749425E-002
  1.790000000000000E-002    2.135371704654244E-002
  1.800000000000000E-002    2.177379820582260E-002
  1.810000000000000E-002    2.219691753972014E-002
  1.820000000000000E-002    2.262291254220011E-002
  1.830000000000000E-002    2.305161409271352E-002
  1.840000000000000E-002    2.348284583116802E-002
  1.850000000000000E-002    2.391642581780459E-002
  1.860000000000000E-002    2.435216287617342E-002
  1.870000000000000E-002    2.478986036403645E-002