 -4.000000000000000E-002    0.000000000000000E+000
 -3.990000000000000E-002    0.000000000000000E+000
 -3.980000000000000E-002    0.000000000000000E+000
 -3.970000000000000E-002    0.000000000000000E+000
 -3.960000000000000E-002    0.000000000000000E+000
 -3.950000000000000E-002    3.188828520251691E-019
 -3.940000000000000E-002    2.839498278930724E-018
 -3.930000000000000E-002    1.336231051677924E-017
 -3.920000000000000E-002    4.367452213018977E-017
 -3.910000000000000E-002    1.095163650574258E-016
 -3.900000000000000E-002    2.185397610984818E-016
 -3.890000000000000E-002    3.423842210994840E-016
 -3.880000000000000E-002    3.708211129567247E-016
 -3.870000000000000E-002    5.426164737617884E-017
 -3.860000000000000E-002   -1.047195586168281E-015
 -3.850000000000000E-002   -3.577580485927928E-015
 -3.840000000000000E-002   -8.322864711022548E-015
 -3.830000000000000E-002   -1.603515711007010E-014
 -3.820000000000000E-002   -2.712089716680362E-014
 -3.810000000000000E-002   -4.120165739067416E-014
 -3.800000000000000E-002   -5.660053015783259E-014
 -3.790000000000000E-002   -6.985749798310933E-014
 -3.780000000000000E-002   -7.542196293416040E-014
 -3.770000000000000E-002   -6.569527727043273E-014
 -3.760000000000000E-002   -3.158708681659623E-014
 -3.750000000000000E-002    3.630358873798112E-014
 -3.740000000000000E-002    1.458697322890501E-013
 -3.730000000000000E-002    3.011626525787297E-013
 -3.720000000000000E-002    4.998183001901242E-013
 -3.710000000000000E-002    7.306601847530104E-013
 -3.700000000000000E-002    9.719918958592097E-013
 -3.690000000000000E-002    1.191112612343861E-012
 -3.680000000000000E-002    1.345511341442217E-012
 -3.670000000000000E-002    1.386010658388156E-012
 -3.660000000000000E-002    1.261857867059312E-012
 -3.650000000000000E-002    9.274294900593874E-013
 -3.640000000000000E-002    3.498826096996525E-013
 -3.630000000000000E-002   -4.831884325946492E-013
 -3.620000000000000E-002   -1.557188849940808E-012
 -3.610000000000000E-002   -2.826145100155997E-012
 -3.600000000000000E-002   -4.211414608966575E-012
 -3.590000000000000E-002   -5.604032414876319E-012
 -3.580000000000000E-002   -6.870773295520998E-012
 -3.570000000000000E-002   -7.863494159628521E-012
 -3.560000000000000E-002   -8.430859681473908E-012
 -3.550000000000000E-002   -8.431237873696961E-012
 -3.540000000000000E-002   -7.745432443256616E-012
 -3.530000000000000E-002   -6.288043416115854E-012
 -3.520000000000000E-002   -4.016566393893458E-012
 -3.510000000000000E-002   -9.378207219176065E-013
 -3.500000000000000E-002    2.888208053172313E-012
 -3.490000000000000E-002    7.346624996011158E-012
 -3.480000000000000E-002    1.226728400798478E-011
 -3.470000000000000E-002    1.742525694542890E-011
 -3.460000000000000E-002    2.254189086024454E-011
 -3.450000000000000E-002    2.728687161701628E-011
 -3.440000000000000E-002    3.128242791684925E-011
 -3.430000000000000E-002    3.411146656175399E-011
 -3.420000000000000E-002    3.533179850687710E-011
 -3.410000000000000E-002    3.449849163694459E-011
 -3.400000000000000E-002    3.119571184046082E-011
 -3.390000000000000E-002    2.507815196689819E-011
 -3.380000000000000E-002    1.592037555655721E-011
 -3.370000000000000E-002    3.670409176844905E-012
 -3.360000000000000E-002   -1.149797910789075E-011
 -3.350000000000000E-002   -2.914136890070342E-011
 -3.340000000000000E-002   -4.851883726095649E-011
 -3.330000000000000E-002   -6.858753041637974E-011
 -3.320000000000000E-002   -8.802742787926961E-011
 -3.310000000000000E-002   -1.052985201183449E-010
 -3.300000000000000E-002   -1.187301016853795E-010
 -3.290000000000000E-002   -1.266380812431068E-010
 -3.280000000000000E-002   -1.274624946659273E-010
 -3.270000000000000E-002   -1.199142169180182E-010
 -3.260000000000000E-002   -1.031180066700724E-010
 -3.250000000000000E-002   -7.673828628795251E-011
 -3.240000000000000E-002   -4.107513583382988E-011
 -3.230000000000000E-002    2.879792869193438E-012
 -3.220000000000000E-002    5.343436013081563E-011
 -3.210000000000000E-002    1.082369065889060E-010
 -3.200000000000000E-002    1.643660258156263E-010
 -3.190000000000000E-002    2.184644679218742E-010
 -3.180000000000000E-002    2.669096692557937E-010
 -3.170000000000000E-002    3.060116624053260E-010
 -3.160000000000000E-002    3.322280684152187E-010
 -3.150000000000000E-002    3.423860127630076E-010
 -3.140000000000000E-002    3.339007026207803E-010
 -3.130000000000000E-002    3.049810799323866E-010
 -3.120000000000000E-002    2.548126675126776E-010
 -3.110000000000000E-002    1.837077854416725E-010
 -3.100000000000000E-002    9.321274059834426E-011
 -3.090000000000000E-002   -1.383901516458160E-011
 -3.080000000000000E-002   -1.333382730424170E-010
 -3.070000000000000E-002   -2.599858666503800E-010
 -3.060000000000000E-002   -3.874596236186833E-010
 -3.050000000000000E-002   -5.086652731729506E-010
 -3.040000000000000E-002   -6.160682606641297E-010
 -3.030000000000000E-002   -7.020957533196687E-010
 -3.020000000000000E-002   -7.595908884431494E-010
 -3.010000000000000E-002   -7.822937516109779E-010
 -3.000000000000000E-002   -7.653179096133777E-010
 -2.990000000000000E-002   -7.055874809533113E-010
 -2.980000000000000E-002   -6.021996931976941E-010
 -2.970000000000000E-002   -4.566804217607273E-010
 -2.960000000000000E-002   -2.731062619826537E-010
 -2.950000000000000E-002   -5.807531292887364E-011
 -2.940000000000000E-002    1.794807472790075E-010
 -2.930000000000000E-002    4.286407310558120E-010
 -2.920000000000000E-002    6.769804018163145E-010
 -2.910000000000000E-002    9.111793183243523E-010
 -2.900000000000000E-002    1.117719238362329E-009
 -2.890000000000000E-002    1.283639247276134E-009
 -2.880000000000000E-002    1.397310630209175E-009
 -2.870000000000000E-002    1.449190623186840E-009
 -2.860000000000000E-002    1.432514444163316E-009
 -2.850000000000000E-002    1.343882975704608E-009
 -2.840000000000000E-002    1.183703563885494E-009
 -2.830000000000000E-002    9.564426770416967E-010
 -2.820000000000000E-002    6.706525114591215E-010
 -2.810000000000000E-002    3.387408260233118E-010
 -2.800000000000000E-002   -2.353415957864070E-011
 -2.790000000000000E-002   -3.978455158678786E-010
 -2.780000000000000E-002   -7.643340908652535E-010
 -2.770000000000000E-002   -1.102851281810855E-009
 -2.760000000000000E-002   -1.394331893151287E-009
 -2.750000000000000E-002   -1.622193696843834E-009
 -2.740000000000000E-002   -1.773641679346396E-009
 -2.730000000000000E-002   -1.840744966964204E-009
 -2.720000000000000E-002   -1.821158934113497E-009
 -2.710000000000000E-002   -1.718388225948663E-009
 -2.700000000000000E-002   -1.541521602999838E-009
 -2.690000000000000E-002   -1.304423402560510E-009
 -2.680000000000000E-002   -1.024425188831623E-009
 -2.670000000000000E-002   -7.206261325231162E-010
 -2.660000000000000E-002   -4.119645044736732E-010
 -2.650000000000000E-002   -1.152685297217043E-010
 -2.640000000000000E-002    1.564893360514269E-010
 -2.630000000000000E-002    3.955139922214693E-010
 -2.620000000000000E-002    5.999006584273094E-010
 -2.610000000000000E-002    7.736172318958869E-010
 -2.600000000000000E-002    9.257145186846439E-010
 -2.590000000000000E-002    1.068814945655394E-009
 -2.580000000000000E-002    1.217024619953180E-009
 -2.570000000000000E-002    1.383490790684022E-009
 -2.560000000000000E-002    1.577884337894422E-009
 -2.550000000000000E-002    1.804113356419719E-009
 -2.540000000000000E-002    2.058563894182227E-009
 -2.530000000000000E-002    2.329119304342356E-009
 -2.520000000000000E-002    2.595140216450018E-009
 -2.510000000000000E-002    2.828493483970722E-009
 -2.500000000000000E-002    2.995625053651420E-009
 -2.490000000000000E-002    3.060569805235210E-009
 -2.480000000000000E-002    2.988723711477043E-009
 -2.470000000000000E-002    2.751142996275129E-009
 -2.460000000000000E-002    2.329113416121302E-009
 -2.450000000000000E-002    1.718731681366235E-009
 -2.440000000000000E-002    9.352686109232213E-010
 -2.430000000000000E-002    1.711375560433421E-011
 -2.420000000000000E-002   -9.708523335646162E-010
 -2.410000000000000E-002   -1.934578397557750E-009
 -2.400000000000000E-002   -2.748952089115163E-009
 -2.390000000000000E-002   -3.256787647954379E-009
 -2.380000000000000E-002   -3.268776957313799E-009
 -2.370000000000000E-002   -2.564510171905243E-009
 -2.360000000000000E-002   -8.946571475378121E-010
 -2.350000000000000E-002    2.015589950161506E-009
 -2.340000000000000E-002    6.461752486231153E-009
 -2.330000000000000E-002    1.275399362147349E-008
 -2.320000000000000E-002    2.120984087424345E-008
 -2.310000000000000E-002    3.214592196778120E-008
 -2.300000000000000E-002    4.586905724816528E-008
 -2.290000000000000E-002    6.266719918469395E-008
 -2.280000000000000E-002    8.280077624224622E-008
 -2.270000000000000E-002    1.064950416134251E-007
 -2.260000000000000E-002    1.339340975454039E-007
 -2.250000000000000E-002    1.652570351947228E-007
 -2.240000000000000E-002    2.005565286004113E-007
 -2.230000000000000E-002    2.398802296737520E-007
 -2.220000000000000E-002    2.832345794979410E-007
 -2.210000000000000E-002    3.305910255392941E-007
 -2.200000000000000E-002    3.818938646312809E-007
 -2.190000000000000E-002    4.370692002217918E-007
 -2.180000000000000E-002    4.960342332456913E-007
 -2.170000000000000E-002    5.587061346502986E-007
 -2.160000000000000E-002    6.250100482433258E-007
 -2.150000000000000E-002    6.948858831355512E-007
 -2.140000000000000E-002    7.682938194651317E-007
 -2.130000000000000E-002    8.452186079006780E-007
 -2.120000000000000E-002    9.256733637839136E-007
 -2.110000000000000E-002    1.009702999847673E-006
 -2.100000000000000E-002    1.097388444918786E-006
 -2.090000000000000E-002    1.188851818420495E-006
 -2.080000000000000E-002    1.284262866945529E-006
 -2.070000000000000E-002    1.383846613212670E-006
 -2.060000000000000E-002    1.487892294671613E-006
 -2.050000000000000E-002    1.596762389244438E-006
 -2.040000000000000E-002    1.710900621746276E-006
 -2.030000000000000E-002    1.830838613650861E-006
 -2.020000000000000E-002    1.957198512948335E-006
 -2.010000000000000E-002    2.090692239810129E-006
 -2.000000000000000E-002    2.232115304297691E-006
 -1.990000000000000E-002    2.382334916230028E-006
 -1.980000000000000E-002    2.542274628898107E-006
 -1.970000000000000E-002    2.712893105084032E-006
 -1.960000000000000E-002    2.895161923472996E-006
 -1.950000000000000E-002    3.090041725823154E-006
 -1.940000000000000E-002    3.298459507757630E-006
 -1.930000000000000E-002    3.521289809050785E-006
 -1.920000000000000E-002    3.759340719213124E-006
 -1.910000000000000E-002    4.013346741682549E-006
 -1.900000000000000E-002    4.283968263636445E-006
 -1.890000000000000E-002    4.571799922058455E-006
 -1.880000000000000E-002    4.877384953318240E-006
 -1.870000000000000E-002    5.201236577126404E-006
 -1.860000000000000E-002    5.543863557787386E-006
 -1.850000000000000E-002    5.905798446025791E-006
 -1.840000000000000E-002    6.287627799051585E-006
 -1.830000000000000E-002    6.690018566349718E-006
 -1.820000000000000E-002    7.113746464995555E-006
 -1.810000000000000E-002    7.559716792465709E-006
 -1.800000000000000E-002    8.028981454641657E-006
 -1.790000000000000E-002    8.522749316170836E-006
 -1.780000000000000E-002    9.042394947510579E-006
 -1.770000000000000E-002    9.589456751234276E-006
 -1.760000000000000E-002    1.016563397958376E-005
 -1.750000000000000E-002    1.077277733221799E-005
 -1.740000000000000E-002    1.141287513468923E-005
 -1.730000000000000E-002    1.208803876133014E-005
 -1.720000000000000E-002    1.280048474025613E-005
 -1.710000000000000E-002    1.355251712145963E-005
 -1.700000000000000E-002    1.434650771351316E-005
 -1.690000000000000E-002    1.518488184904009E-005
 -1.680000000000000E-002    1.607010380910482E-005
 -1.670000000000000E-002    1.700466946333536E-005
 -1.660000000000000E-002    1.799109966632991E-005
 -1.650000000000000E-002    1.903194802529028E-005
 -1.640000000000000E-002    2.012980535712518E-005
 -1.630000000000000E-002    2.128731430814349E-005
 -1.620000000000000E-002    2.250719254885356E-005
 -1.610000000000000E-002    2.379225120252788E-005
 -1.600000000000000E-002    2.514542322541332E-005
 -1.590000000000000E-002    2.656978937312099E-005
 -1.580000000000000E-002    2.806860001805282E-005
 -1.570000000000000E-002    2.964528754563510E-005
 -1.560000000000000E-002    3.130349122247009E-005
 -1.550000000000000E-002    3.304705403266433E-005
 -1.540000000000000E-002    3.488003170670724E-005
 -1.530000000000000E-002    3.680668337861150E-005
 -1.520000000000000E-002    3.883147283483010E-005
 -1.510000000000000E-002    4.095904901304021E-005
 -1.500000000000000E-002    4.319424660749602E-005
 -1.490000000000000E-002    4.554208164698733E-005
 -1.480000000000000E-002    4.800774203968086E-005
 -1.470000000000000E-002    5.059659829507049E-005
 -1.460000000000000E-002    5.331421380007023E-005
 -1.450000000000000E-002    5.616634572556276E-005
 -1.440000000000000E-002    5.915898052364316E-005
 -1.430000000000000E-002    6.229835015301190E-005
 -1.420000000000000E-002    6.559094033906780E-005
 -1.410000000000000E-002    6.904351127235556E-005
 -1.400000000000000E-002    7.266312073344484E-005
 -1.390000000000000E-002    7.645712885351857E-005
 -1.380000000000000E-002    8.043319834290244E-005
 -1.370000000000000E-002    8.459931125539604E-005
 -1.360000000000000E-002    8.896375795328511E-005
 -1.350000000000000E-002    9.353512994825428E-005
 -1.340000000000000E-002    9.832233223962923E-005
 -1.330000000000000E-002    1.033345783652616E-004
 -1.320000000000000E-002    1.085813750568514E-004
 -1.310000000000000E-002    1.140725671742737E-004
 -1.300000000000000E-002    1.198183196577196E-004
 -1.290000000000000E-002    1.258291321953378E-004
 -1.280000000000000E-002    1.321158827700764E-004
 -1.270000000000000E-002    1.386898221017767E-004
 -1.260000000000000E-002    1.455626049384973E-004
 -1.250000000000000E-002    1.527463054760348E-004
 -1.240000000000000E-002    1.602534360768415E-004
 -1.230000000000000E-002    1.680969717208441E-004
 -1.220000000000000E-002    1.762903419615165E-004
 -1.210000000000000E-002    1.848474708884402E-004
 -1.200000000000000E-002    1.937827558685382E-004
 -1.190000000000000E-002    2.031111002489614E-004
 -1.180000000000000E-002    2.128478808653720E-004
 -1.170000000000000E-002    2.230089632800308E-004
 -1.160000000000000E-002    2.336107341262843E-004
 -1.150000000000000E-002    2.446700457650102E-004
 -1.140000000000000E-002    2.562042599414690E-004
 -1.130000000000000E-002    2.682312114236639E-004
 -1.120000000000000E-002    2.807692010332399E-004
 -1.110000000000000E-002    2.938370479146566E-004
 -1.100000000000000E-002    3.074540425694042E-004
 -1.090000000000000E-002    3.216399496067455E-004
 -1.080000000000000E-002    3.364150506697852E-004
 -1.070000000000000E-002    3.518001427779942E-004
 -1.060000000000000E-002    3.678165162661075E-004
 -1.050000000000000E-002    3.844860339489382E-004
 -1.040000000000000E-002    4.018311012524546E-004
 -1.030000000000000E-002    4.198747565240640E-004
 -1.020000000000000E-002    4.386406734411934E-004
 -1.010000000000000E-002    4.581531384156882E-004
 -1.000000000000000E-002    4.784371762264129E-004
 -9.899999999999999E-003    4.995184966271734E-004
 -9.800000000000000E-003    5.214235363733354E-004
 -9.699999999999999E-003    5.441794994224298E-004
 -9.599999999999999E-003    5.678143589369392E-004
 -9.500000000000000E-003    5.923568211112292E-004
 -9.399999999999999E-003    6.178362906560837E-004
 -9.299999999999999E-003    6.442829612386691E-004
 -9.200000000000000E-003    6.717276386971950E-004
 -9.099999999999999E-003    7.002018589880286E-004
 -8.999999999999999E-003    7.297377651444158E-004
 -8.900000000000000E-003    7.603681688498360E-004
 -8.799999999999999E-003    7.921265110540595E-004
 -8.699999999999999E-003    8.250467754893633E-004
 -8.600000000000000E-003    8.591636201313293E-004
 -8.499999999999999E-003    8.945122774133010E-004
 -8.399999999999999E-003    9.311285853789565E-004
 -8.300000000000000E-003    9.690489975972681E-004
 -8.199999999999999E-003    1.008310575822674E-003
 -8.100000000000000E-003    1.048951043832473E-003
 -8.000000000000000E-003    1.091008775632325E-003
 -7.899999999999999E-003    1.134522802250611E-003
 -7.800000000000000E-003    1.179532861846816E-003
 -7.699999999999999E-003    1.226079437006880E-003
 -7.599999999999999E-003    1.274203684490486E-003
 -7.499999999999999E-003    1.323947396105530E-003
 -7.399999999999999E-003    1.375353090133091E-003
 -7.299999999999999E-003    1.428463902741452E-003
 -7.199999999999999E-003    1.483323633871734E-003
 -7.100000000000000E-003    1.539976574715599E-003
 -6.999999999999999E-003    1.598467628219619E-003
 -6.899999999999999E-003    1.658842177926917E-003
 -6.800000000000000E-003    1.721146074734432E-003
 -6.699999999999999E-003    1.785425578891416E-003
 -6.599999999999999E-003    1.851727281217265E-003
 -6.499999999999999E-003    1.920098185674297E-003
 -6.399999999999999E-003    1.990585687487812E-003
 -6.299999999999999E-003    2.063237538483738E-003
 -6.199999999999999E-003    2.138101442434948E-003
 -6.100000000000000E-003    2.215225724319111E-003
 -5.999999999999999E-003    2.294658841060193E-003
 -5.899999999999999E-003    2.376449448615537E-003
 -5.800000000000000E-003    2.460646429714082E-003
 -5.699999999999999E-003    2.547298880979204E-003
 -5.599999999999999E-003    2.636455991251566E-003
 -5.499999999999999E-003    2.728167066670752E-003
 -5.399999999999999E-003    2.822481590094614E-003
 -5.299999999999999E-003    2.919448975912823E-003
 -5.199999999999999E-003    3.019118458336342E-003
 -5.099999999999999E-003    3.121539158423727E-003
 -4.999999999999999E-003    3.226760491571589E-003
 -4.899999999999999E-003    3.334830963031234E-003
 -4.799999999999999E-003    3.445799222979109E-003
 -4.699999999999999E-003    3.559713702913644E-003
 -4.599999999999999E-003    3.676622125495887E-003
 -4.499999999999999E-003    3.796572087304380E-003
 -4.399999999999999E-003    3.919610377512647E-003
 -4.299999999999999E-003    4.045783852538700E-003
 -4.199999999999999E-003    4.175137757726316E-003
 -4.099999999999999E-003    4.307717116976952E-003
 -3.999999999999999E-003    4.443566024969830E-003
 -3.899999999999999E-003    4.582728096544390E-003
 -3.799999999999999E-003    4.725245306855918E-003
 -3.699999999999999E-003    4.871158882555567E-003
 -3.599999999999999E-003    5.020508905156137E-003
 -3.499999999999999E-003    5.173334217476610E-003
 -3.399999999999999E-003    5.329672084806695E-003
 -3.299999999999999E-003    5.489558991046565E-003
 -3.199999999999999E-003    5.653029196939924E-003
 -3.099999999999999E-003    5.820116005456778E-003
 -2.999999999999999E-003    5.990850826615726E-003
 -2.899999999999999E-003    6.165263096685503E-003
 -2.799999999999999E-003    6.343380732834738E-003
 -2.699999999999999E-003    6.525229355988969E-003
 -2.599999999999999E-003    6.710833076880599E-003
 -2.499999999999999E-003    6.900213916344104E-003
 -2.399999999999999E-003    7.093390863599077E-003
 -2.299999999999999E-003    7.290380982670533E-003
 -2.199999999999999E-003    7.491199572507696E-003
 -2.099999999999999E-003    7.695858207514420E-003
 -1.999999999999999E-003    7.904366963326059E-003
 -1.899999999999999E-003    8.116732426066461E-003
 -1.799999999999999E-003    8.332958654988960E-003
 -1.699999999999999E-003    8.553046947326691E-003
 -1.599999999999999E-003    8.776995903458509E-003
 -1.499999999999999E-003    9.004801508240744E-003
 -1.399999999999999E-003    9.236455238895862E-003
 -1.299999999999999E-003    9.471946077692282E-003
 -1.199999999999999E-003    9.711259911642185E-003
 -1.099999999999999E-003    9.954379254006112E-003
 -9.999999999999989E-004    1.020128308241602E-002
 -8.999999999999990E-004    1.045194505861299E-002
 -7.999999999999990E-004    1.070633720856628E-002
 -6.999999999999989E-004    1.096442661233551E-002
 -5.999999999999990E-004    1.122617671431148E-002
 -4.999999999999989E-004    1.149154638947396E-002
 -3.999999999999989E-004    1.176049074640472E-002
 -2.999999999999989E-004    1.203296085785157E-002
 -1.999999999999989E-004    1.230890284723952E-002
 -9.999999999999892E-005    1.258825839991660E-002
  1.084202172485504E-018    1.287096572354329E-002
  1.000000000000011E-004    1.315695761190767E-002
  2.000000000000011E-004    1.344616195945888E-002
  3.000000000000011E-004    1.373850309343479E-002
  4.000000000000011E-004    1.403389913904785E-002
  5.000000000000011E-004    1.433226393870295E-002
  6.000000000000011E-004    1.463350632722761E-002
  7.000000000000011E-004    1.493753057515368E-002
  8.000000000000011E-004    1.524423448834719E-002
  9.000000000000012E-004    1.555351271446899E-002
  1.000000000000001E-003    1.586525259590328E-002
  1.100000000000001E-003    1.617933935991471E-002
  1.200000000000001E-003    1.649565054725486E-002
  1.300000000000001E-003    1.681405840892991E-002
  1.400000000000001E-003    1.713443005149684E-002
  1.500000000000001E-003    1.745662809930189E-002
  1.600000000000001E-003    1.778050876871470E-002
  1.700000000000001E-003    1.810592515313492E-002
  1.800000000000001E-003    1.843272286575591E-002
  1.900000000000001E-003    1.876074198236544E-002
  2.000000000000001E-003    1.908981778163524E-002
  2.100000000000001E-003    1.941977909684005E-002
  2.200000000000001E-003    1.975045227518240E-002
  2.300000000000001E-003    2.008165387700762E-002
  2.400000000000001E-003    2.041319779220086E-002
  2.500000000000001E-003    2.074489267650359E-002
  2.600000000000001E-003    2.107654165503788E-002
  2.700000000000001E-003    2.140794252234744E-002
  2.800000000000001E-003    2.173888783365992E-002
  2.900000000000001E-003    2.206916601768281E-002
  3.000000000000001E-003    2.239855839135098E-002
  3.100000000000001E-003    2.272684340136054E-002
  3.200000000000001E-003    2.305379348442860E-002
  3.300000000000001E-003    2.337917681468410E-002
  3.400000000000001E-003    2.370275709186320E-002
  3.500000000000001E-003    2.402429258477597E-002
  3.600000000000001E-003    2.434353808318094E-002
  3.700000000000001E-003    2.466024247916870E-002
  3.800000000000001E-003    2.497414988409071E-002
  3.900000000000001E-003    2.528500260973062E-002
  4.000000000000001E-003    2.559253865934309E-002
  4.100000000000001E-003    2.589649119721178E-002
  4.200000000000001E-003    2.619658908358870E-002
  4.300000000000001E-003    2.649255829068174E-002
  4.400000000000001E-003    2.678412236024062E-002
  4.500000000000001E-003    2.707100076843231E-002
  4.600000000000002E-003    2.735290870738824E-002
  4.700000000000001E-003    2.762956124212023E-002
  4.800000000000001E-003    2.790066934838886E-002
  4.900000000000002E-003    2.816594010412128E-002
  5.000000000000001E-003    2.842508138995577E-002
  5.100000000000001E-003    2.867779759450850E-002
  5.200000000000001E-003    2.892379155439987E-002
  5.300000000000002E-003    2.916276645272407E-002
  5.400000000000001E-003    2.939442039300866E-002
  5.500000000000001E-003    2.961845312437119E-002
  5.600000000000002E-003    2.983456309665551E-002
  5.700000000000001E-003    3.004244628590777E-002
  5.800000000000001E-003    3.024179951226619E-002
  5.900000000000002E-003    3.043232280578079E-002
  6.000000000000001E-003    3.061371089959133E-002
  6.100000000000001E-003    3.078566055153977E-002
  6.200000000000002E-003    3.094787342911154E-002
  6.300000000000002E-003    3.110004596263974E-002
  6.400000000000001E-003    3.124187863877623E-002
  6.500000000000001E-003    3.137307282123066E-002
  6.600000000000002E-003    3.149333238234169E-002
  6.700000000000001E-003    3.160236230805239E-002
  6.800000000000001E-003    3.169987019518228E-002
  6.900000000000002E-003    3.178556735103440E-002
  7.000000000000001E-003    3.185916357021694E-002
  7.100000000000001E-003    3.192037662071864E-002
  7.200000000000002E-003    3.196892590353670E-002
  7.300000000000002E-003    3.200453541687943E-002
  7.400000000000001E-003    3.202692853059391E-002
  7.500000000000001E-003    3.203583878446964E-002
  7.600000000000002E-003    3.203100168143562E-002
  7.700000000000001E-003    3.201215522183529E-002
  7.800000000000001E-003    3.197904550823140E-002
  7.900000000000001E-003    3.193142262310657E-002
  8.000000000000002E-003    3.186904396686765E-002
  8.100000000000001E-003    3.179167145345268E-002
  8.200000000000001E-003    3.169907103556773E-002
  8.300000000000002E-003    3.159101849212654E-002
  8.400000000000001E-003    3.146729476184763E-002
  8.500000000000002E-003    3.132768830876980E-002
  8.600000000000002E-003    3.117199637466526E-002
  8.700000000000001E-003    3.100001933629854E-002
  8.800000000000002E-003    3.081156877165461E-002
  8.900000000000002E-003    3.060646146641269E-002
  9.000000000000001E-003    3.038452524884420E-002
  9.100000000000002E-003    3.014559200549337E-002
  9.200000000000002E-003    2.988950282381685E-002
  9.300000000000001E-003    2.961610962336620E-002
  9.400000000000002E-003    2.932526839889609E-002
  9.500000000000001E-003    2.901684811310956E-002
  9.600000000000001E-003    2.869072480137106E-002
  9.700000000000002E-003    2.834678145530405E-002
  9.800000000000001E-003    2.798491516449247E-002
  9.900000000000001E-003    2.760502738216788E-002
  1.000000000000000E-002    2.720703248490425E-002
  1.010000000000000E-002    2.679085202200434E-002
  1.020000000000000E-002    2.635641878019518E-002
  1.030000000000000E-002    2.590367384257044E-002
  1.040000000000000E-002    2.543257123277229E-002
  1.050000000000000E-002    2.494307094968321E-002
  1.060000000000000E-002    2.443514313073275E-002
  1.070000000000000E-002    2.390877022809350E-002
  1.080000000000000E-002    2.336394095935410E-002
  1.090000000000000E-002    2.280065745118130E-002
  1.100000000000000E-002    2.221892959532672E-002
  1.110000000000000E-002    2.161877744245645E-002
  1.120000000000000E-002    2.100023160609116E-002
  1.130000000000000E-002    2.036333083897207E-002
  1.140000000000000E-002    1.970812457759955E-002
  1.150000000000000E-002    1.903467252316117E-002
  1.160000000000000E-002    1.834304248263558E-002
  1.170000000000000E-002    1.763331163987367E-002
  1.180000000000000E-002    1.690556771488388E-002
  1.190000000000000E-002    1.615990649914483E-002
  1.200000000000000E-002    1.539643288299500E-002
  1.210000000000000E-002    1.461526196057958E-002
  1.220000000000000E-002    1.381651592323355E-002
  1.230000000000000E-002    1.300032609630528E-002
  1.240000000000000E-002    1.216683230446172E-002
  1.250000000000000E-002    1.131618248853739E-002
  1.260000000000000E-002    1.044853213716754E-002
  1.270000000000000E-002    9.564045257272343E-003
  1.280000000000000E-002    8.662892829675754E-003
  1.290000000000000E-002    7.745252657961901E-003
  1.300000000000000E-002    6.811309041148347E-003
  1.310000000000000E-002    5.861254283642606E-003
  1.320000000000000E-002    4.895285911764622E-003
  1.330000000000000E-002    3.913608496530184E-003
  1.340000000000000E-002    2.916432335848826E-003
  1.350000000000000E-002    1.903973460069422E-003
  1.360000000000000E-002    8.764538209185851E-004
  1.370000000000000E-002   -1.658990408457588E-004
  1.380000000000000E-002   -1.222852791342243E-003
  1.390000000000000E-002   -2.294170578483277E-003
  1.400000000000000E-002   -3.379610432517918E-003
  1.410000000000000E-002   -4.478926754230375E-003
  1.420000000000000E-002   -5.591868654878734E-003
  1.430000000000000E-002   -6.718183600404475E-003
  1.440000000000000E-002   -7.857615028128106E-003
  1.450000000000000E-002   -9.009903829985766E-003
  1.460000000000000E-002   -1.017478732013698E-002
  1.470000000000000E-002   -1.135200115350757E-002
  1.480000000000000E-002   -1.254127959556971E-002
  1.490000000000000E-002   -1.374235563828972E-002
  1.500000000000000E-002   -1.495495976610733E-002
  1.510000000000000E-002   -1.617882132226528E-002
  1.520000000000000E-002   -1.741366905095145E-002
  1.530000000000000E-002   -1.865923263163782E-002
  1.540000000000000E-002   -1.991523883467734E-002
  1.550000000000000E-002   -2.118141454939916E-002
  1.560000000000000E-002   -2.245748834391046E-002
  1.570000000000000E-002   -2.374318796745202E-002
  1.580000000000000E-002   -2.503823938409596E-002
  1.590000000000000E-002   -2.634237386554394E-002
  1.600000000000000E-002   -2.765532139312323E-002
  1.610000000000000E-002   -2.897681219673729E-002
  1.620000000000000E-002   -3.030657903239307E-002
  1.630000000000000E-002   -3.164435606295293E-002
  1.640000000000000E-002   -3.298987735945252E-002
  1.650000000000000E-002   -3.434288121282388E-002
  1.660000000000000E-002   -3.570310858461972E-002
  1.670000000000000E-002   -3.707030055476850E-002
  1.680000000000000E-002   -3.844420136037043E-002
  1.690000000000000E-002   -3.982455796948606E-002
  1.700000000000000E-002   -4.121111790539160E-002
  1.710000000000000E-002   -4.260363228991197E-002
  1.720000000000000E-002   -4.400185769345315E-002
  1.730000000000000E-002   -4.540554826810477E-002
  1.740000000000000E-002   -4.681446276095458E-002
  1.750000000000000E-002   -4.822836202349401E-002
  1.760000000000000E-002   -4.964701146301100E-002
  1.770000000000000E-002   -5.107017814768201E-002
  1.780000000000000E-002   -5.249763039567876E-002
  1.790000000000000E-002   -5.392914145707636E-002
  1.800000000000000E-002   -5.536448765028953E-002
  1.810000000000000E-002   -5.680343934274447E-002
  1.820000000000000E-002   -5.824578052586855E-002
  1.830000000000000E-002   -5.969129153875871E-002
  1.840000000000000E-002   -6.113975121647849E-002
  1.850000000000000E-002   -6.259095079838786E-002
  1.860000000000000E-002   -6.404467240668262E-002
  1.870000000000000E-002   -6.550070250141596E-002