 -4.000000000000000E-002    0.000000000000000E+000
 -3.990000000000000E-002    0.000000000000000E+000
 -3.980000000000000E-002    0.000000000000000E+000
 -3.970000000000000E-002    0.000000000000000E+000
 -3.960000000000000E-002    0.000000000000000E+000
 -3.950000000000000E-002    0.000000000000000E+000
 -3.940000000000000E-002    0.000000000000000E+000
 -3.930000000000000E-002    0.000000000000000E+000
 -3.920000000000000E-002    0.000000000000000E+000
 -3.910000000000000E-002    0.000000000000000E+000
 -3.900000000000000E-002    0.000000000000000E+000
 -3.890000000000000E-002    0.000000000000000E+000
 -3.880000000000000E-002    0.000000000000000E+000
 -3.870000000000000E-002    0.000000000000000E+000
 -3.860000000000000E-002    0.000000000000000E+000
 -3.850000000000000E-002    0.000000000000000E+000
 -3.840000000000000E-002    0.000000000000000E+000
 -3.830000000000000E-002    0.000000000000000E+000
 -3.820000000000000E-002    0.000000000000000E+000
 -3.810000000000000E-002    0.000000000000000E+000
 -3.800000000000000E-002    0.000000000000000E+000
 -3.790000000000000E-002    0.000000000000000E+000
 -3.780000000000000E-002    0.000000000000000E+000
 -3.770000000000000E-002    0.000000000000000E+000
 -3.760000000000000E-002    0.000000000000000E+000
 -3.750000000000000E-002    0.000000000000000E+000
 -3.740000000000000E-002    0.000000000000000E+000
 -3.730000000000000E-002    0.000000000000000E+000
 -3.720000000000000E-002    3.868802447966698E-047
 -3.710000000000000E-002    1.571177393860171E-046
 -3.700000000000000E-002    4.826993490513101E-046
 -3.690000000000000E-002    1.507312904607105E-045
 -3.680000000000000E-002    4.549774992407568E-045
 -3.670000000000000E-002    1.544700032931111E-044
 -3.660000000000000E-002    4.471372005961461E-044
 -3.650000000000000E-002    1.188188206518383E-043
 -3.640000000000000E-002    2.942406743482353E-043
 -3.630000000000000E-002    6.709547805840730E-043
 -3.620000000000000E-002    1.400807283978390E-042
 -3.610000000000000E-002    2.632027559085397E-042
 -3.600000000000000E-002    4.269160017433935E-042
 -3.590000000000000E-002    5.294220627750673E-042
 -3.580000000000000E-002    2.150577165280859E-042
 -3.570000000000000E-002   -1.453865887896458E-041
 -3.560000000000000E-002   -6.587773522418203E-041
 -3.550000000000000E-002   -1.938881039534487E-040
 -3.540000000000000E-002   -4.731072266021983E-040
 -3.530000000000000E-002   -1.019657471191958E-039
 -3.520000000000000E-002   -1.984313261086254E-039
 -3.510000000000000E-002   -3.501233306924264E-039
 -3.500000000000000E-002   -5.541968674557929E-039
 -3.490000000000000E-002   -7.598236723903448E-039
 -3.480000000000000E-002   -8.097862145641652E-039
 -3.470000000000000E-002   -3.471297946912814E-039
 -3.460000000000000E-002    1.312407840813475E-038
 -3.450000000000000E-002    5.318189499168047E-038
 -3.440000000000000E-002    1.336314319107001E-037
 -3.430000000000000E-002    2.755901736882969E-037
 -3.420000000000000E-002    4.986223964749991E-037
 -3.410000000000000E-002    8.069153353342082E-037
 -3.400000000000000E-002    1.163030432422955E-036
 -3.390000000000000E-002    1.445412217814851E-036
 -3.380000000000000E-002    1.389066225558854E-036
 -3.370000000000000E-002    5.165871154667173E-037
 -3.360000000000000E-002   -1.919113090792131E-036
 -3.350000000000000E-002   -6.937501086318323E-036
 -3.340000000000000E-002   -1.570818016853187E-035
 -3.330000000000000E-002   -2.920579131755991E-035
 -3.320000000000000E-002   -4.752897557252348E-035
 -3.310000000000000E-002   -6.878841369950031E-035
 -3.300000000000000E-002   -8.754877959105873E-035
 -3.290000000000000E-002   -9.298309157420071E-035
 -3.280000000000000E-002   -6.719016894342616E-035
 -3.270000000000000E-002    1.546310402010839E-035
 -3.260000000000000E-002    1.866329555663096E-034
 -3.250000000000000E-002    4.781607250846091E-034
 -3.240000000000000E-002    9.102080572620092E-034
 -3.230000000000000E-002    1.471951559145111E-033
 -3.220000000000000E-002    2.094922515667564E-033
 -3.210000000000000E-002    2.621956358092552E-033
 -3.200000000000000E-002    2.779140578407352E-033
 -3.190000000000000E-002    2.163820826137578E-033
 -3.180000000000000E-002    2.676142444226419E-034
 -3.170000000000000E-002   -3.442555201667088E-033
 -3.160000000000000E-002   -9.363265031831884E-033
 -3.150000000000000E-002   -1.750092544621068E-032
 -3.140000000000000E-002   -2.713616414568141E-032
 -3.130000000000000E-002   -3.645535609782307E-032
 -3.120000000000000E-002   -4.225201849793530E-032
 -3.110000000000000E-002   -3.986263307303534E-032
 -3.100000000000000E-002   -2.355610446161195E-032
 -3.090000000000000E-002    1.238191138785983E-032
 -3.080000000000000E-002    7.167365201313869E-032
 -3.070000000000000E-002    1.531379725079647E-031
 -3.060000000000000E-002    2.470886512163480E-031
 -3.050000000000000E-002    3.317281316920350E-031
 -3.040000000000000E-002    3.707830000022685E-031
 -3.030000000000000E-002    3.142112363351308E-031
 -3.020000000000000E-002    1.042432932403487E-031
 -3.010000000000000E-002   -3.109626592492147E-031
 -3.000000000000000E-002   -9.544881574941455E-031
 -2.990000000000000E-002   -1.788860415472322E-030
 -2.980000000000000E-002   -2.678584629040063E-030
 -2.970000000000000E-002   -3.354647802826717E-030
 -2.960000000000000E-002   -3.393868552485634E-030
 -2.950000000000000E-002   -2.231109888749145E-030
 -2.940000000000000E-002    7.742070004007820E-031
 -2.930000000000000E-002    6.196372052671154E-030
 -2.920000000000000E-002    1.431259818383758E-029
 -2.910000000000000E-002    2.478544043370968E-029
 -2.900000000000000E-002    3.628733500961899E-029
 -2.890000000000000E-002    4.613299045895009E-029
 -2.880000000000000E-002    5.002874328305385E-029
 -2.870000000000000E-002    4.209043053015278E-029
 -2.860000000000000E-002    1.531072326923248E-029
 -2.850000000000000E-002   -3.734306954078287E-029
 -2.840000000000000E-002   -1.210669980209369E-028
 -2.830000000000000E-002   -2.365723672863023E-028
 -2.820000000000000E-002   -3.768163466917403E-028
 -2.810000000000000E-002   -5.235357086931180E-028
 -2.800000000000000E-002   -6.443174834505378E-028
 -2.790000000000000E-002   -6.912551008995737E-028
 -2.780000000000000E-002   -6.024811855585791E-028
 -2.770000000000000E-002   -3.079455958508076E-028
 -2.760000000000000E-002    2.593951027111613E-028
 -2.750000000000000E-002    1.146393999233931E-027
 -2.740000000000000E-002    2.356986709325887E-027
 -2.730000000000000E-002    3.825859957035525E-027
 -2.720000000000000E-002    5.392294824763217E-027
 -2.710000000000000E-002    6.779933632710366E-027
 -2.700000000000000E-002    7.589945207097566E-027
 -2.690000000000000E-002    7.316062085548006E-027
 -2.680000000000000E-002    5.389695158202162E-027
 -2.670000000000000E-002    1.261193888828145E-027
 -2.660000000000000E-002   -5.481012194985289E-027
 -2.650000000000000E-002   -1.495836919805981E-026
 -2.640000000000000E-002   -2.683101458161907E-026
 -2.630000000000000E-002   -4.013117888996605E-026
 -2.620000000000000E-002   -5.313474298991188E-026
 -2.610000000000000E-002   -6.331207263267447E-026
 -2.600000000000000E-002   -6.740249202540720E-026
 -2.590000000000000E-002   -6.165306988174526E-026
 -2.580000000000000E-002   -4.225008884565594E-026
 -2.570000000000000E-002   -5.949277131761930E-027
 -2.560000000000000E-002    4.912054583112649E-026
 -2.550000000000000E-002    1.225449000227290E-025
 -2.540000000000000E-002    2.107086112109288E-025
 -2.530000000000000E-002    3.060246214262167E-025
 -2.520000000000000E-002    3.964829134606005E-025
 -2.510000000000000E-002    4.657082810392291E-025
 -2.500000000000000E-002    4.937043951151499E-025
 -2.490000000000000E-002    4.584205321150384E-025
 -2.480000000000000E-002    3.382054789682404E-025
 -2.470000000000000E-002    1.151116744118226E-025
 -2.460000000000000E-002   -2.211126854686326E-025
 -2.450000000000000E-002   -6.686439422220289E-025
 -2.440000000000000E-002   -1.209256819582290E-024
 -2.430000000000000E-002   -1.804618732759779E-024
 -2.420000000000000E-002   -2.393873880628701E-024
 -2.410000000000000E-002   -2.893243361293218E-024
 -2.400000000000000E-002   -3.198376047494570E-024
 -2.390000000000000E-002   -3.190127287365754E-024
 -2.380000000000000E-002   -2.744301539566853E-024
 -2.370000000000000E-002   -1.745668157601339E-024
 -2.360000000000000E-002   -1.062038223345200E-025
 -2.350000000000000E-002    2.212972043267837E-024
 -2.340000000000000E-002    5.177157181556663E-024
 -2.330000000000000E-002    8.653129151754612E-024
 -2.320000000000000E-002    1.238669401819846E-023
 -2.310000000000000E-002    1.598676284287915E-023
 -2.300000000000000E-002    1.892101301709601E-023
 -2.290000000000000E-002    2.052892885679499E-023
 -2.280000000000000E-002    2.005825065230189E-023
 -2.270000000000000E-002    1.673013904873945E-023
 -2.260000000000000E-002    9.836447062013480E-024
 -2.250000000000000E-002   -1.131060444126941E-024
 -2.240000000000000E-002   -1.632492443001315E-023
 -2.230000000000000E-002   -3.537190346692516E-023
 -2.220000000000000E-002   -5.720875826231048E-023
 -2.210000000000000E-002   -7.995223264412750E-023
 -2.200000000000000E-002   -1.008383278684695E-022
 -2.190000000000000E-002   -1.162697333344417E-022
 -2.180000000000000E-002   -1.220087852480808E-022
 -2.170000000000000E-002   -1.135447604805028E-022
 -2.160000000000000E-002   -8.664742114303071E-023
 -2.150000000000000E-002   -3.809264747503430E-023
 -2.140000000000000E-002    3.348743116589067E-023
 -2.130000000000000E-002    1.267159899481680E-022
 -2.120000000000000E-002    2.366692150019354E-022
 -2.110000000000000E-002    3.543159195298795E-022
 -2.100000000000000E-002    4.663718767612587E-022
 -2.090000000000000E-002    5.557348831526227E-022
 -2.080000000000000E-002    6.026321554879765E-022
 -2.070000000000000E-002    5.865418735238166E-022
 -2.060000000000000E-002    4.888503340153660E-022
 -2.050000000000000E-002    2.960791377834013E-022
 -2.040000000000000E-002    3.378047225750447E-024
 -2.030000000000000E-002   -3.821536178389545E-022
 -2.020000000000000E-002   -8.388556763665596E-022
 -2.010000000000000E-002   -1.329190965263944E-021
 -2.000000000000000E-002   -1.800276840049694E-021
 -1.990000000000000E-002   -2.186689339509958E-021
 -1.980000000000000E-002   -2.415742627977251E-021
 -1.970000000000000E-002   -2.415130193412921E-021
 -1.960000000000000E-002   -2.122447137730583E-021
 -1.950000000000000E-002   -1.495727790707906E-021
 -1.940000000000000E-002   -5.237880629726399E-022
 -1.930000000000000E-002    7.650653802000095E-022
 -1.920000000000000E-002    2.297474599619741E-021
 -1.910000000000000E-002    3.953991266981041E-021
 -1.900000000000000E-002    5.573569429480204E-021
 -1.890000000000000E-002    6.964026475513264E-021
 -1.880000000000000E-002    7.918186431678322E-021
 -1.870000000000000E-002    8.234614554502359E-021
 -1.860000000000000E-002    7.741114922790286E-021
 -1.850000000000000E-002    6.318576464911797E-021
 -1.840000000000000E-002    3.922461139169589E-021
 -1.830000000000000E-002    5.992715594449184E-022
 -1.820000000000000E-002   -3.504219668972145E-021
 -1.810000000000000E-002   -8.140451909380916E-021
 -1.800000000000000E-002   -1.296975299212323E-020
 -1.790000000000000E-002   -1.757767498787180E-020
 -1.780000000000000E-002   -2.149956925281548E-020
 -1.770000000000000E-002   -2.425041997531293E-020
 -1.760000000000000E-002   -2.535786634081221E-020
 -1.750000000000000E-002   -2.439666577005395E-020
 -1.740000000000000E-002   -2.102363381118912E-020
 -1.730000000000000E-002   -1.501298577235575E-020
 -1.720000000000000E-002   -6.292663891844604E-021
 -1.710000000000000E-002    5.017569557420855E-021
 -1.700000000000000E-002    1.856627967759966E-020
 -1.690000000000000E-002    3.373058871689314E-020
 -1.680000000000000E-002    4.958122779811550E-020
 -1.670000000000000E-002    6.486074859930045E-020
 -1.660000000000000E-002    7.798680730793359E-020
 -1.650000000000000E-002    8.709501374480095E-020
 -1.640000000000000E-002    9.013638640032617E-020
 -1.630000000000000E-002    8.504162041654838E-020
 -1.620000000000000E-002    6.995769266341955E-020
 -1.610000000000000E-002    4.355136273630808E-020
 -1.600000000000000E-002    5.359418343093752E-021
 -1.590000000000000E-002   -4.385092155759883E-020
 -1.580000000000000E-002   -1.017644333755305E-019
 -1.570000000000000E-002   -1.643084963527149E-019
 -1.560000000000000E-002   -2.256223911831499E-019
 -1.550000000000000E-002   -2.782703456069924E-019
 -1.540000000000000E-002   -3.137450252411672E-019
 -1.530000000000000E-002   -3.232756848991833E-019
 -1.520000000000000E-002   -2.989115411072975E-019
 -1.510000000000000E-002   -2.347982354735657E-019
 -1.500000000000000E-002   -1.285126841708494E-019
 -1.490000000000000E-002    1.772457708143914E-020
 -1.480000000000000E-002    1.961683609345748E-019
 -1.470000000000000E-002    3.932107585970013E-019
 -1.460000000000000E-002    5.897665872756594E-019
 -1.450000000000000E-002    7.624970027408201E-019
 -1.440000000000000E-002    8.858863857279963E-019
 -1.430000000000000E-002    9.350643159142774E-019
 -1.420000000000000E-002    8.891314635414197E-019
 -1.410000000000000E-002    7.346236481600569E-019
 -1.400000000000000E-002    4.686576809384168E-019
 -1.390000000000000E-002    1.012617787600765E-019
 -1.380000000000000E-002   -3.435796959049640E-019
 -1.370000000000000E-002   -8.285317656863937E-019
 -1.360000000000000E-002   -1.305353154524311E-018
 -1.350000000000000E-002   -1.719133736007608E-018
 -1.340000000000000E-002   -2.014015467347878E-018
 -1.330000000000000E-002   -2.139828798865464E-018
 -1.320000000000000E-002   -2.058872024677564E-018
 -1.310000000000000E-002   -1.751937937709033E-018
 -1.300000000000000E-002   -1.222698179411785E-018
 -1.290000000000000E-002   -4.996875530215029E-019
 -1.280000000000000E-002    3.645959968109984E-019
 -1.270000000000000E-002    1.297594414869508E-018
 -1.260000000000000E-002    2.213286036697551E-018
 -1.250000000000000E-002    3.020751907529380E-018
 -1.240000000000000E-002    3.633657592015146E-018
 -1.230000000000000E-002    3.979405155437345E-018
 -1.220000000000000E-002    4.006724177766011E-018
 -1.210000000000000E-002    3.690680877607422E-018
 -1.200000000000000E-002    3.034500903892239E-018
 -1.190000000000000E-002    2.068139487930206E-018
 -1.180000000000000E-002    8.441161870841130E-019
 -1.170000000000000E-002   -5.683533215078241E-019
 -1.160000000000000E-002   -2.089567171127969E-018
 -1.150000000000000E-002   -3.634480339468554E-018
 -1.140000000000000E-002   -5.115642473818765E-018
 -1.130000000000000E-002   -6.443388926790236E-018
 -1.120000000000000E-002   -7.523568876554510E-018
 -1.110000000000000E-002   -8.254031277242342E-018
 -1.100000000000000E-002   -8.521895981653312E-018
 -1.090000000000000E-002   -8.204165477748394E-018
 -1.080000000000000E-002   -7.174233295111525E-018
 -1.070000000000000E-002   -5.316222580793352E-018
 -1.060000000000000E-002   -2.547794944373255E-018
 -1.050000000000000E-002    1.149770662822053E-018
 -1.040000000000000E-002    5.697593521257571E-018
 -1.030000000000000E-002    1.088679449123250E-017
 -1.020000000000000E-002    1.635482616904450E-017
 -1.010000000000000E-002    2.157839355738076E-017
 -1.000000000000000E-002    2.589024931256030E-017
 -9.899999999999999E-003    2.852507379105801E-017
 -9.800000000000000E-003    2.869598787162426E-017
 -9.699999999999999E-003    2.569850196225643E-017
 -9.599999999999999E-003    1.903311053349558E-017
 -9.500000000000000E-003    8.532407824636490E-018
 -9.399999999999999E-003   -5.525636140874768E-018
 -9.299999999999999E-003   -2.233898998225765E-017
 -9.200000000000000E-003   -4.055754018385753E-017
 -9.099999999999999E-003   -5.833002585892940E-017
 -8.999999999999999E-003   -7.343097522507772E-017
 -8.900000000000000E-003   -8.346668984889501E-017
 -8.799999999999999E-003   -8.614753770453545E-017
 -8.699999999999999E-003   -7.960170704576814E-017
 -8.600000000000000E-003   -6.269516557761421E-017
 -8.499999999999999E-003   -3.531535557518771E-017
 -8.399999999999999E-003    1.425733834626965E-018
 -8.300000000000000E-003    4.510964539820107E-017
 -8.199999999999999E-003    9.208067128233010E-017
 -8.100000000000000E-003    1.376801055086916E-016
 -8.000000000000000E-003    1.766391202803255E-016
 -7.899999999999999E-003    2.036018926229863E-016
 -7.800000000000000E-003    2.137299309212938E-016
 -7.699999999999999E-003    2.033221624697609E-016
 -7.599999999999999E-003    1.703762946909008E-016
 -7.499999999999999E-003    1.150172674734562E-016
 -7.399999999999999E-003    3.972846979326933E-017
 -7.299999999999999E-003   -5.065855966905607E-017
 -7.199999999999999E-003   -1.492334662000411E-016
 -7.100000000000000E-003   -2.475217805468992E-016
 -6.999999999999999E-003   -3.362004730056201E-016
 -6.899999999999999E-003   -4.059433663602095E-016
 -6.800000000000000E-003   -4.483080959751873E-016
 -6.699999999999999E-003   -4.565697403886178E-016
 -6.599999999999999E-003   -4.264128278950977E-016
 -6.499999999999999E-003   -3.564124151794857E-016
 -6.399999999999999E-003   -2.482618367163334E-016
 -6.299999999999999E-003   -1.067382846247550E-016
 -6.199999999999999E-003    6.057135937028238E-017
 -6.100000000000000E-003    2.437347118706980E-016
 -5.999999999999999E-003    4.310634440964803E-016
 -5.899999999999999E-003    6.097602703728248E-016
 -5.800000000000000E-003    7.665670818325693E-016
 -5.699999999999999E-003    8.883789441130948E-016
 -5.599999999999999E-003    9.628191431259794E-016
 -5.499999999999999E-003    9.787974230502089E-016
 -5.399999999999999E-003    9.270951259545220E-016
 -5.299999999999999E-003    8.010274400669764E-016
 -5.199999999999999E-003    5.972213009529964E-016
 -5.099999999999999E-003    3.165155382910389E-016
 -4.999999999999999E-003   -3.506104629004959E-017
 -4.899999999999999E-003   -4.453348039939228E-016
 -4.799999999999999E-003   -8.952187420481474E-016
 -4.699999999999999E-003   -1.358338572636421E-015
 -4.599999999999999E-003   -1.801282857435480E-015
 -4.499999999999999E-003   -2.184690814827080E-015
 -4.399999999999999E-003   -2.465332627429395E-015
 -4.299999999999999E-003   -2.599235021359390E-015
 -4.199999999999999E-003   -2.545766767700747E-015
 -4.099999999999999E-003   -2.272436922384218E-015
 -3.999999999999999E-003   -1.759998329418415E-015
 -3.899999999999999E-003   -1.007307026433506E-015
 -3.799999999999999E-003   -3.529737704289993E-017
 -3.699999999999999E-003    1.110590959446116E-015
 -3.599999999999999E-003    2.360135996187425E-015
 -3.499999999999999E-003    3.620656679394544E-015
 -3.399999999999999E-003    4.782150800843984E-015
 -3.299999999999999E-003    5.725162033964824E-015
 -3.199999999999999E-003    6.330953145275661E-015
 -3.099999999999999E-003    6.493236758979937E-015
 -2.999999999999999E-003    6.130414061710192E-015
 -2.899999999999999E-003    5.197089848333536E-015
 -2.799999999999999E-003    3.693537931738059E-015
 -2.699999999999999E-003    1.671854437585906E-015
 -2.599999999999999E-003   -7.622392769251450E-016
 -2.499999999999999E-003   -3.452643098839918E-015
 -2.399999999999999E-003   -6.201398665888227E-015
 -2.299999999999999E-003   -8.782183204080618E-015
 -2.199999999999999E-003   -1.095792257049100E-014
 -2.099999999999999E-003   -1.250117713473867E-014
 -1.999999999999999E-003   -1.321554899382299E-014
 -1.899999999999999E-003   -1.295611723063812E-014
 -1.799999999999999E-003   -1.164686779198896E-014
 -1.699999999999999E-003   -9.293216608822847E-015
 -1.599999999999999E-003   -5.988108719724968E-015
 -1.499999999999999E-003   -1.910680935189330E-015
 -1.399999999999999E-003    2.682836254506563E-015
 -1.299999999999999E-003    7.475582670747045E-015
 -1.199999999999999E-003    1.211277757384678E-014
 -1.099999999999999E-003    1.622890589743673E-014
 -9.999999999999989E-004    1.947710731729791E-014
 -8.999999999999990E-004    2.155821952565797E-014
 -7.999999999999990E-004    2.224686371847073E-014
 -6.999999999999989E-004    2.141217256119959E-014
 -5.999999999999990E-004    1.903123310256470E-014
 -4.999999999999989E-004    1.519394769512301E-014
 -3.999999999999989E-004    1.009884038934206E-014
 -2.999999999999989E-004    4.040175104642276E-015
 -1.999999999999989E-004   -2.612435244687278E-015
 -9.999999999999892E-005   -9.440052370908334E-015
  1.084202172485504E-018   -1.600371896787137E-014
  1.000000000000011E-004   -2.187449472952778E-014
  2.000000000000011E-004   -2.666175168350862E-014
  3.000000000000011E-004   -3.003759522156016E-014
  4.000000000000011E-004   -3.175590913502363E-014
  5.000000000000011E-004   -3.166519556973709E-014
  6.000000000000011E-004   -2.971513884927009E-014
  7.000000000000011E-004   -2.595751239762206E-014
  8.000000000000011E-004   -2.054242685082282E-014
  9.000000000000012E-004   -1.371113986717368E-014
  1.000000000000001E-003   -5.786468857224730E-015
  1.100000000000001E-003    2.838566557975544E-015
  1.200000000000001E-003    1.171385717645838E-014
  1.300000000000001E-003    2.034771137942308E-014
  1.400000000000001E-003    2.822589920125486E-014
  1.500000000000001E-003    3.483554662914622E-014
  1.600000000000001E-003    3.969490839844479E-014
  1.700000000000001E-003    4.238917883180712E-014
  1.800000000000001E-003    4.261113737639717E-014
  1.900000000000001E-003    4.020366649681543E-014
  2.000000000000001E-003    3.519931635793083E-014
  2.100000000000001E-003    2.785049239222256E-014
  2.200000000000001E-003    1.864296323222505E-014
  2.300000000000001E-003    8.285473976172374E-015
  2.400000000000001E-003   -2.330202380633687E-015
  2.500000000000001E-003   -1.220145507256912E-014
  2.600000000000001E-003   -2.031765713918037E-014
  2.700000000000001E-003   -2.578672185000315E-014
  2.800000000000001E-003   -2.797295130929042E-014
  2.900000000000001E-003   -2.662883796828622E-014
  3.000000000000001E-003   -2.200003621224805E-014
  3.100000000000001E-003   -1.488193429062643E-014
  3.200000000000001E-003   -6.608457527170567E-015
  3.300000000000001E-003    1.040327853754783E-015
  3.400000000000001E-003    6.016081941996909E-015
  3.500000000000001E-003    6.258009404145452E-015
  3.600000000000001E-003    5.954115686205328E-018
  3.700000000000001E-003   -1.386249646565247E-014
  3.800000000000001E-003   -3.551437487941548E-014
  3.900000000000001E-003   -6.391228763303185E-014
  4.000000000000001E-003   -9.668261811099169E-014
  4.100000000000001E-003   -1.301421450970754E-013
  4.200000000000001E-003   -1.595093113781225E-013
  4.300000000000001E-003   -1.793055655325920E-013
  4.400000000000001E-003   -1.839269226960996E-013
  4.500000000000001E-003   -1.683397496657779E-013
  4.600000000000002E-003   -1.288308600652238E-013
  4.700000000000001E-003   -6.372426357832226E-014
  4.800000000000001E-003    2.603098750799400E-014
  4.900000000000002E-003    1.364940377970508E-013
  5.000000000000001E-003    2.606624854371285E-013
  5.100000000000001E-003    3.887470658817514E-013
  5.200000000000001E-003    5.088007074219199E-013
  5.300000000000002E-003    6.076696099928106E-013
  5.400000000000001E-003    6.721910518586207E-013
  5.500000000000001E-003    6.905269219071223E-013
  5.600000000000002E-003    6.534965981682639E-013
  5.700000000000001E-003    5.557637962960307E-013
  5.800000000000001E-003    3.967404241996238E-013
  5.900000000000002E-003    1.810964265850818E-013
  6.000000000000001E-003   -8.119415920507727E-014
  6.100000000000001E-003   -3.752908146759691E-013
  6.200000000000002E-003   -6.823734306448053E-013
  6.300000000000002E-003   -9.808961441345628E-013
  6.400000000000001E-003   -1.248087321246830E-012
  6.500000000000001E-003   -1.461555020907734E-012
  6.600000000000002E-003   -1.600856600258843E-012
  6.700000000000001E-003   -1.648908565865357E-012
  6.800000000000001E-003   -1.593147353299055E-012
  6.900000000000002E-003   -1.426395018375267E-012
  7.000000000000001E-003   -1.147425953546328E-012
  7.100000000000001E-003   -7.612689588082730E-013
  7.200000000000002E-003   -2.792974373518046E-013
  7.300000000000002E-003    2.808390773350412E-013
  7.400000000000001E-003    8.954081796539766E-013
  7.500000000000001E-003    1.534918548601975E-012
  7.600000000000002E-003    2.164626098194236E-012
  7.700000000000001E-003    2.745321741855291E-012
  7.800000000000001E-003    3.234526226230984E-012
  7.900000000000001E-003    3.588227602715437E-012
  8.000000000000002E-003    3.763261647364979E-012
  8.100000000000001E-003    3.720362209279842E-012
  8.200000000000001E-003    3.427814047834518E-012
  8.300000000000002E-003    2.865498346868004E-012
  8.400000000000001E-003    2.028994082998582E-012
  8.500000000000002E-003    9.332743801394297E-013
  8.600000000000002E-003   -3.845366974731331E-013
  8.700000000000001E-003   -1.863908887336169E-012
  8.800000000000002E-003   -3.421641696280711E-012
  8.900000000000002E-003   -4.954949654861191E-012
  9.000000000000001E-003   -6.347022636278767E-012
  9.100000000000002E-003   -7.474920836020824E-012
  9.200000000000002E-003   -8.219344358765650E-012
  9.300000000000001E-003   -8.475533286620442E-012
  9.400000000000002E-003   -8.164305290283729E-012
  9.500000000000001E-003   -7.242094404439266E-012
  9.600000000000001E-003   -5.708826316596570E-012
  9.700000000000002E-003   -3.612582071314865E-012
  9.800000000000001E-003   -1.050268721466170E-012
  9.900000000000001E-003    1.836128207910596E-012
  1.000000000000000E-002    4.867663488029853E-012
  1.010000000000000E-002    7.840404987299328E-012
  1.020000000000000E-002    1.054029636462716E-011
  1.030000000000000E-002    1.275959434014405E-011
  1.040000000000000E-002    1.431335656988681E-011
  1.050000000000000E-002    1.505442632284120E-011
  1.060000000000000E-002    1.488550562965531E-011
  1.070000000000000E-002    1.376724098353904E-011
  1.080000000000000E-002    1.172168822491870E-011
  1.090000000000000E-002    8.831012203044779E-012
  1.100000000000000E-002    5.231832967523959E-012
  1.110000000000000E-002    1.106004507978932E-012
  1.120000000000000E-002   -3.331043458722264E-012
  1.130000000000000E-002   -7.843178416862098E-012
  1.140000000000000E-002   -1.218647662869635E-011
  1.150000000000000E-002   -1.612123241887532E-011
  1.160000000000000E-002   -1.942246790165617E-011
  1.170000000000000E-002   -2.188874664168859E-011
  1.180000000000000E-002   -2.334946094613529E-011
  1.190000000000000E-002   -2.367102700336486E-011
  1.200000000000000E-002   -2.276254182598845E-011
  1.210000000000000E-002   -2.058137291115596E-011
  1.220000000000000E-002   -1.713887729219433E-011
  1.230000000000000E-002   -1.250607573174569E-011
  1.240000000000000E-002   -6.818619469200128E-012
  1.250000000000000E-002   -2.799887541150614E-013
  1.260000000000000E-002    6.838460528257778E-012
  1.270000000000000E-002    1.420201524141442E-011
  1.280000000000000E-002    2.142292308540486E-011
  1.290000000000000E-002    2.807720080230494E-011
  1.300000000000000E-002    3.372788998863697E-011
  1.310000000000000E-002    3.795374936173279E-011
  1.320000000000000E-002    4.038144319426835E-011
  1.330000000000000E-002    4.071836616256424E-011
  1.340000000000000E-002    3.878274818208979E-011
  1.350000000000000E-002    3.452741428932154E-011
  1.360000000000000E-002    2.805394107605384E-011
  1.370000000000000E-002    1.961472042197162E-011
  1.380000000000000E-002    9.601669048372441E-012
  1.390000000000000E-002   -1.478127273562812E-012
  1.400000000000000E-002   -1.303794942966646E-011
  1.410000000000000E-002   -2.445474601694801E-011
  1.420000000000000E-002   -3.511564896022808E-011
  1.430000000000000E-002   -4.446258498569948E-011
  1.440000000000000E-002   -5.202992151129276E-011
  1.450000000000000E-002   -5.747087895674619E-011
  1.460000000000000E-002   -6.056996014930702E-011
  1.470000000000000E-002   -6.124041916590815E-011
  1.480000000000000E-002   -5.950802925790659E-011
  1.490000000000000E-002   -5.548435768748123E-011
  1.500000000000000E-002   -4.933437761803059E-011
  1.510000000000000E-002   -4.124416407616341E-011
  1.520000000000000E-002   -3.139453548228622E-011
  1.530000000000000E-002   -1.994564214005194E-011
  1.540000000000000E-002   -7.035828073525651E-012
  1.550000000000000E-002    7.204199711404745E-012
  1.560000000000000E-002    2.262345988345220E-011
  1.570000000000000E-002    3.901315674927658E-011
  1.580000000000000E-002    5.606566407650438E-011
  1.590000000000000E-002    7.333743333058750E-011
  1.600000000000000E-002    9.022342950136880E-011
  1.610000000000000E-002    1.059497249181687E-010
  1.620000000000000E-002    1.195888273224938E-010
  1.630000000000000E-002    1.300995461910600E-010
  1.640000000000000E-002    1.363898433986368E-010
  1.650000000000000E-002    1.373979005192653E-010
  1.660000000000000E-002    1.321837926420409E-010
  1.670000000000000E-002    1.200224463724887E-010
  1.680000000000000E-002    1.004877667851282E-010
  1.690000000000000E-002    7.351877060814301E-011
  1.700000000000000E-002    3.946026415269747E-011
  1.710000000000000E-002   -9.260909348289719E-013
  1.720000000000000E-002   -4.648118925181084E-011
  1.730000000000000E-002   -9.569549576576533E-011
  1.740000000000000E-002   -1.467777157917770E-010
  1.750000000000000E-002   -1.977370554960238E-010
  1.760000000000000E-002   -2.464702213315275E-010
  1.770000000000000E-002   -2.908445926447409E-010
  1.780000000000000E-002   -3.287713592763874E-010
  1.790000000000000E-002   -3.582646534073754E-010
  1.800000000000000E-002   -3.774862437093919E-010
  1.810000000000000E-002   -3.847787429549568E-010
  1.820000000000000E-002   -3.786921314022442E-010
  1.830000000000000E-002   -3.580103091965337E-010
  1.840000000000000E-002   -3.217837758409868E-010
  1.850000000000000E-002   -2.693732521939360E-010
  1.860000000000000E-002   -2.005056420826598E-010
  1.870000000000000E-002   -1.153406641268814E-010