 -4.000000000000000E-002    0.000000000000000E+000
 -3.990000000000000E-002    0.000000000000000E+000
 -3.980000000000000E-002    0.000000000000000E+000
 -3.970000000000000E-002    0.000000000000000E+000
 -3.960000000000000E-002    0.000000000000000E+000
 -3.950000000000000E-002   -2.682968683093750E-021
 -3.940000000000000E-002    8.708347612579499E-022
 -3.930000000000000E-002    1.679169483291350E-019
 -3.920000000000000E-002    1.328053490196194E-018
 -3.910000000000000E-002    6.320540612667214E-018
 -3.900000000000000E-002    2.255114631163282E-017
 -3.890000000000000E-002    6.571832765915511E-017
 -3.880000000000000E-002    1.635633909921242E-016
 -3.870000000000000E-002    3.567997998765708E-016
 -3.860000000000000E-002    6.925173343580328E-016
 -3.850000000000000E-002    1.204234672695462E-015
 -3.840000000000000E-002    1.873608561634446E-015
 -3.830000000000000E-002    2.572747176993444E-015
 -3.820000000000000E-002    2.993666645714369E-015
 -3.810000000000000E-002    2.582057724732228E-015
 -3.800000000000000E-002    5.040124279420925E-016
 -3.790000000000000E-002   -4.316964494778782E-015
 -3.780000000000000E-002   -1.305409809790276E-014
 -3.770000000000000E-002   -2.669472783181582E-014
 -3.760000000000000E-002   -4.561820280089076E-014
 -3.750000000000000E-002   -6.907083765129156E-014
 -3.740000000000000E-002   -9.462263092479173E-014
 -3.730000000000000E-002   -1.177379941778212E-013
 -3.720000000000000E-002   -1.316263367690766E-013
 -3.710000000000000E-002   -1.275428115766219E-013
 -3.700000000000000E-002   -9.567343816942133E-014
 -3.690000000000000E-002   -2.665459005938372E-014
 -3.680000000000000E-002    8.635052755199833E-014
 -3.670000000000000E-002    2.452514613639117E-013
 -3.660000000000000E-002    4.446951634729633E-013
 -3.650000000000000E-002    6.703042527818508E-013
 -3.640000000000000E-002    8.980428128228382E-013
 -3.630000000000000E-002    1.095200340960039E-012
 -3.620000000000000E-002    1.223296624201408E-012
 -3.610000000000000E-002    1.242902889585170E-012
 -3.600000000000000E-002    1.119981517335044E-012
 -3.590000000000000E-002    8.329296259141127E-013
 -3.580000000000000E-002    3.791545874233465E-013
 -3.570000000000000E-002   -2.201994481664865E-013
 -3.560000000000000E-002   -9.187336055566041E-013
 -3.550000000000000E-002   -1.647542939041763E-012
 -3.540000000000000E-002   -2.322702493044506E-012
 -3.530000000000000E-002   -2.857140750607884E-012
 -3.520000000000000E-002   -3.175615081490672E-012
 -3.510000000000000E-002   -3.230601710203656E-012
 -3.500000000000000E-002   -3.016247311441500E-012
 -3.490000000000000E-002   -2.577258951231615E-012
 -3.480000000000000E-002   -2.009888899186523E-012
 -3.470000000000000E-002   -1.453044568933702E-012
 -3.460000000000000E-002   -1.068970271586473E-012
 -3.450000000000000E-002   -1.014766394738426E-012
 -3.440000000000000E-002   -1.407943886223291E-012
 -3.430000000000000E-002   -2.290954898967101E-012
 -3.420000000000000E-002   -3.600814774494389E-012
 -3.410000000000000E-002   -5.150279076196314E-012
 -3.400000000000000E-002   -6.626300362841835E-012
 -3.390000000000000E-002   -7.609686451532866E-012
 -3.380000000000000E-002   -7.617109783557445E-012
 -3.370000000000000E-002   -6.163230242416128E-012
 -3.360000000000000E-002   -2.837126265116647E-012
 -3.350000000000000E-002    2.615889700440566E-012
 -3.340000000000000E-002    1.021821143737518E-011
 -3.330000000000000E-002    1.970155177418455E-011
 -3.320000000000000E-002    3.047724299871623E-011
 -3.310000000000000E-002    4.164368592537198E-011
 -3.300000000000000E-002    5.203526416194152E-011
 -3.290000000000000E-002    6.031203575492043E-011
 -3.280000000000000E-002    6.508409076591873E-011
 -3.270000000000000E-002    6.505946846966623E-011
 -3.260000000000000E-002    5.920065006394106E-011
 -3.250000000000000E-002    4.687245357663928E-011
 -3.240000000000000E-002    2.796400263673778E-011
 -3.230000000000000E-002    2.969354940835734E-012
 -3.220000000000000E-002   -2.698483741878518E-011
 -3.210000000000000E-002   -6.017119814395449E-011
 -3.200000000000000E-002   -9.435362198884924E-011
 -3.190000000000000E-002   -1.269341031802376E-010
 -3.180000000000000E-002   -1.551439044259920E-010
 -3.170000000000000E-002   -1.762642832391491E-010
 -3.160000000000000E-002   -1.878591203830112E-010
 -3.150000000000000E-002   -1.880009492153072E-010
 -3.140000000000000E-002   -1.754715263160062E-010
 -3.130000000000000E-002   -1.499199660605371E-010
 -3.120000000000000E-002   -1.119637632163051E-010
 -3.110000000000000E-002   -6.322112591291929E-011
 -3.100000000000000E-002   -6.267459745514061E-012
 -3.090000000000000E-002    5.548713100291652E-011
 -3.080000000000000E-002    1.179969458074994E-010
 -3.070000000000000E-002    1.768483220626042E-010
 -3.060000000000000E-002    2.275817022953751E-010
 -3.050000000000000E-002    2.660477603852147E-010
 -3.040000000000000E-002    2.887713969638539E-010
 -3.030000000000000E-002    2.932931254527119E-010
 -3.020000000000000E-002    2.784548366724453E-010
 -3.010000000000000E-002    2.445975947908393E-010
 -3.000000000000000E-002    1.936428167519990E-010
 -2.990000000000000E-002    1.290371468397335E-010
 -2.980000000000000E-002    5.555142604482571E-011
 -2.970000000000000E-002   -2.106073400832173E-011
 -2.960000000000000E-002   -9.452372730222319E-011
 -2.950000000000000E-002   -1.585853398804207E-010
 -2.940000000000000E-002   -2.075989281291013E-010
 -2.930000000000000E-002   -2.370872027511048E-010
 -2.920000000000000E-002   -2.442310517899228E-010
 -2.910000000000000E-002   -2.282314148088630E-010
 -2.900000000000000E-002   -1.905032939747857E-010
 -2.890000000000000E-002   -1.346774931774157E-010
 -2.880000000000000E-002   -6.640448589819399E-011
 -2.870000000000000E-002    7.025615055668136E-012
 -2.860000000000000E-002    7.721571965857492E-011
 -2.850000000000000E-002    1.353031133542815E-010
 -2.840000000000000E-002    1.726598596939501E-010
 -2.830000000000000E-002    1.816023157627895E-010
 -2.820000000000000E-002    1.560664504151918E-010
 -2.810000000000000E-002    9.221614895877457E-011
 -2.800000000000000E-002   -1.103633110337137E-011
 -2.790000000000000E-002   -1.516088222538220E-010
 -2.780000000000000E-002   -3.239306078989263E-010
 -2.770000000000000E-002   -5.187318264139262E-010
 -2.760000000000000E-002   -7.229516443132129E-010
 -2.750000000000000E-002   -9.197879371359405E-010
 -2.740000000000000E-002   -1.088927692132843E-009
 -2.730000000000000E-002   -1.207008761201351E-009
 -2.720000000000000E-002   -1.248373679575305E-009
 -2.710000000000000E-002   -1.186174516752524E-009
 -2.700000000000000E-002   -9.938728884058189E-010
 -2.690000000000000E-002   -6.471492737691738E-010
 -2.680000000000000E-002   -1.261935520139722E-010
 -2.670000000000000E-002    5.817074007499030E-010
 -2.660000000000000E-002    1.479428285568233E-009
 -2.650000000000000E-002    2.557310856620352E-009
 -2.640000000000000E-002    3.790767022225724E-009
 -2.630000000000000E-002    5.138456925770625E-009
 -2.620000000000000E-002    6.541331483242021E-009
 -2.610000000000000E-002    7.922798554561822E-009
 -2.600000000000000E-002    9.190229796427660E-009
 -2.590000000000000E-002    1.023793961282062E-008
 -2.580000000000000E-002    1.095167496336727E-008
 -2.570000000000000E-002    1.121454163174496E-008
 -2.560000000000000E-002    1.091418638741021E-008
 -2.550000000000000E-002    9.950938878164005E-009
 -2.540000000000000E-002    8.246547662277915E-009
 -2.530000000000000E-002    5.753067330169211E-009
 -2.520000000000000E-002    2.461436433120370E-009
 -2.510000000000000E-002   -1.590728535568258E-009
 -2.500000000000000E-002   -6.312561656788870E-009
 -2.490000000000000E-002   -1.155499277570127E-008
 -2.480000000000000E-002   -1.710774041925401E-008
 -2.470000000000000E-002   -2.269848520398155E-008
 -2.460000000000000E-002   -2.799440264187999E-008
 -2.450000000000000E-002   -3.260611519019253E-008
 -2.440000000000000E-002   -3.609405643827397E-008
 -2.430000000000000E-002   -3.797712402423210E-008
 -2.420000000000000E-002   -3.774342101759763E-008
 -2.410000000000000E-002   -3.486277911590881E-008
 -2.400000000000000E-002   -2.880062218926739E-008
 -2.390000000000000E-002   -1.903265304008807E-008
 -2.380000000000000E-002   -5.059704787671492E-009
 -2.370000000000000E-002    1.357799182372691E-008
 -2.360000000000000E-002    3.728793772886620E-008
 -2.350000000000000E-002    6.641474508838951E-008
 -2.340000000000000E-002    1.012325882492864E-007
 -2.330000000000000E-002    1.419414392734186E-007
 -2.320000000000000E-002    1.886676320261389E-007
 -2.310000000000000E-002    2.414690534440714E-007
 -2.300000000000000E-002    3.003449611475178E-007
 -2.290000000000000E-002    3.652500067792972E-007
 -2.280000000000000E-002    4.361116821487723E-007
 -2.270000000000000E-002    5.128503044795245E-007
 -2.260000000000000E-002    5.954000036952836E-007
 -2.250000000000000E-002    6.837292990267858E-007
 -2.240000000000000E-002    7.778595543733957E-007
 -2.230000000000000E-002    8.778805123693211E-007
 -2.220000000000000E-002    9.839607761281485E-007
 -2.210000000000000E-002    1.096353602372130E-006
 -2.200000000000000E-002    1.215396602584368E-006
 -2.190000000000000E-002    1.341506748457935E-006
 -2.180000000000000E-002    1.475170286506019E-006
 -2.170000000000000E-002    1.616930108119158E-006
 -2.160000000000000E-002    1.767370443591673E-006
 -2.150000000000000E-002    1.927101856327191E-006
 -2.140000000000000E-002    2.096748280999901E-006
 -2.130000000000000E-002    2.276935838055611E-006
 -2.120000000000000E-002    2.468286171494582E-006
 -2.110000000000000E-002    2.671414472365060E-006
 -2.100000000000000E-002    2.886932551783344E-006
 -2.090000000000000E-002    3.115455924824737E-006
 -2.080000000000000E-002    3.357614065758223E-006
 -2.070000000000000E-002    3.614063860186664E-006
 -2.060000000000000E-002    3.885504718659695E-006
 -2.050000000000000E-002    4.172691396863784E-006
 -2.040000000000000E-002    4.476448676782450E-006
 -2.030000000000000E-002    4.797681471607736E-006
 -2.020000000000000E-002    5.137382464413059E-006
 -2.010000000000000E-002    5.496637473794325E-006
 -2.000000000000000E-002    5.876626099906231E-006
 -1.990000000000000E-002    6.278620372477940E-006
 -1.980000000000000E-002    6.703981697543577E-006
 -1.970000000000000E-002    7.154153201491514E-006
 -1.960000000000000E-002    7.630654544101243E-006
 -1.950000000000000E-002    8.135074708655263E-006
 -1.940000000000000E-002    8.669067233790608E-006
 -1.930000000000000E-002    9.234344303862945E-006
 -1.920000000000000E-002    9.832675988594999E-006
 -1.910000000000000E-002    1.046588887052690E-005
 -1.900000000000000E-002    1.113587285889828E-005
 -1.890000000000000E-002    1.184458617273171E-005
 -1.880000000000000E-002    1.259406643587137E-005
 -1.870000000000000E-002    1.338644498675405E-005
 -1.860000000000000E-002    1.422396288429529E-005
 -1.850000000000000E-002    1.510898524771680E-005
 -1.840000000000000E-002    1.604402284965810E-005
 -1.830000000000000E-002    1.703174699525232E-005
 -1.820000000000000E-002    1.807500069479786E-005
 -1.810000000000000E-002    1.917681279521577E-005
 -1.800000000000000E-002    2.034040174051354E-005
 -1.790000000000000E-002    2.156917371873460E-005
 -1.780000000000000E-002    2.286672035941419E-005
 -1.770000000000000E-002    2.423680668807152E-005
 -1.760000000000000E-002    2.568335905758328E-005
 -1.750000000000000E-002    2.721044967153436E-005
 -1.740000000000000E-002    2.882227968428668E-005
 -1.730000000000000E-002    3.052317545150250E-005
 -1.720000000000000E-002    3.231757792186186E-005
 -1.710000000000000E-002    3.421004731327163E-005
 -1.700000000000000E-002    3.620527075219194E-005
 -1.690000000000000E-002    3.830808790048044E-005
 -1.680000000000000E-002    4.052350529073568E-005
 -1.670000000000000E-002    4.285673692931757E-005
 -1.660000000000000E-002    4.531324587868224E-005
 -1.650000000000000E-002    4.789876671951554E-005
 -1.640000000000000E-002    5.061935728042380E-005
 -1.630000000000000E-002    5.348142361800624E-005
 -1.620000000000000E-002    5.649174511029680E-005
 -1.610000000000000E-002    5.965748912548904E-005
 -1.600000000000000E-002    6.298623615937267E-005
 -1.590000000000000E-002    6.648595884572707E-005
 -1.580000000000000E-002    7.016504206869281E-005
 -1.570000000000000E-002    7.403225730115457E-005
 -1.560000000000000E-002    7.809676723629436E-005
 -1.550000000000000E-002    8.236810508026721E-005
 -1.540000000000000E-002    8.685617226565325E-005
 -1.530000000000000E-002    9.157122874204272E-005
 -1.520000000000000E-002    9.652390229670607E-005
 -1.510000000000000E-002    1.017251881107957E-004
 -1.500000000000000E-002    1.071864779695910E-004
 -1.490000000000000E-002    1.129195469117946E-004
 -1.480000000000000E-002    1.189366057113054E-004
 -1.470000000000000E-002    1.252503079928126E-004
 -1.460000000000000E-002    1.318737751881666E-004
 -1.450000000000000E-002    1.388206080662966E-004
 -1.440000000000000E-002    1.461049589331678E-004
 -1.430000000000000E-002    1.537415029599252E-004
 -1.420000000000000E-002    1.617454902090786E-004
 -1.410000000000000E-002    1.701327587477114E-004
 -1.400000000000000E-002    1.789197557576384E-004
 -1.390000000000000E-002    1.881235578178001E-004
 -1.380000000000000E-002    1.977618731091093E-004
 -1.370000000000000E-002    2.078530637281773E-004
 -1.360000000000000E-002    2.184161487017667E-004
 -1.350000000000000E-002    2.294708332747065E-004
 -1.340000000000000E-002    2.410375187483683E-004
 -1.330000000000000E-002    2.531373280066116E-004
 -1.320000000000000E-002    2.657920553561921E-004
 -1.310000000000000E-002    2.790242470807162E-004
 -1.300000000000000E-002    2.928572337744900E-004
 -1.290000000000000E-002    3.073150876791319E-004
 -1.280000000000000E-002    3.224227010386008E-004
 -1.270000000000000E-002    3.382057908161745E-004
 -1.260000000000000E-002    3.546909146115613E-004
 -1.250000000000000E-002    3.719055653158352E-004
 -1.240000000000000E-002    3.898781469325630E-004
 -1.230000000000000E-002    4.086379576307830E-004
 -1.220000000000000E-002    4.282153208342822E-004
 -1.210000000000000E-002    4.486415019766428E-004
 -1.200000000000000E-002    4.699487707284044E-004
 -1.190000000000000E-002    4.921704618973130E-004
 -1.180000000000000E-002    5.153409367891699E-004
 -1.170000000000000E-002    5.394954839195501E-004
 -1.160000000000000E-002    5.646704779832812E-004
 -1.150000000000000E-002    5.909033335247200E-004
 -1.140000000000000E-002    6.182325413956608E-004
 -1.130000000000000E-002    6.466975758639980E-004
 -1.120000000000000E-002    6.763390492496804E-004
 -1.110000000000000E-002    7.071986505128460E-004
 -1.100000000000000E-002    7.393190850493489E-004
 -1.090000000000000E-002    7.727442972297744E-004
 -1.080000000000000E-002    8.075192831374929E-004
 -1.070000000000000E-002    8.436903030096472E-004
 -1.060000000000000E-002    8.813047227527499E-004
 -1.050000000000000E-002    9.204112356220439E-004
 -1.040000000000000E-002    9.610597751241981E-004
 -1.030000000000000E-002    1.003301376936453E-003
 -1.020000000000000E-002    1.047188631226220E-003
 -1.010000000000000E-002    1.092775315685394E-003
 -1.000000000000000E-002    1.140116528430659E-003
 -9.899999999999999E-003    1.189268650918889E-003
 -9.800000000000000E-003    1.240289488508086E-003
 -9.699999999999999E-003    1.293238116695959E-003
 -9.599999999999999E-003    1.348175100342621E-003
 -9.500000000000000E-003    1.405162043256032E-003
 -9.399999999999999E-003    1.464262012762315E-003
 -9.299999999999999E-003    1.525539344753499E-003
 -9.200000000000000E-003    1.589059556706714E-003
 -9.099999999999999E-003    1.654889458693258E-003
 -8.999999999999999E-003    1.723097089226692E-003
 -8.900000000000000E-003    1.793751530000421E-003
 -8.799999999999999E-003    1.866923340962646E-003
 -8.699999999999999E-003    1.942683982962214E-003
 -8.600000000000000E-003    2.021106252540947E-003
 -8.499999999999999E-003    2.102264163743439E-003
 -8.399999999999999E-003    2.186232706376935E-003
 -8.300000000000000E-003    2.273088429477876E-003
 -8.199999999999999E-003    2.362908684185317E-003
 -8.100000000000000E-003    2.455772086657372E-003
 -8.000000000000000E-003    2.551758388785588E-003
 -7.899999999999999E-003    2.650948461656991E-003
 -7.800000000000000E-003    2.753424386471179E-003
 -7.699999999999999E-003    2.859268950478981E-003
 -7.599999999999999E-003    2.968566334806236E-003
 -7.499999999999999E-003    3.081401406980675E-003
 -7.399999999999999E-003    3.197859792320581E-003
 -7.299999999999999E-003    3.318027913854538E-003
 -7.199999999999999E-003    3.441993278688012E-003
 -7.100000000000000E-003    3.569843872454401E-003
 -6.999999999999999E-003    3.701668095866817E-003
 -6.899999999999999E-003    3.837554976280356E-003
 -6.800000000000000E-003    3.977594486505240E-003
 -6.699999999999999E-003    4.121876563501053E-003
 -6.599999999999999E-003    4.270491157256136E-003
 -6.499999999999999E-003    4.423529496174865E-003
 -6.399999999999999E-003    4.581082141612051E-003
 -6.299999999999999E-003    4.743240024952381E-003
 -6.199999999999999E-003    4.910093674153773E-003
 -6.100000000000000E-003    5.081734635239922E-003
 -5.999999999999999E-003    5.258253273982692E-003
 -5.899999999999999E-003    5.439740121554044E-003
 -5.800000000000000E-003    5.626285362427640E-003
 -5.699999999999999E-003    5.817978473947146E-003
 -5.599999999999999E-003    6.014908447993790E-003
 -5.499999999999999E-003    6.217163384951489E-003
 -5.399999999999999E-003    6.424831130988152E-003
 -5.299999999999999E-003    6.637997441023833E-003
 -5.199999999999999E-003    6.856747931410044E-003
 -5.099999999999999E-003    7.081165990653566E-003
 -4.999999999999999E-003    7.311334378425822E-003
 -4.899999999999999E-003    7.547333621045438E-003
 -4.799999999999999E-003    7.789242774460550E-003
 -4.699999999999999E-003    8.037138322146600E-003
 -4.599999999999999E-003    8.291095710045918E-003
 -4.499999999999999E-003    8.551187369071910E-003
 -4.399999999999999E-003    8.817484024431145E-003
 -4.299999999999999E-003    9.090052220611428E-003
 -4.199999999999999E-003    9.368957898959127E-003
 -4.099999999999999E-003    9.654263004052411E-003
 -3.999999999999999E-003    9.946026493011077E-003
 -3.899999999999999E-003    1.024430365512645E-002
 -3.799999999999999E-003    1.054914736126603E-002
 -3.699999999999999E-003    1.086060602984514E-002
 -3.599999999999999E-003    1.117872483443722E-002
 -3.499999999999999E-003    1.150354431861900E-002
 -3.399999999999999E-003    1.183510127927026E-002
 -3.299999999999999E-003    1.217342676152810E-002
 -3.199999999999999E-003    1.251854889985771E-002
 -3.099999999999999E-003    1.287048923184247E-002
 -2.999999999999999E-003    1.322926528359911E-002
 -2.899999999999999E-003    1.359488729817549E-002
 -2.799999999999999E-003    1.396736200032475E-002
 -2.699999999999999E-003    1.434668937314941E-002
 -2.599999999999999E-003    1.473286370488122E-002
 -2.499999999999999E-003    1.512587189817885E-002
 -2.399999999999999E-003    1.552569486782712E-002
 -2.299999999999999E-003    1.593230876192144E-002
 -2.199999999999999E-003    1.634567937046601E-002
 -2.099999999999999E-003    1.676576563575248E-002
 -1.999999999999999E-003    1.719252210526755E-002
 -1.899999999999999E-003    1.762589219553935E-002
 -1.799999999999999E-003    1.806581316182975E-002
 -1.699999999999999E-003    1.851221379282758E-002
 -1.599999999999999E-003    1.896501439580671E-002
 -1.499999999999999E-003    1.942412687982449E-002
 -1.399999999999999E-003    1.988945237735177E-002
 -1.299999999999999E-003    2.036088583079533E-002
 -1.199999999999999E-003    2.083831045203929E-002
 -1.099999999999999E-003    2.132160118629547E-002
 -9.999999999999989E-004    2.181062286880349E-002
 -8.999999999999990E-004    2.230523052956205E-002
 -7.999999999999990E-004    2.280526894438181E-002
 -6.999999999999989E-004    2.331057174428441E-002
 -5.999999999999990E-004    2.382096236684450E-002
 -4.999999999999989E-004    2.433625073559383E-002
 -3.999999999999989E-004    2.485624010005264E-002
 -2.999999999999989E-004    2.538071911708864E-002
 -1.999999999999989E-004    2.590946633966461E-002
 -9.999999999999892E-005    2.644224766541335E-002
  1.084202172485504E-018    2.697881773966901E-002
  1.000000000000011E-004    2.751891890385200E-002
  2.000000000000011E-004    2.806228142796768E-002
  3.000000000000011E-004    2.860862547541676E-002
  4.000000000000011E-004    2.915765570306470E-002
  5.000000000000011E-004    2.970906507241663E-002
  6.000000000000011E-004    3.026253545978862E-002
  7.000000000000011E-004    3.081773523525711E-002
  8.000000000000011E-004    3.137431869533810E-002
  9.000000000000012E-004    3.193192982111117E-002
  1.000000000000001E-003    3.249019611028166E-002
  1.100000000000001E-003    3.304873546981928E-002
  1.200000000000001E-003    3.360714854261282E-002
  1.300000000000001E-003    3.416502821704537E-002
  1.400000000000001E-003    3.472195128298924E-002
  1.500000000000001E-003    3.527748219467505E-002
  1.600000000000001E-003    3.583117106703446E-002
  1.700000000000001E-003    3.638255749278341E-002
  1.800000000000001E-003    3.693116582650918E-002
  1.900000000000001E-003    3.747650549728929E-002
  2.000000000000001E-003    3.801807760060677E-002
  2.100000000000001E-003    3.855536741258692E-002
  2.200000000000001E-003    3.908784863932901E-002
  2.300000000000001E-003    3.961498077717220E-002
  2.400000000000001E-003    4.013621071003186E-002
  2.500000000000001E-003    4.065097498072702E-002
  2.600000000000001E-003    4.115869747883425E-002
  2.700000000000001E-003    4.165879005005674E-002
  2.800000000000001E-003    4.215065001263853E-002
  2.900000000000001E-003    4.263367044838584E-002
  3.000000000000001E-003    4.310722431906371E-002
  3.100000000000001E-003    4.357068187124718E-002
  3.200000000000001E-003    4.402339812790163E-002
  3.300000000000001E-003    4.446471763641745E-002
  3.400000000000001E-003    4.489397838579731E-002
  3.500000000000001E-003    4.531050571319439E-002
  3.600000000000001E-003    4.571361922475216E-002
  3.700000000000001E-003    4.610262552181057E-002
  3.800000000000001E-003    4.647682341166641E-002
  3.900000000000001E-003    4.683550570644857E-002
  4.000000000000001E-003    4.717795785496900E-002
  4.100000000000001E-003    4.750345518190431E-002
  4.200000000000001E-003    4.781126950521653E-002
  4.300000000000001E-003    4.810066987794345E-002
  4.400000000000001E-003    4.837091309508701E-002
  4.500000000000001E-003    4.862125269469647E-002
  4.600000000000002E-003    4.885094417111784E-002
  4.700000000000001E-003    4.905923116563120E-002
  4.800000000000001E-003    4.924536020388839E-002
  4.900000000000002E-003    4.940857284828760E-002
  5.000000000000001E-003    4.954810722352272E-002
  5.100000000000001E-003    4.966320239994310E-002
  5.200000000000001E-003    4.975309621249528E-002
  5.300000000000002E-003    4.981702957199015E-002
  5.400000000000001E-003    4.985424203504530E-002
  5.500000000000001E-003    4.986397447272889E-002
  5.600000000000002E-003    4.984547428533283E-002
  5.700000000000001E-003    4.979798947041984E-002
  5.800000000000001E-003    4.972077161521690E-002
  5.900000000000002E-003    4.961307681065600E-002
  6.000000000000001E-003    4.947417309002259E-002
  6.100000000000001E-003    4.930332399800642E-002
  6.200000000000002E-003    4.909981148469530E-002
  6.300000000000002E-003    4.886292109151533E-002
  6.400000000000001E-003    4.859194806121473E-002
  6.500000000000001E-003    4.828619965027990E-002
  6.600000000000002E-003    4.794499039882041E-002
  6.700000000000001E-003    4.756764958426789E-002
  6.800000000000001E-003    4.715352000001633E-002
  6.900000000000002E-003    4.670195565837446E-002
  7.000000000000001E-003    4.621232833666812E-002
  7.100000000000001E-003    4.568402112955006E-002
  7.200000000000002E-003    4.511643569876531E-002
  7.300000000000002E-003    4.450899305558888E-002
  7.400000000000001E-003    4.386112918449642E-002
  7.500000000000001E-003    4.317230195191667E-002
  7.600000000000002E-003    4.244198921681288E-002
  7.700000000000001E-003    4.166968656955629E-002
  7.800000000000001E-003    4.085491631448619E-002
  7.900000000000001E-003    3.999722548239922E-002
  8.000000000000002E-003    3.909617730717528E-002
  8.100000000000001E-003    3.815136442450760E-002
  8.200000000000001E-003    3.716240347257856E-002
  8.300000000000002E-003    3.612894035593729E-002
  8.400000000000001E-003    3.505064717915828E-002
  8.500000000000002E-003    3.392722147883556E-002
  8.600000000000002E-003    3.275839280909232E-002
  8.700000000000001E-003    3.154391905974704E-002
  8.800000000000002E-003    3.028358692087183E-002
  8.900000000000002E-003    2.897721924497719E-002
  9.000000000000001E-003    2.762466665229012E-002
  9.100000000000002E-003    2.622581220696412E-002
  9.200000000000002E-003    2.478057522962104E-002
  9.300000000000001E-003    2.328890511595874E-002
  9.400000000000002E-003    2.175079065639585E-002
  9.500000000000001E-003    2.016625659802368E-002
  9.600000000000001E-003    1.853535995597240E-002
  9.700000000000002E-003    1.685819741507969E-002
  9.800000000000001E-003    1.513490475237808E-002
  9.900000000000001E-003    1.336565176664719E-002
  1.000000000000000E-002    1.155064938590247E-002
  1.010000000000000E-002    9.690147334008152E-003
  1.020000000000000E-002    7.784435071438158E-003
  1.030000000000000E-002    5.833840867232667E-003
  1.040000000000000E-002    3.838733756634341E-003
  1.050000000000000E-002    1.799523006553101E-003
  1.060000000000000E-002   -2.833423284986979E-004
  1.070000000000000E-002   -2.409370882124106E-003
  1.080000000000000E-002   -4.578031629237868E-003
  1.090000000000000E-002   -6.788751586870487E-003
  1.100000000000000E-002   -9.040914992442677E-003
  1.110000000000000E-002   -1.133386638307491E-002
  1.120000000000000E-002   -1.366690794194427E-002
  1.130000000000000E-002   -1.603929968525341E-002
  1.140000000000000E-002   -1.845026008400270E-002
  1.150000000000000E-002   -2.089896379178030E-002
  1.160000000000000E-002   -2.338454848345989E-002
  1.170000000000000E-002   -2.590610494050134E-002
  1.180000000000000E-002   -2.846268631445321E-002
  1.190000000000000E-002   -3.105330094987589E-002
  1.200000000000000E-002   -3.367692117292536E-002
  1.210000000000000E-002   -3.633247971910966E-002
  1.220000000000000E-002   -3.901886124265388E-002
  1.230000000000000E-002   -4.173492016290923E-002
  1.240000000000000E-002   -4.447946580684794E-002
  1.250000000000000E-002   -4.725127469012823E-002
  1.260000000000000E-002   -5.004907953882506E-002
  1.270000000000000E-002   -5.287157720200455E-002
  1.280000000000000E-002   -5.571742742270847E-002
  1.290000000000000E-002   -5.858525936347844E-002
  1.300000000000000E-002   -6.147366335831705E-002
  1.310000000000000E-002   -6.438119330351383E-002
  1.320000000000000E-002   -6.730636876053471E-002
  1.330000000000000E-002   -7.024767729515712E-002
  1.340000000000000E-002   -7.320357579339570E-002
  1.350000000000000E-002   -7.617249355827653E-002
  1.360000000000000E-002   -7.915282385287600E-002
  1.370000000000000E-002   -8.214293306524025E-002
  1.380000000000000E-002   -8.514115820548569E-002
  1.390000000000000E-002   -8.814581506479238E-002
  1.400000000000000E-002   -9.115519135461671E-002
  1.410000000000000E-002   -9.416754295767038E-002
  1.420000000000000E-002   -9.718111005680562E-002
  1.430000000000000E-002   -0.100194107013530     
  1.440000000000000E-002   -0.103204741018273     
  1.450000000000000E-002   -0.106211176217883     
  1.460000000000000E-002   -0.109211571932830     
  1.470000000000000E-002   -0.112204081251368     
  1.480000000000000E-002   -0.115186821568312     
  1.490000000000000E-002   -0.118157908911887     
  1.500000000000000E-002   -0.121115446679422     
  1.510000000000000E-002   -0.124057519256947     
  1.520000000000000E-002   -0.126982215294508     
  1.530000000000000E-002   -0.129887605147346     
  1.540000000000000E-002   -0.132771756326302     
  1.550000000000000E-002   -0.135632739355539     
  1.560000000000000E-002   -0.138468610433020     
  1.570000000000000E-002   -0.141277429888085     
  1.580000000000000E-002   -0.144057247778712     
  1.590000000000000E-002   -0.146806130552635     
  1.600000000000000E-002   -0.149522147524028     
  1.610000000000000E-002   -0.152203354522679     
  1.620000000000000E-002   -0.154847833929441     
  1.630000000000000E-002   -0.157453675071318     
  1.640000000000000E-002   -0.160018969346331     
  1.650000000000000E-002   -0.162541825380986     
  1.660000000000000E-002   -0.165020354345881     
  1.670000000000000E-002   -0.167452696408544     
  1.680000000000000E-002   -0.169837001898089     
  1.690000000000000E-002   -0.172171440433117     
  1.700000000000000E-002   -0.174454195272796     
  1.710000000000000E-002   -0.176683482619108     
  1.720000000000000E-002   -0.178857536440333     
  1.730000000000000E-002   -0.180974617003300     
  1.740000000000000E-002   -0.183033014947387     
  1.750000000000000E-002   -0.185031035153498     
  1.760000000000000E-002   -0.186967026955807     
  1.770000000000000E-002   -0.188839350922444     
  1.780000000000000E-002   -0.190646431564742     
  1.790000000000000E-002   -0.192386697433674     
  1.800000000000000E-002   -0.194058616982833     
  1.810000000000000E-002   -0.195660724284458     
  1.820000000000000E-002   -0.197191558011351     
  1.830000000000000E-002   -0.198649720667305     
  1.840000000000000E-002   -0.200033841475125     
  1.850000000000000E-002   -0.201342603751054     
  1.860000000000000E-002   -0.202574708354435     
  1.870000000000000E-002   -0.203728936645591     