 -4.000000000000000E-002    0.000000000000000E+000
 -3.990000000000000E-002    0.000000000000000E+000
 -3.980000000000000E-002    0.000000000000000E+000
 -3.970000000000000E-002    0.000000000000000E+000
 -3.960000000000000E-002    0.000000000000000E+000
 -3.950000000000000E-002    0.000000000000000E+000
 -3.940000000000000E-002    0.000000000000000E+000
 -3.930000000000000E-002    0.000000000000000E+000
 -3.920000000000000E-002    0.000000000000000E+000
 -3.910000000000000E-002    0.000000000000000E+000
 -3.900000000000000E-002    0.000000000000000E+000
 -3.890000000000000E-002    0.000000000000000E+000
 -3.880000000000000E-002    0.000000000000000E+000
 -3.870000000000000E-002    0.000000000000000E+000
 -3.860000000000000E-002    0.000000000000000E+000
 -3.850000000000000E-002    0.000000000000000E+000
 -3.840000000000000E-002    0.000000000000000E+000
 -3.830000000000000E-002    0.000000000000000E+000
 -3.820000000000000E-002    0.000000000000000E+000
 -3.810000000000000E-002    0.000000000000000E+000
 -3.800000000000000E-002    0.000000000000000E+000
 -3.790000000000000E-002    0.000000000000000E+000
 -3.780000000000000E-002    0.000000000000000E+000
 -3.770000000000000E-002    0.000000000000000E+000
 -3.760000000000000E-002    0.000000000000000E+000
 -3.750000000000000E-002    0.000000000000000E+000
 -3.740000000000000E-002    0.000000000000000E+000
 -3.730000000000000E-002    0.000000000000000E+000
 -3.720000000000000E-002    0.000000000000000E+000
 -3.710000000000000E-002    0.000000000000000E+000
 -3.700000000000000E-002    0.000000000000000E+000
 -3.690000000000000E-002    0.000000000000000E+000
 -3.680000000000000E-002    0.000000000000000E+000
 -3.670000000000000E-002    0.000000000000000E+000
 -3.660000000000000E-002    0.000000000000000E+000
 -3.650000000000000E-002    0.000000000000000E+000
 -3.640000000000000E-002    0.000000000000000E+000
 -3.630000000000000E-002    0.000000000000000E+000
 -3.620000000000000E-002    0.000000000000000E+000
 -3.610000000000000E-002    0.000000000000000E+000
 -3.600000000000000E-002    0.000000000000000E+000
 -3.590000000000000E-002    0.000000000000000E+000
 -3.580000000000000E-002    0.000000000000000E+000
 -3.570000000000000E-002    0.000000000000000E+000
 -3.560000000000000E-002    0.000000000000000E+000
 -3.550000000000000E-002    0.000000000000000E+000
 -3.540000000000000E-002    0.000000000000000E+000
 -3.530000000000000E-002    0.000000000000000E+000
 -3.520000000000000E-002    0.000000000000000E+000
 -3.510000000000000E-002    0.000000000000000E+000
 -3.500000000000000E-002    0.000000000000000E+000
 -3.490000000000000E-002    0.000000000000000E+000
 -3.480000000000000E-002    0.000000000000000E+000
 -3.470000000000000E-002    0.000000000000000E+000
 -3.460000000000000E-002    0.000000000000000E+000
 -3.450000000000000E-002    0.000000000000000E+000
 -3.440000000000000E-002    0.000000000000000E+000
 -3.430000000000000E-002    0.000000000000000E+000
 -3.420000000000000E-002    0.000000000000000E+000
 -3.410000000000000E-002    0.000000000000000E+000
 -3.400000000000000E-002    0.000000000000000E+000
 -3.390000000000000E-002    0.000000000000000E+000
 -3.380000000000000E-002    0.000000000000000E+000
 -3.370000000000000E-002    0.000000000000000E+000
 -3.360000000000000E-002    0.000000000000000E+000
 -3.350000000000000E-002    0.000000000000000E+000
 -3.340000000000000E-002    0.000000000000000E+000
 -3.330000000000000E-002    0.000000000000000E+000
 -3.320000000000000E-002    0.000000000000000E+000
 -3.310000000000000E-002    0.000000000000000E+000
 -3.300000000000000E-002    0.000000000000000E+000
 -3.290000000000000E-002    0.000000000000000E+000
 -3.280000000000000E-002    0.000000000000000E+000
 -3.270000000000000E-002    0.000000000000000E+000
 -3.260000000000000E-002    0.000000000000000E+000
 -3.250000000000000E-002    0.000000000000000E+000
 -3.240000000000000E-002    0.000000000000000E+000
 -3.230000000000000E-002    0.000000000000000E+000
 -3.220000000000000E-002    0.000000000000000E+000
 -3.210000000000000E-002    0.000000000000000E+000
 -3.200000000000000E-002    0.000000000000000E+000
 -3.190000000000000E-002    0.000000000000000E+000
 -3.180000000000000E-002    0.000000000000000E+000
 -3.170000000000000E-002    0.000000000000000E+000
 -3.160000000000000E-002    0.000000000000000E+000
 -3.150000000000000E-002    0.000000000000000E+000
 -3.140000000000000E-002    0.000000000000000E+000
 -3.130000000000000E-002    0.000000000000000E+000
 -3.120000000000000E-002    0.000000000000000E+000
 -3.110000000000000E-002    0.000000000000000E+000
 -3.100000000000000E-002    0.000000000000000E+000
 -3.090000000000000E-002    0.000000000000000E+000
 -3.080000000000000E-002    0.000000000000000E+000
 -3.070000000000000E-002    0.000000000000000E+000
 -3.060000000000000E-002    0.000000000000000E+000
 -3.050000000000000E-002    0.000000000000000E+000
 -3.040000000000000E-002    0.000000000000000E+000
 -3.030000000000000E-002    0.000000000000000E+000
 -3.020000000000000E-002    0.000000000000000E+000
 -3.010000000000000E-002    0.000000000000000E+000
 -3.000000000000000E-002    0.000000000000000E+000
 -2.990000000000000E-002    0.000000000000000E+000
 -2.980000000000000E-002    0.000000000000000E+000
 -2.970000000000000E-002   -6.414635304221270E-048
 -2.960000000000000E-002   -1.282927060844254E-047
 -2.950000000000000E-002   -1.282927060844254E-047
 -2.940000000000000E-002   -1.282927060844254E-047
 -2.930000000000000E-002   -3.868802447966698E-047
 -2.920000000000000E-002    1.627762648229657E-047
 -2.910000000000000E-002    3.917010092315378E-047
 -2.900000000000000E-002    6.186236270967162E-047
 -2.890000000000000E-002    7.192556654208628E-047
 -2.880000000000000E-002    3.218021710612113E-046
 -2.870000000000000E-002    9.713092499724279E-046
 -2.860000000000000E-002    7.715913175895395E-046
 -2.850000000000000E-002    9.226981971967888E-046
 -2.840000000000000E-002    6.894608589623337E-046
 -2.830000000000000E-002   -4.929715865953306E-046
 -2.820000000000000E-002   -3.523899620983013E-045
 -2.810000000000000E-002   -8.427197608209541E-045
 -2.800000000000000E-002   -1.545402843516644E-044
 -2.790000000000000E-002   -2.409814982883434E-044
 -2.780000000000000E-002   -3.238029182574017E-044
 -2.770000000000000E-002   -3.659669828588698E-044
 -2.760000000000000E-002   -3.055528608947172E-044
 -2.750000000000000E-002   -2.124565225214280E-045
 -2.740000000000000E-002    6.168817790699960E-044
 -2.730000000000000E-002    1.751359298584668E-043
 -2.720000000000000E-002    3.492356915965959E-043
 -2.710000000000000E-002    5.843637977569313E-043
 -2.700000000000000E-002    8.529831760568032E-043
 -2.690000000000000E-002    1.092339757043932E-042
 -2.680000000000000E-002    1.179793751569693E-042
 -2.670000000000000E-002    9.243141872272906E-043
 -2.660000000000000E-002    6.763395242664428E-044
 -2.650000000000000E-002   -1.698433208021422E-042
 -2.640000000000000E-002   -4.669384614819167E-042
 -2.630000000000000E-002   -9.016391110708490E-042
 -2.620000000000000E-002   -1.461988991074177E-041
 -2.610000000000000E-002   -2.084190507456810E-041
 -2.600000000000000E-002   -2.626591991725456E-041
 -2.590000000000000E-002   -2.845526502545914E-041
 -2.580000000000000E-002   -2.381523940393184E-041
 -2.570000000000000E-002   -7.698106653818270E-042
 -2.560000000000000E-002    2.510806357002533E-041
 -2.550000000000000E-002    7.931597949646763E-041
 -2.540000000000000E-002    1.573851363014317E-040
 -2.530000000000000E-002    2.570119171579236E-040
 -2.520000000000000E-002    3.680123580412043E-040
 -2.510000000000000E-002    4.689881970315529E-040
 -2.500000000000000E-002    5.244986832969255E-040
 -2.490000000000000E-002    4.838732278259548E-040
 -2.480000000000000E-002    2.831176090665692E-040
 -2.470000000000000E-002   -1.483992551963477E-040
 -2.460000000000000E-002   -8.748657642626833E-040
 -2.450000000000000E-002   -1.933467077369637E-039
 -2.440000000000000E-002   -3.306333727570977E-039
 -2.430000000000000E-002   -4.886760651191783E-039
 -2.420000000000000E-002   -6.443904284528731E-039
 -2.410000000000000E-002   -7.593088043235912E-039
 -2.400000000000000E-002   -7.781883202193994E-039
 -2.390000000000000E-002   -6.304766937223724E-039
 -2.380000000000000E-002   -2.360509329524461E-039
 -2.370000000000000E-002    4.834316319564604E-039
 -2.360000000000000E-002    1.586613027744526E-038
 -2.350000000000000E-002    3.087758195291097E-038
 -2.340000000000000E-002    4.926339945760931E-038
 -2.330000000000000E-002    6.933528506610136E-038
 -2.320000000000000E-002    8.800230545222639E-038
 -2.310000000000000E-002    1.005352988805010E-037
 -2.300000000000000E-002    1.005057773148834E-037
 -2.290000000000000E-002    8.000845994032584E-038
 -2.280000000000000E-002    3.028790413501835E-038
 -2.270000000000000E-002   -5.711160445069130E-038
 -2.260000000000000E-002   -1.885743825072253E-037
 -2.250000000000000E-002   -3.659685192843324E-037
 -2.240000000000000E-002   -5.835607632823552E-037
 -2.230000000000000E-002   -8.244550534149171E-037
 -2.220000000000000E-002   -1.056906861468199E-036
 -2.210000000000000E-002   -1.231115684539005E-036
 -2.200000000000000E-002   -1.277407416148915E-036
 -2.190000000000000E-002   -1.107060032631135E-036
 -2.180000000000000E-002   -6.173556344618329E-037
 -2.170000000000000E-002    2.973423924988988E-037
 -2.160000000000000E-002    1.726711263820807E-036
 -2.150000000000000E-002    3.716468463942050E-036
 -2.140000000000000E-002    6.231012203623648E-036
 -2.130000000000000E-002    9.108395234502509E-036
 -2.120000000000000E-002    1.201220636969507E-035
 -2.110000000000000E-002    1.438875689131812E-035
 -2.100000000000000E-002    1.544243918492708E-035
 -2.090000000000000E-002    1.414653713344569E-035
 -2.080000000000000E-002    9.310069371107620E-036
 -2.070000000000000E-002   -2.781531077909470E-037
 -2.060000000000000E-002   -1.561109452296513E-035
 -2.050000000000000E-002   -3.712401983185074E-035
 -2.040000000000000E-002   -6.426603675182436E-035
 -2.030000000000000E-002   -9.502195831797531E-035
 -2.020000000000000E-002   -1.254585477425236E-034
 -2.010000000000000E-002   -1.494077240140982E-034
 -2.000000000000000E-002   -1.584344647712851E-034
 -1.990000000000000E-002   -1.422596806818845E-034
 -1.980000000000000E-002   -8.980520830046331E-035
 -1.970000000000000E-002    9.013902626401320E-036
 -1.960000000000000E-002    1.607165448557325E-034
 -1.950000000000000E-002    3.650180056076060E-034
 -1.940000000000000E-002    6.112456949657088E-034
 -1.930000000000000E-002    8.749651342361001E-034
 -1.920000000000000E-002    1.115614136600716E-033
 -1.910000000000000E-002    1.276137353095083E-033
 -1.900000000000000E-002    1.285692257937440E-033
 -1.890000000000000E-002    1.066394724112879E-033
 -1.880000000000000E-002    5.447134492235557E-034
 -1.870000000000000E-002   -3.325212996145157E-034
 -1.860000000000000E-002   -1.578470500898817E-033
 -1.850000000000000E-002   -3.145139965617612E-033
 -1.840000000000000E-002   -4.904124099734744E-033
 -1.830000000000000E-002   -6.633751413514559E-033
 -1.820000000000000E-002   -8.017840278608320E-033
 -1.810000000000000E-002   -8.661257085091320E-033
 -1.800000000000000E-002   -8.126407190541969E-033
 -1.790000000000000E-002   -5.992537354740318E-033
 -1.780000000000000E-002   -1.936177267720169E-033
 -1.770000000000000E-002    4.173478342291194E-033
 -1.760000000000000E-002    1.217557831020977E-032
 -1.750000000000000E-002    2.153117056099467E-032
 -1.740000000000000E-002    3.126904425211561E-032
 -1.730000000000000E-002    3.998474783832455E-032
 -1.720000000000000E-002    4.591145675752325E-032
 -1.710000000000000E-002    4.707495555060110E-032
 -1.700000000000000E-002    4.153434681476935E-032
 -1.690000000000000E-002    2.769609923396636E-032
 -1.680000000000000E-002    4.672786021185747E-033
 -1.670000000000000E-002   -2.735758061493039E-032
 -1.660000000000000E-002   -6.684783115308453E-032
 -1.650000000000000E-002   -1.106951417843009E-031
 -1.640000000000000E-002   -1.542295574738721E-031
 -1.630000000000000E-002   -1.914206910781529E-031
 -1.620000000000000E-002   -2.153210140015600E-031
 -1.610000000000000E-002   -2.187320343672305E-031
 -1.600000000000000E-002   -1.950440090226253E-031
 -1.590000000000000E-002   -1.391689511729099E-031
 -1.580000000000000E-002   -4.846563362585996E-032
 -1.570000000000000E-002    7.644918678970850E-032
 -1.560000000000000E-002    2.310945191346507E-031
 -1.550000000000000E-002    4.067830511521515E-031
 -1.540000000000000E-002    5.905600416093896E-031
 -1.530000000000000E-002    7.654003194901158E-031
 -1.520000000000000E-002    9.106172156631079E-031
 -1.510000000000000E-002    1.002447196947490E-030
 -1.500000000000000E-002    1.014826057820319E-030
 -1.490000000000000E-002    9.204649467980849E-031
 -1.480000000000000E-002    6.924529728517775E-031
 -1.470000000000000E-002    3.067233411109857E-031
 -1.460000000000000E-002   -2.542267290298149E-031
 -1.450000000000000E-002   -9.960338915009328E-031
 -1.440000000000000E-002   -1.905484398952575E-030
 -1.430000000000000E-002   -2.942177105481803E-030
 -1.420000000000000E-002   -4.029787738821135E-030
 -1.410000000000000E-002   -5.048636800455786E-030
 -1.400000000000000E-002   -5.832022400356170E-030
 -1.390000000000000E-002   -6.169329813513346E-030
 -1.380000000000000E-002   -5.819063740335461E-030
 -1.370000000000000E-002   -4.534402348832649E-030
 -1.360000000000000E-002   -2.102472723237017E-030
 -1.350000000000000E-002    1.603783696732677E-030
 -1.340000000000000E-002    6.565439572582832E-030
 -1.330000000000000E-002    1.255700192435541E-029
 -1.320000000000000E-002    1.909681791065622E-029
 -1.310000000000000E-002    2.542243953359699E-029
 -1.300000000000000E-002    3.050567252273141E-029
 -1.290000000000000E-002    3.312010996305911E-029
 -1.280000000000000E-002    3.196874411296950E-029
 -1.270000000000000E-002    2.587063772774122E-029
 -1.260000000000000E-002    1.399418306083399E-029
 -1.250000000000000E-002   -3.888499426526886E-030
 -1.240000000000000E-002   -2.716388193518350E-029
 -1.230000000000000E-002   -5.420312418983485E-029
 -1.220000000000000E-002   -8.230208512500161E-029
 -1.210000000000000E-002   -1.077799282039990E-028
 -1.200000000000000E-002   -1.262655324141485E-028
 -1.190000000000000E-002   -1.331753254522996E-028
 -1.180000000000000E-002   -1.243528921240836E-028
 -1.170000000000000E-002   -9.680408780942894E-029
 -1.160000000000000E-002   -4.942741800716780E-029
 -1.150000000000000E-002    1.638390853797004E-029
 -1.140000000000000E-002    9.639745524428223E-029
 -1.130000000000000E-002    1.835664188379150E-028
 -1.120000000000000E-002    2.684923880233230E-028
 -1.110000000000000E-002    3.403284817996490E-028
 -1.100000000000000E-002    3.880448074740678E-028
 -1.090000000000000E-002    4.018964010851214E-028
 -1.080000000000000E-002    3.748677787619004E-028
 -1.070000000000000E-002    3.038365337518475E-028
 -1.060000000000000E-002    1.902160118640650E-028
 -1.050000000000000E-002    3.991090912618605E-029
 -1.040000000000000E-002   -1.374528657208263E-028
 -1.030000000000000E-002   -3.298993000106452E-028
 -1.020000000000000E-002   -5.247802058554032E-028
 -1.010000000000000E-002   -7.103311942662588E-028
 -1.000000000000000E-002   -8.766206395984589E-028
 -9.899999999999999E-003   -1.015467063918388E-027
 -9.800000000000000E-003   -1.119098017293281E-027
 -9.699999999999999E-003   -1.177648445090351E-027
 -9.599999999999999E-003   -1.176013079702330E-027
 -9.500000000000000E-003   -1.090990001535666E-027
 -9.399999999999999E-003   -8.899814470748345E-028
 -9.299999999999999E-003   -5.326299882403915E-028
 -9.200000000000000E-003    2.344251916102657E-029
 -9.099999999999999E-003    8.122276877211054E-028
 -8.999999999999999E-003    1.844673951972863E-027
 -8.900000000000000E-003    3.091482371007099E-027
 -8.799999999999999E-003    4.466416139350348E-027
 -8.699999999999999E-003    5.814369909121657E-027
 -8.600000000000000E-003    6.909071882766624E-027
 -8.499999999999999E-003    7.465062516648642E-027
 -8.399999999999999E-003    7.167235433587898E-027
 -8.300000000000000E-003    5.718653144668405E-027
 -8.199999999999999E-003    2.903728386114420E-027
 -8.100000000000000E-003   -1.340405803989189E-027
 -8.000000000000000E-003   -6.855695501844044E-027
 -7.899999999999999E-003   -1.321270994817824E-026
 -7.800000000000000E-003   -1.969375291636372E-026
 -7.699999999999999E-003   -2.532379368244624E-026
 -7.599999999999999E-003   -2.895853369921393E-026
 -7.499999999999999E-003   -2.943062698457585E-026
 -7.399999999999999E-003   -2.574409202696262E-026
 -7.299999999999999E-003   -1.729480624970141E-026
 -7.199999999999999E-003   -4.083625376575140E-027
 -7.100000000000000E-003    1.311919637859748E-026
 -6.999999999999999E-003    3.270164159841004E-026
 -6.899999999999999E-003    5.226706969655525E-026
 -6.800000000000000E-003    6.884360424573997E-026
 -6.699999999999999E-003    7.924560751285279E-026
 -6.599999999999999E-003    8.055834908473828E-026
 -6.499999999999999E-003    7.068672833599293E-026
 -6.399999999999999E-003    4.888274264692751E-026
 -6.299999999999999E-003    1.615040300737752E-026
 -6.199999999999999E-003   -2.457324086977764E-026
 -6.100000000000000E-003   -6.854255330811681E-026
 -5.999999999999999E-003   -1.096744870665918E-025
 -5.899999999999999E-003   -1.413502870249820E-025
 -5.800000000000000E-003   -1.574639091526781E-025
 -5.699999999999999E-003   -1.535676793397380E-025
 -5.599999999999999E-003   -1.279148440672902E-025
 -5.499999999999999E-003   -8.217745106676754E-026
 -5.399999999999999E-003   -2.163637560349997E-026
 -5.299999999999999E-003    4.529518584759053E-026
 -5.199999999999999E-003    1.082461633261857E-025
 -5.099999999999999E-003    1.566537747643121E-025
 -4.999999999999999E-003    1.818686828947169E-025
 -4.899999999999999E-003    1.792199581932090E-025
 -4.799999999999999E-003    1.495858786554347E-025
 -4.699999999999999E-003    1.000214389355062E-025
 -4.599999999999999E-003    4.309633331083907E-026
 -4.499999999999999E-003   -5.200156361330706E-027
 -4.399999999999999E-003   -2.884721603402599E-026
 -4.299999999999999E-003   -1.601006818071193E-026
 -4.199999999999999E-003    3.668105387354522E-026
 -4.099999999999999E-003    1.207725453370165E-025
 -3.999999999999999E-003    2.145875017268325E-025
 -3.899999999999999E-003    2.846651576888657E-025
 -3.799999999999999E-003    2.905311642711778E-025
 -3.699999999999999E-003    1.926889104333386E-025
 -3.599999999999999E-003   -3.701850125576694E-026
 -3.499999999999999E-003   -4.042863041046683E-025
 -3.399999999999999E-003   -8.827020498754242E-025
 -3.299999999999999E-003   -1.408136289603263E-024
 -3.199999999999999E-003   -1.879608421644516E-024
 -3.099999999999999E-003   -2.168405849868975E-024
 -2.999999999999999E-003   -2.136028641909914E-024
 -2.899999999999999E-003   -1.659887198689788E-024
 -2.799999999999999E-003   -6.638090114755739E-025
 -2.699999999999999E-003    8.513613679535008E-025
 -2.599999999999999E-003    2.783093812981265E-024
 -2.499999999999999E-003    4.914923575965405E-024
 -2.399999999999999E-003    6.922426650565030E-024
 -2.299999999999999E-003    8.401262195252407E-024
 -2.199999999999999E-003    8.917920805749124E-024
 -2.099999999999999E-003    8.079744907506752E-024
 -1.999999999999999E-003    5.616326775544212E-024
 -1.899999999999999E-003    1.460409758241375E-024
 -1.799999999999999E-003   -4.186343894029049E-024
 -1.699999999999999E-003   -1.081803727255161E-023
 -1.599999999999999E-003   -1.763302675099589E-023
 -1.499999999999999E-003   -2.359477283103832E-023
 -1.399999999999999E-003   -2.754625529850525E-023
 -1.299999999999999E-003   -2.837002069881533E-023
 -1.199999999999999E-003   -2.517638749368543E-023
 -1.099999999999999E-003   -1.749395760725073E-023
 -9.999999999999989E-004   -5.431159417515094E-024
 -8.999999999999990E-004    1.022344897807632E-023
 -7.999999999999990E-004    2.798981431598517E-023
 -6.999999999999989E-004    4.579160783891324E-023
 -5.999999999999990E-004    6.116062943295322E-023
 -4.999999999999989E-004    7.153516790310836E-023
 -3.999999999999989E-004    7.461884776994835E-023
 -2.999999999999989E-004    6.875147964578874E-023
 -1.999999999999989E-004    5.323435452176159E-023
 -9.999999999999892E-005    2.855237789268152E-023
  1.084202172485504E-018   -3.554620232750418E-024
  1.000000000000011E-004   -4.019919112797674E-023
  2.000000000000011E-004   -7.763272675582681E-023
  3.000000000000011E-004   -1.116806080523459E-022
  4.000000000000011E-004   -1.382665263393174E-022
  5.000000000000011E-004   -1.539451244769407E-022
  6.000000000000011E-004   -1.563533172322787E-022
  7.000000000000011E-004   -1.444986308578762E-022
  8.000000000000011E-004   -1.188277258728077E-022
  9.000000000000012E-004   -8.105778882832645E-023
  1.000000000000001E-003   -3.380160755897117E-023
  1.100000000000001E-003    1.993475163162273E-023
  1.200000000000001E-003    7.726540286087526E-023
  1.300000000000001E-003    1.358153975434463E-022
  1.400000000000001E-003    1.938657158378275E-022
  1.500000000000001E-003    2.501707665830894E-022
  1.600000000000001E-003    3.034360784882625E-022
  1.700000000000001E-003    3.515316387726710E-022
  1.800000000000001E-003    3.906076928681620E-022
  1.900000000000001E-003    4.143542091326653E-022
  2.000000000000001E-003    4.136844924902915E-022
  2.100000000000001E-003    3.771081820171966E-022
  2.200000000000001E-003    2.919820791778654E-022
  2.300000000000001E-003    1.466863507999883E-022
  2.400000000000001E-003   -6.641414695784835E-023
  2.500000000000001E-003   -3.475740430662009E-022
  2.600000000000001E-003   -6.863849660480104E-022
  2.700000000000001E-003   -1.059292777520891E-021
  2.800000000000001E-003   -1.428645134340708E-021
  2.900000000000001E-003   -1.743914925803438E-021
  3.000000000000001E-003   -1.945520841438098E-021
  3.100000000000001E-003   -1.971310602559829E-021
  3.200000000000001E-003   -1.765324649926685E-021
  3.300000000000001E-003   -1.287970416585947E-021
  3.400000000000001E-003   -5.263016202499292E-022
  3.500000000000001E-003    4.972134699087094E-022
  3.600000000000001E-003    1.719155744317639E-021
  3.700000000000001E-003    3.034405291725052E-021
  3.800000000000001E-003    4.301286430759197E-021
  3.900000000000001E-003    5.353009224265286E-021
  4.000000000000001E-003    6.014909929722958E-021
  4.100000000000001E-003    6.126031339030240E-021
  4.200000000000001E-003    5.562691443346683E-021
  4.300000000000001E-003    4.261022596429344E-021
  4.400000000000001E-003    2.235182556368915E-021
  4.500000000000001E-003   -4.119017501808561E-022
  4.600000000000002E-003   -3.487721668334463E-021
  4.700000000000001E-003   -6.720652977664584E-021
  4.800000000000001E-003   -9.781612780384204E-021
  4.900000000000002E-003   -1.231524359191389E-020
  5.000000000000001E-003   -1.397749855043768E-020
  5.100000000000001E-003   -1.447539070311500E-020
  5.200000000000001E-003   -1.360407430353269E-020
  5.300000000000002E-003   -1.127657064255107E-020
  5.400000000000001E-003   -7.542222328022936E-021
  5.500000000000001E-003   -2.591388383332324E-021
  5.600000000000002E-003    3.254295923522084E-021
  5.700000000000001E-003    9.564864310819233E-021
  5.800000000000001E-003    1.583525533822906E-020
  5.900000000000002E-003    2.152474849747821E-020
  6.000000000000001E-003    2.609809753684189E-020
  6.100000000000001E-003    2.906427849306478E-020
  6.200000000000002E-003    3.000991916832529E-020
  6.300000000000002E-003    2.862611153284550E-020
  6.400000000000001E-003    2.472912545565199E-020
  6.500000000000001E-003    1.827688617161385E-020
  6.600000000000002E-003    9.383818215433380E-021
  6.700000000000001E-003   -1.663781341406011E-021
  6.800000000000001E-003   -1.439119887143657E-020
  6.900000000000002E-003   -2.811949595112721E-020
  7.000000000000001E-003   -4.195538454991334E-020
  7.100000000000001E-003   -5.479461707103466E-020
  7.200000000000002E-003   -6.534860836780220E-020
  7.300000000000002E-003   -7.220417642346850E-020
  7.400000000000001E-003   -7.392390971887286E-020
  7.500000000000001E-003   -6.918978936249709E-020
  7.600000000000002E-003   -5.698534587274282E-020
  7.700000000000001E-003   -3.680252968069393E-020
  7.800000000000001E-003   -8.850312518833998E-021
  7.900000000000001E-003    2.576615880326362E-020
  8.000000000000002E-003    6.493175468283369E-020
  8.100000000000001E-003    1.055088701756017E-019
  8.200000000000001E-003    1.434563955006483E-019
  8.300000000000002E-003    1.740979316032654E-019
  8.400000000000001E-003    1.925392597904486E-019
  8.500000000000002E-003    1.942130126205737E-019
  8.600000000000002E-003    1.755052966951453E-019
  8.700000000000001E-003    1.343976848561997E-019
  8.800000000000002E-003    7.104246225172689E-020
  8.900000000000002E-003   -1.181761102383296E-020
  9.000000000000001E-003   -1.086693942677373E-019
  9.100000000000002E-003   -2.113560537734062E-019
  9.200000000000002E-003   -3.095482261573160E-019
  9.300000000000001E-003   -3.915590841385424E-019
  9.400000000000002E-003   -4.454585523365282E-019
  9.500000000000001E-003   -4.603981538514129E-019
  9.600000000000001E-003   -4.280197865467379E-019
  9.700000000000002E-003   -3.437951427009695E-019
  9.800000000000001E-003   -2.081314214056074E-019
  9.900000000000001E-003   -2.708768447875396E-020
  1.000000000000000E-002    1.874271300789934E-019
  1.010000000000000E-002    4.180586677267583E-019
  1.020000000000000E-002    6.430410903205312E-019
  1.030000000000000E-002    8.378236553645596E-019
  1.040000000000000E-002    9.771882254214851E-019
  1.050000000000000E-002    1.037700850721862E-018
  1.060000000000000E-002    1.000294115777202E-018
  1.070000000000000E-002    8.527529018697702E-019
  1.080000000000000E-002    5.918671277739441E-019
  1.090000000000000E-002    2.250279123709765E-019
  1.100000000000000E-002   -2.289281574819249E-019
  1.110000000000000E-002   -7.397781559752160E-019
  1.120000000000000E-002   -1.266972607947912E-018
  1.130000000000000E-002   -1.761733844687121E-018
  1.140000000000000E-002   -2.170163109102177E-018
  1.150000000000000E-002   -2.437257879213648E-018
  1.160000000000000E-002   -2.511665503009194E-018
  1.170000000000000E-002   -2.350924714011027E-018
  1.180000000000000E-002   -1.926865576545825E-018
  1.190000000000000E-002   -1.230761303820636E-018
  1.200000000000000E-002   -2.777573009144718E-019
  1.210000000000000E-002    8.899495570392534E-019
  1.220000000000000E-002    2.201726046716267E-018
  1.230000000000000E-002    3.559432815163325E-018
  1.240000000000000E-002    4.841099108501315E-018
  1.250000000000000E-002    5.907615857478975E-018
  1.260000000000000E-002    6.612484095551149E-018
  1.270000000000000E-002    6.814355366018758E-018
  1.280000000000000E-002    6.391742931247286E-018
  1.290000000000000E-002    5.258909415355152E-018
  1.300000000000000E-002    3.381577613578763E-018
  1.310000000000000E-002    7.908255419957985E-019
  1.320000000000000E-002   -2.406644907175597E-018
  1.330000000000000E-002   -6.023675743843135E-018
  1.340000000000000E-002   -9.794863688464812E-018
  1.350000000000000E-002   -1.338700993997860E-017
  1.360000000000000E-002   -1.641836186853577E-017
  1.370000000000000E-002   -1.848639341855209E-017
  1.380000000000000E-002   -1.920294283108781E-017
  1.390000000000000E-002   -1.823455193188480E-017
  1.400000000000000E-002   -1.534493429085478E-017
  1.410000000000000E-002   -1.043580144919208E-017
  1.420000000000000E-002   -3.581749442208351E-018
  1.430000000000000E-002    4.945179817153410E-018
  1.440000000000000E-002    1.466533581243617E-017
  1.450000000000000E-002    2.489909797777475E-017
  1.460000000000000E-002    3.479450020983116E-017
  1.470000000000000E-002    4.337558716783366E-017
  1.480000000000000E-002    4.961037233941419E-017
  1.490000000000000E-002    5.249541963730524E-017
  1.500000000000000E-002    5.115208862120929E-017
  1.510000000000000E-002    4.492769397829040E-017
  1.520000000000000E-002    3.349343005314061E-017
  1.530000000000000E-002    1.692988608702320E-017
  1.540000000000000E-002   -4.209337709957171E-018
  1.550000000000000E-002   -2.886503395726987E-017
  1.560000000000000E-002   -5.547875764100047E-017
  1.570000000000000E-002   -8.204403917470745E-017
  1.580000000000000E-002   -1.062055317464816E-016
  1.590000000000000E-002   -1.254055643334693E-016
  1.600000000000000E-002   -1.370734514722018E-016
  1.610000000000000E-002   -1.388484746605417E-016
  1.620000000000000E-002   -1.288228803857218E-016
  1.630000000000000E-002   -1.057872582798837E-016
  1.640000000000000E-002   -6.945712365293630E-017
  1.650000000000000E-002   -2.065770614720586E-017
  1.660000000000000E-002    3.855667149620937E-017
  1.670000000000000E-002    1.048705079930635E-016
  1.680000000000000E-002    1.737802571014987E-016
  1.690000000000000E-002    2.397843262427840E-016
  1.700000000000000E-002    2.966931451663166E-016
  1.710000000000000E-002    3.380521113516387E-016
  1.720000000000000E-002    3.576588899452049E-016
  1.730000000000000E-002    3.501447528092778E-016
  1.740000000000000E-002    3.115790087807545E-016
  1.750000000000000E-002    2.400467510829542E-016
  1.760000000000000E-002    1.361441245572891E-016
  1.770000000000000E-002    3.334695499810869E-018
  1.780000000000000E-002   -1.518864816099578E-016
  1.790000000000000E-002   -3.200654519642503E-016
  1.800000000000000E-002   -4.891285023331354E-016
  1.810000000000000E-002   -6.449987639556062E-016
  1.820000000000000E-002   -7.724788474328329E-016
  1.830000000000000E-002   -8.563628811138107E-016
  1.840000000000000E-002   -8.827168089785016E-016
  1.850000000000000E-002   -8.402432703100980E-016
  1.860000000000000E-002   -7.216273601522442E-016
  1.870000000000000E-002   -5.247489646893003E-016