 -4.000000000000000E-002    0.000000000000000E+000
 -3.990000000000000E-002    0.000000000000000E+000
 -3.980000000000000E-002    0.000000000000000E+000
 -3.970000000000000E-002    0.000000000000000E+000
 -3.960000000000000E-002    0.000000000000000E+000
 -3.950000000000000E-002    0.000000000000000E+000
 -3.940000000000000E-002    0.000000000000000E+000
 -3.930000000000000E-002    0.000000000000000E+000
 -3.920000000000000E-002    0.000000000000000E+000
 -3.910000000000000E-002    0.000000000000000E+000
 -3.900000000000000E-002    0.000000000000000E+000
 -3.890000000000000E-002    0.000000000000000E+000
 -3.880000000000000E-002    0.000000000000000E+000
 -3.870000000000000E-002    0.000000000000000E+000
 -3.860000000000000E-002    0.000000000000000E+000
 -3.850000000000000E-002    0.000000000000000E+000
 -3.840000000000000E-002    0.000000000000000E+000
 -3.830000000000000E-002    0.000000000000000E+000
 -3.820000000000000E-002    0.000000000000000E+000
 -3.810000000000000E-002    0.000000000000000E+000
 -3.800000000000000E-002    0.000000000000000E+000
 -3.790000000000000E-002    0.000000000000000E+000
 -3.780000000000000E-002    0.000000000000000E+000
 -3.770000000000000E-002    0.000000000000000E+000
 -3.760000000000000E-002    0.000000000000000E+000
 -3.750000000000000E-002    0.000000000000000E+000
 -3.740000000000000E-002    0.000000000000000E+000
 -3.730000000000000E-002    0.000000000000000E+000
 -3.720000000000000E-002    0.000000000000000E+000
 -3.710000000000000E-002    0.000000000000000E+000
 -3.700000000000000E-002    0.000000000000000E+000
 -3.690000000000000E-002    0.000000000000000E+000
 -3.680000000000000E-002    0.000000000000000E+000
 -3.670000000000000E-002    0.000000000000000E+000
 -3.660000000000000E-002    0.000000000000000E+000
 -3.650000000000000E-002    0.000000000000000E+000
 -3.640000000000000E-002    0.000000000000000E+000
 -3.630000000000000E-002    0.000000000000000E+000
 -3.620000000000000E-002    0.000000000000000E+000
 -3.610000000000000E-002    6.414635304221270E-048
 -3.600000000000000E-002    1.836587823550677E-046
 -3.590000000000000E-002    5.060738999356541E-046
 -3.580000000000000E-002    1.402758264330980E-045
 -3.570000000000000E-002    3.208956263730073E-045
 -3.560000000000000E-002    6.889347396753005E-045
 -3.550000000000000E-002    1.211386447448876E-044
 -3.540000000000000E-002    2.029723974716954E-044
 -3.530000000000000E-002    2.945919122240186E-044
 -3.520000000000000E-002    2.892031268375924E-044
 -3.510000000000000E-002   -6.727630571854675E-045
 -3.500000000000000E-002   -1.354220134439414E-043
 -3.490000000000000E-002   -4.693788058817426E-043
 -3.480000000000000E-002   -1.205943672249605E-042
 -3.470000000000000E-002   -2.645828248334410E-042
 -3.460000000000000E-002   -5.171144824705659E-042
 -3.450000000000000E-002   -9.113495092790354E-042
 -3.440000000000000E-002   -1.440267833256034E-041
 -3.430000000000000E-002   -1.981951700644839E-041
 -3.420000000000000E-002   -2.166550272386166E-041
 -3.410000000000000E-002   -1.169980393450399E-041
 -3.400000000000000E-002    2.559049246948000E-041
 -3.390000000000000E-002    1.157798932509520E-040
 -3.380000000000000E-002    2.957593609229815E-040
 -3.370000000000000E-002    6.103034922204434E-040
 -3.360000000000000E-002    1.098674862157228E-039
 -3.350000000000000E-002    1.763795670947075E-039
 -3.340000000000000E-002    2.515160785753665E-039
 -3.330000000000000E-002    3.078093588087019E-039
 -3.320000000000000E-002    2.869049686678435E-039
 -3.310000000000000E-002    8.531373821186252E-040
 -3.300000000000000E-002   -4.570298532561839E-039
 -3.290000000000000E-002   -1.556328499606109E-038
 -3.280000000000000E-002   -3.457751218763226E-038
 -3.270000000000000E-002   -6.360729315555194E-038
 -3.260000000000000E-002   -1.027219227332455E-037
 -3.250000000000000E-002   -1.476580518655593E-037
 -3.240000000000000E-002   -1.863995959272125E-037
 -3.230000000000000E-002   -1.950087966051635E-037
 -3.220000000000000E-002   -1.335600877260813E-037
 -3.210000000000000E-002    5.610786338379184E-038
 -3.200000000000000E-002    4.480231249082426E-037
 -3.190000000000000E-002    1.121188875559677E-036
 -3.180000000000000E-002    2.135519168369994E-036
 -3.170000000000000E-002    3.490173563444891E-036
 -3.160000000000000E-002    5.061859300907467E-036
 -3.150000000000000E-002    6.525319282829900E-036
 -3.140000000000000E-002    7.266269281975706E-036
 -3.130000000000000E-002    6.308694437483389E-036
 -3.120000000000000E-002    2.292880560745694E-036
 -3.110000000000000E-002   -6.444486581916605E-036
 -3.100000000000000E-002   -2.162560061408120E-035
 -3.090000000000000E-002   -4.455846000529475E-035
 -3.080000000000000E-002   -7.538839015986737E-035
 -3.070000000000000E-002   -1.120698806030616E-034
 -3.060000000000000E-002   -1.491296389420923E-034
 -3.050000000000000E-002   -1.764010241727076E-034
 -3.040000000000000E-002   -1.780465256315583E-034
 -3.030000000000000E-002   -1.323315816704327E-034
 -3.020000000000000E-002   -1.273819071124957E-035
 -3.010000000000000E-002    2.089314842818348E-034
 -3.000000000000000E-002    5.568633733644713E-034
 -2.990000000000000E-002    1.042568892239519E-033
 -2.980000000000000E-002    1.653284567789485E-033
 -2.970000000000000E-002    2.338093772217631E-033
 -2.960000000000000E-002    2.993245720683202E-033
 -2.950000000000000E-002    3.449083675549196E-033
 -2.940000000000000E-002    3.461957401521299E-033
 -2.930000000000000E-002    2.715363220419630E-033
 -2.920000000000000E-002    8.352204002059030E-034
 -2.910000000000000E-002   -2.575425332676111E-033
 -2.900000000000000E-002   -7.876934473419653E-033
 -2.890000000000000E-002   -1.530385291206652E-032
 -2.880000000000000E-002   -2.484181443712303E-032
 -2.870000000000000E-002   -3.606820518986122E-032
 -2.860000000000000E-002   -4.795768486351858E-032
 -2.850000000000000E-002   -5.866011282592116E-032
 -2.840000000000000E-002   -6.526981517806490E-032
 -2.830000000000000E-002   -6.362377261274126E-032
 -2.820000000000000E-002   -4.819407996471175E-032
 -2.810000000000000E-002   -1.217744750074269E-032
 -2.800000000000000E-002    5.207123083416214E-032
 -2.790000000000000E-002    1.520710533630083E-031
 -2.780000000000000E-002    2.934963827802515E-031
 -2.770000000000000E-002    4.775039752679998E-031
 -2.760000000000000E-002    6.969876794879305E-031
 -2.750000000000000E-002    9.318331222382637E-031
 -2.740000000000000E-002    1.143572175567694E-030
 -2.730000000000000E-002    1.270313226797137E-030
 -2.720000000000000E-002    1.223430231721831E-030
 -2.710000000000000E-002    8.881572869501737E-031
 -2.700000000000000E-002    1.308194430415354E-031
 -2.690000000000000E-002   -1.184277705409846E-030
 -2.680000000000000E-002   -3.165557674666156E-030
 -2.670000000000000E-002   -5.850897031126530E-030
 -2.660000000000000E-002   -9.151102777632902E-030
 -2.650000000000000E-002   -1.278452755189144E-029
 -2.640000000000000E-002   -1.621211681105413E-029
 -2.630000000000000E-002   -1.858792738266084E-029
 -2.620000000000000E-002   -1.874588291634707E-029
 -2.610000000000000E-002   -1.524787904597520E-029
 -2.600000000000000E-002   -6.519509856105230E-030
 -2.590000000000000E-002    8.904354985924068E-030
 -2.580000000000000E-002    3.201313946864281E-029
 -2.570000000000000E-002    6.284202477052911E-029
 -2.560000000000000E-002    9.991850529237304E-029
 -2.550000000000000E-002    1.397067214747828E-028
 -2.540000000000000E-002    1.761607790117217E-028
 -2.530000000000000E-002    2.005333656076329E-028
 -2.520000000000000E-002    2.016084280658752E-028
 -2.510000000000000E-002    1.665266138375169E-028
 -2.500000000000000E-002    8.233845492455465E-029
 -2.490000000000000E-002   -6.165495457121825E-029
 -2.480000000000000E-002   -2.708345650578578E-028
 -2.470000000000000E-002   -5.416923911709933E-028
 -2.460000000000000E-002   -8.581710960513020E-028
 -2.450000000000000E-002   -1.188524211687220E-027
 -2.440000000000000E-002   -1.483474387135432E-027
 -2.430000000000000E-002   -1.676545616586590E-027
 -2.420000000000000E-002   -1.687430804526336E-027
 -2.410000000000000E-002   -1.429091665578956E-027
 -2.400000000000000E-002   -8.189472640967749E-028
 -2.390000000000000E-002    2.060134110863502E-028
 -2.380000000000000E-002    1.671035840897684E-027
 -2.370000000000000E-002    3.543941809843153E-027
 -2.360000000000000E-002    5.716421657966361E-027
 -2.350000000000000E-002    7.989392173810412E-027
 -2.340000000000000E-002    1.006601629063884E-026
 -2.330000000000000E-002    1.155612395496042E-026
 -2.320000000000000E-002    1.199547273403377E-026
 -2.310000000000000E-002    1.088246855003110E-026
 -2.300000000000000E-002    7.733589780052948E-027
 -2.290000000000000E-002    2.156863048009468E-027
 -2.280000000000000E-002   -6.059657138202257E-027
 -2.270000000000000E-002   -1.685020705495085E-026
 -2.260000000000000E-002   -2.977324971462176E-026
 -2.250000000000000E-002   -4.392492493289435E-026
 -2.240000000000000E-002   -5.787884443968938E-026
 -2.230000000000000E-002   -6.966954388927070E-026
 -2.220000000000000E-002   -7.683849355664754E-026
 -2.210000000000000E-002   -7.656165276893363E-026
 -2.200000000000000E-002   -6.587544441399837E-026
 -2.190000000000000E-002   -4.201273936001948E-026
 -2.180000000000000E-002   -2.850855949275275E-027
 -2.170000000000000E-002    5.254077087592260E-026
 -2.160000000000000E-002    1.232856133443135E-025
 -2.150000000000000E-002    2.060749455469483E-025
 -2.140000000000000E-002    2.946180436358587E-025
 -2.130000000000000E-002    3.792813326699419E-025
 -2.120000000000000E-002    4.470532741611816E-025
 -2.110000000000000E-002    4.819830469301069E-025
 -2.100000000000000E-002    4.662324822060237E-025
 -2.090000000000000E-002    3.818444273229055E-025
 -2.080000000000000E-002    2.132604549299728E-025
 -2.070000000000000E-002   -4.948633484490660E-026
 -2.060000000000000E-002   -4.071184113565207E-025
 -2.050000000000000E-002   -8.473791230503953E-025
 -2.040000000000000E-002   -1.341760981708497E-024
 -2.030000000000000E-002   -1.843384060841488E-024
 -2.020000000000000E-002   -2.286791645954976E-024
 -2.010000000000000E-002   -2.590417082376981E-024
 -2.000000000000000E-002   -2.662328418086067E-024
 -1.990000000000000E-002   -2.409560376138921E-024
 -1.980000000000000E-002   -1.750888545957608E-024
 -1.970000000000000E-002   -6.323165109577777E-025
 -1.960000000000000E-002    9.561187613487557E-025
 -1.950000000000000E-002    2.964270737277501E-024
 -1.940000000000000E-002    5.269125507022800E-024
 -1.930000000000000E-002    7.668246829621743E-024
 -1.920000000000000E-002    9.882249014410712E-024
 -1.910000000000000E-002    1.156860935299101E-023
 -1.900000000000000E-002    1.234813636194353E-023
 -1.890000000000000E-002    1.184393898343256E-023
 -1.880000000000000E-002    9.730939785920405E-024
 -1.870000000000000E-002    5.792001165702750E-024
 -1.860000000000000E-002   -2.512265648738654E-026
 -1.850000000000000E-002   -7.557245563163426E-024
 -1.840000000000000E-002   -1.638959977416483E-023
 -1.830000000000000E-002   -2.584185877037098E-023
 -1.820000000000000E-002   -3.498283611458207E-023
 -1.810000000000000E-002   -4.267800598228881E-023
 -1.800000000000000E-002   -4.767076464292672E-023
 -1.790000000000000E-002   -4.869456085463237E-023
 -1.780000000000000E-002   -4.460912046224099E-023
 -1.770000000000000E-002   -3.455050424799249E-023
 -1.760000000000000E-002   -1.808208173559773E-023
 -1.750000000000000E-002    4.667931685116788E-024
 -1.740000000000000E-002    3.289690752166828E-023
 -1.730000000000000E-002    6.505961757298075E-023
 -1.720000000000000E-002    9.885293687543783E-023
 -1.710000000000000E-002    1.312625138909758E-022
 -1.700000000000000E-002    1.586780655827643E-022
 -1.690000000000000E-002    1.770818336003988E-022
 -1.680000000000000E-002    1.823127954362075E-022
 -1.670000000000000E-002    1.704070018163335E-022
 -1.660000000000000E-002    1.380110271712369E-022
 -1.650000000000000E-002    8.285974217617819E-023
 -1.640000000000000E-002    4.300196615697948E-024
 -1.630000000000000E-002   -9.617014337982705E-023
 -1.620000000000000E-002   -2.144005761359569E-022
 -1.610000000000000E-002   -3.431899194412233E-022
 -1.600000000000000E-002   -4.720849831532237E-022
 -1.590000000000000E-002   -5.874798101111197E-022
 -1.580000000000000E-002   -6.731237226461042E-022
 -1.570000000000000E-002   -7.111323562795853E-022
 -1.560000000000000E-002   -6.835580498799018E-022
 -1.550000000000000E-002   -5.745129337671359E-022
 -1.540000000000000E-002   -3.727494659044320E-022
 -1.530000000000000E-002   -7.449650699473670E-023
 -1.520000000000000E-002    3.137634477500455E-022
 -1.510000000000000E-002    7.729905696432225E-022
 -1.500000000000000E-002    1.270239458319903E-021
 -1.490000000000000E-002    1.758757644473805E-021
 -1.480000000000000E-002    2.179955409853663E-021
 -1.470000000000000E-002    2.467516959461185E-021
 -1.460000000000000E-002    2.553680137170773E-021
 -1.450000000000000E-002    2.377395325400348E-021
 -1.440000000000000E-002    1.893719103729981E-021
 -1.430000000000000E-002    1.083449317711627E-021
 -1.420000000000000E-002   -3.827193671243837E-023
 -1.410000000000000E-002   -1.415815503776551E-021
 -1.400000000000000E-002   -2.950782613810125E-021
 -1.390000000000000E-002   -4.504732618691433E-021
 -1.380000000000000E-002   -5.907599207619419E-021
 -1.370000000000000E-002   -6.971804112329980E-021
 -1.360000000000000E-002   -7.511272526370484E-021
 -1.350000000000000E-002   -7.363734517583625E-021
 -1.340000000000000E-002   -6.413956673410981E-021
 -1.330000000000000E-002   -4.615056876851107E-021
 -1.320000000000000E-002   -2.004892321958357E-021
 -1.310000000000000E-002    1.285231378061169E-021
 -1.300000000000000E-002    5.031573804637884E-021
 -1.290000000000000E-002    8.929671086077894E-021
 -1.280000000000000E-002    1.261638314285965E-020
 -1.270000000000000E-002    1.570051893191965E-020
 -1.260000000000000E-002    1.779903682972958E-020
 -1.250000000000000E-002    1.857495743154974E-020
 -1.240000000000000E-002    1.777280586633976E-020
 -1.230000000000000E-002    1.524773317010479E-020
 -1.220000000000000E-002    1.098540667567300E-020
 -1.210000000000000E-002    5.111178493795661E-021
 -1.200000000000000E-002   -2.111350530837789E-021
 -1.190000000000000E-002   -1.029076512656953E-020
 -1.180000000000000E-002   -1.892464931639078E-020
 -1.170000000000000E-002   -2.741993266835796E-020
 -1.160000000000000E-002   -3.511457703463857E-020
 -1.150000000000000E-002   -4.129992355741342E-020
 -1.140000000000000E-002   -4.524509878582013E-020
 -1.130000000000000E-002   -4.622700830086874E-020
 -1.120000000000000E-002   -4.357097817991895E-020
 -1.110000000000000E-002   -3.670736747993931E-020
 -1.100000000000000E-002   -2.524792153295805E-020
 -1.090000000000000E-002   -9.081967647278580E-021
 -1.080000000000000E-002    1.151305789496427E-020
 -1.070000000000000E-002    3.575922207374603E-020
 -1.060000000000000E-002    6.228334976661786E-020
 -1.050000000000000E-002    8.906517164177730E-020
 -1.040000000000000E-002    1.134561917518271E-019
 -1.030000000000000E-002    1.322950475840687E-019
 -1.020000000000000E-002    1.421372546970445E-019
 -1.010000000000000E-002    1.396034804971054E-019
 -1.000000000000000E-002    1.218313842612076E-019
 -9.899999999999999E-003    8.699397527294063E-020
 -9.800000000000000E-003    3.482539924372869E-020
 -9.699999999999999E-003   -3.292303029193384E-020
 -9.599999999999999E-003   -1.121837328902018E-019
 -9.500000000000000E-003   -1.965157515371619E-019
 -9.399999999999999E-003   -2.773584931769447E-019
 -9.299999999999999E-003   -3.446340499241644E-019
 -9.200000000000000E-003   -3.876915980989171E-019
 -9.099999999999999E-003   -3.965351640580929E-019
 -8.999999999999999E-003   -3.632214333105430E-019
 -8.900000000000000E-003   -2.832676154948748E-019
 -8.799999999999999E-003   -1.568770163617446E-019
 -8.699999999999999E-003    1.021822148216008E-020
 -8.600000000000000E-003    2.064776972242569E-019
 -8.499999999999999E-003    4.149667721570171E-019
 -8.399999999999999E-003    6.145173151448032E-019
 -8.300000000000000E-003    7.815921622917939E-019
 -8.199999999999999E-003    8.927074663811676E-019
 -8.100000000000000E-003    9.271724606168723E-019
 -8.000000000000000E-003    8.698348564512831E-019
 -7.899999999999999E-003    7.134859699263685E-019
 -7.800000000000000E-003    4.605915236315686E-019
 -7.699999999999999E-003    1.240755497217448E-019
 -7.599999999999999E-003   -2.730113192918592E-019
 -7.499999999999999E-003   -6.989719043515026E-019
 -7.399999999999999E-003   -1.115974971617343E-018
 -7.299999999999999E-003   -1.483348158617178E-018
 -7.199999999999999E-003   -1.761292583452975E-018
 -7.100000000000000E-003   -1.914608885396042E-018
 -6.999999999999999E-003   -1.916029502117949E-018
 -6.899999999999999E-003   -1.748824717851715E-018
 -6.800000000000000E-003   -1.408467740407211E-018
 -6.699999999999999E-003   -9.032950077027443E-019
 -6.599999999999999E-003   -2.542464831785630E-019
 -6.499999999999999E-003    5.061093845058188E-019
 -6.399999999999999E-003    1.334999718359332E-018
 -6.299999999999999E-003    2.181066992843147E-018
 -6.199999999999999E-003    2.986017879368375E-018
 -6.100000000000000E-003    3.686286473674918E-018
 -5.999999999999999E-003    4.214873984434942E-018
 -5.899999999999999E-003    4.503691014849172E-018
 -5.800000000000000E-003    4.486826533178346E-018
 -5.699999999999999E-003    4.105159183576882E-018
 -5.599999999999999E-003    3.312573859907866E-018
 -5.499999999999999E-003    2.083755052294841E-018
 -5.399999999999999E-003    4.231090100251836E-019
 -5.299999999999999E-003   -1.626102231256314E-018
 -5.199999999999999E-003   -3.973802246110325E-018
 -5.099999999999999E-003   -6.478040438860599E-018
 -4.999999999999999E-003   -8.944681471254214E-018
 -4.899999999999999E-003   -1.113352829031226E-017
 -4.799999999999999E-003   -1.277205047422116E-017
 -4.699999999999999E-003   -1.357705151164107E-017
 -4.599999999999999E-003   -1.328349762533344E-017
 -4.499999999999999E-003   -1.167849267557453E-017
 -4.399999999999999E-003   -8.637156920829987E-018
 -4.299999999999999E-003   -4.156195854267097E-018
 -4.199999999999999E-003    1.619636505171189E-018
 -4.099999999999999E-003    8.382930639907468E-018
 -3.999999999999999E-003    1.566495864497908E-017
 -3.899999999999999E-003    2.285566325347121E-017
 -3.799999999999999E-003    2.924305001749689E-017
 -3.699999999999999E-003    3.407044195094450E-017
 -3.599999999999999E-003    3.660761493072026E-017
 -3.499999999999999E-003    3.622964191764102E-017
 -3.399999999999999E-003    3.249560070990103E-017
 -3.299999999999999E-003    2.521847314712266E-017
 -3.199999999999999E-003    1.451770938858621E-017
 -3.099999999999999E-003    8.471109287405442E-019
 -2.999999999999999E-003   -1.500713169577356E-017
 -2.899999999999999E-003   -3.196058348764680E-017
 -2.799999999999999E-003   -4.869589301805694E-017
 -2.699999999999999E-003   -6.375513063968653E-017
 -2.599999999999999E-003   -7.565201507722786E-017
 -2.499999999999999E-003   -8.299490815648888E-017
 -2.399999999999999E-003   -8.461027386863920E-017
 -2.299999999999999E-003   -7.965631576305340E-017
 -2.199999999999999E-003   -6.771748713058056E-017
 -2.099999999999999E-003   -4.887235108419927E-017
 -1.999999999999999E-003   -2.372954954078900E-017
 -1.899999999999999E-003    6.570852496565574E-018
 -1.799999999999999E-003    4.039116821740332E-017
 -1.699999999999999E-003    7.566362246316041E-017
 -1.599999999999999E-003    1.099888781702538E-016
 -1.499999999999999E-003    1.407617914377526E-016
 -1.399999999999999E-003    1.653201424228861E-016
 -1.299999999999999E-003    1.811113176334257E-016
 -1.199999999999999E-003    1.858712782630107E-016
 -1.099999999999999E-003    1.778086986123446E-016
 -9.999999999999989E-004    1.557854177030105E-016
 -8.999999999999990E-004    1.194823235753391E-016
 -7.999999999999990E-004    6.953740053045400E-017
 -6.999999999999989E-004    7.641004026910470E-018
 -5.999999999999990E-004   -6.342728206392260E-017
 -4.999999999999989E-004   -1.398349712167636E-016
 -3.999999999999989E-004   -2.168180056960083E-016
 -2.999999999999989E-004   -2.888936009194800E-016
 -1.999999999999989E-004   -3.501638689839975E-016
 -9.999999999999892E-005   -3.947002957966983E-016
  1.084202172485504E-018   -4.169896889146049E-016
  1.000000000000011E-004   -4.124128499491497E-016
  2.000000000000011E-004   -3.777191739929279E-016
  3.000000000000011E-004   -3.114560961866448E-016
  4.000000000000011E-004   -2.143105775230966E-016
  5.000000000000011E-004   -8.932303363356265E-017
  6.000000000000011E-004    5.805828725472448E-017
  7.000000000000011E-004    2.201039402187778E-016
  8.000000000000011E-004    3.871181801183887E-016
  9.000000000000012E-004    5.479345985988702E-016
  1.000000000000001E-003    6.905691587816150E-016
  1.100000000000001E-003    8.029945900372252E-016
  1.200000000000001E-003    8.739880007495384E-016
  1.300000000000001E-003    8.939967892475846E-016
  1.400000000000001E-003    8.559634345328567E-016
  1.500000000000001E-003    7.560504598908792E-016
  1.600000000000001E-003    5.942098107373431E-016
  1.700000000000001E-003    3.745473934384456E-016
  1.800000000000001E-003    1.054432922602209E-016
  1.900000000000001E-003   -2.006012768105197E-016
  2.000000000000001E-003   -5.274039983394330E-016
  2.100000000000001E-003   -8.558271546424483E-016
  2.200000000000001E-003   -1.164769723498263E-015
  2.300000000000001E-003   -1.432385362034950E-015
  2.400000000000001E-003   -1.637465415598066E-015
  2.500000000000001E-003   -1.760906308058967E-015
  2.600000000000001E-003   -1.787161478448736E-015
  2.700000000000001E-003   -1.705567372239069E-015
  2.800000000000001E-003   -1.511428134064480E-015
  2.900000000000001E-003   -1.206752773445215E-015
  3.000000000000001E-003   -8.005562277792321E-016
  3.100000000000001E-003   -3.086712516008029E-016
  3.200000000000001E-003    2.469394258339183E-016
  3.300000000000001E-003    8.393299721722377E-016
  3.400000000000001E-003    1.438086492076149E-015
  3.500000000000001E-003    2.011073744055007E-015
  3.600000000000001E-003    2.526247185842441E-015
  3.700000000000001E-003    2.953358371089932E-015
  3.800000000000001E-003    3.265394026275627E-015
  3.900000000000001E-003    3.439637098474412E-015
  4.000000000000001E-003    3.458298437805023E-015
  4.100000000000001E-003    3.308750027417263E-015
  4.200000000000001E-003    2.983467342930954E-015
  4.300000000000001E-003    2.479855156308593E-015
  4.400000000000001E-003    1.800169893526873E-015
  4.500000000000001E-003    9.517470695252468E-016
  4.600000000000002E-003   -5.230364082934921E-017
  4.700000000000001E-003   -1.191872023045491E-015
  4.800000000000001E-003   -2.438154179209852E-015
  4.900000000000002E-003   -3.751710074625949E-015
  5.000000000000001E-003   -5.080637385314114E-015
  5.100000000000001E-003   -6.359340977087559E-015
  5.200000000000001E-003   -7.508432614240786E-015
  5.300000000000002E-003   -8.436276296004620E-015
  5.400000000000001E-003   -9.042575778236876E-015
  5.500000000000001E-003   -9.224203377663734E-015
  5.600000000000002E-003   -8.883186204159747E-015
  5.700000000000001E-003   -7.936456433368816E-015
  5.800000000000001E-003   -6.326644577564904E-015
  5.900000000000002E-003   -4.032927187665202E-015
  6.000000000000001E-003   -1.080746820261484E-015
  6.100000000000001E-003    2.450817716029743E-015
  6.200000000000002E-003    6.425193985832290E-015
  6.300000000000002E-003    1.064886964672451E-014
  6.400000000000001E-003    1.487690601150339E-014
  6.500000000000001E-003    1.882351375662226E-014
  6.600000000000002E-003    2.217729971639680E-014
  6.700000000000001E-003    2.462034326518257E-014
  6.800000000000001E-003    2.584990431800243E-014
  6.900000000000002E-003    2.560129145258196E-014
  7.000000000000001E-003    2.367036934950900E-014
  7.100000000000001E-003    1.993423460024253E-014
  7.200000000000002E-003    1.436874126800351E-014
  7.300000000000002E-003    7.061856289407770E-015
  7.400000000000001E-003   -1.777927335534519E-015
  7.500000000000001E-003   -1.181867987913905E-014
  7.600000000000002E-003   -2.260802491637489E-014
  7.700000000000001E-003   -3.358241176828295E-014
  7.800000000000001E-003   -4.408307882632055E-014
  7.900000000000001E-003   -5.337921558431443E-014
  8.000000000000002E-003   -6.069881083230196E-014
  8.100000000000001E-003   -6.526757292385327E-014
  8.200000000000001E-003   -6.635589632083535E-014
  8.300000000000002E-003   -6.333324434476188E-014
  8.400000000000001E-003   -5.572815400900383E-014
  8.500000000000002E-003   -4.329101391427688E-014
  8.600000000000002E-003   -2.605517751399274E-014
  8.700000000000001E-003   -4.390706594702177E-015
  8.800000000000002E-003    2.095600617345194E-014
  8.900000000000002E-003    4.884406005030541E-014
  9.000000000000001E-003    7.774831942965639E-014
  9.100000000000002E-003    1.058038790922479E-013
  9.200000000000002E-003    1.308883085342653E-013
  9.300000000000001E-003    1.507419700964044E-013
  9.400000000000002E-003    1.631228262359975E-013
  9.500000000000001E-003    1.659878742617655E-013
  9.600000000000001E-003    1.576890715425436E-013
  9.700000000000002E-003    1.371682401505757E-013
  9.800000000000001E-003    1.041326680871862E-013
  9.900000000000001E-003    5.919272000015395E-014
  1.000000000000000E-002    3.943487935768190E-015
  1.010000000000000E-002   -5.902436920910378E-014
  1.020000000000000E-002   -1.261944071502191E-013
  1.030000000000000E-002   -1.932786387152202E-013
  1.040000000000000E-002   -2.554522566287805E-013
  1.050000000000000E-002   -3.076577452054512E-013
  1.060000000000000E-002   -3.449602613238579E-013
  1.070000000000000E-002   -3.629300550233514E-013
  1.080000000000000E-002   -3.580242986134788E-013
  1.090000000000000E-002   -3.279386529443682E-013
  1.100000000000000E-002   -2.719000846019994E-013
  1.110000000000000E-002   -1.908748541891660E-013
  1.120000000000000E-002   -8.767146160528322E-014
  1.130000000000000E-002    3.307559702965631E-014
  1.140000000000000E-002    1.650479283466784E-013
  1.150000000000000E-002    3.005096800954868E-013
  1.160000000000000E-002    4.306896569049433E-013
  1.170000000000000E-002    5.462635157901482E-013
  1.180000000000000E-002    6.379137327298092E-013
  1.190000000000000E-002    6.969407858697241E-013
  1.200000000000000E-002    7.158940690027147E-013
  1.210000000000000E-002    6.891875707880052E-013
  1.220000000000000E-002    6.136634342643974E-013
  1.230000000000000E-002    4.890645210125212E-013
  1.240000000000000E-002    3.183765651690796E-013
  1.250000000000000E-002    1.080024828573620E-013
  1.260000000000000E-002   -1.322645147693508E-013
  1.270000000000000E-002   -3.894966482550880E-013
  1.280000000000000E-002   -6.481319381809426E-013
  1.290000000000000E-002   -8.907216866023871E-013
  1.300000000000000E-002   -1.098910456787512E-012
  1.310000000000000E-002   -1.254611684112903E-012
  1.320000000000000E-002   -1.341322550599829E-012
  1.330000000000000E-002   -1.345498315376871E-012
  1.340000000000000E-002   -1.257890105137497E-012
  1.350000000000000E-002   -1.074734299465578E-012
  1.360000000000000E-002   -7.986800798179000E-013
  1.370000000000000E-002   -4.393445735778595E-013
  1.380000000000000E-002   -1.340058825448415E-014
  1.390000000000000E-002    4.558685799147524E-013
  1.400000000000000E-002    9.395786682912845E-013
  1.410000000000000E-002    1.404801127349710E-012
  1.420000000000000E-002    1.816604207925474E-012
  1.430000000000000E-002    2.140464765347526E-012
  1.440000000000000E-002    2.344893665309343E-012
  1.450000000000000E-002    2.404085593290215E-012
  1.460000000000000E-002    2.300381704489986E-012
  1.470000000000000E-002    2.026332872575858E-012
  1.480000000000000E-002    1.586167680488988E-012
  1.490000000000000E-002    9.964982502645920E-013
  1.500000000000000E-002    2.861540689546022E-013
  1.510000000000000E-002   -5.049110227719241E-013
  1.520000000000000E-002   -1.327620284317458E-012
  1.530000000000000E-002   -2.126593653035450E-012
  1.540000000000000E-002   -2.843633378834200E-012
  1.550000000000000E-002   -3.421659595146242E-012
  1.560000000000000E-002   -3.808844064711263E-012
  1.570000000000000E-002   -3.962656949110966E-012
  1.580000000000000E-002   -3.853542966775862E-012
  1.590000000000000E-002   -3.467949979302014E-012
  1.600000000000000E-002   -2.810467164519745E-012
  1.610000000000000E-002   -1.904875405108955E-012
  1.620000000000000E-002   -7.939738921265548E-013
  1.630000000000000E-002    4.618847708287298E-013
  1.640000000000000E-002    1.787542795753761E-012
  1.650000000000000E-002    3.096980573330068E-012
  1.660000000000000E-002    4.298291108699097E-012
  1.670000000000000E-002    5.299446755727281E-012
  1.680000000000000E-002    6.014551778995133E-012
  1.690000000000000E-002    6.370213114412554E-012
  1.700000000000000E-002    6.311633292423494E-012
  1.710000000000000E-002    5.807987571125232E-012
  1.720000000000000E-002    4.856661505691516E-012
  1.730000000000000E-002    3.485950714009750E-012
  1.740000000000000E-002    1.755873547690918E-012
  1.750000000000000E-002   -2.431474968607912E-013
  1.760000000000000E-002   -2.393878082754003E-012
  1.770000000000000E-002   -4.558113890183208E-012
  1.780000000000000E-002   -6.584591818305151E-012
  1.790000000000000E-002   -8.318610496957865E-012
  1.800000000000000E-002   -9.612824943531714E-012
  1.810000000000000E-002   -1.033853495103700E-011
  1.820000000000000E-002   -1.039666240347898E-011
  1.830000000000000E-002   -9.727553048077057E-012
  1.840000000000000E-002   -8.318744076586377E-012
  1.850000000000000E-002   -6.209899404373123E-012
  1.860000000000000E-002   -3.494279593730591E-012
  1.870000000000000E-002   -3.163060449763177E-013