 -4.000000000000000E-002    0.000000000000000E+000
 -3.990000000000000E-002    0.000000000000000E+000
 -3.980000000000000E-002    0.000000000000000E+000
 -3.970000000000000E-002    0.000000000000000E+000
 -3.960000000000000E-002    0.000000000000000E+000
 -3.950000000000000E-002    0.000000000000000E+000
 -3.940000000000000E-002    0.000000000000000E+000
 -3.930000000000000E-002    0.000000000000000E+000
 -3.920000000000000E-002    0.000000000000000E+000
 -3.910000000000000E-002    0.000000000000000E+000
 -3.900000000000000E-002    0.000000000000000E+000
 -3.890000000000000E-002    0.000000000000000E+000
 -3.880000000000000E-002    0.000000000000000E+000
 -3.870000000000000E-002    0.000000000000000E+000
 -3.860000000000000E-002    0.000000000000000E+000
 -3.850000000000000E-002    0.000000000000000E+000
 -3.840000000000000E-002    0.000000000000000E+000
 -3.830000000000000E-002    0.000000000000000E+000
 -3.820000000000000E-002    0.000000000000000E+000
 -3.810000000000000E-002    0.000000000000000E+000
 -3.800000000000000E-002    0.000000000000000E+000
 -3.790000000000000E-002    0.000000000000000E+000
 -3.780000000000000E-002    0.000000000000000E+000
 -3.770000000000000E-002    0.000000000000000E+000
 -3.760000000000000E-002    0.000000000000000E+000
 -3.750000000000000E-002    0.000000000000000E+000
 -3.740000000000000E-002    0.000000000000000E+000
 -3.730000000000000E-002    0.000000000000000E+000
 -3.720000000000000E-002    0.000000000000000E+000
 -3.710000000000000E-002    0.000000000000000E+000
 -3.700000000000000E-002    0.000000000000000E+000
 -3.690000000000000E-002    0.000000000000000E+000
 -3.680000000000000E-002    0.000000000000000E+000
 -3.670000000000000E-002    0.000000000000000E+000
 -3.660000000000000E-002    0.000000000000000E+000
 -3.650000000000000E-002    0.000000000000000E+000
 -3.640000000000000E-002    0.000000000000000E+000
 -3.630000000000000E-002    0.000000000000000E+000
 -3.620000000000000E-002    0.000000000000000E+000
 -3.610000000000000E-002    0.000000000000000E+000
 -3.600000000000000E-002    0.000000000000000E+000
 -3.590000000000000E-002    0.000000000000000E+000
 -3.580000000000000E-002    0.000000000000000E+000
 -3.570000000000000E-002    0.000000000000000E+000
 -3.560000000000000E-002    0.000000000000000E+000
 -3.550000000000000E-002    0.000000000000000E+000
 -3.540000000000000E-002    0.000000000000000E+000
 -3.530000000000000E-002    0.000000000000000E+000
 -3.520000000000000E-002    0.000000000000000E+000
 -3.510000000000000E-002    0.000000000000000E+000
 -3.500000000000000E-002    0.000000000000000E+000
 -3.490000000000000E-002    0.000000000000000E+000
 -3.480000000000000E-002    0.000000000000000E+000
 -3.470000000000000E-002    0.000000000000000E+000
 -3.460000000000000E-002    0.000000000000000E+000
 -3.450000000000000E-002    0.000000000000000E+000
 -3.440000000000000E-002    0.000000000000000E+000
 -3.430000000000000E-002    0.000000000000000E+000
 -3.420000000000000E-002    0.000000000000000E+000
 -3.410000000000000E-002    0.000000000000000E+000
 -3.400000000000000E-002    0.000000000000000E+000
 -3.390000000000000E-002    0.000000000000000E+000
 -3.380000000000000E-002    0.000000000000000E+000
 -3.370000000000000E-002    0.000000000000000E+000
 -3.360000000000000E-002    0.000000000000000E+000
 -3.350000000000000E-002    0.000000000000000E+000
 -3.340000000000000E-002    0.000000000000000E+000
 -3.330000000000000E-002    0.000000000000000E+000
 -3.320000000000000E-002    0.000000000000000E+000
 -3.310000000000000E-002    0.000000000000000E+000
 -3.300000000000000E-002    0.000000000000000E+000
 -3.290000000000000E-002    0.000000000000000E+000
 -3.280000000000000E-002    0.000000000000000E+000
 -3.270000000000000E-002    0.000000000000000E+000
 -3.260000000000000E-002    0.000000000000000E+000
 -3.250000000000000E-002    0.000000000000000E+000
 -3.240000000000000E-002    0.000000000000000E+000
 -3.230000000000000E-002    0.000000000000000E+000
 -3.220000000000000E-002    0.000000000000000E+000
 -3.210000000000000E-002    0.000000000000000E+000
 -3.200000000000000E-002    0.000000000000000E+000
 -3.190000000000000E-002    0.000000000000000E+000
 -3.180000000000000E-002    0.000000000000000E+000
 -3.170000000000000E-002    0.000000000000000E+000
 -3.160000000000000E-002    0.000000000000000E+000
 -3.150000000000000E-002    0.000000000000000E+000
 -3.140000000000000E-002    0.000000000000000E+000
 -3.130000000000000E-002    0.000000000000000E+000
 -3.120000000000000E-002    0.000000000000000E+000
 -3.110000000000000E-002    0.000000000000000E+000
 -3.100000000000000E-002    0.000000000000000E+000
 -3.090000000000000E-002    0.000000000000000E+000
 -3.080000000000000E-002    0.000000000000000E+000
 -3.070000000000000E-002    0.000000000000000E+000
 -3.060000000000000E-002    0.000000000000000E+000
 -3.050000000000000E-002    0.000000000000000E+000
 -3.040000000000000E-002    0.000000000000000E+000
 -3.030000000000000E-002    0.000000000000000E+000
 -3.020000000000000E-002    0.000000000000000E+000
 -3.010000000000000E-002    0.000000000000000E+000
 -3.000000000000000E-002    0.000000000000000E+000
 -2.990000000000000E-002    0.000000000000000E+000
 -2.980000000000000E-002    0.000000000000000E+000
 -2.970000000000000E-002    0.000000000000000E+000
 -2.960000000000000E-002    0.000000000000000E+000
 -2.950000000000000E-002    0.000000000000000E+000
 -2.940000000000000E-002    0.000000000000000E+000
 -2.930000000000000E-002    0.000000000000000E+000
 -2.920000000000000E-002    0.000000000000000E+000
 -2.910000000000000E-002    0.000000000000000E+000
 -2.900000000000000E-002    0.000000000000000E+000
 -2.890000000000000E-002    0.000000000000000E+000
 -2.880000000000000E-002    0.000000000000000E+000
 -2.870000000000000E-002    0.000000000000000E+000
 -2.860000000000000E-002    0.000000000000000E+000
 -2.850000000000000E-002    0.000000000000000E+000
 -2.840000000000000E-002    0.000000000000000E+000
 -2.830000000000000E-002    0.000000000000000E+000
 -2.820000000000000E-002    0.000000000000000E+000
 -2.810000000000000E-002    0.000000000000000E+000
 -2.800000000000000E-002    0.000000000000000E+000
 -2.790000000000000E-002    0.000000000000000E+000
 -2.780000000000000E-002    0.000000000000000E+000
 -2.770000000000000E-002    0.000000000000000E+000
 -2.760000000000000E-002    0.000000000000000E+000
 -2.750000000000000E-002    0.000000000000000E+000
 -2.740000000000000E-002    0.000000000000000E+000
 -2.730000000000000E-002    0.000000000000000E+000
 -2.720000000000000E-002    0.000000000000000E+000
 -2.710000000000000E-002    0.000000000000000E+000
 -2.700000000000000E-002    0.000000000000000E+000
 -2.690000000000000E-002    0.000000000000000E+000
 -2.680000000000000E-002    0.000000000000000E+000
 -2.670000000000000E-002    0.000000000000000E+000
 -2.660000000000000E-002    0.000000000000000E+000
 -2.650000000000000E-002    0.000000000000000E+000
 -2.640000000000000E-002    0.000000000000000E+000
 -2.630000000000000E-002    0.000000000000000E+000
 -2.620000000000000E-002    0.000000000000000E+000
 -2.610000000000000E-002    0.000000000000000E+000
 -2.600000000000000E-002    0.000000000000000E+000
 -2.590000000000000E-002    0.000000000000000E+000
 -2.580000000000000E-002    0.000000000000000E+000
 -2.570000000000000E-002    0.000000000000000E+000
 -2.560000000000000E-002    0.000000000000000E+000
 -2.550000000000000E-002    0.000000000000000E+000
 -2.540000000000000E-002    0.000000000000000E+000
 -2.530000000000000E-002    0.000000000000000E+000
 -2.520000000000000E-002    0.000000000000000E+000
 -2.510000000000000E-002    0.000000000000000E+000
 -2.500000000000000E-002    0.000000000000000E+000
 -2.490000000000000E-002    0.000000000000000E+000
 -2.480000000000000E-002    0.000000000000000E+000
 -2.470000000000000E-002    0.000000000000000E+000
 -2.460000000000000E-002    0.000000000000000E+000
 -2.450000000000000E-002    0.000000000000000E+000
 -2.440000000000000E-002    0.000000000000000E+000
 -2.430000000000000E-002    0.000000000000000E+000
 -2.420000000000000E-002    0.000000000000000E+000
 -2.410000000000000E-002    0.000000000000000E+000
 -2.400000000000000E-002    0.000000000000000E+000
 -2.390000000000000E-002    0.000000000000000E+000
 -2.380000000000000E-002    0.000000000000000E+000
 -2.370000000000000E-002    0.000000000000000E+000
 -2.360000000000000E-002    0.000000000000000E+000
 -2.350000000000000E-002    0.000000000000000E+000
 -2.340000000000000E-002    0.000000000000000E+000
 -2.330000000000000E-002    0.000000000000000E+000
 -2.320000000000000E-002    0.000000000000000E+000
 -2.310000000000000E-002    0.000000000000000E+000
 -2.300000000000000E-002    0.000000000000000E+000
 -2.290000000000000E-002    0.000000000000000E+000
 -2.280000000000000E-002    0.000000000000000E+000
 -2.270000000000000E-002    0.000000000000000E+000
 -2.260000000000000E-002    0.000000000000000E+000
 -2.250000000000000E-002    0.000000000000000E+000
 -2.240000000000000E-002    0.000000000000000E+000
 -2.230000000000000E-002    0.000000000000000E+000
 -2.220000000000000E-002    2.138211768073757E-048
 -2.210000000000000E-002    4.276423536147513E-048
 -2.200000000000000E-002    4.276423536147513E-048
 -2.190000000000000E-002    4.276423536147513E-048
 -2.180000000000000E-002    2.138211768073757E-048
 -2.170000000000000E-002   -2.138211768073757E-048
 -2.160000000000000E-002   -1.496748237651630E-047
 -2.150000000000000E-002   -3.855454937677407E-047
 -2.140000000000000E-002   -1.191515245106867E-046
 -2.130000000000000E-002   -2.126445078044883E-046
 -2.120000000000000E-002   -3.126188639539576E-046
 -2.110000000000000E-002   -4.233510164952422E-046
 -2.100000000000000E-002   -5.018765174125275E-046
 -2.090000000000000E-002   -4.385854490775443E-046
 -2.080000000000000E-002   -2.298815940493241E-046
 -2.070000000000000E-002    2.953838556169863E-046
 -2.060000000000000E-002    1.148569339371003E-045
 -2.050000000000000E-002    2.355763123785873E-045
 -2.040000000000000E-002    3.532085017795238E-045
 -2.030000000000000E-002    4.964631414076502E-045
 -2.020000000000000E-002    6.242930317897870E-045
 -2.010000000000000E-002    7.104824663031924E-045
 -2.000000000000000E-002    7.949497446549150E-045
 -1.990000000000000E-002    6.895022349669178E-045
 -1.980000000000000E-002    3.388232979401081E-045
 -1.970000000000000E-002   -2.820627663206020E-045
 -1.960000000000000E-002   -1.173374753088564E-044
 -1.950000000000000E-002   -2.339410338530472E-044
 -1.940000000000000E-002   -3.747024788960377E-044
 -1.930000000000000E-002   -5.286945179850034E-044
 -1.920000000000000E-002   -6.723830115001948E-044
 -1.910000000000000E-002   -7.727966226306237E-044
 -1.900000000000000E-002   -7.790803797036206E-044
 -1.890000000000000E-002   -6.374886292443236E-044
 -1.880000000000000E-002   -2.949688352319614E-044
 -1.870000000000000E-002    3.060258515907640E-044
 -1.860000000000000E-002    1.194203988875957E-043
 -1.850000000000000E-002    2.382901304911509E-043
 -1.840000000000000E-002    3.792041242937113E-043
 -1.830000000000000E-002    5.301978184742414E-043
 -1.820000000000000E-002    6.692996063952763E-043
 -1.810000000000000E-002    7.654077158396448E-043
 -1.800000000000000E-002    7.761394754986933E-043
 -1.790000000000000E-002    6.538170896139908E-043
 -1.780000000000000E-002    3.455275071577778E-043
 -1.770000000000000E-002   -1.960466529374872E-043
 -1.760000000000000E-002   -1.004109018648670E-042
 -1.750000000000000E-002   -2.082182430931337E-042
 -1.740000000000000E-002   -3.390555393671453E-042
 -1.730000000000000E-002   -4.826847443719037E-042
 -1.720000000000000E-002   -6.211677636348600E-042
 -1.710000000000000E-002   -7.272826513935629E-042
 -1.700000000000000E-002   -7.648378673506975E-042
 -1.690000000000000E-002   -6.895079720176677E-042
 -1.680000000000000E-002   -4.521123887895427E-042
 -1.670000000000000E-002   -5.005128153655520E-044
 -1.660000000000000E-002    6.887461057627660E-042
 -1.650000000000000E-002    1.642443935291318E-041
 -1.640000000000000E-002    2.830460795690500E-041
 -1.630000000000000E-002    4.170978359778598E-041
 -1.620000000000000E-002    5.509688863714599E-041
 -1.610000000000000E-002    6.608033268671856E-041
 -1.600000000000000E-002    7.140700588263987E-041
 -1.590000000000000E-002    6.707698289908751E-041
 -1.580000000000000E-002    4.868273766081290E-041
 -1.570000000000000E-002    1.199504156579705E-041
 -1.560000000000000E-002   -4.615480196540249E-041
 -1.550000000000000E-002   -1.267337627151918E-040
 -1.540000000000000E-002   -2.271699595023720E-040
 -1.530000000000000E-002   -3.399883186144336E-040
 -1.520000000000000E-002   -4.516633037605987E-040
 -1.510000000000000E-002   -5.420124529351365E-040
 -1.500000000000000E-002   -5.845254373838826E-040
 -1.490000000000000E-002   -5.480242754509547E-040
 -1.480000000000000E-002   -3.999897349121434E-040
 -1.470000000000000E-002   -1.117345398694932E-040
 -1.460000000000000E-002    3.346812495612627E-040
 -1.450000000000000E-002    9.382327851608126E-040
 -1.440000000000000E-002    1.670346178082617E-039
 -1.430000000000000E-002    2.467328817418125E-039
 -1.420000000000000E-002    3.225623424164713E-039
 -1.410000000000000E-002    3.801954624802072E-039
 -1.400000000000000E-002    4.020409498325238E-039
 -1.390000000000000E-002    3.688097545782091E-039
 -1.380000000000000E-002    2.620163487145086E-039
 -1.370000000000000E-002    6.735983513843976E-040
 -1.360000000000000E-002   -2.212460965176325E-039
 -1.350000000000000E-002   -5.974226489636471E-039
 -1.340000000000000E-002   -1.038474420294749E-038
 -1.330000000000000E-002   -1.502712373549490E-038
 -1.320000000000000E-002   -1.928795874451296E-038
 -1.310000000000000E-002   -2.237891899398354E-038
 -1.300000000000000E-002   -2.339254486133921E-038
 -1.290000000000000E-002   -2.139473900331650E-038
 -1.280000000000000E-002   -1.555155392845497E-038
 -1.270000000000000E-002   -5.281933733897827E-039
 -1.260000000000000E-002    9.577943613019758E-039
 -1.250000000000000E-002    2.861849327722123E-038
 -1.240000000000000E-002    5.073200167412450E-038
 -1.230000000000000E-002    7.404357033241540E-038
 -1.220000000000000E-002    9.591959441315705E-038
 -1.210000000000000E-002    1.130700295679012E-037
 -1.200000000000000E-002    1.217522986485240E-037
 -1.190000000000000E-002    1.180748066596393E-037
 -1.180000000000000E-002    9.838797232086043E-038
 -1.170000000000000E-002    5.974263420845283E-038
 -1.160000000000000E-002    3.899061853751219E-040
 -1.150000000000000E-002   -7.970558075873077E-038
 -1.140000000000000E-002   -1.783670958539835E-037
 -1.130000000000000E-002   -2.907501316016380E-037
 -1.120000000000000E-002   -4.089618173223311E-037
 -1.110000000000000E-002   -5.217977323120802E-037
 -1.100000000000000E-002   -6.146600319169043E-037
 -1.090000000000000E-002   -6.697505577379596E-037
 -1.080000000000000E-002   -6.666695964059788E-037
 -1.070000000000000E-002   -5.835838227253628E-037
 -1.060000000000000E-002   -3.991403400828097E-037
 -1.050000000000000E-002   -9.528337845877228E-038
 -1.040000000000000E-002    3.389504547491525E-037
 -1.030000000000000E-002    9.027318815624445E-037
 -1.020000000000000E-002    1.578134370799233E-036
 -1.010000000000000E-002    2.324814121716650E-036
 -1.000000000000000E-002    3.075589186802532E-036
 -9.899999999999999E-003    3.734121406979182E-036
 -9.800000000000000E-003    4.176102314717543E-036
 -9.699999999999999E-003    4.255337579247773E-036
 -9.599999999999999E-003    3.815860760619195E-036
 -9.500000000000000E-003    2.710599215696064E-036
 -9.399999999999999E-003    8.261815709752063E-037
 -9.299999999999999E-003   -1.887742164904194E-036
 -9.200000000000000E-003   -5.387637139638708E-036
 -9.099999999999999E-003   -9.507941678475598E-036
 -8.999999999999999E-003   -1.394081307390362E-035
 -8.900000000000000E-003   -1.822926883808187E-035
 -8.799999999999999E-003   -2.177866789058708E-035
 -8.699999999999999E-003   -2.388997072961176E-035
 -8.600000000000000E-003   -2.381579818859144E-035
 -8.499999999999999E-003   -2.083723617678040E-035
 -8.399999999999999E-003   -1.435607028996365E-035
 -8.300000000000000E-003   -3.994344741945446E-036
 -8.199999999999999E-003    1.030860442397666E-035
 -8.100000000000000E-003    2.821163194328930E-035
 -8.000000000000000E-003    4.890806411591745E-035
 -7.899999999999999E-003    7.108785978919212E-035
 -7.800000000000000E-003    9.292699363068989E-035
 -7.699999999999999E-003    1.121020218657698E-034
 -7.599999999999999E-003    1.258272108472398E-034
 -7.499999999999999E-003    1.309147548211459E-034
 -7.399999999999999E-003    1.238666483320441E-034
 -7.299999999999999E-003    1.010196838836567E-034
 -7.199999999999999E-003    5.878012075045678E-035
 -7.100000000000000E-003   -6.001853483852744E-036
 -6.999999999999999E-003   -9.546257427908839E-035
 -6.899999999999999E-003   -2.099145441911439E-034
 -6.800000000000000E-003   -3.467830794315805E-034
 -6.699999999999999E-003   -4.993374931925146E-034
 -6.599999999999999E-003   -6.553528680744789E-034
 -6.499999999999999E-003   -7.959479073456738E-034
 -6.399999999999999E-003   -8.949584479554693E-034
 -6.299999999999999E-003   -9.193002787253487E-034
 -6.199999999999999E-003   -8.308176929903490E-034
 -6.100000000000000E-003   -5.900652447822065E-034
 -5.999999999999999E-003   -1.623039619681268E-034
 -5.899999999999999E-003    4.743197556611125E-034
 -5.800000000000000E-003    1.318896333196650E-033
 -5.699999999999999E-003    2.337223022994888E-033
 -5.599999999999999E-003    3.452274129707035E-033
 -5.499999999999999E-003    4.537866179853312E-033
 -5.399999999999999E-003    5.418061941649294E-033
 -5.299999999999999E-003    5.874859037972774E-033
 -5.199999999999999E-003    5.666238433250952E-033
 -5.099999999999999E-003    4.555596957296708E-033
 -4.999999999999999E-003    2.351961682954211E-033
 -4.899999999999999E-003   -1.041748436289845E-033
 -4.799999999999999E-003   -5.577554870319823E-033
 -4.699999999999999E-003   -1.101583741889207E-032
 -4.599999999999999E-003   -1.689267262273748E-032
 -4.499999999999999E-003   -2.251126157581871E-032
 -4.399999999999999E-003   -2.696700213850000E-032
 -4.299999999999999E-003   -2.921329629927186E-032
 -4.199999999999999E-003   -2.817081416883621E-032
 -4.099999999999999E-003   -2.287673304410712E-032
 -3.999999999999999E-003   -1.266312208837437E-032
 -3.899999999999999E-003    2.654095260301711E-033
 -3.799999999999999E-003    2.260103114908283E-032
 -3.699999999999999E-003    4.591658965987892E-032
 -3.599999999999999E-003    7.049923401846363E-032
 -3.499999999999999E-003    9.345739134321459E-032
 -3.399999999999999E-003    1.112827032776587E-031
 -3.299999999999999E-003    1.201518989274885E-031
 -3.199999999999999E-003    1.163462824538972E-031
 -3.099999999999999E-003    9.675880375854797E-032
 -2.999999999999999E-003    5.944110783779114E-032
 -2.899999999999999E-003    4.128352105025226E-033
 -2.799999999999999E-003   -6.732814681230986E-032
 -2.699999999999999E-003   -1.506898465700098E-031
 -2.599999999999999E-003   -2.392812272329054E-031
 -2.499999999999999E-003   -3.242027764856218E-031
 -2.399999999999999E-003   -3.948229379788256E-031
 -2.299999999999999E-003   -4.395378536082053E-031
 -2.199999999999999E-003   -4.467600879145403E-031
 -2.099999999999999E-003   -4.060764676823818E-031
 -1.999999999999999E-003   -3.095003398039581E-031
 -1.899999999999999E-003   -1.527394776517547E-031
 -1.799999999999999E-003    6.359903402679281E-032
 -1.699999999999999E-003    3.329390905286277E-031
 -1.599999999999999E-003    6.418740791220627E-031
 -1.499999999999999E-003    9.695936233289443E-031
 -1.399999999999999E-003    1.287702230797816E-030
 -1.299999999999999E-003    1.560569921380005E-030
 -1.199999999999999E-003    1.746402864789600E-030
 -1.099999999999999E-003    1.799261070005641E-030
 -9.999999999999989E-004    1.672267120093281E-030
 -8.999999999999990E-004    1.322217545577388E-030
 -7.999999999999990E-004    7.156940827920838E-031
 -6.999999999999989E-004   -1.634302676306502E-031
 -5.999999999999990E-004   -1.305501201458872E-030
 -4.999999999999989E-004   -2.666415073812765E-030
 -3.999999999999989E-004   -4.160006050591101E-030
 -2.999999999999989E-004   -5.653132255866646E-030
 -1.999999999999989E-004   -6.965385037811360E-030
 -9.999999999999892E-005   -7.875401325088668E-030
  1.084202172485504E-018   -8.135479214621406E-030
  1.000000000000011E-004   -7.495498918351346E-030
  2.000000000000011E-004   -5.736028186704825E-030
  3.000000000000011E-004   -2.708942173423639E-030
  4.000000000000011E-004    1.617898453321943E-030
  5.000000000000011E-004    7.117218893414159E-030
  6.000000000000011E-004    1.346705812242443E-029
  7.000000000000011E-004    2.013151679149797E-029
  8.000000000000011E-004    2.636547291354061E-029
  9.000000000000012E-004    3.124995357448534E-029
  1.000000000000001E-003    3.376229020852237E-029
  1.100000000000001E-003    3.288118468069977E-029
  1.200000000000001E-003    2.772179963406215E-029
  1.300000000000001E-003    1.769024212977563E-029
  1.400000000000001E-003    2.641362214258068E-030
  1.500000000000001E-003   -1.698077469595613E-029
  1.600000000000001E-003   -4.004298923591170E-029
  1.700000000000001E-003   -6.468678522083730E-029
  1.800000000000001E-003   -8.837552808851255E-029
  1.900000000000001E-003   -1.080380312797123E-028
  2.000000000000001E-003   -1.203114515860421E-028
  2.100000000000001E-003   -1.218744482444329E-028
  2.200000000000001E-003   -1.098482976486603E-028
  2.300000000000001E-003   -8.223149245724843E-029
  2.400000000000001E-003   -3.832310591536100E-029
  2.500000000000001E-003    2.091524110590877E-029
  2.600000000000001E-003    9.260989665002407E-029
  2.700000000000001E-003    1.718838491242980E-028
  2.800000000000001E-003    2.519585539617647E-028
  2.900000000000001E-003    3.244684640193299E-028
  3.000000000000001E-003    3.799896460687234E-028
  3.100000000000001E-003    4.087644658244178E-028
  3.200000000000001E-003    4.015864863431589E-028
  3.300000000000001E-003    3.507940663871202E-028
  3.400000000000001E-003    2.513091277220433E-028
  3.500000000000001E-003    1.016493683292888E-028
  3.600000000000001E-003   -9.516352829066417E-029
  3.700000000000001E-003   -3.308821329418701E-028
  3.800000000000001E-003   -5.915846613734837E-028
  3.900000000000001E-003   -8.575907597408252E-028
  4.000000000000001E-003   -1.103839390246273E-027
  4.100000000000001E-003   -1.300826174141236E-027
  4.200000000000001E-003   -1.416191606496399E-027
  4.300000000000001E-003   -1.417030347632272E-027
  4.400000000000001E-003   -1.272944796262732E-027
  4.500000000000001E-003   -9.597966799426828E-028
  4.600000000000002E-003   -4.640021368430859E-028
  4.700000000000001E-003    2.129142548449041E-028
  4.800000000000001E-003    1.049944596473040E-027
  4.900000000000002E-003    2.002992709617330E-027
  5.000000000000001E-003    3.002752279225252E-027
  5.100000000000001E-003    3.954849128478867E-027
  5.200000000000001E-003    4.743002846712786E-027
  5.300000000000002E-003    5.235806882166178E-027
  5.400000000000001E-003    5.297440472833731E-027
  5.500000000000001E-003    4.802181444657682E-027
  5.600000000000002E-003    3.652029298432314E-027
  5.700000000000001E-003    1.796115023008461E-027
  5.800000000000001E-003   -7.500657924002931E-028
  5.900000000000002E-003   -3.888107019994049E-027
  6.000000000000001E-003   -7.425681296454416E-027
  6.100000000000001E-003   -1.107395918190588E-026
  6.200000000000002E-003   -1.445600887737987E-026
  6.300000000000002E-003   -1.712795921420503E-026
  6.400000000000001E-003   -1.861349223319936E-026
  6.500000000000001E-003   -1.845071302583187E-026
  6.600000000000002E-003   -1.624862056785443E-026
  6.700000000000001E-003   -1.174865071069120E-026
  6.800000000000001E-003   -4.885108420557896E-027
  6.900000000000002E-003    4.162838013839615E-027
  7.000000000000001E-003    1.493539163148240E-026
  7.100000000000001E-003    2.668002579468787E-026
  7.200000000000002E-003    3.836923320833998E-026
  7.300000000000002E-003    4.875192081534807E-026
  7.400000000000001E-003    5.643939675415043E-026
  7.500000000000001E-003    6.002308575068319E-026
  7.600000000000002E-003    5.821746523763771E-026
  7.700000000000001E-003    5.001792791072444E-026
  7.800000000000001E-003    3.486019219146161E-026
  7.900000000000001E-003    1.276575281558629E-026
  8.000000000000002E-003   -1.554313280837398E-026
  8.100000000000001E-003   -4.857500526992036E-026
  8.200000000000001E-003   -8.406154700358582E-026
  8.300000000000002E-003   -1.190215963275791E-025
  8.400000000000001E-003   -1.499035090645699E-025
  8.500000000000002E-003   -1.728067859651286E-025
  8.600000000000002E-003   -1.837780385314963E-025
  8.700000000000001E-003   -1.791695848067306E-025
  8.800000000000002E-003   -1.560420567536828E-025
  8.900000000000002E-003   -1.125857876875865E-025
  9.000000000000001E-003   -4.852907529736400E-026
  9.100000000000002E-003    3.450431263945150E-026
  9.200000000000002E-003    1.327304096664211E-025
  9.300000000000001E-003    2.400776477712233E-025
  9.400000000000002E-003    3.482408867223855E-025
  9.500000000000001E-003    4.469561721568304E-025
  9.600000000000001E-003    5.245259639648423E-025
  9.700000000000002E-003    5.686081840830686E-025
  9.800000000000001E-003    5.672612128900678E-025
  9.900000000000001E-003    5.102069504351117E-025
  1.000000000000000E-002    3.902416453876185E-025
  1.010000000000000E-002    2.046883218323238E-025
  1.020000000000000E-002   -4.324991415711264E-026
  1.030000000000000E-002   -3.434038205533657E-025
  1.040000000000000E-002   -6.780043152279539E-025
  1.050000000000000E-002   -1.021683862164810E-024
  1.060000000000000E-002   -1.342273388943066E-024
  1.070000000000000E-002   -1.602505675890166E-024
  1.080000000000000E-002   -1.762661799917284E-024
  1.090000000000000E-002   -1.784101642397558E-024
  1.100000000000000E-002   -1.633500005646975E-024
  1.110000000000000E-002   -1.287495846561782E-024
  1.120000000000000E-002   -7.373431037849183E-025
  1.130000000000000E-002    6.939501045572720E-027
  1.140000000000000E-002    9.134752656421639E-025
  1.150000000000000E-002    1.927052568935219E-024
  1.160000000000000E-002    2.969764977257923E-024
  1.170000000000000E-002    3.944137557699367E-024
  1.180000000000000E-002    4.738923766642075E-024
  1.190000000000000E-002    5.237497399612994E-024
  1.200000000000000E-002    5.328487263575886E-024
  1.210000000000000E-002    4.917998481879303E-024
  1.220000000000000E-002    3.942476599892030E-024
  1.230000000000000E-002    2.381051363728135E-024
  1.240000000000000E-002    2.660215327608766E-025
  1.250000000000000E-002   -2.309890038650744E-024
  1.260000000000000E-002   -5.190798109560664E-024
  1.270000000000000E-002   -8.160519515378163E-024
  1.280000000000000E-002   -1.095176186651948E-023
  1.290000000000000E-002   -1.326188832563273E-023
  1.300000000000000E-002   -1.477493859937641E-023
  1.310000000000000E-002   -1.518897782262548E-023
  1.320000000000000E-002   -1.424717662851065E-023
  1.330000000000000E-002   -1.177046311433814E-023
  1.340000000000000E-002   -7.689040127174422E-024
  1.350000000000000E-002   -2.069722346427169E-024
  1.360000000000000E-002    4.864129549727924E-024
  1.370000000000000E-002    1.272322056225035E-023
  1.380000000000000E-002    2.095630298995513E-023
  1.390000000000000E-002    2.886966875969569E-023
  1.400000000000000E-002    3.566338057998280E-023
  1.410000000000000E-002    4.048421592648128E-023
  1.420000000000000E-002    4.249384136444073E-023
  1.430000000000000E-002    4.094901607351381E-023
  1.440000000000000E-002    3.528901465734537E-023
  1.450000000000000E-002    2.522364407544727E-023
  1.460000000000000E-002    1.081398849587510E-023
  1.470000000000000E-002   -7.463194336179437E-024
  1.480000000000000E-002   -2.867666210162024E-023
  1.490000000000000E-002   -5.143648003835765E-023
  1.500000000000000E-002   -7.393190958603603E-023
  1.510000000000000E-002   -9.401650549986532E-023
  1.520000000000000E-002   -1.093421495713872E-022
  1.530000000000000E-002   -1.175392691478787E-022
  1.540000000000000E-002   -1.164354308007091E-022
  1.550000000000000E-002   -1.042992840994379E-022
  1.560000000000000E-002   -8.009136844459526E-023
  1.570000000000000E-002   -4.369906194507992E-023
  1.580000000000000E-002    3.870162822179467E-024
  1.590000000000000E-002    6.036409754154291E-023
  1.600000000000000E-002    1.222555092719864E-022
  1.610000000000000E-002    1.848272429930535E-022
  1.620000000000000E-002    2.423871214624078E-022
  1.630000000000000E-002    2.886169248116598E-022
  1.640000000000000E-002    3.170471197087923E-022
  1.650000000000000E-002    3.216359071219678E-022
  1.660000000000000E-002    2.974168015498910E-022
  1.670000000000000E-002    2.411656820408739E-022
  1.680000000000000E-002    1.520277405271079E-022
  1.690000000000000E-002    3.203795094498251E-023
  1.700000000000000E-002   -1.135332403394897E-022
  1.710000000000000E-002   -2.760729896524874E-022
  1.720000000000000E-002   -4.438100834831363E-022
  1.730000000000000E-002   -6.023246902327753E-022
  1.740000000000000E-002   -7.353942353888801E-022
  1.750000000000000E-002   -8.261565037059576E-022
  1.760000000000000E-002   -8.585389164776788E-022
  1.770000000000000E-002   -8.188698710358042E-022
  1.780000000000000E-002   -6.975566986069536E-022
  1.790000000000000E-002   -4.906901346612140E-022
  1.800000000000000E-002   -2.014163433792766E-022
  1.810000000000000E-002    1.590865742112748E-022
  1.820000000000000E-002    5.711859391139348E-022
  1.830000000000000E-002    1.007058609902029E-021
  1.840000000000000E-002    1.431739344486261E-021
  1.850000000000000E-002    1.804995904931283E-021
  1.860000000000000E-002    2.084006580884886E-021
  1.870000000000000E-002    2.226743608552056E-021