 -4.000000000000000E-002    0.000000000000000E+000
 -3.990000000000000E-002   -7.263044018705417E-007
 -3.980000000000000E-002   -2.177292383733801E-006
 -3.970000000000000E-002   -4.332942173180793E-006
 -3.960000000000000E-002   -7.158876086981223E-006
 -3.950000000000000E-002   -1.061051598214918E-005
 -3.940000000000000E-002   -1.463715902985629E-005
 -3.930000000000000E-002   -1.918580698722676E-005
 -3.920000000000000E-002   -2.420460201162094E-005
 -3.910000000000000E-002   -2.964575335361870E-005
 -3.900000000000000E-002   -3.546787954020450E-005
 -3.890000000000000E-002   -4.163772566834086E-005
 -3.880000000000000E-002   -4.813126569066492E-005
 -3.870000000000000E-002   -5.493421625516139E-005
 -3.860000000000000E-002   -6.204202185105269E-005
 -3.850000000000000E-002   -6.945943458508725E-005
 -3.840000000000000E-002   -7.719976426207611E-005
 -3.830000000000000E-002   -8.528391887543501E-005
 -3.820000000000000E-002   -9.373933932060611E-005
 -3.810000000000000E-002   -1.025989346953049E-004
 -3.800000000000000E-002   -1.119000888237197E-004
 -3.790000000000000E-002   -1.216837611259258E-004
 -3.780000000000000E-002   -1.319937755927528E-004
 -3.770000000000000E-002   -1.428762470968952E-004
 -3.760000000000000E-002   -1.543791894321742E-004
 -3.750000000000000E-002   -1.665522276012687E-004
 -3.740000000000000E-002   -1.794464369296600E-004
 -3.730000000000000E-002   -1.931142691643580E-004
 -3.720000000000000E-002   -2.076094754074147E-004
 -3.710000000000000E-002   -2.229871734419120E-004
 -3.700000000000000E-002   -2.393038080992683E-004
 -3.690000000000000E-002   -2.566172314318214E-004
 -3.680000000000000E-002   -2.749868091137368E-004
 -3.670000000000000E-002   -2.944734712523793E-004
 -3.660000000000000E-002   -3.151399179087244E-004
 -3.650000000000000E-002   -3.370508987902889E-004
 -3.640000000000000E-002   -3.602734775315801E-004
 -3.630000000000000E-002   -3.848774223881348E-004
 -3.620000000000000E-002   -4.109356644872069E-004
 -3.610000000000000E-002   -4.385247926459661E-004
 -3.600000000000000E-002   -4.677255645792711E-004
 -3.590000000000000E-002   -4.986233830861959E-004
 -3.580000000000000E-002   -5.313088707700710E-004
 -3.570000000000000E-002   -5.658781746129389E-004
 -3.560000000000000E-002   -6.024333884364516E-004
 -3.550000000000000E-002   -6.410829050977603E-004
 -3.540000000000000E-002   -6.819415528298567E-004
 -3.530000000000000E-002   -7.251306766167541E-004
 -3.520000000000000E-002   -7.707784423859919E-004
 -3.510000000000000E-002   -8.190196805734560E-004
 -3.500000000000000E-002   -8.699961533804724E-004
 -3.490000000000000E-002   -9.238566091247316E-004
 -3.480000000000000E-002   -9.807570275147609E-004
 -3.470000000000000E-002   -1.040860818725905E-003
 -3.460000000000000E-002   -1.104339285285631E-003
 -3.450000000000000E-002   -1.171371766349240E-003
 -3.440000000000000E-002   -1.242146382999627E-003
 -3.430000000000000E-002   -1.316860575782437E-003
 -3.420000000000000E-002   -1.395721532280395E-003
 -3.410000000000000E-002   -1.478946722744317E-003
 -3.400000000000000E-002   -1.566764625341827E-003
 -3.390000000000000E-002   -1.659415049674409E-003
 -3.380000000000000E-002   -1.757149604323555E-003
 -3.370000000000000E-002   -1.860232292867164E-003
 -3.360000000000000E-002   -1.968939597884165E-003
 -3.350000000000000E-002   -2.083561073845427E-003
 -3.340000000000000E-002   -2.204399255450009E-003
 -3.330000000000000E-002   -2.331770163314874E-003
 -3.320000000000000E-002   -2.466003735781212E-003
 -3.310000000000000E-002   -2.607443497954027E-003
 -3.300000000000000E-002   -2.756447827066820E-003
 -3.290000000000000E-002   -2.913389818217468E-003
 -3.280000000000000E-002   -3.078657832214238E-003
 -3.270000000000000E-002   -3.252656165869810E-003
 -3.260000000000000E-002   -3.435805537303259E-003
 -3.250000000000000E-002   -3.628544054424321E-003
 -3.240000000000000E-002   -3.831327804566291E-003
 -3.230000000000000E-002   -4.044631733901640E-003
 -3.220000000000000E-002   -4.268949986480496E-003
 -3.210000000000000E-002   -4.504797634555927E-003
 -3.200000000000000E-002   -4.752711117801577E-003
 -3.190000000000000E-002   -5.013248632095645E-003
 -3.180000000000000E-002   -5.286992421838928E-003
 -3.170000000000000E-002   -5.574547809308265E-003
 -3.160000000000000E-002   -5.876545885061552E-003
 -3.150000000000000E-002   -6.193642922533528E-003
 -3.140000000000000E-002   -6.526522856614665E-003
 -3.130000000000000E-002   -6.875896642155702E-003
 -3.120000000000000E-002   -7.242504366840506E-003
 -3.110000000000000E-002   -7.627115507602218E-003
 -3.100000000000000E-002   -8.030529513106444E-003
 -3.090000000000000E-002   -8.453578650236332E-003
 -3.080000000000000E-002   -8.897125783967470E-003
 -3.070000000000000E-002   -9.362067522296694E-003
 -3.060000000000000E-002   -9.849335769332387E-003
 -3.050000000000000E-002   -1.035989693830261E-002
 -3.040000000000000E-002   -1.089475347744959E-002
 -3.030000000000000E-002   -1.145494615666908E-002
 -3.020000000000000E-002   -1.204155297281049E-002
 -3.010000000000000E-002   -1.265569159522744E-002
 -3.000000000000000E-002   -1.329852113936649E-002
 -2.990000000000000E-002   -1.397124200494550E-002
 -2.980000000000000E-002   -1.467509843122849E-002
 -2.970000000000000E-002   -1.541137752614191E-002
 -2.960000000000000E-002   -1.618141235289038E-002
 -2.950000000000000E-002   -1.698658236811668E-002
 -2.940000000000000E-002   -1.782831487076458E-002
 -2.930000000000000E-002   -1.870808505135082E-002
 -2.920000000000000E-002   -1.962741703738543E-002
 -2.910000000000000E-002   -2.058788512509430E-002
 -2.900000000000000E-002   -2.159111835842695E-002
 -2.890000000000000E-002   -2.263879465995689E-002
 -2.880000000000000E-002   -2.373264680788105E-002
 -2.870000000000000E-002   -2.487446207383193E-002
 -2.860000000000000E-002   -2.606608427677022E-002
 -2.850000000000000E-002   -2.730941388798930E-002
 -2.840000000000000E-002   -2.860640848034410E-002
 -2.830000000000000E-002   -2.995908651887212E-002
 -2.820000000000000E-002   -3.136952660464574E-002
 -2.810000000000000E-002   -3.283986916852294E-002
 -2.800000000000000E-002   -3.437231978182607E-002
 -2.790000000000000E-002   -3.596914982523586E-002
 -2.780000000000000E-002   -3.763269245967583E-002
 -2.770000000000000E-002   -3.936535015584060E-002
 -2.760000000000000E-002   -4.116959836086845E-002
 -2.750000000000000E-002   -4.304797852398205E-002
 -2.740000000000000E-002   -4.500310015229195E-002
 -2.730000000000000E-002   -4.703764950860412E-002
 -2.720000000000000E-002   -4.915438113286508E-002
 -2.710000000000000E-002   -5.135612570790313E-002
 -2.700000000000000E-002   -5.364578611851384E-002
 -2.690000000000000E-002   -5.602634285260850E-002
 -2.680000000000000E-002   -5.850084726758259E-002
 -2.670000000000000E-002   -6.107243081869252E-002
 -2.660000000000000E-002   -6.374430180371439E-002
 -2.650000000000000E-002   -6.651974555016284E-002
 -2.640000000000000E-002   -6.940212404153015E-002
 -2.630000000000000E-002   -7.239488244484082E-002
 -2.620000000000000E-002   -7.550154029924905E-002
 -2.610000000000000E-002   -7.872569926505142E-002
 -2.600000000000000E-002   -8.207104109068088E-002
 -2.590000000000000E-002   -8.554133080333537E-002
 -2.580000000000000E-002   -8.914040948953836E-002
 -2.570000000000000E-002   -9.287220442708814E-002
 -2.560000000000000E-002   -9.674071870488724E-002
 -2.550000000000000E-002   -0.100750030180595     
 -2.540000000000000E-002   -0.104904311102476     
 -2.530000000000000E-002   -0.109207793565908     
 -2.520000000000000E-002   -0.113664797648164     
 -2.510000000000000E-002   -0.118279722009013     
 -2.500000000000000E-002   -0.123057041692231     
 -2.490000000000000E-002   -0.128001303112577     
 -2.480000000000000E-002   -0.133117132089572     
 -2.470000000000000E-002   -0.138409222408070     
 -2.460000000000000E-002   -0.143882352829175     
 -2.450000000000000E-002   -0.149541352950257     
 -2.440000000000000E-002   -0.155391148434891     
 -2.430000000000000E-002   -0.161436726081058     
 -2.420000000000000E-002   -0.167683120585246     
 -2.410000000000000E-002   -0.174135462249211     
 -2.400000000000000E-002   -0.180798921449426     
 -2.390000000000000E-002   -0.187678744056839     
 -2.380000000000000E-002   -0.194780224958737     
 -2.370000000000000E-002   -0.202108709736553     
 -2.360000000000000E-002   -0.209669607170826     
 -2.350000000000000E-002   -0.217468367857118     
 -2.340000000000000E-002   -0.225510493748392     
 -2.330000000000000E-002   -0.233801522125971     
 -2.320000000000000E-002   -0.242347036788772     
 -2.310000000000000E-002   -0.251152641765642     
 -2.300000000000000E-002   -0.260223981145868     
 -2.290000000000000E-002   -0.269566733879115     
 -2.280000000000000E-002   -0.279186583608000     
 -2.270000000000000E-002   -0.289089246178740     
 -2.260000000000000E-002   -0.299280425874422     
 -2.250000000000000E-002   -0.309765856291691     
 -2.240000000000000E-002   -0.320551272010094     
 -2.230000000000000E-002   -0.331642409227428     
 -2.220000000000000E-002   -0.343044967936391     
 -2.210000000000000E-002   -0.354764624591413     
 -2.200000000000000E-002   -0.366807072674492     
 -2.190000000000000E-002   -0.379177976232769     
 -2.180000000000000E-002   -0.391882915937846     
 -2.170000000000000E-002   -0.404927459611129     
 -2.160000000000000E-002   -0.418317103775375     
 -2.150000000000000E-002   -0.432057310529444     
 -2.140000000000000E-002   -0.446153460021467     
 -2.130000000000000E-002   -0.460610886024064     
 -2.120000000000000E-002   -0.475434785959297     
 -2.110000000000000E-002   -0.490630302620700     
 -2.100000000000000E-002   -0.506202475054915     
 -2.090000000000000E-002   -0.522156213610704     
 -2.080000000000000E-002   -0.538496279302833     
 -2.070000000000000E-002   -0.555227413420531     
 -2.060000000000000E-002   -0.572354128115541     
 -2.050000000000000E-002   -0.589880801216039     
 -2.040000000000000E-002   -0.607811635896344     
 -2.030000000000000E-002   -0.626150714086300     
 -2.020000000000000E-002   -0.644901921525088     
 -2.010000000000000E-002   -0.664068963463420     
 -2.000000000000000E-002   -0.683655327901297     
 -1.990000000000000E-002   -0.703664255061914     
 -1.980000000000000E-002   -0.724098839342569     
 -1.970000000000000E-002   -0.744961850453580     
 -1.960000000000000E-002   -0.766255909235031     
 -1.950000000000000E-002   -0.787983282815507     
 -1.940000000000000E-002   -0.810146053910612     
 -1.930000000000000E-002   -0.832745961825874     
 -1.920000000000000E-002   -0.855784441826966     
 -1.910000000000000E-002   -0.879262663564040     
 -1.900000000000000E-002   -0.903181504222680     
 -1.890000000000000E-002   -0.927541409720275     
 -1.880000000000000E-002   -0.952342558761100     
 -1.870000000000000E-002   -0.977584791613489     
 -1.860000000000000E-002    -1.00326754477261     
 -1.850000000000000E-002    -1.02938980549011     
 -1.840000000000000E-002    -1.05595022586742     
 -1.830000000000000E-002    -1.08294712498090     
 -1.820000000000000E-002    -1.11037832239243     
 -1.810000000000000E-002    -1.13824119569820     
 -1.800000000000000E-002    -1.16653272355544     
 -1.790000000000000E-002    -1.19524941460750     
 -1.780000000000000E-002    -1.22438732562323     
 -1.770000000000000E-002    -1.25394189924200     
 -1.760000000000000E-002    -1.28390831378393     
 -1.750000000000000E-002    -1.31428107241870     
 -1.740000000000000E-002    -1.34505418695891     
 -1.730000000000000E-002    -1.37622116474427     
 -1.720000000000000E-002    -1.40777496580683     
 -1.710000000000000E-002    -1.43970813033647     
 -1.700000000000000E-002    -1.47201243139638     
 -1.690000000000000E-002    -1.50467912044514     
 -1.680000000000000E-002    -1.53769897936268     
 -1.670000000000000E-002    -1.57106217638152     
 -1.660000000000000E-002    -1.60475821160036     
 -1.650000000000000E-002    -1.63877598626376     
 -1.640000000000000E-002    -1.67310387213358     
 -1.630000000000000E-002    -1.70772944627870     
 -1.620000000000000E-002    -1.74263985271192     
 -1.610000000000000E-002    -1.77782154287607     
 -1.600000000000000E-002    -1.81326023297961     
 -1.590000000000000E-002    -1.84894106484714     
 -1.580000000000000E-002    -1.88484857840765     
 -1.570000000000000E-002    -1.92096658966795     
 -1.560000000000000E-002    -1.95727820864026     
 -1.550000000000000E-002    -1.99376602076260     
 -1.540000000000000E-002    -2.03041188399828     
 -1.530000000000000E-002    -2.06719692947606     
 -1.520000000000000E-002    -2.10410164281097     
 -1.510000000000000E-002    -2.14110587718912     
 -1.500000000000000E-002    -2.17818859659725     
 -1.490000000000000E-002    -2.21532858603402     
 -1.480000000000000E-002    -2.25250346568420     
 -1.470000000000000E-002    -2.28969060382650     
 -1.460000000000000E-002    -2.32686641375946     
 -1.450000000000000E-002    -2.36400666212943     
 -1.440000000000000E-002    -2.40108673985543     
 -1.430000000000000E-002    -2.43808110832652     
 -1.420000000000000E-002    -2.47496366402023     
 -1.410000000000000E-002    -2.51170793591613     
 -1.400000000000000E-002    -2.54828638983799     
 -1.390000000000000E-002    -2.58467118994833     
 -1.380000000000000E-002    -2.62083385697737     
 -1.370000000000000E-002    -2.65674529357731     
 -1.360000000000000E-002    -2.69237571417845     
 -1.350000000000000E-002    -2.72769502887537     
 -1.340000000000000E-002    -2.76267249848357     
 -1.330000000000000E-002    -2.79727694221430     
 -1.320000000000000E-002    -2.83147639309793     
 -1.310000000000000E-002    -2.86523877701438     
 -1.300000000000000E-002    -2.89853136017643     
 -1.290000000000000E-002    -2.93132091289806     
 -1.280000000000000E-002    -2.96357381554894     
 -1.270000000000000E-002    -2.99525593670878     
 -1.260000000000000E-002    -3.02633316549073     
 -1.250000000000000E-002    -3.05677061676674     
 -1.240000000000000E-002    -3.08653313371224     
 -1.230000000000000E-002    -3.11558553816073     
 -1.220000000000000E-002    -3.14389206841101     
 -1.210000000000000E-002    -3.17141672849956     
 -1.200000000000000E-002    -3.19812374086590     
 -1.190000000000000E-002    -3.22397664182108     
 -1.180000000000000E-002    -3.24893911259055     
 -1.170000000000000E-002    -3.27297446355202     
 -1.160000000000000E-002    -3.29604613564845     
 -1.150000000000000E-002    -3.31811745254030     
 -1.140000000000000E-002    -3.33915171082155     
 -1.130000000000000E-002    -3.35911203667926     
 -1.120000000000000E-002    -3.37796193135709     
 -1.110000000000000E-002    -3.39566501829442     
 -1.100000000000000E-002    -3.41218471320863     
 -1.090000000000000E-002    -3.42748474633293     
 -1.080000000000000E-002    -3.44152930181734     
 -1.070000000000000E-002    -3.45428238821325     
 -1.060000000000000E-002    -3.46570853591718     
 -1.050000000000000E-002    -3.47577263375999     
 -1.040000000000000E-002    -3.48443999033742     
 -1.030000000000000E-002    -3.49167610646082     
 -1.020000000000000E-002    -3.49744699007576     
 -1.010000000000000E-002    -3.50171927079699     
 -1.000000000000000E-002    -3.50446016339921     
 -9.899999999999999E-003    -3.50563737872176     
 -9.800000000000000E-003    -3.50521903967840     
 -9.699999999999999E-003    -3.50317426191304     
 -9.599999999999999E-003    -3.49947276267143     
 -9.500000000000000E-003    -3.49408506526570     
 -9.399999999999999E-003    -3.48698243102986     
 -9.299999999999999E-003    -3.47813687419925     
 -9.200000000000000E-003    -3.46752156017751     
 -9.099999999999999E-003    -3.45511036354212     
 -8.999999999999999E-003    -3.44087825424424     
 -8.900000000000000E-003    -3.42480100485273     
 -8.799999999999999E-003    -3.40685591576309     
 -8.699999999999999E-003    -3.38702078277772     
 -8.600000000000000E-003    -3.36527503725997     
 -8.499999999999999E-003    -3.34159909197991     
 -8.399999999999999E-003    -3.31597457825442     
 -8.300000000000000E-003    -3.28838438863695     
 -8.199999999999999E-003    -3.25881273252662     
 -8.100000000000000E-003    -3.22724517979552     
 -8.000000000000000E-003    -3.19366849068026     
 -7.899999999999999E-003    -3.15807091933440     
 -7.800000000000000E-003    -3.12044245036720     
 -7.699999999999999E-003    -3.08077433204204     
 -7.599999999999999E-003    -3.03905917661859     
 -7.499999999999999E-003    -2.99529131970869     
 -7.399999999999999E-003    -2.94946656209067     
 -7.299999999999999E-003    -2.90158238175714     
 -7.199999999999999E-003    -2.85163787087597     
 -7.100000000000000E-003    -2.79963371703669     
 -6.999999999999999E-003    -2.74557222218236     
 -6.899999999999999E-003    -2.68945754405739     
 -6.800000000000000E-003    -2.63129524552573     
 -6.699999999999999E-003    -2.57109308563223     
 -6.599999999999999E-003    -2.50886025767927     
 -6.499999999999999E-003    -2.44460748744432     
 -6.399999999999999E-003    -2.37834795497757     
 -6.299999999999999E-003    -2.31009595787492     
 -6.199999999999999E-003    -2.23986779497867     
 -6.100000000000000E-003    -2.16768181794151     
 -5.999999999999999E-003    -2.09355794112560     
 -5.899999999999999E-003    -2.01751823294657     
 -5.800000000000000E-003    -1.93958602033689     
 -5.699999999999999E-003    -1.85978667401455     
 -5.599999999999999E-003    -1.77814750546973     
 -5.499999999999999E-003    -1.69469756439795     
 -5.399999999999999E-003    -1.60946770801469     
 -5.299999999999999E-003    -1.52249058979312     
 -5.199999999999999E-003    -1.43380049837960     
 -5.099999999999999E-003    -1.34343362622513     
 -4.999999999999999E-003    -1.25142792710957     
 -4.899999999999999E-003    -1.15782310695596     
 -4.799999999999999E-003    -1.06266044974059     
 -4.699999999999999E-003   -0.965982983252372     
 -4.599999999999999E-003   -0.867835484782942     
 -4.499999999999999E-003   -0.768264299626879     
 -4.399999999999999E-003   -0.667317323497783     
 -4.299999999999999E-003   -0.565044117082594     
 -4.199999999999999E-003   -0.461495721263113     
 -4.099999999999999E-003   -0.356724804307365     
 -3.999999999999999E-003   -0.250785409338936     
 -3.899999999999999E-003   -0.143732983278977     
 -3.799999999999999E-003   -3.562445729518510E-002
 -3.699999999999999E-003    7.348192069454829E-002
 -3.599999999999999E-003    0.183526653432624     
 -3.499999999999999E-003    0.294448932944875     
 -3.399999999999999E-003    0.406186732614862     
 -3.299999999999999E-003    0.518676898467722     
 -3.199999999999999E-003    0.631855134327242     
 -3.099999999999999E-003    0.745656160903972     
 -2.999999999999999E-003    0.860013668957498     
 -2.899999999999999E-003    0.974860375397473     
 -2.799999999999999E-003     1.09012815264345     
 -2.699999999999999E-003     1.20574807869208     
 -2.599999999999999E-003     1.32165041305042     
 -2.499999999999999E-003     1.43776477083547     
 -2.399999999999999E-003     1.55402008315745     
 -2.299999999999999E-003     1.67034482897762     
 -2.199999999999999E-003     1.78666685833028     
 -2.099999999999999E-003     1.90291356875706     
 -1.999999999999999E-003     2.01901212163751     
 -1.899999999999999E-003     2.13488934934150     
 -1.799999999999999E-003     2.25047183252286     
 -1.699999999999999E-003     2.36568601200703     
 -1.599999999999999E-003     2.48045816890843     
 -1.499999999999999E-003     2.59471460206313     
 -1.399999999999999E-003     2.70838170241734     
 -1.299999999999999E-003     2.82138602406448     
 -1.199999999999999E-003     2.93365426686164     
 -1.099999999999999E-003     3.04511336255609     
 -9.999999999999989E-004     3.15569076000905     
 -8.999999999999990E-004     3.26531416855065     
 -7.999999999999990E-004     3.37391186091986     
 -6.999999999999989E-004     3.48141258827306     
 -5.999999999999990E-004     3.58774577499226     
 -4.999999999999989E-004     3.69284152671856     
 -3.999999999999989E-004     3.79663064484640     
 -2.999999999999989E-004     3.89904507319691     
 -1.999999999999989E-004     4.00001740097513     
 -9.999999999999892E-005     4.09948108237904     
  1.084202172485504E-018     4.19737104338067     
  1.000000000000011E-004     4.29362300296498     
  2.000000000000011E-004     4.38817377035308     
  3.000000000000011E-004     4.48096184760823     
  4.000000000000011E-004     4.57192643373079     
  5.000000000000011E-004     4.66100859490854     
  6.000000000000011E-004     4.74815042666089     
  7.000000000000011E-004     4.83329543236697     
  8.000000000000011E-004     4.91638914667627     
  9.000000000000012E-004     4.99737842623685     
  1.000000000000001E-003     5.07621201520498     
  1.100000000000001E-003     5.15283985235445     
  1.200000000000001E-003     5.22721362989555     
  1.300000000000001E-003     5.29928715090722     
  1.400000000000001E-003     5.36901592967859     
  1.500000000000001E-003     5.43635743948468     
  1.600000000000001E-003     5.50127116577483     
  1.700000000000001E-003     5.56371796693651     
  1.800000000000001E-003     5.62366153390895     
  1.900000000000001E-003     5.68106692963750     
  2.000000000000001E-003     5.73590096613942     
  2.100000000000001E-003     5.78813376500083     
  2.200000000000001E-003     5.83773625481301     
  2.300000000000001E-003     5.88468232152923     
  2.400000000000001E-003     5.92894765705056     
  2.500000000000001E-003     5.97050995767488     
  2.600000000000001E-003     6.00934948334452     
  2.700000000000001E-003     6.04544849505209     
  2.800000000000001E-003     6.07879164121429     
  2.900000000000001E-003     6.10936531182442     
  3.000000000000001E-003     6.13715888250588     
  3.100000000000001E-003     6.16216295806016     
  3.200000000000001E-003     6.18437139141205     
  3.300000000000001E-003     6.20377971310177     
  3.400000000000001E-003     6.22038576586642     
  3.500000000000001E-003     6.23418960612272     
  3.600000000000001E-003     6.24519317614272     
  3.700000000000001E-003     6.25340155067345     
  3.800000000000001E-003     6.25882083082012     
  3.900000000000001E-003     6.26145968381543     
  4.000000000000001E-003     6.26132944285149     
  4.100000000000001E-003     6.25844315335583     
  4.200000000000001E-003     6.25281574267809     
  4.300000000000001E-003     6.24446474768791     
  4.400000000000001E-003     6.23340937532430     
  4.500000000000001E-003     6.21967133404782     
  4.600000000000002E-003     6.20327341733837     
  4.700000000000001E-003     6.18424105916426     
  4.800000000000001E-003     6.16260161122252     
  4.900000000000002E-003     6.13838387128672     
  5.000000000000001E-003     6.11161867319550     
  5.100000000000001E-003     6.08233874688053     
  5.200000000000001E-003     6.05057851199257     
  5.300000000000002E-003     6.01637435053023     
  5.400000000000001E-003     5.97976404404259     
  5.500000000000001E-003     5.94078706560506     
  5.600000000000002E-003     5.89948411084404     
  5.700000000000001E-003     5.85589761657483     
  5.800000000000001E-003     5.81007168628597     
  5.900000000000002E-003     5.76205185737538     
  6.000000000000001E-003     5.71188463034744     
  6.100000000000001E-003     5.65961822397459     
  6.200000000000002E-003     5.60530149648120     
  6.300000000000002E-003     5.54898507749167     
  6.400000000000001E-003     5.49072057934657     
  6.500000000000001E-003     5.43056030681230     
  6.600000000000002E-003     5.36855826397491     
  6.700000000000001E-003     5.30476865095739     
  6.800000000000001E-003     5.23924706609627     
  6.900000000000002E-003     5.17204955033904     
  7.000000000000001E-003     5.10323319662362     
  7.100000000000001E-003     5.03285579867513     
  7.200000000000002E-003     4.96097539115809     
  7.300000000000002E-003     4.88765109056802     
  7.400000000000001E-003     4.81294204712725     
  7.500000000000001E-003     4.73690795519507     
  7.600000000000002E-003     4.65960935933130     
  7.700000000000001E-003     4.58110679861515     
  7.800000000000001E-003     4.50146093064951     
  7.900000000000001E-003     4.42073279619026     
  8.000000000000002E-003     4.33898333711873     
  8.100000000000001E-003     4.25627411066114     
  8.200000000000001E-003     4.17266595297673     
  8.300000000000002E-003     4.08822004192215     
  8.400000000000001E-003     4.00299745028355     
  8.500000000000002E-003     3.91705919909777     
  8.600000000000002E-003     3.83046621048375     
  8.700000000000001E-003     3.74327853420194     
  8.800000000000002E-003     3.65555653799716     
  8.900000000000002E-003     3.56735987310504     
  9.000000000000001E-003     3.47874784739128     
  9.100000000000002E-003     3.38977924854774     
  9.200000000000002E-003     3.30051249360247     
  9.300000000000001E-003     3.21100530134431     
  9.400000000000002E-003     3.12131476072973     
  9.500000000000001E-003     3.03149730036003     
  9.600000000000001E-003     2.94160857087431     
  9.700000000000002E-003     2.85170391518602     
  9.800000000000001E-003     2.76183710995182     
  9.900000000000001E-003     2.67206163740138     
  1.000000000000000E-002     2.58243015752280     
  1.010000000000000E-002     2.49299420567092     
  1.020000000000000E-002     2.40380444885561     
  1.030000000000000E-002     2.31491036074776     
  1.040000000000000E-002     2.22636086926606     
  1.050000000000000E-002     2.13820346656314     
  1.060000000000000E-002     2.05048460985441     
  1.070000000000000E-002     1.96324987032844     
  1.080000000000000E-002     1.87654355205208     
  1.090000000000000E-002     1.79040889020075     
  1.100000000000000E-002     1.70488781476503     
  1.110000000000000E-002     1.62002129169346     
  1.120000000000000E-002     1.53584902529717     
  1.130000000000000E-002     1.45240940266124     
  1.140000000000000E-002     1.36973960758958     
  1.150000000000000E-002     1.28787553417038     
  1.160000000000000E-002     1.20685195869075     
  1.170000000000000E-002     1.12670230983391     
  1.180000000000000E-002     1.04745866761067     
  1.190000000000000E-002    0.969151978277743     
  1.200000000000000E-002    0.891811828238605     
  1.210000000000000E-002    0.815466537345374     
  1.220000000000000E-002    0.740143023534831     
  1.230000000000000E-002    0.665866955588333     
  1.240000000000000E-002    0.592662816237618     
  1.250000000000000E-002    0.520553609690888     
  1.260000000000000E-002    0.449561178249372     
  1.270000000000000E-002    0.379706040285556     
  1.280000000000000E-002    0.311007501446253     
  1.290000000000000E-002    0.243483544255707     
  1.300000000000000E-002    0.177150829893474     
  1.310000000000000E-002    0.112024866135609     
  1.320000000000000E-002    4.811985030970442E-002
  1.330000000000000E-002   -1.455117406512921E-002
  1.340000000000000E-002   -7.597644483555030E-002
  1.350000000000000E-002   -0.136145395937413     
  1.360000000000000E-002   -0.195048640898279     
  1.370000000000000E-002   -0.252677913502890     
  1.380000000000000E-002   -0.309026162113150     
  1.390000000000000E-002   -0.364087421520722     
  1.400000000000000E-002   -0.417856886359409     
  1.410000000000000E-002   -0.470330808998883     
  1.420000000000000E-002   -0.521506556448543     
  1.430000000000000E-002   -0.571382494248735     
  1.440000000000000E-002   -0.619958014782408     
  1.450000000000000E-002   -0.667233529017224     
  1.460000000000000E-002   -0.713210467925805     
  1.470000000000000E-002   -0.757891180048013     
  1.480000000000000E-002   -0.801278958276675     
  1.490000000000000E-002   -0.843378010526493     
  1.500000000000000E-002   -0.884193434283608     
  1.510000000000000E-002   -0.923731120585982     
  1.520000000000000E-002   -0.961997884290272     
  1.530000000000000E-002   -0.999001245724594     
  1.540000000000000E-002    -1.03474964980520     
  1.550000000000000E-002    -1.06925210608320     
  1.560000000000000E-002    -1.10251849740934     
  1.570000000000000E-002    -1.13455931938233     
  1.580000000000000E-002    -1.16538578862084     
  1.590000000000000E-002    -1.19500975224821     
  1.600000000000000E-002    -1.22344359167845     
  1.610000000000000E-002    -1.25070042243648     
  1.620000000000000E-002    -1.27679383734475     
  1.630000000000000E-002    -1.30173797268975     
  1.640000000000000E-002    -1.32554744453949     
  1.650000000000000E-002    -1.34823735585645     
  1.660000000000000E-002    -1.36982329468684     
  1.670000000000000E-002    -1.39032123128253     
  1.680000000000000E-002    -1.40974755726367     
  1.690000000000000E-002    -1.42811913892783     
  1.700000000000000E-002    -1.44545293527026     
  1.710000000000000E-002    -1.46176649039544     
  1.720000000000000E-002    -1.47707753433540     
  1.730000000000000E-002    -1.49140401763301     
  1.740000000000000E-002    -1.50476422174672     
  1.750000000000000E-002    -1.51717657354287     
  1.760000000000000E-002    -1.52865985517591     
  1.770000000000000E-002    -1.53923287758004     
  1.780000000000000E-002    -1.54891458519784     
  1.790000000000000E-002    -1.55772421053176     
  1.800000000000000E-002    -1.56568094746891     
  1.810000000000000E-002    -1.57280425414873     
  1.820000000000000E-002    -1.57911342534565     
  1.830000000000000E-002    -1.58462799571976     
  1.840000000000000E-002    -1.58936741910446     
  1.850000000000000E-002    -1.59335121264160     
  1.860000000000000E-002    -1.59659890414526     
  1.870000000000000E-002    -1.59912996163899     