 -4.000000000000000E-002    0.000000000000000E+000
 -3.990000000000000E-002    0.000000000000000E+000
 -3.980000000000000E-002    0.000000000000000E+000
 -3.970000000000000E-002    0.000000000000000E+000
 -3.960000000000000E-002    0.000000000000000E+000
 -3.950000000000000E-002    0.000000000000000E+000
 -3.940000000000000E-002    0.000000000000000E+000
 -3.930000000000000E-002    0.000000000000000E+000
 -3.920000000000000E-002    0.000000000000000E+000
 -3.910000000000000E-002    0.000000000000000E+000
 -3.900000000000000E-002    0.000000000000000E+000
 -3.890000000000000E-002    0.000000000000000E+000
 -3.880000000000000E-002    0.000000000000000E+000
 -3.870000000000000E-002    0.000000000000000E+000
 -3.860000000000000E-002    0.000000000000000E+000
 -3.850000000000000E-002    0.000000000000000E+000
 -3.840000000000000E-002    0.000000000000000E+000
 -3.830000000000000E-002    0.000000000000000E+000
 -3.820000000000000E-002    0.000000000000000E+000
 -3.810000000000000E-002    0.000000000000000E+000
 -3.800000000000000E-002    0.000000000000000E+000
 -3.790000000000000E-002    0.000000000000000E+000
 -3.780000000000000E-002    0.000000000000000E+000
 -3.770000000000000E-002    0.000000000000000E+000
 -3.760000000000000E-002    0.000000000000000E+000
 -3.750000000000000E-002    0.000000000000000E+000
 -3.740000000000000E-002    0.000000000000000E+000
 -3.730000000000000E-002    0.000000000000000E+000
 -3.720000000000000E-002    0.000000000000000E+000
 -3.710000000000000E-002    0.000000000000000E+000
 -3.700000000000000E-002    0.000000000000000E+000
 -3.690000000000000E-002    0.000000000000000E+000
 -3.680000000000000E-002    0.000000000000000E+000
 -3.670000000000000E-002    0.000000000000000E+000
 -3.660000000000000E-002    0.000000000000000E+000
 -3.650000000000000E-002    0.000000000000000E+000
 -3.640000000000000E-002    0.000000000000000E+000
 -3.630000000000000E-002    0.000000000000000E+000
 -3.620000000000000E-002    0.000000000000000E+000
 -3.610000000000000E-002    0.000000000000000E+000
 -3.600000000000000E-002    0.000000000000000E+000
 -3.590000000000000E-002    0.000000000000000E+000
 -3.580000000000000E-002    0.000000000000000E+000
 -3.570000000000000E-002    0.000000000000000E+000
 -3.560000000000000E-002    0.000000000000000E+000
 -3.550000000000000E-002    0.000000000000000E+000
 -3.540000000000000E-002    0.000000000000000E+000
 -3.530000000000000E-002    0.000000000000000E+000
 -3.520000000000000E-002    0.000000000000000E+000
 -3.510000000000000E-002    0.000000000000000E+000
 -3.500000000000000E-002    0.000000000000000E+000
 -3.490000000000000E-002    0.000000000000000E+000
 -3.480000000000000E-002    0.000000000000000E+000
 -3.470000000000000E-002    0.000000000000000E+000
 -3.460000000000000E-002    0.000000000000000E+000
 -3.450000000000000E-002    0.000000000000000E+000
 -3.440000000000000E-002    0.000000000000000E+000
 -3.430000000000000E-002    0.000000000000000E+000
 -3.420000000000000E-002    0.000000000000000E+000
 -3.410000000000000E-002    0.000000000000000E+000
 -3.400000000000000E-002    0.000000000000000E+000
 -3.390000000000000E-002    0.000000000000000E+000
 -3.380000000000000E-002    0.000000000000000E+000
 -3.370000000000000E-002    0.000000000000000E+000
 -3.360000000000000E-002    0.000000000000000E+000
 -3.350000000000000E-002    0.000000000000000E+000
 -3.340000000000000E-002    0.000000000000000E+000
 -3.330000000000000E-002    0.000000000000000E+000
 -3.320000000000000E-002    0.000000000000000E+000
 -3.310000000000000E-002    0.000000000000000E+000
 -3.300000000000000E-002    0.000000000000000E+000
 -3.290000000000000E-002    0.000000000000000E+000
 -3.280000000000000E-002    0.000000000000000E+000
 -3.270000000000000E-002    0.000000000000000E+000
 -3.260000000000000E-002    0.000000000000000E+000
 -3.250000000000000E-002    0.000000000000000E+000
 -3.240000000000000E-002    0.000000000000000E+000
 -3.230000000000000E-002    0.000000000000000E+000
 -3.220000000000000E-002    0.000000000000000E+000
 -3.210000000000000E-002    0.000000000000000E+000
 -3.200000000000000E-002    0.000000000000000E+000
 -3.190000000000000E-002    0.000000000000000E+000
 -3.180000000000000E-002    0.000000000000000E+000
 -3.170000000000000E-002    0.000000000000000E+000
 -3.160000000000000E-002    0.000000000000000E+000
 -3.150000000000000E-002    0.000000000000000E+000
 -3.140000000000000E-002    0.000000000000000E+000
 -3.130000000000000E-002    0.000000000000000E+000
 -3.120000000000000E-002    0.000000000000000E+000
 -3.110000000000000E-002    0.000000000000000E+000
 -3.100000000000000E-002    0.000000000000000E+000
 -3.090000000000000E-002    0.000000000000000E+000
 -3.080000000000000E-002    0.000000000000000E+000
 -3.070000000000000E-002    0.000000000000000E+000
 -3.060000000000000E-002    0.000000000000000E+000
 -3.050000000000000E-002    0.000000000000000E+000
 -3.040000000000000E-002    0.000000000000000E+000
 -3.030000000000000E-002    0.000000000000000E+000
 -3.020000000000000E-002    0.000000000000000E+000
 -3.010000000000000E-002    0.000000000000000E+000
 -3.000000000000000E-002    0.000000000000000E+000
 -2.990000000000000E-002    0.000000000000000E+000
 -2.980000000000000E-002    0.000000000000000E+000
 -2.970000000000000E-002    0.000000000000000E+000
 -2.960000000000000E-002    0.000000000000000E+000
 -2.950000000000000E-002    0.000000000000000E+000
 -2.940000000000000E-002    0.000000000000000E+000
 -2.930000000000000E-002    0.000000000000000E+000
 -2.920000000000000E-002    0.000000000000000E+000
 -2.910000000000000E-002    0.000000000000000E+000
 -2.900000000000000E-002    0.000000000000000E+000
 -2.890000000000000E-002    0.000000000000000E+000
 -2.880000000000000E-002    0.000000000000000E+000
 -2.870000000000000E-002    0.000000000000000E+000
 -2.860000000000000E-002    0.000000000000000E+000
 -2.850000000000000E-002    0.000000000000000E+000
 -2.840000000000000E-002    0.000000000000000E+000
 -2.830000000000000E-002    0.000000000000000E+000
 -2.820000000000000E-002    0.000000000000000E+000
 -2.810000000000000E-002    0.000000000000000E+000
 -2.800000000000000E-002    0.000000000000000E+000
 -2.790000000000000E-002    0.000000000000000E+000
 -2.780000000000000E-002    0.000000000000000E+000
 -2.770000000000000E-002    0.000000000000000E+000
 -2.760000000000000E-002    0.000000000000000E+000
 -2.750000000000000E-002    0.000000000000000E+000
 -2.740000000000000E-002    0.000000000000000E+000
 -2.730000000000000E-002    0.000000000000000E+000
 -2.720000000000000E-002    0.000000000000000E+000
 -2.710000000000000E-002    0.000000000000000E+000
 -2.700000000000000E-002    0.000000000000000E+000
 -2.690000000000000E-002    0.000000000000000E+000
 -2.680000000000000E-002    0.000000000000000E+000
 -2.670000000000000E-002    0.000000000000000E+000
 -2.660000000000000E-002    0.000000000000000E+000
 -2.650000000000000E-002    0.000000000000000E+000
 -2.640000000000000E-002    0.000000000000000E+000
 -2.630000000000000E-002    0.000000000000000E+000
 -2.620000000000000E-002    0.000000000000000E+000
 -2.610000000000000E-002    0.000000000000000E+000
 -2.600000000000000E-002    0.000000000000000E+000
 -2.590000000000000E-002    0.000000000000000E+000
 -2.580000000000000E-002    0.000000000000000E+000
 -2.570000000000000E-002    0.000000000000000E+000
 -2.560000000000000E-002    0.000000000000000E+000
 -2.550000000000000E-002    0.000000000000000E+000
 -2.540000000000000E-002    0.000000000000000E+000
 -2.530000000000000E-002    0.000000000000000E+000
 -2.520000000000000E-002    0.000000000000000E+000
 -2.510000000000000E-002    0.000000000000000E+000
 -2.500000000000000E-002    0.000000000000000E+000
 -2.490000000000000E-002    0.000000000000000E+000
 -2.480000000000000E-002    0.000000000000000E+000
 -2.470000000000000E-002    0.000000000000000E+000
 -2.460000000000000E-002    0.000000000000000E+000
 -2.450000000000000E-002    0.000000000000000E+000
 -2.440000000000000E-002    0.000000000000000E+000
 -2.430000000000000E-002    0.000000000000000E+000
 -2.420000000000000E-002    0.000000000000000E+000
 -2.410000000000000E-002    0.000000000000000E+000
 -2.400000000000000E-002    0.000000000000000E+000
 -2.390000000000000E-002    0.000000000000000E+000
 -2.380000000000000E-002    0.000000000000000E+000
 -2.370000000000000E-002    0.000000000000000E+000
 -2.360000000000000E-002    0.000000000000000E+000
 -2.350000000000000E-002    0.000000000000000E+000
 -2.340000000000000E-002    0.000000000000000E+000
 -2.330000000000000E-002    0.000000000000000E+000
 -2.320000000000000E-002    0.000000000000000E+000
 -2.310000000000000E-002    0.000000000000000E+000
 -2.300000000000000E-002    0.000000000000000E+000
 -2.290000000000000E-002    0.000000000000000E+000
 -2.280000000000000E-002    0.000000000000000E+000
 -2.270000000000000E-002    0.000000000000000E+000
 -2.260000000000000E-002    0.000000000000000E+000
 -2.250000000000000E-002    0.000000000000000E+000
 -2.240000000000000E-002    0.000000000000000E+000
 -2.230000000000000E-002    0.000000000000000E+000
 -2.220000000000000E-002    0.000000000000000E+000
 -2.210000000000000E-002    0.000000000000000E+000
 -2.200000000000000E-002    0.000000000000000E+000
 -2.190000000000000E-002    0.000000000000000E+000
 -2.180000000000000E-002    0.000000000000000E+000
 -2.170000000000000E-002    0.000000000000000E+000
 -2.160000000000000E-002    0.000000000000000E+000
 -2.150000000000000E-002    0.000000000000000E+000
 -2.140000000000000E-002    0.000000000000000E+000
 -2.130000000000000E-002   -1.302948326278190E-047
 -2.120000000000000E-002   -1.964433122134254E-047
 -2.110000000000000E-002   -7.116162630945206E-047
 -2.100000000000000E-002    2.890668443639975E-047
 -2.090000000000000E-002    1.484191137492547E-046
 -2.080000000000000E-002    2.873756616291129E-046
 -2.070000000000000E-002    4.358738163913885E-046
 -2.060000000000000E-002    6.053264413860043E-046
 -2.050000000000000E-002    6.457645506918581E-046
 -2.040000000000000E-002    1.105598637252464E-045
 -2.030000000000000E-002    1.187330150760967E-045
 -2.020000000000000E-002    9.958696930257004E-047
 -2.010000000000000E-002   -1.210436276344332E-045
 -2.000000000000000E-002   -2.056740489053142E-045
 -1.990000000000000E-002   -3.212309159343656E-045
 -1.980000000000000E-002   -5.195590598361419E-045
 -1.970000000000000E-002   -6.716047799465265E-045
 -1.960000000000000E-002   -8.806547559718357E-045
 -1.950000000000000E-002   -9.808728102378401E-045
 -1.940000000000000E-002   -8.671732361672394E-045
 -1.930000000000000E-002   -6.624623103378937E-045
 -1.920000000000000E-002   -2.314903648239251E-045
 -1.910000000000000E-002    5.731906996559255E-045
 -1.900000000000000E-002    1.733526598399226E-044
 -1.890000000000000E-002    3.278936738142378E-044
 -1.880000000000000E-002    5.224931262820806E-044
 -1.870000000000000E-002    7.446858332017364E-044
 -1.860000000000000E-002    9.905005220000001E-044
 -1.850000000000000E-002    1.224438694263604E-043
 -1.840000000000000E-002    1.397023949422602E-043
 -1.830000000000000E-002    1.451003274465314E-043
 -1.820000000000000E-002    1.304532004478587E-043
 -1.810000000000000E-002    8.781647688270448E-044
 -1.800000000000000E-002    6.604037859463731E-045
 -1.790000000000000E-002   -1.214119230583846E-043
 -1.780000000000000E-002   -3.024842398594174E-043
 -1.770000000000000E-002   -5.374320369904212E-043
 -1.760000000000000E-002   -8.215216315105927E-043
 -1.750000000000000E-002   -1.137267613852221E-042
 -1.740000000000000E-002   -1.454971173546003E-042
 -1.730000000000000E-002   -1.728013245632791E-042
 -1.720000000000000E-002   -1.892639468446495E-042
 -1.710000000000000E-002   -1.868374103703446E-042
 -1.700000000000000E-002   -1.556869386886955E-042
 -1.690000000000000E-002   -8.532859302194830E-043
 -1.680000000000000E-002    3.444940572973342E-043
 -1.670000000000000E-002    2.121445819746044E-042
 -1.660000000000000E-002    4.521341185124804E-042
 -1.650000000000000E-002    7.522695466043685E-042
 -1.640000000000000E-002    1.100659808855609E-041
 -1.630000000000000E-002    1.472846700227851E-041
 -1.620000000000000E-002    1.828370071741394E-041
 -1.610000000000000E-002    2.108977449528396E-041
 -1.600000000000000E-002    2.237882228456642E-041
 -1.590000000000000E-002    2.121113306495144E-041
 -1.580000000000000E-002    1.652141956691727E-041
 -1.570000000000000E-002    7.202218245913903E-042
 -1.560000000000000E-002   -7.757414837429699E-042
 -1.550000000000000E-002   -2.909302060157375E-041
 -1.540000000000000E-002   -5.702659649899490E-041
 -1.530000000000000E-002   -9.098446574364048E-041
 -1.520000000000000E-002   -1.292917424358290E-040
 -1.510000000000000E-002   -1.688642663083256E-040
 -1.500000000000000E-002   -2.049493550482726E-040
 -1.490000000000000E-002   -2.309695461733812E-040
 -1.480000000000000E-002   -2.385338578347204E-040
 -1.470000000000000E-002   -2.177137340105855E-040
 -1.460000000000000E-002   -1.576534785119303E-040
 -1.450000000000000E-002   -4.760430451662101E-041
 -1.440000000000000E-002    1.215618229644035E-040
 -1.430000000000000E-002    3.553408699297951E-040
 -1.420000000000000E-002    6.531209248262293E-040
 -1.410000000000000E-002    1.005364848249203E-039
 -1.400000000000000E-002    1.390686532431137E-039
 -1.390000000000000E-002    1.773164576676737E-039
 -1.380000000000000E-002    2.100377125983837E-039
 -1.370000000000000E-002    2.302775662128729E-039
 -1.360000000000000E-002    2.295103818126888E-039
 -1.350000000000000E-002    1.980624722855607E-039
 -1.340000000000000E-002    1.258879446499300E-039
 -1.330000000000000E-002    3.753873707663131E-041
 -1.320000000000000E-002   -1.751388061681457E-039
 -1.310000000000000E-002   -4.131213622910899E-039
 -1.300000000000000E-002   -7.057006994834856E-039
 -1.290000000000000E-002   -1.039056244517588E-038
 -1.280000000000000E-002   -1.387664312761843E-038
 -1.270000000000000E-002   -1.712434207747115E-038
 -1.260000000000000E-002   -1.959835782871325E-038
 -1.250000000000000E-002   -2.062583300195728E-038
 -1.240000000000000E-002   -1.942472376333723E-038
 -1.230000000000000E-002   -1.515941034672916E-038
 -1.220000000000000E-002   -7.028040947325154E-039
 -1.210000000000000E-002    5.616206080118418E-039
 -1.200000000000000E-002    2.311141604461806E-038
 -1.190000000000000E-002    4.530721747710032E-038
 -1.180000000000000E-002    7.137180406998962E-038
 -1.170000000000000E-002    9.960562301364959E-038
 -1.160000000000000E-002    1.272893449962241E-037
 -1.150000000000000E-002    1.506008398688045E-037
 -1.140000000000000E-002    1.646415003883678E-037
 -1.130000000000000E-002    1.636148869993896E-037
 -1.120000000000000E-002    1.411984174159171E-037
 -1.110000000000000E-002    9.114083358654879E-038
 -1.100000000000000E-002    8.102002034387384E-039
 -1.090000000000000E-002   -1.112729255094572E-037
 -1.080000000000000E-002   -2.670870230695779E-037
 -1.070000000000000E-002   -4.548168730693733E-037
 -1.060000000000000E-002   -6.639624411008788E-037
 -1.050000000000000E-002   -8.769056405821641E-037
 -1.040000000000000E-002   -1.068210026177636E-036
 -1.030000000000000E-002   -1.204632261247526E-036
 -1.020000000000000E-002   -1.246134425412479E-036
 -1.010000000000000E-002   -1.148175507224669E-036
 -1.000000000000000E-002   -8.655101925020485E-037
 -9.899999999999999E-003   -3.576224881149078E-037
 -9.800000000000000E-003    4.042342319075492E-037
 -9.699999999999999E-003    1.428634125604920E-036
 -9.599999999999999E-003    2.694726205532396E-036
 -9.500000000000000E-003    4.142956126703801E-036
 -9.399999999999999E-003    5.666919969142729E-036
 -9.299999999999999E-003    7.107821154637610E-036
 -9.200000000000000E-003    8.253261084742193E-036
 -9.099999999999999E-003    8.842230200726311E-036
 -8.999999999999999E-003    8.578133649617154E-036
 -8.900000000000000E-003    7.151389159376710E-036
 -8.799999999999999E-003    4.272571789678225E-036
 -8.699999999999999E-003   -2.838875595742041E-037
 -8.600000000000000E-003   -6.626708963428875E-036
 -8.499999999999999E-003   -1.468839661486782E-035
 -8.399999999999999E-003   -2.416434978167853E-035
 -8.300000000000000E-003   -3.445733283902272E-035
 -8.199999999999999E-003   -4.463620939946529E-035
 -8.100000000000000E-003   -5.341949536462051E-035
 -8.000000000000000E-003   -5.919531400538053E-035
 -7.899999999999999E-003   -6.008926790389212E-035
 -7.800000000000000E-003   -5.409032693652753E-035
 -7.699999999999999E-003   -3.924153571499835E-035
 -7.599999999999999E-003   -1.389710705463326E-035
 -7.499999999999999E-003    2.296005771311957E-035
 -7.399999999999999E-003    7.135598163666418E-035
 -7.299999999999999E-003    1.299451001459081E-034
 -7.199999999999999E-003    1.956505983955318E-034
 -7.100000000000000E-003    2.633767873981466E-034
 -6.999999999999999E-003    3.258547039760192E-034
 -6.899999999999999E-003    3.736893250429947E-034
 -6.800000000000000E-003    3.956775107747250E-034
 -6.699999999999999E-003    3.794592159512539E-034
 -6.599999999999999E-003    3.125474387357742E-034
 -6.499999999999999E-003    1.837542286068692E-034
 -6.399999999999999E-003   -1.501095105153434E-035
 -6.299999999999999E-003   -2.866466294646326E-034
 -6.199999999999999E-003   -6.266079664855451E-034
 -6.100000000000000E-003   -1.020706248545411E-033
 -5.999999999999999E-003   -1.443236257587475E-033
 -5.899999999999999E-003   -1.855769798173728E-033
 -5.800000000000000E-003   -2.206994883967492E-033
 -5.699999999999999E-003   -2.433996256028591E-033
 -5.599999999999999E-003   -2.465341965929155E-033
 -5.499999999999999E-003   -2.226260430568943E-033
 -5.399999999999999E-003   -1.646049671320700E-033
 -5.299999999999999E-003   -6.676534160326216E-034
 -5.199999999999999E-003    7.409430463515401E-034
 -5.099999999999999E-003    2.574165395963987E-033
 -4.999999999999999E-003    4.776193934941006E-033
 -4.899999999999999E-003    7.229610891254858E-033
 -4.799999999999999E-003    9.747105057733966E-033
 -4.699999999999999E-003    1.206823820360407E-032
 -4.599999999999999E-003    1.386338648795023E-032
 -4.499999999999999E-003    1.474688274121802E-032
 -4.399999999999999E-003    1.430100486684960E-032
 -4.299999999999999E-003    1.211181398176996E-032
 -4.199999999999999E-003    7.816798749825323E-033
 -4.099999999999999E-003    1.162982351208943E-033
 -3.999999999999999E-003   -7.927543870508993E-033
 -3.899999999999999E-003   -1.928949115387295E-032
 -3.799999999999999E-003   -3.245042274459252E-032
 -3.699999999999999E-003   -4.657952160771736E-032
 -3.599999999999999E-003   -6.045899723277119E-032
 -3.499999999999999E-003   -7.248881064769967E-032
 -3.399999999999999E-003   -8.073518303881895E-032
 -3.299999999999999E-003   -8.303187935958132E-032
 -3.199999999999999E-003   -7.714035295350445E-032
 -3.099999999999999E-003   -6.097023816576827E-032
 -2.999999999999999E-003   -3.285552148398883E-032
 -2.899999999999999E-003    8.125830905685672E-033
 -2.799999999999999E-003    6.180996270187303E-032
 -2.699999999999999E-003    1.266129849613734E-031
 -2.599999999999999E-003    1.992436120766439E-031
 -2.499999999999999E-003    2.745085637132744E-031
 -2.399999999999999E-003    3.452613540038384E-031
 -2.299999999999999E-003    4.025450562368851E-031
 -2.199999999999999E-003    4.359746871806074E-031
 -2.099999999999999E-003    4.343927057258739E-031
 -1.999999999999999E-003    3.868123658316240E-031
 -1.899999999999999E-003    2.836368336663228E-031
 -1.799999999999999E-003    1.181090707335864E-031
 -1.699999999999999E-003   -1.120920799777651E-031
 -1.599999999999999E-003   -4.032338658010007E-031
 -1.499999999999999E-003   -7.440556638315296E-031
 -1.399999999999999E-003   -1.114638775564270E-030
 -1.299999999999999E-003   -1.485843163301457E-030
 -1.199999999999999E-003   -1.819541864299015E-030
 -1.099999999999999E-003   -2.069866098662639E-030
 -9.999999999999989E-004   -2.185633248539058E-030
 -8.999999999999990E-004   -2.114053739665702E-030
 -7.999999999999990E-004   -1.805707250229385E-030
 -6.999999999999989E-004   -1.220644476552846E-030
 -5.999999999999990E-004   -3.353075359495987E-031
 -4.999999999999989E-004    8.502099305874275E-031
 -3.999999999999989E-004    2.305214049956400E-030
 -2.999999999999989E-004    3.962585477431977E-030
 -1.999999999999989E-004    5.714999286308564E-030
 -9.999999999999892E-005    7.414166232513277E-030
  1.084202172485504E-018    8.874038170828594E-030
  1.000000000000011E-004    9.878775003682713E-030
  2.000000000000011E-004    1.019600980098817E-029
  3.000000000000011E-004    9.595549627544068E-030
  4.000000000000011E-004    7.873147307791171E-030
  5.000000000000011E-004    4.878333416995833E-030
  6.000000000000011E-004    5.446327699614069E-031
  7.000000000000011E-004   -5.080230837299136E-030
  8.000000000000011E-004   -1.180719618390853E-029
  9.000000000000012E-004   -1.928535655585340E-029
  1.000000000000001E-003   -2.699196337977751E-029
  1.100000000000001E-003   -3.423680480348768E-029
  1.200000000000001E-003   -4.018442240553493E-029
  1.300000000000001E-003   -4.389677111441475E-029
  1.400000000000001E-003   -4.439758545365572E-029
  1.500000000000001E-003   -4.075783505871550E-029
  1.600000000000001E-003   -3.219947886044437E-029
  1.700000000000001E-003   -1.821208336609081E-029
  1.800000000000001E-003    1.325827417112711E-030
  1.900000000000001E-003    2.603135109239296E-029
  2.000000000000001E-003    5.492064846934322E-029
  2.100000000000001E-003    8.634566683542041E-029
  2.200000000000001E-003    1.179789438073934E-028
  2.300000000000001E-003    1.468604577650575E-028
  2.400000000000001E-003    1.695179578413008E-028
  2.500000000000001E-003    1.821678838988406E-028
  2.600000000000001E-003    1.809979890989057E-028
  2.700000000000001E-003    1.625249471276016E-028
  2.800000000000001E-003    1.240115095060811E-028
  2.900000000000001E-003    6.391778795460662E-029
  3.000000000000001E-003   -1.764830076967189E-029
  3.100000000000001E-003   -1.185248328300348E-028
  3.200000000000001E-003   -2.341841049976904E-028
  3.300000000000001E-003   -3.575685411732587E-028
  3.400000000000001E-003   -4.791264427234296E-028
  3.500000000000001E-003   -5.870932539837744E-028
  3.600000000000001E-003   -6.680517114124570E-028
  3.700000000000001E-003   -7.077850490510248E-028
  3.800000000000001E-003   -6.924144453318242E-028
  3.900000000000001E-003   -6.097797112378334E-028
  4.000000000000001E-003   -4.509923229234237E-028
  4.100000000000001E-003   -2.120551219153834E-028
  4.200000000000001E-003    1.045890619047269E-028
  4.300000000000001E-003    4.887417825968349E-028
  4.400000000000001E-003    9.215456625515661E-028
  4.500000000000001E-003    1.375174478788801E-027
  4.600000000000002E-003    1.813285773300503E-027
  4.700000000000001E-003    2.192369636521501E-027
  4.800000000000001E-003    2.464077648570287E-027
  4.900000000000002E-003    2.578538699753958E-027
  5.000000000000001E-003    2.488582677740359E-027
  5.100000000000001E-003    2.154683966454077E-027
  5.200000000000001E-003    1.550332512597635E-027
  5.300000000000002E-003    6.674294895664753E-028
  5.400000000000001E-003   -4.787832350856947E-028
  5.500000000000001E-003   -1.845824055560138E-027
  5.600000000000002E-003   -3.361688971825432E-027
  5.700000000000001E-003   -4.924758630756621E-027
  5.800000000000001E-003   -6.406384981553971E-027
  5.900000000000002E-003   -7.656515655011101E-027
  6.000000000000001E-003   -8.512500490317750E-027
  6.100000000000001E-003   -8.810972532652617E-027
  6.200000000000002E-003   -8.402385581989277E-027
  6.300000000000002E-003   -7.167455607722107E-027
  6.400000000000001E-003   -5.034408149863390E-027
  6.500000000000001E-003   -1.995651971693997E-027
  6.600000000000002E-003    1.877775207912168E-027
  6.700000000000001E-003    6.425766402310898E-027
  6.800000000000001E-003    1.139449841963272E-026
  6.900000000000002E-003    1.643921767769782E-026
  7.000000000000001E-003    2.113575426021787E-026
  7.100000000000001E-003    2.500154404227783E-026
  7.200000000000002E-003    2.752621415888270E-026
  7.300000000000002E-003    2.821095350010710E-026
  7.400000000000001E-003    2.661492186504629E-026
  7.500000000000001E-003    2.240596278024152E-026
  7.600000000000002E-003    1.541193053624891E-026
  7.700000000000001E-003    5.668169767603232E-027
  7.800000000000001E-003   -6.543854519823790E-027
  7.900000000000001E-003   -2.067201921082150E-026
  8.000000000000002E-003   -3.588803899678835E-026
  8.100000000000001E-003   -5.110523356958201E-026
  8.200000000000001E-003   -6.502254724637311E-026
  8.300000000000002E-003   -7.619599440604539E-026
  8.400000000000001E-003   -8.313646442260233E-026
  8.500000000000002E-003   -8.443034639743738E-026
  8.600000000000002E-003   -7.887652726966377E-026
  8.700000000000001E-003   -6.563089865929559E-026
  8.800000000000002E-003   -4.434688907507461E-026
  8.900000000000002E-003   -1.529900196787089E-026
  9.000000000000001E-003    2.052479078210858E-026
  9.100000000000002E-003    6.137560899042574E-026
  9.200000000000002E-003    1.047536392059019E-025
  9.300000000000001E-003    1.474851111195617E-025
  9.400000000000002E-003    1.858716546942086E-025
  9.500000000000001E-003    2.159120453785012E-025
  9.600000000000001E-003    2.335897035831141E-025
  9.700000000000002E-003    2.352127573854379E-025
  9.800000000000001E-003    2.177859653941650E-025
  9.900000000000001E-003    1.793877641139390E-025
  1.000000000000000E-002    1.195206261435613E-025
  1.010000000000000E-002    3.939927006830632E-026
  1.020000000000000E-002   -5.785856869900354E-026
  1.030000000000000E-002   -1.671721535508808E-025
  1.040000000000000E-002   -2.815957537472913E-025
  1.050000000000000E-002   -3.925923640346597E-025
  1.060000000000000E-002   -4.904888531891664E-025
  1.070000000000000E-002   -5.651027817736262E-025
  1.080000000000000E-002   -6.065145246205299E-025
  1.090000000000000E-002   -6.059418888648367E-025
  1.100000000000000E-002   -5.566579222637740E-025
  1.110000000000000E-002   -4.548797715133214E-025
  1.120000000000000E-002   -3.005469232885819E-025
  1.130000000000000E-002   -9.790556744037359E-026
  1.140000000000000E-002    1.441819323791457E-025
  1.150000000000000E-002    4.122707212999472E-025
  1.160000000000000E-002    6.887593653181728E-025
  1.170000000000000E-002    9.527302270464548E-025
  1.180000000000000E-002    1.181193740402812E-024
  1.190000000000000E-002    1.350688394036654E-024
  1.200000000000000E-002    1.439151750663541E-024
  1.210000000000000E-002    1.427940676743764E-024
  1.220000000000000E-002    1.303848493824220E-024
  1.230000000000000E-002    1.060945411502714E-024
  1.240000000000000E-002    7.020622959382322E-025
  1.250000000000000E-002    2.397386683688883E-025
  1.260000000000000E-002   -3.035158344471487E-025
  1.270000000000000E-002   -8.957612848755737E-025
  1.280000000000000E-002   -1.497027877656173E-024
  1.290000000000000E-002   -2.061567718999470E-024
  1.300000000000000E-002   -2.540873077434835E-024
  1.310000000000000E-002   -2.887299000416231E-024
  1.320000000000000E-002   -3.058053646314294E-024
  1.330000000000000E-002   -3.019255651968580E-024
  1.340000000000000E-002   -2.749721420087704E-024
  1.350000000000000E-002   -2.244119597384514E-024
  1.360000000000000E-002   -1.515147950167584E-024
  1.370000000000000E-002   -5.944349511001861E-025
  1.380000000000000E-002    4.680555662600824E-025
  1.390000000000000E-002    1.606229138510976E-024
  1.400000000000000E-002    2.741651206808516E-024
  1.410000000000000E-002    3.788760604857130E-024
  1.420000000000000E-002    4.661189793405946E-024
  1.430000000000000E-002    5.278746754434912E-024
  1.440000000000000E-002    5.574499322448370E-024
  1.450000000000000E-002    5.501342121100177E-024
  1.460000000000000E-002    5.037402101399356E-024
  1.470000000000000E-002    4.189692637548510E-024
  1.480000000000000E-002    2.995519253376528E-024
  1.490000000000000E-002    1.521318303310602E-024
  1.500000000000000E-002   -1.411855384500064E-025
  1.510000000000000E-002   -1.881361711179666E-024
  1.520000000000000E-002   -3.578194126239347E-024
  1.530000000000000E-002   -5.110287076802537E-024
  1.540000000000000E-002   -6.366491771162992E-024
  1.550000000000000E-002   -7.256133694082766E-024
  1.560000000000000E-002   -7.717779877071923E-024
  1.570000000000000E-002   -7.725513764859531E-024
  1.580000000000000E-002   -7.291852043476620E-024
  1.590000000000000E-002   -6.466722356980003E-024
  1.600000000000000E-002   -5.332266398790163E-024
  1.610000000000000E-002   -3.993699195809026E-024
  1.620000000000000E-002   -2.566903299587768E-024
  1.630000000000000E-002   -1.163911632606553E-024
  1.640000000000000E-002    1.221928637730742E-025
  1.650000000000000E-002    1.231153416311551E-024
  1.660000000000000E-002    2.146282397754063E-024
  1.670000000000000E-002    2.900267775368329E-024
  1.680000000000000E-002    3.574550947069243E-024
  1.690000000000000E-002    4.291338444459207E-024
  1.700000000000000E-002    5.198037238161807E-024
  1.710000000000000E-002    6.444793791931653E-024
  1.720000000000000E-002    8.156762715432155E-024
  1.730000000000000E-002    1.040366481337152E-023
  1.740000000000000E-002    1.316998820097196E-023
  1.750000000000000E-002    1.632974292498805E-023
  1.760000000000000E-002    1.962989427964201E-023
  1.770000000000000E-002    2.268639962101892E-023
  1.780000000000000E-002    2.499606524906116E-023
  1.790000000000000E-002    2.596630682552821E-023
  1.800000000000000E-002    2.496326838824552E-023
  1.810000000000000E-002    2.137678470095111E-023
  1.820000000000000E-002    1.469854496042154E-023
  1.830000000000000E-002    4.607654042910385E-024
  1.840000000000000E-002   -8.944192905841946E-024
  1.850000000000000E-002   -2.565717148822204E-023
  1.860000000000000E-002   -4.482745567945447E-023
  1.870000000000000E-002   -6.532098625823838E-023