 -4.000000000000000E-002    0.000000000000000E+000
 -3.990000000000000E-002    0.000000000000000E+000
 -3.980000000000000E-002    0.000000000000000E+000
 -3.970000000000000E-002    0.000000000000000E+000
 -3.960000000000000E-002    0.000000000000000E+000
 -3.950000000000000E-002    0.000000000000000E+000
 -3.940000000000000E-002    0.000000000000000E+000
 -3.930000000000000E-002    0.000000000000000E+000
 -3.920000000000000E-002    0.000000000000000E+000
 -3.910000000000000E-002    0.000000000000000E+000
 -3.900000000000000E-002    0.000000000000000E+000
 -3.890000000000000E-002    0.000000000000000E+000
 -3.880000000000000E-002    0.000000000000000E+000
 -3.870000000000000E-002    0.000000000000000E+000
 -3.860000000000000E-002    0.000000000000000E+000
 -3.850000000000000E-002    0.000000000000000E+000
 -3.840000000000000E-002    0.000000000000000E+000
 -3.830000000000000E-002    0.000000000000000E+000
 -3.820000000000000E-002    0.000000000000000E+000
 -3.810000000000000E-002    0.000000000000000E+000
 -3.800000000000000E-002    0.000000000000000E+000
 -3.790000000000000E-002    0.000000000000000E+000
 -3.780000000000000E-002    0.000000000000000E+000
 -3.770000000000000E-002    0.000000000000000E+000
 -3.760000000000000E-002    0.000000000000000E+000
 -3.750000000000000E-002    0.000000000000000E+000
 -3.740000000000000E-002    0.000000000000000E+000
 -3.730000000000000E-002    0.000000000000000E+000
 -3.720000000000000E-002   -1.503421992796275E-047
 -3.710000000000000E-002   -3.312867388267522E-047
 -3.700000000000000E-002   -1.314591981691320E-046
 -3.690000000000000E-002   -3.252186218604776E-046
 -3.680000000000000E-002   -6.453306695198671E-046
 -3.670000000000000E-002   -1.465778011711009E-045
 -3.660000000000000E-002   -2.605660649987772E-045
 -3.650000000000000E-002    3.945530901607446E-046
 -3.640000000000000E-002    1.654996279555780E-044
 -3.630000000000000E-002    8.073469864509597E-044
 -3.620000000000000E-002    2.829436882763882E-043
 -3.610000000000000E-002    8.523463472547513E-043
 -3.600000000000000E-002    2.322422852943219E-042
 -3.590000000000000E-002    5.863928961696777E-042
 -3.580000000000000E-002    1.389157611285791E-041
 -3.570000000000000E-002    3.110315306400418E-041
 -3.560000000000000E-002    6.612523596148432E-041
 -3.550000000000000E-002    1.338359935416346E-040
 -3.540000000000000E-002    2.581568023984545E-040
 -3.530000000000000E-002    4.743549654404555E-040
 -3.520000000000000E-002    8.284429788452066E-040
 -3.510000000000000E-002    1.368683521402913E-039
 -3.500000000000000E-002    2.120101382882586E-039
 -3.490000000000000E-002    3.027092429407784E-039
 -3.480000000000000E-002    3.842117886117628E-039
 -3.470000000000000E-002    3.931558198865805E-039
 -3.460000000000000E-002    1.966756692972396E-039
 -3.450000000000000E-002   -4.524288371668246E-039
 -3.440000000000000E-002   -1.974076011733440E-038
 -3.430000000000000E-002   -5.026038772335621E-038
 -3.420000000000000E-002   -1.055728542760282E-037
 -3.410000000000000E-002   -1.981219626561621E-037
 -3.400000000000000E-002   -3.422166928873161E-037
 -3.390000000000000E-002   -5.508387399777188E-037
 -3.380000000000000E-002   -8.290273048130061E-037
 -3.370000000000000E-002   -1.162273922601930E-036
 -3.360000000000000E-002   -1.498403466849991E-036
 -3.350000000000000E-002   -1.722044008421399E-036
 -3.340000000000000E-002   -1.622369334098091E-036
 -3.330000000000000E-002   -8.577395851942377E-037
 -3.320000000000000E-002    1.074487445639012E-036
 -3.310000000000000E-002    4.848272167213070E-036
 -3.300000000000000E-002    1.127684415844771E-035
 -3.290000000000000E-002    2.120788730385266E-035
 -3.280000000000000E-002    3.530995717981550E-035
 -3.270000000000000E-002    5.371451729716470E-035
 -3.260000000000000E-002    7.548954961838176E-035
 -3.250000000000000E-002    9.794914005249283E-035
 -3.240000000000000E-002    1.158544789775992E-034
 -3.230000000000000E-002    1.206382611809492E-034
 -3.220000000000000E-002    9.988455745769593E-035
 -3.210000000000000E-002    3.740865538157363E-035
 -3.200000000000000E-002   -8.561702520529544E-035
 -3.190000000000000E-002   -2.879925381717252E-034
 -3.180000000000000E-002   -5.838280916184501E-034
 -3.170000000000000E-002   -9.756597654571206E-034
 -3.160000000000000E-002   -1.445560512058803E-033
 -3.150000000000000E-002   -1.945188382501508E-033
 -3.140000000000000E-002   -2.386703400795871E-033
 -3.130000000000000E-002   -2.637670727453008E-033
 -3.120000000000000E-002   -2.524228729308638E-033
 -3.110000000000000E-002   -1.847611954482015E-033
 -3.100000000000000E-002   -4.190706417623491E-034
 -3.090000000000000E-002    1.883285217599842E-033
 -3.080000000000000E-002    5.035814190797938E-033
 -3.070000000000000E-002    8.775213896317190E-033
 -3.060000000000000E-002    1.250437912655474E-032
 -3.050000000000000E-002    1.522511689893033E-032
 -3.040000000000000E-002    1.553692768662299E-032
 -3.030000000000000E-002    1.175171419263552E-032
 -3.020000000000000E-002    2.179170547111987E-033
 -3.010000000000000E-002   -1.436843833385246E-032
 -3.000000000000000E-002   -3.782648833735871E-032
 -2.990000000000000E-002   -6.590304957980035E-032
 -2.980000000000000E-002   -9.297078962926314E-032
 -2.970000000000000E-002   -1.090162383628032E-031
 -2.960000000000000E-002   -9.895464137318245E-032
 -2.950000000000000E-002   -4.274150824552249E-032
 -2.940000000000000E-002    8.318649397402966E-032
 -2.930000000000000E-002    3.025662731016063E-031
 -2.920000000000000E-002    6.335418636628703E-031
 -2.910000000000000E-002    1.080175365736177E-030
 -2.900000000000000E-002    1.621343223920529E-030
 -2.890000000000000E-002    2.197763504976882E-030
 -2.880000000000000E-002    2.698759356470272E-030
 -2.870000000000000E-002    2.951395734661344E-030
 -2.860000000000000E-002    2.715706763675230E-030
 -2.850000000000000E-002    1.690689714783971E-030
 -2.840000000000000E-002   -4.637143713959669E-031
 -2.830000000000000E-002   -4.083581883761719E-030
 -2.820000000000000E-002   -9.433070929328641E-030
 -2.810000000000000E-002   -1.661030890457282E-029
 -2.800000000000000E-002   -2.543001403042631E-029
 -2.790000000000000E-002   -3.529151122645903E-029
 -2.780000000000000E-002   -4.504787979151833E-029
 -2.770000000000000E-002   -5.289972574739269E-029
 -2.760000000000000E-002   -5.634455574243367E-029
 -2.750000000000000E-002   -5.221834408063591E-029
 -2.740000000000000E-002   -3.686799217706461E-029
 -2.730000000000000E-002   -6.490096841406124E-030
 -2.720000000000000E-002    4.233909315562067E-029
 -2.710000000000000E-002    1.119366698747328E-028
 -2.700000000000000E-002    2.026113298892789E-028
 -2.690000000000000E-002    3.116451279321632E-028
 -2.680000000000000E-002    4.322594033405864E-028
 -2.670000000000000E-002    5.527080622594449E-028
 -2.660000000000000E-002    6.556821902021896E-028
 -2.650000000000000E-002    7.182371622302204E-028
 -2.640000000000000E-002    7.124606055284295E-028
 -2.630000000000000E-002    6.070831160637490E-028
 -2.620000000000000E-002    3.701809518157187E-028
 -2.610000000000000E-002   -2.697032400092834E-029
 -2.600000000000000E-002   -6.049525911985976E-028
 -2.590000000000000E-002   -1.370393189916040E-027
 -2.580000000000000E-002   -2.309674062482241E-027
 -2.570000000000000E-002   -3.382736200904442E-027
 -2.560000000000000E-002   -4.517705395666697E-027
 -2.550000000000000E-002   -5.607202911112162E-027
 -2.540000000000000E-002   -6.507256403621360E-027
 -2.530000000000000E-002   -7.039736552962050E-027
 -2.520000000000000E-002   -6.999128920167146E-027
 -2.510000000000000E-002   -6.164289714618256E-027
 -2.500000000000000E-002   -4.315549409341600E-027
 -2.490000000000000E-002   -1.257196535156120E-027
 -2.480000000000000E-002    3.155039462692266E-027
 -2.470000000000000E-002    8.982329058813348E-027
 -2.460000000000000E-002    1.616821197880014E-026
 -2.450000000000000E-002    2.450306673987889E-026
 -2.440000000000000E-002    3.358998817243577E-026
 -2.430000000000000E-002    4.281520211965002E-026
 -2.420000000000000E-002    5.132682249252420E-026
 -2.410000000000000E-002    5.802669629909113E-026
 -2.400000000000000E-002    6.158087219873399E-026
 -2.390000000000000E-002    6.045518347353962E-026
 -2.380000000000000E-002    5.298292639180865E-026
 -2.370000000000000E-002    3.747190509950142E-026
 -2.360000000000000E-002    1.235718133397536E-026
 -2.350000000000000E-002   -2.359603035557088E-026
 -2.340000000000000E-002   -7.103880896254561E-026
 -2.330000000000000E-002   -1.297395408599902E-025
 -2.320000000000000E-002   -1.982532529902308E-025
 -2.310000000000000E-002   -2.735833061684915E-025
 -2.300000000000000E-002   -3.508718997390392E-025
 -2.290000000000000E-002   -4.231684775882407E-025
 -2.280000000000000E-002   -4.813375202531613E-025
 -2.270000000000000E-002   -5.141751019006669E-025
 -2.260000000000000E-002   -5.088072321841333E-025
 -2.250000000000000E-002   -4.514360795330383E-025
 -2.240000000000000E-002   -3.284831848544722E-025
 -2.230000000000000E-002   -1.281472594100411E-025
 -2.220000000000000E-002    1.576515562759803E-025
 -2.210000000000000E-002    5.310277571446749E-025
 -2.200000000000000E-002    9.857440326750025E-025
 -2.190000000000000E-002    1.504911767540168E-024
 -2.180000000000000E-002    2.059078834647259E-024
 -2.170000000000000E-002    2.605060348660557E-024
 -2.160000000000000E-002    3.085896034126538E-024
 -2.150000000000000E-002    3.432309169589586E-024
 -2.140000000000000E-002    3.565977741961871E-024
 -2.130000000000000E-002    3.404820336073538E-024
 -2.120000000000000E-002    2.870314498227591E-024
 -2.110000000000000E-002    1.896644031799159E-024
 -2.100000000000000E-002    4.411989392829832E-025
 -2.090000000000000E-002   -1.504328264791861E-024
 -2.080000000000000E-002   -3.903290954398746E-024
 -2.070000000000000E-002   -6.665119511846790E-024
 -2.060000000000000E-002   -9.639438543058823E-024
 -2.050000000000000E-002   -1.261465124907798E-023
 -2.040000000000000E-002   -1.532223820150630E-023
 -2.030000000000000E-002   -1.744768529827821E-023
 -2.020000000000000E-002   -1.864845170363723E-023
 -2.010000000000000E-002   -1.857876603923086E-023
 -2.000000000000000E-002   -1.692023139102116E-023
 -1.990000000000000E-002   -1.341648200848002E-023
 -1.980000000000000E-002   -7.909353349290584E-024
 -1.970000000000000E-002   -3.734200132162407E-025
 -1.960000000000000E-002    9.054593231134745E-024
 -1.950000000000000E-002    2.005507832858973E-023
 -1.940000000000000E-002    3.211674030538010E-023
 -1.930000000000000E-002    4.454223124925959E-023
 -1.920000000000000E-002    5.646968198795302E-023
 -1.910000000000000E-002    6.691031404474561E-023
 -1.900000000000000E-002    7.480069009826118E-023
 -1.890000000000000E-002    7.906684211346510E-023
 -1.880000000000000E-002    7.869625504089900E-023
 -1.870000000000000E-002    7.281271076180767E-023
 -1.860000000000000E-002    6.074882808932406E-023
 -1.850000000000000E-002    4.211130386903772E-023
 -1.840000000000000E-002    1.683489392292265E-023
 -1.830000000000000E-002   -1.477749557856169E-023
 -1.820000000000000E-002   -5.202938624793676E-023
 -1.810000000000000E-002   -9.381894752429341E-023
 -1.800000000000000E-002   -1.386385948700632E-022
 -1.790000000000000E-002   -1.845825275903244E-022
 -1.780000000000000E-002   -2.293593619723670E-022
 -1.770000000000000E-002   -2.703083488210358E-022
 -1.760000000000000E-002   -3.044200466378901E-022
 -1.750000000000000E-002   -3.283663914497860E-022
 -1.740000000000000E-002   -3.385491182418198E-022
 -1.730000000000000E-002   -3.311796202999261E-022
 -1.720000000000000E-002   -3.024065618360306E-022
 -1.710000000000000E-002   -2.485087202136776E-022
 -1.700000000000000E-002   -1.661687449292690E-022
 -1.690000000000000E-002   -5.283821292233590E-023
 -1.680000000000000E-002    9.280535172611738E-023
 -1.670000000000000E-002    2.703218717304928E-022
 -1.660000000000000E-002    4.769221510454106E-022
 -1.650000000000000E-002    7.068793417989318E-022
 -1.640000000000000E-002    9.510047339245084E-022
 -1.630000000000000E-002    1.196270338901112E-021
 -1.620000000000000E-002    1.425670007471289E-021
 -1.610000000000000E-002    1.618413601547679E-021
 -1.600000000000000E-002    1.750538021761043E-021
 -1.590000000000000E-002    1.795997965750460E-021
 -1.580000000000000E-002    1.728264810812687E-021
 -1.570000000000000E-002    1.522414366437921E-021
 -1.560000000000000E-002    1.157629051494363E-021
 -1.550000000000000E-002    6.199808618001072E-022
 -1.540000000000000E-002   -9.469925971821922E-023
 -1.530000000000000E-002   -9.781091217182404E-022
 -1.520000000000000E-002   -2.007199592571554E-021
 -1.510000000000000E-002   -3.142628986277230E-021
 -1.500000000000000E-002   -4.328226552575928E-021
 -1.490000000000000E-002   -5.491699779501251E-021
 -1.480000000000000E-002   -6.546752065539693E-021
 -1.470000000000000E-002   -7.396670793742589E-021
 -1.460000000000000E-002   -7.939329882740128E-021
 -1.450000000000000E-002   -8.073431117867998E-021
 -1.440000000000000E-002   -7.705672596849289E-021
 -1.430000000000000E-002   -6.758431906234659E-021
 -1.420000000000000E-002   -5.177481827871976E-021
 -1.410000000000000E-002   -2.939199794775113E-021
 -1.400000000000000E-002   -5.675844075478030E-023
 -1.390000000000000E-002    3.415169379028623E-021
 -1.380000000000000E-002    7.377560580897061E-021
 -1.370000000000000E-002    1.168629622140698E-020
 -1.360000000000000E-002    1.615361033711859E-020
 -1.350000000000000E-002    2.055172325894432E-020
 -1.340000000000000E-002    2.461851094076201E-020
 -1.330000000000000E-002    2.806501429160928E-020
 -1.320000000000000E-002    3.058460100713800E-020
 -1.310000000000000E-002    3.186361476724339E-020
 -1.300000000000000E-002    3.159347691727921E-020
 -1.290000000000000E-002    2.948434441371533E-020
 -1.280000000000000E-002    2.528053224865541E-020
 -1.270000000000000E-002    1.877802911056205E-020
 -1.260000000000000E-002    9.844414077346377E-021
 -1.250000000000000E-002   -1.558646979459030E-021
 -1.240000000000000E-002   -1.535045294025833E-020
 -1.230000000000000E-002   -3.130448964665261E-020
 -1.220000000000000E-002   -4.902112853557264E-020
 -1.210000000000000E-002   -6.790187897899386E-020
 -1.200000000000000E-002   -8.712822226351422E-020
 -1.190000000000000E-002   -1.056488414656048E-019
 -1.180000000000000E-002   -1.221797850703059E-019
 -1.170000000000000E-002   -1.352224768778335E-019
 -1.160000000000000E-002   -1.431043690917587E-019
 -1.150000000000000E-002   -1.440464326764953E-019
 -1.140000000000000E-002   -1.362601262371499E-019
 -1.130000000000000E-002   -1.180748519340544E-019
 -1.120000000000000E-002   -8.809340414666598E-020
 -1.110000000000000E-002   -4.537035907262282E-020
 -1.100000000000000E-002    1.039593531740847E-020
 -1.090000000000000E-002    7.867062361627743E-020
 -1.080000000000000E-002    1.579051867165779E-019
 -1.070000000000000E-002    2.453950292148461E-019
 -1.060000000000000E-002    3.371923439228690E-019
 -1.050000000000000E-002    4.280951186931041E-019
 -1.040000000000000E-002    5.117313436345022E-019
 -1.030000000000000E-002    5.807528878086023E-019
 -1.020000000000000E-002    6.271489176374727E-019
 -1.010000000000000E-002    6.426790827094489E-019
 -1.000000000000000E-002    6.194190138171435E-019
 -9.899999999999999E-003    5.503980432242517E-019
 -9.800000000000000E-003    4.303004671828906E-019
 -9.699999999999999E-003    2.561889432956955E-019
 -9.599999999999999E-003    2.820156538121732E-020
 -9.500000000000000E-003   -2.498335876372466E-019
 -9.399999999999999E-003   -5.699252217146278E-019
 -9.299999999999999E-003   -9.196465692158795E-019
 -9.200000000000000E-003   -1.282116700366296E-018
 -9.099999999999999E-003   -1.636281384692369E-018
 -8.999999999999999E-003   -1.957523948790119E-018
 -8.900000000000000E-003   -2.218620890193523E-018
 -8.799999999999999E-003   -2.391033343305759E-018
 -8.699999999999999E-003   -2.446509568496724E-018
 -8.600000000000000E-003   -2.358940670953627E-018
 -8.499999999999999E-003   -2.106398926385579E-018
 -8.399999999999999E-003   -1.673259673336445E-018
 -8.300000000000000E-003   -1.052292126012688E-018
 -8.199999999999999E-003   -2.465917175618920E-019
 -8.100000000000000E-003    7.287859146537069E-019
 -8.000000000000000E-003    1.845627910006315E-018
 -7.899999999999999E-003    3.061943765001269E-018
 -7.800000000000000E-003    4.322047201413420E-018
 -7.699999999999999E-003    5.557452330689174E-018
 -7.599999999999999E-003    6.688663120401587E-018
 -7.499999999999999E-003    7.627917762699350E-018
 -7.399999999999999E-003    8.282883648590554E-018
 -7.299999999999999E-003    8.561282722029582E-018
 -7.199999999999999E-003    8.376341571855310E-018
 -7.100000000000000E-003    7.652917580440011E-018
 -6.999999999999999E-003    6.334079286790590E-018
 -6.899999999999999E-003    4.387851883465398E-018
 -6.800000000000000E-003    1.813771664822869E-018
 -6.699999999999999E-003   -1.351170347320872E-018
 -6.599999999999999E-003   -5.027665275602455E-018
 -6.499999999999999E-003   -9.090816808008743E-018
 -6.399999999999999E-003   -1.336896004254245E-017
 -6.299999999999999E-003   -1.764510007495376E-017
 -6.199999999999999E-003   -2.166138459910723E-017
 -6.100000000000000E-003   -2.512695710640297E-017
 -5.999999999999999E-003   -2.772940334967286E-017
 -5.899999999999999E-003   -2.914977956984352E-017
 -5.800000000000000E-003   -2.908100207559123E-017
 -5.699999999999999E-003   -2.724910932709049E-017
 -5.599999999999999E-003   -2.343657599913973E-017
 -5.499999999999999E-003   -1.750662314698228E-017
 -5.399999999999999E-003   -9.427099652215680E-018
 -5.299999999999999E-003    7.076736988979062E-019
 -5.199999999999999E-003    1.265894588575981E-017
 -5.099999999999999E-003    2.603140591607899E-017
 -4.999999999999999E-003    4.026874122890577E-017
 -4.899999999999999E-003    5.465873453290582E-017
 -4.799999999999999E-003    6.834927429019346E-017
 -4.699999999999999E-003    8.037635096773145E-017
 -4.599999999999999E-003    8.970434909250868E-017
 -4.499999999999999E-003    9.527833946597853E-017
 -4.399999999999999E-003    9.608703560489660E-017
 -4.299999999999999E-003    9.123423163731285E-017
 -4.199999999999999E-003    8.001564118916540E-017
 -4.099999999999999E-003    6.199703231161021E-017
 -3.999999999999999E-003    3.708873760538046E-017
 -3.899999999999999E-003    5.611165354061007E-018
 -3.799999999999999E-003   -3.165444770667528E-017
 -3.699999999999999E-003   -7.343596206532103E-017
 -3.599999999999999E-003   -1.179661545230784E-016
 -3.499999999999999E-003   -1.630091689343711E-016
 -3.399999999999999E-003   -2.059209323668774E-016
 -3.299999999999999E-003   -2.437450026344613E-016
 -3.199999999999999E-003   -2.733439495544781E-016
 -3.099999999999999E-003   -2.915632116754322E-016
 -2.999999999999999E-003   -2.954224545938289E-016
 -2.899999999999999E-003   -2.823267899315275E-016
 -2.799999999999999E-003   -2.502876161169181E-016
 -2.699999999999999E-003   -1.981410497314911E-016
 -2.599999999999999E-003   -1.257497415253663E-016
 -2.499999999999999E-003   -3.417328297481459E-017
 -2.399999999999999E-003    7.420811291854554E-017
 -2.299999999999999E-003    1.956311335416940E-016
 -2.199999999999999E-003    3.249611585875706E-016
 -2.099999999999999E-003    4.557889323044404E-016
 -1.999999999999999E-003    5.806180789482070E-016
 -1.899999999999999E-003    6.911464898482646E-016
 -1.799999999999999E-003    7.786375023183285E-016
 -1.699999999999999E-003    8.343730120785232E-016
 -1.599999999999999E-003    8.501723801105963E-016
 -1.499999999999999E-003    8.189568332467759E-016
 -1.399999999999999E-003    7.353320498265208E-016
 -1.299999999999999E-003    5.961577345531987E-016
 -1.199999999999999E-003    4.010688946222267E-016
 -1.099999999999999E-003    1.529110134023836E-016
 -9.999999999999989E-004   -1.419484186618355E-016
 -8.999999999999990E-004   -4.734684154064037E-016
 -7.999999999999990E-004   -8.279739320042199E-016
 -6.999999999999989E-004   -1.188414228910331E-015
 -5.999999999999990E-004   -1.534854156895669E-015
 -4.999999999999989E-004   -1.845204992608616E-015
 -3.999999999999989E-004   -2.096190128846721E-015
 -2.999999999999989E-004   -2.264518732161608E-015
 -1.999999999999989E-004   -2.328235445468046E-015
 -9.999999999999892E-005   -2.268190240447833E-015
  1.084202172485504E-018   -2.069561564425834E-015
  1.000000000000011E-004   -1.723352678236947E-015
  2.000000000000011E-004   -1.227769847438577E-015
  3.000000000000011E-004   -5.893829547371287E-016
  4.000000000000011E-004    1.760297545574792E-016
  5.000000000000011E-004    1.043051629143512E-015
  6.000000000000011E-004    1.976695733379854E-015
  7.000000000000011E-004    2.933047541176779E-015
  8.000000000000011E-004    3.860519808110274E-015
  9.000000000000012E-004    4.701744753208316E-015
  1.000000000000001E-003    5.396084726228513E-015
  1.100000000000001E-003    5.882693959929222E-015
  1.200000000000001E-003    6.104042791276083E-015
  1.300000000000001E-003    6.009751173388049E-015
  1.400000000000001E-003    5.560552541231864E-015
  1.500000000000001E-003    4.732170041140276E-015
  1.600000000000001E-003    3.518855953742850E-015
  1.700000000000001E-003    1.936337006226323E-015
  1.800000000000001E-003    2.390301184759222E-017
  1.900000000000001E-003   -2.154608718175941E-015
  2.000000000000001E-003   -4.511146690537905E-015
  2.100000000000001E-003   -6.935258790678876E-015
  2.200000000000001E-003   -9.297484796466524E-015
  2.300000000000001E-003   -1.145433783908534E-014
  2.400000000000001E-003   -1.325479055528180E-014
  2.500000000000001E-003   -1.454809358718150E-014
  2.600000000000001E-003   -1.519260617552657E-014
  2.700000000000001E-003   -1.506527472407225E-014
  2.800000000000001E-003   -1.407125972263881E-014
  2.900000000000001E-003   -1.215316009891046E-014
  3.000000000000001E-003   -9.299224681655571E-015
  3.100000000000001E-003   -5.549948225567969E-015
  3.200000000000001E-003   -1.002427103375288E-015
  3.300000000000001E-003    4.188033779500227E-015
  3.400000000000001E-003    9.809539842672628E-015
  3.500000000000001E-003    1.559871713677066E-014
  3.600000000000001E-003    2.124947618060988E-014
  3.700000000000001E-003    2.642533666420894E-014
  3.800000000000001E-003    3.077503223273125E-014
  3.900000000000001E-003    3.395087550188191E-014
  4.000000000000001E-003    3.562911887152591E-014
  4.100000000000001E-003    3.553139815591486E-014
  4.200000000000001E-003    3.344610229605274E-014
  4.300000000000001E-003    2.924844301296358E-014
  4.400000000000001E-003    2.291789862781369E-014
  4.500000000000001E-003    1.455172482840387E-014
  4.600000000000002E-003    4.373317421024401E-015
  4.700000000000001E-003   -7.265671853515169E-015
  4.800000000000001E-003   -1.989027423470208E-014
  4.900000000000002E-003   -3.291472710576466E-014
  5.000000000000001E-003   -4.566268823239214E-014
  5.100000000000001E-003   -5.739490919031189E-014
  5.200000000000001E-003   -6.734360223004987E-014
  5.300000000000002E-003   -7.475225601218512E-014
  5.400000000000001E-003   -7.891931546255626E-014
  5.500000000000001E-003   -7.924365091383006E-014
  5.600000000000002E-003   -7.526946048521919E-014
  5.700000000000001E-003   -6.672800240870474E-014
  5.800000000000001E-003   -5.357343176257899E-014
  5.900000000000002E-003   -3.601014828411831E-014
  6.000000000000001E-003   -1.450916207973129E-014
  6.100000000000001E-003    1.018868982718518E-014
  6.200000000000002E-003    3.708422491555811E-014
  6.300000000000002E-003    6.494708951852286E-014
  6.400000000000001E-003    9.235874315044853E-014
  6.500000000000001E-003    1.177706590706396E-013
  6.600000000000002E-003    1.395760980590997E-013
  6.700000000000001E-003    1.561927875126503E-013
  6.800000000000001E-003    1.661532070719577E-013
  6.900000000000002E-003    1.681981521793592E-013
  7.000000000000001E-003    1.613686380650404E-013
  7.100000000000001E-003    1.450909941130403E-013
  7.200000000000002E-003    1.192493802100389E-013
  7.300000000000002E-003    8.424054313811057E-014
  7.400000000000001E-003    4.100572969870430E-014
  7.500000000000001E-003   -8.964474675336131E-015
  7.600000000000002E-003   -6.365530317767937E-014
  7.700000000000001E-003   -1.205849623326952E-013
  7.800000000000001E-003   -1.768937156772660E-013
  7.900000000000001E-003   -2.294632284921260E-013
  8.000000000000002E-003   -2.750624744864994E-013
  8.100000000000001E-003   -3.105150573378731E-013
  8.200000000000001E-003   -3.328800573491359E-013
  8.300000000000002E-003   -3.396381494835503E-013
  8.400000000000001E-003   -3.288726701885490E-013
  8.500000000000002E-003   -2.994349555532068E-013
  8.600000000000002E-003   -2.510831518286221E-013
  8.700000000000001E-003   -1.845838742596855E-013
  8.800000000000002E-003   -1.017675916063440E-013
  8.900000000000002E-003   -5.529751490450732E-015
  9.000000000000001E-003    1.002270351359540E-013
  9.100000000000002E-003    2.107126352788337E-013
  9.200000000000002E-003    3.204298499629450E-013
  9.300000000000001E-003    4.234105291048091E-013
  9.400000000000002E-003    5.135000146342528E-013
  9.500000000000001E-003    5.846775284950607E-013
  9.600000000000001E-003    6.313986516098424E-013
  9.700000000000002E-003    6.489416382627874E-013
  9.800000000000001E-003    6.337388763850170E-013
  9.900000000000001E-003    5.836738148505097E-013
  1.000000000000000E-002    4.983236182787033E-013
  1.010000000000000E-002    3.791291002880607E-013
  1.020000000000000E-002    2.294767698210428E-013
  1.030000000000000E-002    5.468060550681177E-014
  1.040000000000000E-002   -1.381434470880608E-013
  1.050000000000000E-002   -3.403119218042902E-013
  1.060000000000000E-002   -5.419134331654919E-013
  1.070000000000000E-002   -7.322430690342039E-013
  1.080000000000000E-002   -9.003146836614528E-013
  1.090000000000000E-002   -1.035429674513928E-012
  1.100000000000000E-002   -1.127775254395143E-012
  1.110000000000000E-002   -1.169020833005368E-012
  1.120000000000000E-002   -1.152881486770872E-012
  1.130000000000000E-002   -1.075613626437204E-012
  1.140000000000000E-002   -9.364119320405195E-013
  1.150000000000000E-002   -7.376781581801945E-013
  1.160000000000000E-002   -4.851377237192960E-013
  1.170000000000000E-002   -1.877868670116745E-013
  1.180000000000000E-002    1.423391618003991E-013
  1.190000000000000E-002    4.905777525174522E-013
  1.200000000000000E-002    8.402204864198424E-013
  1.210000000000000E-002    1.173246395175678E-012
  1.220000000000000E-002    1.471178147809800E-012
  1.230000000000000E-002    1.716023416960171E-012
  1.240000000000000E-002    1.891258140232606E-012
  1.250000000000000E-002    1.982801248963428E-012
  1.260000000000000E-002    1.979928447780377E-012
  1.270000000000000E-002    1.876072290460437E-012
  1.280000000000000E-002    1.669458000006383E-012
  1.290000000000000E-002    1.363528865218227E-012
  1.300000000000000E-002    9.671249485444088E-013
  1.310000000000000E-002    4.943875986226729E-013
  1.320000000000000E-002   -3.562344821131884E-014
  1.330000000000000E-002   -5.995995364444237E-013
  1.340000000000000E-002   -1.170922840089542E-012
  1.350000000000000E-002   -1.720846284003040E-012
  1.360000000000000E-002   -2.219864848823538E-012
  1.370000000000000E-002   -2.639218097598476E-012
  1.380000000000000E-002   -2.952451841999564E-012
  1.390000000000000E-002   -3.136959626597705E-012
  1.400000000000000E-002   -3.175419527621482E-012
  1.410000000000000E-002   -3.057039455897722E-012
  1.420000000000000E-002   -2.778532622541911E-012
  1.430000000000000E-002   -2.344752412232068E-012
  1.440000000000000E-002   -1.768927454561895E-012
  1.450000000000000E-002   -1.072460747044286E-012
  1.460000000000000E-002   -2.842736473796512E-013
  1.470000000000000E-002    5.603000725310152E-013
  1.480000000000000E-002    1.421034270598621E-012
  1.490000000000000E-002    2.254689690005652E-012
  1.500000000000000E-002    3.017168953007663E-012
  1.510000000000000E-002    3.665848951923832E-012
  1.520000000000000E-002    4.161965689588393E-012
  1.530000000000000E-002    4.472923321315734E-012
  1.540000000000000E-002    4.574395370400083E-012
  1.550000000000000E-002    4.452082599553554E-012
  1.560000000000000E-002    4.103009655658806E-012
  1.570000000000000E-002    3.536258952920249E-012
  1.580000000000000E-002    2.773064065457794E-012
  1.590000000000000E-002    1.846221282308518E-012
  1.600000000000000E-002    7.988108566111542E-013
  1.610000000000000E-002   -3.177369081202609E-013
  1.620000000000000E-002   -1.446162610717855E-012
  1.630000000000000E-002   -2.526368664235408E-012
  1.640000000000000E-002   -3.498737586547589E-012
  1.650000000000000E-002   -4.307603861012804E-012
  1.660000000000000E-002   -4.904676956944378E-012
  1.670000000000000E-002   -5.252226782404276E-012
  1.680000000000000E-002   -5.325811019429191E-012
  1.690000000000000E-002   -5.116369670702221E-012
  1.700000000000000E-002   -4.631514533557286E-012
  1.710000000000000E-002   -3.895891613603923E-012
  1.720000000000000E-002   -2.950528346509546E-012
  1.730000000000000E-002   -1.851147153095398E-012
  1.740000000000000E-002   -6.654686211232068E-013
  1.750000000000000E-002    5.303961846765281E-013
  1.760000000000000E-002    1.656317140011693E-012
  1.770000000000000E-002    2.633070356621117E-012
  1.780000000000000E-002    3.387560381061478E-012
  1.790000000000000E-002    3.858055781268769E-012
  1.800000000000000E-002    3.999118237643779E-012
  1.810000000000000E-002    3.785913559390368E-012
  1.820000000000000E-002    3.217589460034691E-012
  1.830000000000000E-002    2.319444154584636E-012
  1.840000000000000E-002    1.143653555664068E-012
  1.850000000000000E-002   -2.316152421777018E-013
  1.860000000000000E-002   -1.704804426350497E-012
  1.870000000000000E-002   -3.155280334092641E-012