 -4.000000000000000E-002    0.000000000000000E+000
 -3.990000000000000E-002    0.000000000000000E+000
 -3.980000000000000E-002    0.000000000000000E+000
 -3.970000000000000E-002    0.000000000000000E+000
 -3.960000000000000E-002   -3.295287868662765E-019
 -3.950000000000000E-002   -5.465608350111552E-018
 -3.940000000000000E-002   -3.600259839308825E-017
 -3.930000000000000E-002   -1.509806435076274E-016
 -3.920000000000000E-002   -4.757462516168370E-016
 -3.910000000000000E-002   -1.220457316592796E-015
 -3.900000000000000E-002   -2.664506439759168E-015
 -3.890000000000000E-002   -5.076648729495635E-015
 -3.880000000000000E-002   -8.543411696594552E-015
 -3.870000000000000E-002   -1.269203084548960E-014
 -3.860000000000000E-002   -1.631925764452582E-014
 -3.850000000000000E-002   -1.697165145622849E-014
 -3.840000000000000E-002   -1.056134256487716E-014
 -3.830000000000000E-002    8.863631228036914E-015
 -3.820000000000000E-002    4.905267453994880E-014
 -3.810000000000000E-002    1.190463182221695E-013
 -3.800000000000000E-002    2.281142499162287E-013
 -3.790000000000000E-002    3.840826415013052E-013
 -3.780000000000000E-002    5.910867390690609E-013
 -3.770000000000000E-002    8.469044504241604E-013
 -3.760000000000000E-002    1.140155152722172E-012
 -3.750000000000000E-002    1.447771516699325E-012
 -3.740000000000000E-002    1.733247779667700E-012
 -3.730000000000000E-002    1.946205579442066E-012
 -3.720000000000000E-002    2.023791307831051E-012
 -3.710000000000000E-002    1.894291902040362E-012
 -3.700000000000000E-002    1.483147946268470E-012
 -3.690000000000000E-002    7.212446879930135E-013
 -3.680000000000000E-002   -4.449975727150420E-013
 -3.670000000000000E-002   -2.042574738192909E-012
 -3.660000000000000E-002   -4.061090466078000E-012
 -3.650000000000000E-002   -6.443637710945136E-012
 -3.640000000000000E-002   -9.080934335414428E-012
 -3.630000000000000E-002   -1.181020910770121E-011
 -3.620000000000000E-002   -1.442003660636040E-011
 -3.610000000000000E-002   -1.666180995909179E-011
 -3.600000000000000E-002   -1.826783131476346E-011
 -3.590000000000000E-002   -1.897514363873408E-011
 -3.580000000000000E-002   -1.855336382843851E-011
 -3.570000000000000E-002   -1.683388186968749E-011
 -3.560000000000000E-002   -1.373720141415355E-011
 -3.550000000000000E-002   -9.294806093334929E-012
 -3.540000000000000E-002   -3.661975614539378E-012
 -3.530000000000000E-002    2.881491344525687E-012
 -3.520000000000000E-002    9.944764472124560E-012
 -3.510000000000000E-002    1.705433172870220E-011
 -3.500000000000000E-002    2.369625033092316E-011
 -3.490000000000000E-002    2.936937375609520E-011
 -3.480000000000000E-002    3.364493580246230E-011
 -3.470000000000000E-002    3.622624614985910E-011
 -3.460000000000000E-002    3.700138363670881E-011
 -3.450000000000000E-002    3.608142029294454E-011
 -3.440000000000000E-002    3.381728322668067E-011
 -3.430000000000000E-002    3.078988692538467E-011
 -3.420000000000000E-002    2.777039668621760E-011
 -3.410000000000000E-002    2.565055407786671E-011
 -3.400000000000000E-002    2.534639726337587E-011
 -3.390000000000000E-002    2.768216782032614E-011
 -3.380000000000000E-002    3.326442239335348E-011
 -3.370000000000000E-002    4.235895026924954E-011
 -3.360000000000000E-002    5.478420355453142E-011
 -3.350000000000000E-002    6.983546255568930E-011
 -3.340000000000000E-002    8.625223221893856E-011
 -3.330000000000000E-002    1.022383039912580E-010
 -3.320000000000000E-002    1.155401192540851E-010
 -3.310000000000000E-002    1.235832627092153E-010
 -3.300000000000000E-002    1.236613706933710E-010
 -3.290000000000000E-002    1.131658865217753E-010
 -3.280000000000000E-002    8.983999208257745E-011
 -3.270000000000000E-002    5.203572047078194E-011
 -3.260000000000000E-002   -1.048137247989797E-012
 -3.250000000000000E-002   -6.917068288536915E-011
 -3.240000000000000E-002   -1.509170819978305E-010
 -3.230000000000000E-002   -2.436461617677453E-010
 -3.220000000000000E-002   -3.435288536305576E-010
 -3.210000000000000E-002   -4.456793629426784E-010
 -3.200000000000000E-002   -5.443746399279932E-010
 -3.190000000000000E-002   -6.333482195667570E-010
 -3.180000000000000E-002   -7.061394073657967E-010
 -3.170000000000000E-002   -7.564710052934830E-010
 -3.160000000000000E-002   -7.786284094996636E-010
 -3.150000000000000E-002   -7.678112481503883E-010
 -3.140000000000000E-002   -7.204314566712443E-010
 -3.130000000000000E-002   -6.343379815048572E-010
 -3.120000000000000E-002   -5.089541281183161E-010
 -3.110000000000000E-002   -3.453239408363837E-010
 -3.100000000000000E-002   -1.460715979266144E-010
 -3.090000000000000E-002    8.471237063950078E-011
 -3.080000000000000E-002    3.416394035085033E-010
 -3.070000000000000E-002    6.182191740163849E-010
 -3.060000000000000E-002    9.070613396600562E-010
 -3.050000000000000E-002    1.200056660182048E-009
 -3.040000000000000E-002    1.488522083507367E-009
 -3.030000000000000E-002    1.763299733484711E-009
 -3.020000000000000E-002    2.014811003121473E-009
 -3.010000000000000E-002    2.233078575499532E-009
 -3.000000000000000E-002    2.407738964628274E-009
 -2.990000000000000E-002    2.528077842268459E-009
 -2.980000000000000E-002    2.583124461931509E-009
 -2.970000000000000E-002    2.561843492050765E-009
 -2.960000000000000E-002    2.453456679364827E-009
 -2.950000000000000E-002    2.247920261536855E-009
 -2.940000000000000E-002    1.936565310848344E-009
 -2.930000000000000E-002    1.512893556953792E-009
 -2.920000000000000E-002    9.734984904311936E-010
 -2.910000000000000E-002    3.190595238810618E-010
 -2.900000000000000E-002   -4.446613730466128E-010
 -2.890000000000000E-002   -1.305907064864039E-009
 -2.880000000000000E-002   -2.246198030246617E-009
 -2.870000000000000E-002   -3.239884237673220E-009
 -2.860000000000000E-002   -4.254076705605471E-009
 -2.850000000000000E-002   -5.249032578760880E-009
 -2.840000000000000E-002   -6.179048923449832E-009
 -2.830000000000000E-002   -6.993887066122823E-009
 -2.820000000000000E-002   -7.640712337202645E-009
 -2.810000000000000E-002   -8.066492614947834E-009
 -2.800000000000000E-002   -8.220759861832456E-009
 -2.790000000000000E-002   -8.058603726718733E-009
 -2.780000000000000E-002   -7.543733257907221E-009
 -2.770000000000000E-002   -6.651430054675014E-009
 -2.760000000000000E-002   -5.371202181856099E-009
 -2.750000000000000E-002   -3.708957700762162E-009
 -2.740000000000000E-002   -1.688536187135026E-009
 -2.730000000000000E-002    6.475313801626785E-010
 -2.720000000000000E-002    3.238125783286917E-009
 -2.710000000000000E-002    6.004542210056901E-009
 -2.700000000000000E-002    8.852379864654224E-009
 -2.690000000000000E-002    1.167425568381346E-008
 -2.680000000000000E-002    1.435323296777529E-008
 -2.670000000000000E-002    1.676681451234590E-008
 -2.660000000000000E-002    1.879133484534803E-008
 -2.650000000000000E-002    2.030656870499423E-008
 -2.640000000000000E-002    2.120038354063345E-008
 -2.630000000000000E-002    2.137327055732228E-008
 -2.620000000000000E-002    2.074265094876229E-008
 -2.610000000000000E-002    1.924685851822426E-008
 -2.600000000000000E-002    1.684877152333523E-008
 -2.590000000000000E-002    1.353908416916150E-008
 -2.580000000000000E-002    9.339292132072536E-009
 -2.570000000000000E-002    4.304438130312089E-009
 -2.560000000000000E-002   -1.474269424892735E-009
 -2.550000000000000E-002   -7.866915941365499E-009
 -2.540000000000000E-002   -1.470228188363008E-008
 -2.530000000000000E-002   -2.176524540599224E-008
 -2.520000000000000E-002   -2.879413968087888E-008
 -2.510000000000000E-002   -3.547809322161432E-008
 -2.500000000000000E-002   -4.145463709800656E-008
 -2.490000000000000E-002   -4.630760959733381E-008
 -2.480000000000000E-002   -4.956568135935331E-008
 -2.470000000000000E-002   -5.070172167485945E-008
 -2.460000000000000E-002   -4.913333237044517E-008
 -2.450000000000000E-002   -4.422472708219317E-008
 -2.440000000000000E-002   -3.529026007350773E-008
 -2.430000000000000E-002   -2.159966638905566E-008
 -2.420000000000000E-002   -2.385143582751721E-009
 -2.410000000000000E-002    2.314974975536765E-008
 -2.400000000000000E-002    5.581966051363206E-008
 -2.390000000000000E-002    9.644557651864255E-008
 -2.380000000000000E-002    1.458421487593337E-007
 -2.370000000000000E-002    2.048043637929031E-007
 -2.360000000000000E-002    2.740943787037404E-007
 -2.350000000000000E-002    3.544289926971878E-007
 -2.340000000000000E-002    4.464681202600760E-007
 -2.330000000000000E-002    5.508055867338598E-007
 -2.320000000000000E-002    6.679620185906075E-007
 -2.310000000000000E-002    7.983801939653626E-007
 -2.300000000000000E-002    9.424237662390110E-007
 -2.290000000000000E-002    1.100379740377306E-006
 -2.280000000000000E-002    1.272463244436928E-006
 -2.270000000000000E-002    1.458826716519190E-006
 -2.260000000000000E-002    1.659571275921798E-006
 -2.250000000000000E-002    1.874761597187029E-006
 -2.240000000000000E-002    2.104442780858381E-006
 -2.230000000000000E-002    2.348658480150207E-006
 -2.220000000000000E-002    2.607471718413863E-006
 -2.210000000000000E-002    2.880984912948874E-006
 -2.200000000000000E-002    3.169361001982872E-006
 -2.190000000000000E-002    3.472843069078223E-006
 -2.180000000000000E-002    3.791773845924794E-006
 -2.170000000000000E-002    4.126612640871279E-006
 -2.160000000000000E-002    4.477949770908931E-006
 -2.150000000000000E-002    4.846521017322496E-006
 -2.140000000000000E-002    5.233215037954591E-006
 -2.130000000000000E-002    5.639081800401505E-006
 -2.120000000000000E-002    6.065335752961276E-006
 -2.110000000000000E-002    6.513356478174081E-006
 -2.100000000000000E-002    6.984687342058815E-006
 -2.090000000000000E-002    7.481029463879191E-006
 -2.080000000000000E-002    8.004236867613919E-006
 -2.070000000000000E-002    8.556307210620586E-006
 -2.060000000000000E-002    9.139373344088411E-006
 -2.050000000000000E-002    9.755693442311835E-006
 -2.040000000000000E-002    1.040764220029078E-005
 -2.030000000000000E-002    1.109770355313716E-005
 -2.020000000000000E-002    1.182846219982660E-005
 -2.010000000000000E-002    1.260259979251441E-005
 -2.000000000000000E-002    1.342289200391291E-005
 -1.990000000000000E-002    1.429220717626573E-005
 -1.980000000000000E-002    1.521350900111873E-005
 -1.970000000000000E-002    1.618985824850686E-005
 -1.960000000000000E-002    1.722442274887914E-005
 -1.950000000000000E-002    1.832047699995573E-005
 -1.940000000000000E-002    1.948141680284426E-005
 -1.930000000000000E-002    2.071076124673408E-005
 -1.920000000000000E-002    2.201216810824857E-005
 -1.910000000000000E-002    2.338943682229014E-005
 -1.900000000000000E-002    2.484651590700748E-005
 -1.890000000000000E-002    2.638751429482149E-005
 -1.880000000000000E-002    2.801670701806494E-005
 -1.870000000000000E-002    2.973854690742762E-005
 -1.860000000000000E-002    3.155766287803271E-005
 -1.850000000000000E-002    3.347888916528245E-005
 -1.840000000000000E-002    3.550726004035580E-005
 -1.830000000000000E-002    3.764804105802337E-005
 -1.820000000000000E-002    3.990673252475702E-005
 -1.810000000000000E-002    4.228909834422591E-005
 -1.800000000000000E-002    4.480119456608958E-005
 -1.790000000000000E-002    4.744938785935406E-005
 -1.780000000000000E-002    5.024039334110541E-005
 -1.770000000000000E-002    5.318129790445466E-005
 -1.760000000000000E-002    5.627958668751139E-005
 -1.750000000000000E-002    5.954317980749829E-005
 -1.740000000000000E-002    6.298045988297791E-005
 -1.730000000000000E-002    6.660027849171183E-005
 -1.720000000000000E-002    7.041198613620090E-005
 -1.710000000000000E-002    7.442544981272717E-005
 -1.700000000000000E-002    7.865103859977143E-005
 -1.690000000000000E-002    8.309964359826019E-005
 -1.680000000000000E-002    8.778266006599441E-005
 -1.670000000000000E-002    9.271198931041862E-005
 -1.660000000000000E-002    9.790002375665021E-005
 -1.650000000000000E-002    1.033596381569811E-004
 -1.640000000000000E-002    1.091041690403956E-004
 -1.630000000000000E-002    1.151474086928908E-004
 -1.620000000000000E-002    1.215036216290223E-004
 -1.610000000000000E-002    1.281875205070962E-004
 -1.600000000000000E-002    1.352142873288696E-004
 -1.590000000000000E-002    1.425995965993180E-004
 -1.580000000000000E-002    1.503596194543780E-004
 -1.570000000000000E-002    1.585110831941092E-004
 -1.560000000000000E-002    1.670712927935756E-004
 -1.550000000000000E-002    1.760582124993900E-004
 -1.540000000000000E-002    1.854904424915140E-004
 -1.530000000000000E-002    1.953873524331963E-004
 -1.520000000000000E-002    2.057691141322932E-004
 -1.510000000000000E-002    2.166567275320779E-004
 -1.500000000000000E-002    2.280720993993892E-004
 -1.490000000000000E-002    2.400380948599052E-004
 -1.480000000000000E-002    2.525785524945373E-004
 -1.470000000000000E-002    2.657183884115293E-004
 -1.460000000000000E-002    2.794835491983963E-004
 -1.450000000000000E-002    2.939010907321312E-004
 -1.440000000000000E-002    3.089991736716294E-004
 -1.430000000000000E-002    3.248071015506386E-004
 -1.420000000000000E-002    3.413552963690958E-004
 -1.410000000000000E-002    3.586753784364263E-004
 -1.400000000000000E-002    3.768000488830996E-004
 -1.390000000000000E-002    3.957632202633670E-004
 -1.380000000000000E-002    4.155999479269101E-004
 -1.370000000000000E-002    4.363464549391164E-004
 -1.360000000000000E-002    4.580401505767670E-004
 -1.350000000000000E-002    4.807196381575449E-004
 -1.340000000000000E-002    5.044246988060988E-004
 -1.330000000000000E-002    5.291963753807305E-004
 -1.320000000000000E-002    5.550769187591095E-004
 -1.310000000000000E-002    5.821098848573160E-004
 -1.300000000000000E-002    6.103400847466685E-004
 -1.290000000000000E-002    6.398137201800448E-004
 -1.280000000000000E-002    6.705783245929267E-004
 -1.270000000000000E-002    7.026827718997422E-004
 -1.260000000000000E-002    7.361775678535307E-004
 -1.250000000000000E-002    7.711145410537679E-004
 -1.240000000000000E-002    8.075471171755988E-004
 -1.230000000000000E-002    8.455303195421672E-004
 -1.220000000000000E-002    8.851207508953425E-004
 -1.210000000000000E-002    9.263767079137602E-004
 -1.200000000000000E-002    9.693582253431688E-004
 -1.190000000000000E-002    1.014127064683553E-003
 -1.180000000000000E-002    1.060746755830570E-003
 -1.170000000000000E-002    1.109282746829779E-003
 -1.160000000000000E-002    1.159802365710429E-003
 -1.150000000000000E-002    1.212374786509976E-003
 -1.140000000000000E-002    1.267071201927093E-003
 -1.130000000000000E-002    1.323964754675326E-003
 -1.120000000000000E-002    1.383130691080842E-003
 -1.110000000000000E-002    1.444646119955881E-003
 -1.100000000000000E-002    1.508590358898427E-003
 -1.090000000000000E-002    1.575044566489089E-003
 -1.080000000000000E-002    1.644092118954202E-003
 -1.070000000000000E-002    1.715818462302864E-003
 -1.060000000000000E-002    1.790310933129072E-003
 -1.050000000000000E-002    1.867658967860556E-003
 -1.040000000000000E-002    1.947953981451543E-003
 -1.030000000000000E-002    2.031289271316407E-003
 -1.020000000000000E-002    2.117760187481345E-003
 -1.010000000000000E-002    2.207463817938902E-003
 -1.000000000000000E-002    2.300499321463515E-003
 -9.899999999999999E-003    2.396967360385853E-003
 -9.800000000000000E-003    2.496970770656868E-003
 -9.699999999999999E-003    2.600614180086733E-003
 -9.599999999999999E-003    2.708003702612218E-003
 -9.500000000000000E-003    2.819247344133290E-003
 -9.399999999999999E-003    2.934455297987828E-003
 -9.299999999999999E-003    3.053739073558559E-003
 -9.200000000000000E-003    3.177211972205699E-003
 -9.099999999999999E-003    3.304989671062576E-003
 -8.999999999999999E-003    3.437188872022394E-003
 -8.900000000000000E-003    3.573928321361252E-003
 -8.799999999999999E-003    3.715328670470192E-003
 -8.699999999999999E-003    3.861512378408028E-003
 -8.600000000000000E-003    4.012603339275762E-003
 -8.499999999999999E-003    4.168727192974913E-003
 -8.399999999999999E-003    4.330010940906895E-003
 -8.300000000000000E-003    4.496583541280966E-003
 -8.199999999999999E-003    4.668575127352265E-003
 -8.100000000000000E-003    4.846117131573144E-003
 -8.000000000000000E-003    5.029342248103066E-003
 -7.899999999999999E-003    5.218384102379714E-003
 -7.800000000000000E-003    5.413377574025245E-003
 -7.699999999999999E-003    5.614458600284434E-003
 -7.599999999999999E-003    5.821763376858589E-003
 -7.499999999999999E-003    6.035428862284340E-003
 -7.399999999999999E-003    6.255592771853510E-003
 -7.299999999999999E-003    6.482393098013807E-003
 -7.199999999999999E-003    6.715968344860606E-003
 -7.100000000000000E-003    6.956456676678905E-003
 -6.999999999999999E-003    7.203996336763097E-003
 -6.899999999999999E-003    7.458725716837433E-003
 -6.800000000000000E-003    7.720782354564817E-003
 -6.699999999999999E-003    7.990303919333032E-003
 -6.599999999999999E-003    8.267427276324592E-003
 -6.499999999999999E-003    8.552288088248094E-003
 -6.399999999999999E-003    8.845021667321732E-003
 -6.299999999999999E-003    9.145761419679307E-003
 -6.199999999999999E-003    9.454639864354075E-003
 -6.100000000000000E-003    9.771788052491768E-003
 -5.999999999999999E-003    1.009733455561149E-002
 -5.899999999999999E-003    1.043140608358224E-002
 -5.800000000000000E-003    1.077412644091192E-002
 -5.699999999999999E-003    1.112561846187631E-002
 -5.599999999999999E-003    1.148600065697134E-002
 -5.499999999999999E-003    1.185538987676821E-002
 -5.399999999999999E-003    1.223389795740066E-002
 -5.299999999999999E-003    1.262163447208477E-002
 -5.199999999999999E-003    1.301870405014484E-002
 -5.099999999999999E-003    1.342520746856871E-002
 -4.999999999999999E-003    1.384124285257533E-002
 -4.899999999999999E-003    1.426690120502373E-002
 -4.799999999999999E-003    1.470226976388404E-002
 -4.699999999999999E-003    1.514743055174935E-002
 -4.599999999999999E-003    1.560246006420288E-002
 -4.499999999999999E-003    1.606742820770201E-002
 -4.399999999999999E-003    1.654239909547096E-002
 -4.299999999999999E-003    1.702742999879324E-002
 -4.199999999999999E-003    1.752257104109774E-002
 -4.099999999999999E-003    1.802786606079493E-002
 -3.999999999999999E-003    1.854335038364689E-002
 -3.899999999999999E-003    1.906905082952717E-002
 -3.799999999999999E-003    1.960498679445593E-002
 -3.699999999999999E-003    2.015117021097669E-002
 -3.599999999999999E-003    2.070760133771816E-002
 -3.499999999999999E-003    2.127427112435912E-002
 -3.399999999999999E-003    2.185116159486588E-002
 -3.299999999999999E-003    2.243824484286318E-002
 -3.199999999999999E-003    2.303548303773504E-002
 -3.099999999999999E-003    2.364282365769779E-002
 -2.999999999999999E-003    2.426020832788790E-002
 -2.899999999999999E-003    2.488756210549475E-002
 -2.799999999999999E-003    2.552480036477046E-002
 -2.699999999999999E-003    2.617182545570496E-002
 -2.599999999999999E-003    2.682852809684588E-002
 -2.499999999999999E-003    2.749478167092482E-002
 -2.399999999999999E-003    2.817044933920119E-002
 -2.299999999999999E-003    2.885537958206352E-002
 -2.199999999999999E-003    2.954940554907551E-002
 -2.099999999999999E-003    3.025234505185314E-002
 -1.999999999999999E-003    3.096400185408152E-002
 -1.899999999999999E-003    3.168416437650147E-002
 -1.799999999999999E-003    3.241260244613368E-002
 -1.699999999999999E-003    3.314907145532759E-002
 -1.599999999999999E-003    3.389331231102242E-002
 -1.499999999999999E-003    3.464504295731660E-002
 -1.399999999999999E-003    3.540397108185889E-002
 -1.299999999999999E-003    3.616978141726485E-002
 -1.199999999999999E-003    3.694214242871701E-002
 -1.099999999999999E-003    3.772070363007182E-002
 -9.999999999999989E-004    3.850509547805771E-002
 -8.999999999999990E-004    3.929493007488843E-002
 -7.999999999999990E-004    4.008980298391206E-002
 -6.999999999999989E-004    4.088928472087375E-002
 -5.999999999999990E-004    4.169292804691355E-002
 -4.999999999999989E-004    4.250026674688459E-002
 -3.999999999999989E-004    4.331081664844769E-002
 -2.999999999999989E-004    4.412407075102437E-002
 -1.999999999999989E-004    4.493949784311194E-002
 -9.999999999999892E-005    4.575654838896786E-002
  1.084202172485504E-018    4.657465427121950E-002
  1.000000000000011E-004    4.739321886655338E-002
  2.000000000000011E-004    4.821163127939034E-002
  3.000000000000011E-004    4.902925827811130E-002
  4.000000000000011E-004    4.984544609588060E-002
  5.000000000000011E-004    5.065951315431637E-002
  6.000000000000011E-004    5.147076226001834E-002
  7.000000000000011E-004    5.227847501144763E-002
  8.000000000000011E-004    5.308190978379074E-002
  9.000000000000012E-004    5.388030182025218E-002
  1.000000000000001E-003    5.467286887294141E-002
  1.100000000000001E-003    5.545880637753908E-002
  1.200000000000001E-003    5.623728642911796E-002
  1.300000000000001E-003    5.700746391291864E-002
  1.400000000000001E-003    5.776846742260849E-002
  1.500000000000001E-003    5.851941046982208E-002
  1.600000000000001E-003    5.925938439759382E-002
  1.700000000000001E-003    5.998746106411430E-002
  1.800000000000001E-003    6.070269023533461E-002
  1.900000000000001E-003    6.140410678082555E-002
  2.000000000000001E-003    6.209072422771249E-002
  2.100000000000001E-003    6.276153709627016E-002
  2.200000000000001E-003    6.341552011698605E-002
  2.300000000000001E-003    6.405163406396830E-002
  2.400000000000001E-003    6.466881695312957E-002
  2.500000000000001E-003    6.526600129046582E-002
  2.600000000000001E-003    6.584209098239319E-002
  2.700000000000001E-003    6.639598269665460E-002
  2.800000000000001E-003    6.692655558887531E-002
  2.900000000000001E-003    6.743267902452310E-002
  3.000000000000001E-003    6.791320516978323E-002
  3.100000000000001E-003    6.836696817901802E-002
  3.200000000000001E-003    6.879279946062518E-002
  3.300000000000001E-003    6.918951932274650E-002
  3.400000000000001E-003    6.955593316062569E-002
  3.500000000000001E-003    6.989084375289260E-002
  3.600000000000001E-003    7.019304328393181E-002
  3.700000000000001E-003    7.046130677108374E-002
  3.800000000000001E-003    7.069441790037254E-002
  3.900000000000001E-003    7.089115298987644E-002
  4.000000000000001E-003    7.105027531026767E-002
  4.100000000000001E-003    7.117055898171090E-002
  4.200000000000001E-003    7.125076617750407E-002
  4.300000000000001E-003    7.128965578415641E-002
  4.400000000000001E-003    7.128600068979270E-002
  4.500000000000001E-003    7.123856987152602E-002
  4.600000000000002E-003    7.114613720805638E-002
  4.700000000000001E-003    7.100747189608636E-002
  4.800000000000001E-003    7.082136416296766E-002
  4.900000000000002E-003    7.058659806638740E-002
  5.000000000000001E-003    7.030197982330262E-002
  5.100000000000001E-003    6.996631293901708E-002
  5.200000000000001E-003    6.957842090977734E-002
  5.300000000000002E-003    6.913713951739578E-002
  5.400000000000001E-003    6.864130988324300E-002
  5.500000000000001E-003    6.808980758382453E-002
  5.600000000000002E-003    6.748150669924581E-002
  5.700000000000001E-003    6.681531782762003E-002
  5.800000000000001E-003    6.609015658412595E-002
  5.900000000000002E-003    6.530497322185508E-002
  6.000000000000001E-003    6.445873243008221E-002
  6.100000000000001E-003    6.355042862805343E-002
  6.200000000000002E-003    6.257908462689320E-002
  6.300000000000002E-003    6.154374705037162E-002
  6.400000000000001E-003    6.044350292386018E-002
  6.500000000000001E-003    5.927745549934819E-002
  6.600000000000002E-003    5.804475353749999E-002
  6.700000000000001E-003    5.674458199961786E-002
  6.800000000000001E-003    5.537615469277571E-002
  6.900000000000002E-003    5.393872628374753E-002
  7.000000000000001E-003    5.243159568730372E-002
  7.100000000000001E-003    5.085410489288329E-002
  7.200000000000002E-003    4.920563195271074E-002
  7.300000000000002E-003    4.748560220207265E-002
  7.400000000000001E-003    4.569348710299929E-002
  7.500000000000001E-003    4.382880882925311E-002
  7.600000000000002E-003    4.189113542991758E-002
  7.700000000000001E-003    3.988008915873892E-002
  7.800000000000001E-003    3.779533993075000E-002
  7.900000000000001E-003    3.563661440235404E-002
  8.000000000000002E-003    3.340369334050464E-002
  8.100000000000001E-003    3.109641323057176E-002
  8.200000000000001E-003    2.871466691385947E-002
  8.300000000000002E-003    2.625841232834998E-002
  8.400000000000001E-003    2.372765830269558E-002
  8.500000000000002E-003    2.112248189854591E-002
  8.600000000000002E-003    1.844302287421679E-002
  8.700000000000001E-003    1.568948269916930E-002
  8.800000000000002E-003    1.286212758332556E-002
  8.900000000000002E-003    9.961289004873475E-003
  9.000000000000001E-003    6.987367471920716E-003
  9.100000000000002E-003    3.940830321720282E-003
  9.200000000000002E-003    8.222120260046907E-004
  9.300000000000001E-003   -2.367883336734333E-003
  9.400000000000002E-003   -5.628780347698023E-003
  9.500000000000001E-003   -8.959734514318597E-003
  9.600000000000001E-003   -1.235992922119342E-002
  9.700000000000002E-003   -1.582848053910128E-002
  9.800000000000001E-003   -1.936442776964394E-002
  9.900000000000001E-003   -2.296673831540718E-002
  1.000000000000000E-002   -2.663430682759402E-002
  1.010000000000000E-002   -3.036595781041766E-002
  1.020000000000000E-002   -3.416043873553493E-002
  1.030000000000000E-002   -3.801642398729690E-002
  1.040000000000000E-002   -4.193251611372605E-002
  1.050000000000000E-002   -4.590724478802441E-002
  1.060000000000000E-002   -4.993906733681613E-002
  1.070000000000000E-002   -5.402636205832523E-002
  1.080000000000000E-002   -5.816744111491953E-002
  1.090000000000000E-002   -6.236054401782921E-002
  1.100000000000000E-002   -6.660383339159276E-002
  1.110000000000000E-002   -7.089540750349535E-002
  1.120000000000000E-002   -7.523328800733615E-002
  1.130000000000000E-002   -7.961543757135124E-002
  1.140000000000000E-002   -8.403973174337741E-002
  1.150000000000000E-002   -8.850399565464097E-002
  1.160000000000000E-002   -9.300598061339960E-002
  1.170000000000000E-002   -9.754336749526432E-002
  1.180000000000000E-002   -0.102113788011475     
  1.190000000000000E-002   -0.106714794267941     
  1.200000000000000E-002   -0.111343880381081     
  1.210000000000000E-002   -0.115998477076088     
  1.220000000000000E-002   -0.120675970791542     
  1.230000000000000E-002   -0.125373670615748     
  1.240000000000000E-002   -0.130088833788277     
  1.250000000000000E-002   -0.134818675329535     
  1.260000000000000E-002   -0.139560349167021     
  1.270000000000000E-002   -0.144310957634274     
  1.280000000000000E-002   -0.149067552452782     
  1.290000000000000E-002   -0.153827142307178     
  1.300000000000000E-002   -0.158586699703900     
  1.310000000000000E-002   -0.163343135742434     
  1.320000000000000E-002   -0.168093335959424     
  1.330000000000000E-002   -0.172834149320501     
  1.340000000000000E-002   -0.177562390937865     
  1.350000000000000E-002   -0.182274829421563     
  1.360000000000000E-002   -0.186968225230250     
  1.370000000000000E-002   -0.191639280473444     
  1.380000000000000E-002   -0.196284708695944     
  1.390000000000000E-002   -0.200901180533552     
  1.400000000000000E-002   -0.205485347074793     
  1.410000000000000E-002   -0.210033857334699     
  1.420000000000000E-002   -0.214543322038106     
  1.430000000000000E-002   -0.219010367204830     
  1.440000000000000E-002   -0.223431593355782     
  1.450000000000000E-002   -0.227803600951348     
  1.460000000000000E-002   -0.232123003165709     
  1.470000000000000E-002   -0.236386386302653     
  1.480000000000000E-002   -0.240590366356486     
  1.490000000000000E-002   -0.244731545163611     
  1.500000000000000E-002   -0.248806566697404     
  1.510000000000000E-002   -0.252812058543574     
  1.520000000000000E-002   -0.256744677994596     
  1.530000000000000E-002   -0.260601094314547     
  1.540000000000000E-002   -0.264378003368858     
  1.550000000000000E-002   -0.268072154033668     
  1.560000000000000E-002   -0.271680285452766     
  1.570000000000000E-002   -0.275199178070990     
  1.580000000000000E-002   -0.278625663954539     
  1.590000000000000E-002   -0.281956621138544     
  1.600000000000000E-002   -0.285188930253591     
  1.610000000000000E-002   -0.288319544017673     
  1.620000000000000E-002   -0.291345454659226     
  1.630000000000000E-002   -0.294263723967947     
  1.640000000000000E-002   -0.297071431952255     
  1.650000000000000E-002   -0.299765751722372     
  1.660000000000000E-002   -0.302343928228273     
  1.670000000000000E-002   -0.304803229263972     
  1.680000000000000E-002   -0.307141006384581     
  1.690000000000000E-002   -0.309354685350873     
  1.700000000000000E-002   -0.311441745650946     
  1.710000000000000E-002   -0.313399756781750     
  1.720000000000000E-002   -0.315226389478225     
  1.730000000000000E-002   -0.316919353816600     
  1.740000000000000E-002   -0.318476453564597     
  1.750000000000000E-002   -0.319895576310787     
  1.760000000000000E-002   -0.321174726163510     
  1.770000000000000E-002   -0.322311972909649     
  1.780000000000000E-002   -0.323305498331569     
  1.790000000000000E-002   -0.324153520958388     
  1.800000000000000E-002   -0.324854404899809     
  1.810000000000000E-002   -0.325406603618115     
  1.820000000000000E-002   -0.325808672316120     
  1.830000000000000E-002   -0.326059267540058     
  1.840000000000000E-002   -0.326157132265620     
  1.850000000000000E-002   -0.326101131725403     
  1.860000000000000E-002   -0.325890231551055     
  1.870000000000000E-002   -0.325523516250744     