 -4.000000000000000E-002    0.000000000000000E+000
 -3.990000000000000E-002    0.000000000000000E+000
 -3.980000000000000E-002    0.000000000000000E+000
 -3.970000000000000E-002    0.000000000000000E+000
 -3.960000000000000E-002    0.000000000000000E+000
 -3.950000000000000E-002    0.000000000000000E+000
 -3.940000000000000E-002    0.000000000000000E+000
 -3.930000000000000E-002    0.000000000000000E+000
 -3.920000000000000E-002    0.000000000000000E+000
 -3.910000000000000E-002    0.000000000000000E+000
 -3.900000000000000E-002    0.000000000000000E+000
 -3.890000000000000E-002    0.000000000000000E+000
 -3.880000000000000E-002    0.000000000000000E+000
 -3.870000000000000E-002    0.000000000000000E+000
 -3.860000000000000E-002    0.000000000000000E+000
 -3.850000000000000E-002    0.000000000000000E+000
 -3.840000000000000E-002    0.000000000000000E+000
 -3.830000000000000E-002    0.000000000000000E+000
 -3.820000000000000E-002    0.000000000000000E+000
 -3.810000000000000E-002    0.000000000000000E+000
 -3.800000000000000E-002    0.000000000000000E+000
 -3.790000000000000E-002    0.000000000000000E+000
 -3.780000000000000E-002    0.000000000000000E+000
 -3.770000000000000E-002    0.000000000000000E+000
 -3.760000000000000E-002    0.000000000000000E+000
 -3.750000000000000E-002    0.000000000000000E+000
 -3.740000000000000E-002    0.000000000000000E+000
 -3.730000000000000E-002    0.000000000000000E+000
 -3.720000000000000E-002    0.000000000000000E+000
 -3.710000000000000E-002    0.000000000000000E+000
 -3.700000000000000E-002    0.000000000000000E+000
 -3.690000000000000E-002    0.000000000000000E+000
 -3.680000000000000E-002    0.000000000000000E+000
 -3.670000000000000E-002    0.000000000000000E+000
 -3.660000000000000E-002    0.000000000000000E+000
 -3.650000000000000E-002    0.000000000000000E+000
 -3.640000000000000E-002    0.000000000000000E+000
 -3.630000000000000E-002    0.000000000000000E+000
 -3.620000000000000E-002    0.000000000000000E+000
 -3.610000000000000E-002    0.000000000000000E+000
 -3.600000000000000E-002    0.000000000000000E+000
 -3.590000000000000E-002    0.000000000000000E+000
 -3.580000000000000E-002    0.000000000000000E+000
 -3.570000000000000E-002    0.000000000000000E+000
 -3.560000000000000E-002    0.000000000000000E+000
 -3.550000000000000E-002    0.000000000000000E+000
 -3.540000000000000E-002    0.000000000000000E+000
 -3.530000000000000E-002    0.000000000000000E+000
 -3.520000000000000E-002    0.000000000000000E+000
 -3.510000000000000E-002    0.000000000000000E+000
 -3.500000000000000E-002    0.000000000000000E+000
 -3.490000000000000E-002    0.000000000000000E+000
 -3.480000000000000E-002    0.000000000000000E+000
 -3.470000000000000E-002    0.000000000000000E+000
 -3.460000000000000E-002    0.000000000000000E+000
 -3.450000000000000E-002    0.000000000000000E+000
 -3.440000000000000E-002    0.000000000000000E+000
 -3.430000000000000E-002    0.000000000000000E+000
 -3.420000000000000E-002    0.000000000000000E+000
 -3.410000000000000E-002    0.000000000000000E+000
 -3.400000000000000E-002    0.000000000000000E+000
 -3.390000000000000E-002    0.000000000000000E+000
 -3.380000000000000E-002    0.000000000000000E+000
 -3.370000000000000E-002    0.000000000000000E+000
 -3.360000000000000E-002    0.000000000000000E+000
 -3.350000000000000E-002    0.000000000000000E+000
 -3.340000000000000E-002    0.000000000000000E+000
 -3.330000000000000E-002    0.000000000000000E+000
 -3.320000000000000E-002    0.000000000000000E+000
 -3.310000000000000E-002    0.000000000000000E+000
 -3.300000000000000E-002    0.000000000000000E+000
 -3.290000000000000E-002    0.000000000000000E+000
 -3.280000000000000E-002    0.000000000000000E+000
 -3.270000000000000E-002    0.000000000000000E+000
 -3.260000000000000E-002    0.000000000000000E+000
 -3.250000000000000E-002    0.000000000000000E+000
 -3.240000000000000E-002    0.000000000000000E+000
 -3.230000000000000E-002    0.000000000000000E+000
 -3.220000000000000E-002    0.000000000000000E+000
 -3.210000000000000E-002    0.000000000000000E+000
 -3.200000000000000E-002    0.000000000000000E+000
 -3.190000000000000E-002    0.000000000000000E+000
 -3.180000000000000E-002    0.000000000000000E+000
 -3.170000000000000E-002    0.000000000000000E+000
 -3.160000000000000E-002    0.000000000000000E+000
 -3.150000000000000E-002    0.000000000000000E+000
 -3.140000000000000E-002    0.000000000000000E+000
 -3.130000000000000E-002    0.000000000000000E+000
 -3.120000000000000E-002    0.000000000000000E+000
 -3.110000000000000E-002    0.000000000000000E+000
 -3.100000000000000E-002    0.000000000000000E+000
 -3.090000000000000E-002    0.000000000000000E+000
 -3.080000000000000E-002    0.000000000000000E+000
 -3.070000000000000E-002    0.000000000000000E+000
 -3.060000000000000E-002    0.000000000000000E+000
 -3.050000000000000E-002    0.000000000000000E+000
 -3.040000000000000E-002    0.000000000000000E+000
 -3.030000000000000E-002    0.000000000000000E+000
 -3.020000000000000E-002    0.000000000000000E+000
 -3.010000000000000E-002    0.000000000000000E+000
 -3.000000000000000E-002    0.000000000000000E+000
 -2.990000000000000E-002    0.000000000000000E+000
 -2.980000000000000E-002    0.000000000000000E+000
 -2.970000000000000E-002    0.000000000000000E+000
 -2.960000000000000E-002    0.000000000000000E+000
 -2.950000000000000E-002    0.000000000000000E+000
 -2.940000000000000E-002    0.000000000000000E+000
 -2.930000000000000E-002    0.000000000000000E+000
 -2.920000000000000E-002    0.000000000000000E+000
 -2.910000000000000E-002    0.000000000000000E+000
 -2.900000000000000E-002    0.000000000000000E+000
 -2.890000000000000E-002    0.000000000000000E+000
 -2.880000000000000E-002    0.000000000000000E+000
 -2.870000000000000E-002    0.000000000000000E+000
 -2.860000000000000E-002    0.000000000000000E+000
 -2.850000000000000E-002    0.000000000000000E+000
 -2.840000000000000E-002    0.000000000000000E+000
 -2.830000000000000E-002    0.000000000000000E+000
 -2.820000000000000E-002    0.000000000000000E+000
 -2.810000000000000E-002    0.000000000000000E+000
 -2.800000000000000E-002    0.000000000000000E+000
 -2.790000000000000E-002    0.000000000000000E+000
 -2.780000000000000E-002    0.000000000000000E+000
 -2.770000000000000E-002    0.000000000000000E+000
 -2.760000000000000E-002    0.000000000000000E+000
 -2.750000000000000E-002    0.000000000000000E+000
 -2.740000000000000E-002    0.000000000000000E+000
 -2.730000000000000E-002    0.000000000000000E+000
 -2.720000000000000E-002    0.000000000000000E+000
 -2.710000000000000E-002    0.000000000000000E+000
 -2.700000000000000E-002    0.000000000000000E+000
 -2.690000000000000E-002    0.000000000000000E+000
 -2.680000000000000E-002    0.000000000000000E+000
 -2.670000000000000E-002    0.000000000000000E+000
 -2.660000000000000E-002    0.000000000000000E+000
 -2.650000000000000E-002    0.000000000000000E+000
 -2.640000000000000E-002    0.000000000000000E+000
 -2.630000000000000E-002    0.000000000000000E+000
 -2.620000000000000E-002    0.000000000000000E+000
 -2.610000000000000E-002    0.000000000000000E+000
 -2.600000000000000E-002    0.000000000000000E+000
 -2.590000000000000E-002    0.000000000000000E+000
 -2.580000000000000E-002    0.000000000000000E+000
 -2.570000000000000E-002    0.000000000000000E+000
 -2.560000000000000E-002    0.000000000000000E+000
 -2.550000000000000E-002    0.000000000000000E+000
 -2.540000000000000E-002    0.000000000000000E+000
 -2.530000000000000E-002    0.000000000000000E+000
 -2.520000000000000E-002    0.000000000000000E+000
 -2.510000000000000E-002    0.000000000000000E+000
 -2.500000000000000E-002    0.000000000000000E+000
 -2.490000000000000E-002    0.000000000000000E+000
 -2.480000000000000E-002    0.000000000000000E+000
 -2.470000000000000E-002    0.000000000000000E+000
 -2.460000000000000E-002    0.000000000000000E+000
 -2.450000000000000E-002    0.000000000000000E+000
 -2.440000000000000E-002    0.000000000000000E+000
 -2.430000000000000E-002    0.000000000000000E+000
 -2.420000000000000E-002    0.000000000000000E+000
 -2.410000000000000E-002    0.000000000000000E+000
 -2.400000000000000E-002    0.000000000000000E+000
 -2.390000000000000E-002    0.000000000000000E+000
 -2.380000000000000E-002    0.000000000000000E+000
 -2.370000000000000E-002    0.000000000000000E+000
 -2.360000000000000E-002    0.000000000000000E+000
 -2.350000000000000E-002    0.000000000000000E+000
 -2.340000000000000E-002    0.000000000000000E+000
 -2.330000000000000E-002    0.000000000000000E+000
 -2.320000000000000E-002    0.000000000000000E+000
 -2.310000000000000E-002    0.000000000000000E+000
 -2.300000000000000E-002    0.000000000000000E+000
 -2.290000000000000E-002    0.000000000000000E+000
 -2.280000000000000E-002    0.000000000000000E+000
 -2.270000000000000E-002    0.000000000000000E+000
 -2.260000000000000E-002    0.000000000000000E+000
 -2.250000000000000E-002    0.000000000000000E+000
 -2.240000000000000E-002    0.000000000000000E+000
 -2.230000000000000E-002    0.000000000000000E+000
 -2.220000000000000E-002    0.000000000000000E+000
 -2.210000000000000E-002    0.000000000000000E+000
 -2.200000000000000E-002    0.000000000000000E+000
 -2.190000000000000E-002    0.000000000000000E+000
 -2.180000000000000E-002    0.000000000000000E+000
 -2.170000000000000E-002    0.000000000000000E+000
 -2.160000000000000E-002    0.000000000000000E+000
 -2.150000000000000E-002    0.000000000000000E+000
 -2.140000000000000E-002    0.000000000000000E+000
 -2.130000000000000E-002    0.000000000000000E+000
 -2.120000000000000E-002    6.414635304221270E-048
 -2.110000000000000E-002    1.282927060844254E-047
 -2.100000000000000E-002    1.282927060844254E-047
 -2.090000000000000E-002    1.282927060844254E-047
 -2.080000000000000E-002    1.282927060844254E-047
 -2.070000000000000E-002    6.414635304221270E-048
 -2.060000000000000E-002    1.302948326278190E-047
 -2.050000000000000E-002    7.757626161367333E-047
 -2.040000000000000E-002   -6.426752468353119E-047
 -2.030000000000000E-002   -1.192331756454947E-046
 -2.020000000000000E-002   -3.452285510084228E-046
 -2.010000000000000E-002   -6.273785447029936E-046
 -2.000000000000000E-002   -8.804216413068252E-046
 -1.990000000000000E-002   -1.420358323096283E-045
 -1.980000000000000E-002   -8.075378822163274E-046
 -1.970000000000000E-002    8.111187674514277E-047
 -1.960000000000000E-002    1.339111149032083E-045
 -1.950000000000000E-002    3.134602420628110E-045
 -1.940000000000000E-002    4.801819255034631E-045
 -1.930000000000000E-002    6.704403421199087E-045
 -1.920000000000000E-002    8.918915208974874E-045
 -1.910000000000000E-002    1.144910735685071E-044
 -1.900000000000000E-002    1.356906372313023E-044
 -1.890000000000000E-002    1.332137183293624E-044
 -1.880000000000000E-002    9.668321398063941E-045
 -1.870000000000000E-002    1.576925359712429E-045
 -1.860000000000000E-002   -1.219705992572422E-044
 -1.850000000000000E-002   -3.376586233758819E-044
 -1.840000000000000E-002   -6.431012872562792E-044
 -1.830000000000000E-002   -1.017591641176469E-043
 -1.820000000000000E-002   -1.450042792072918E-043
 -1.810000000000000E-002   -1.869805724050801E-043
 -1.800000000000000E-002   -2.189234343313965E-043
 -1.790000000000000E-002   -2.253141737871688E-043
 -1.780000000000000E-002   -1.864870780357853E-043
 -1.770000000000000E-002   -7.797627310309854E-044
 -1.760000000000000E-002    1.235020463614965E-043
 -1.750000000000000E-002    4.378664295914926E-043
 -1.740000000000000E-002    8.716920093505830E-043
 -1.730000000000000E-002    1.410480082156945E-042
 -1.720000000000000E-002    2.006261148888779E-042
 -1.710000000000000E-002    2.564683222891522E-042
 -1.700000000000000E-002    2.937037119082400E-042
 -1.690000000000000E-002    2.920573682167167E-042
 -1.680000000000000E-002    2.263971225310598E-042
 -1.670000000000000E-002    6.986720793508402E-043
 -1.660000000000000E-002   -2.019217355837839E-042
 -1.650000000000000E-002   -6.037656149203200E-042
 -1.640000000000000E-002   -1.131716146975470E-041
 -1.630000000000000E-002   -1.752700201771081E-041
 -1.620000000000000E-002   -2.393990991931927E-041
 -1.610000000000000E-002   -2.934900103344491E-041
 -1.600000000000000E-002   -3.203908464389224E-041
 -1.590000000000000E-002   -2.984497672359571E-041
 -1.580000000000000E-002   -2.033878301351524E-041
 -1.570000000000000E-002   -1.168141850717676E-042
 -1.560000000000000E-002    2.941849635685650E-041
 -1.550000000000000E-002    7.189709047020635E-041
 -1.540000000000000E-002    1.246587681953119E-040
 -1.530000000000000E-002    1.831939553838439E-040
 -1.520000000000000E-002    2.393861104222521E-040
 -1.510000000000000E-002    2.811438063987284E-040
 -1.500000000000000E-002    2.925877169671897E-040
 -1.490000000000000E-002    2.550619964726534E-040
 -1.480000000000000E-002    1.491820842130715E-040
 -1.470000000000000E-002   -4.192942135537216E-041
 -1.460000000000000E-002   -3.282116877934158E-040
 -1.450000000000000E-002   -7.072751914822978E-040
 -1.440000000000000E-002   -1.158528001871546E-039
 -1.430000000000000E-002   -1.637639636313601E-039
 -1.420000000000000E-002   -2.072500832948349E-039
 -1.410000000000000E-002   -2.362109796397065E-039
 -1.400000000000000E-002   -2.380029962397813E-039
 -1.390000000000000E-002   -1.984026899255141E-039
 -1.380000000000000E-002   -1.033232989366231E-039
 -1.370000000000000E-002    5.864678005087208E-040
 -1.360000000000000E-002    2.929193150396611E-039
 -1.350000000000000E-002    5.949866223050025E-039
 -1.340000000000000E-002    9.462882349419361E-039
 -1.330000000000000E-002    1.310473046745863E-038
 -1.320000000000000E-002    1.630895060459737E-038
 -1.310000000000000E-002    1.830382967867951E-038
 -1.300000000000000E-002    1.814449257251977E-038
 -1.290000000000000E-002    1.479084393969691E-038
 -1.280000000000000E-002    7.240551304161814E-039
 -1.270000000000000E-002   -5.278813724997589E-039
 -1.260000000000000E-002   -2.306275678540143E-038
 -1.250000000000000E-002   -4.564414020869210E-038
 -1.240000000000000E-002   -7.150003942246798E-038
 -1.230000000000000E-002   -9.779947033351194E-038
 -1.220000000000000E-002   -1.202571598000253E-037
 -1.210000000000000E-002   -1.331719544510759E-037
 -1.200000000000000E-002   -1.297339407516513E-037
 -1.190000000000000E-002   -1.026771165122894E-037
 -1.180000000000000E-002   -4.532898152273643E-038
 -1.170000000000000E-002    4.693910394421808E-038
 -1.160000000000000E-002    1.749288635925226E-037
 -1.150000000000000E-002    3.336614798672860E-037
 -1.140000000000000E-002    5.105248331364805E-037
 -1.130000000000000E-002    6.839037656619170E-037
 -1.120000000000000E-002    8.227661416408875E-037
 -1.110000000000000E-002    8.877244189667356E-037
 -1.100000000000000E-002    8.340598193364977E-037
 -1.090000000000000E-002    6.170616831448976E-037
 -1.080000000000000E-002    1.997707946936261E-037
 -1.070000000000000E-002   -4.371824974416442E-037
 -1.060000000000000E-002   -1.284470903798119E-036
 -1.050000000000000E-002   -2.293108851491699E-036
 -1.040000000000000E-002   -3.365638005326219E-036
 -1.030000000000000E-002   -4.351925029294193E-036
 -1.020000000000000E-002   -5.052254773359731E-036
 -1.010000000000000E-002   -5.230214523438619E-036
 -1.000000000000000E-002   -4.637166942872403E-036
 -9.899999999999999E-003   -3.048789525073341E-036
 -9.800000000000000E-003   -3.122538719143984E-037
 -9.699999999999999E-003    3.599785590925635E-036
 -9.599999999999999E-003    8.534872303644613E-036
 -9.500000000000000E-003    1.411509544484533E-035
 -9.399999999999999E-003    1.971098174877723E-035
 -9.299999999999999E-003    2.444653308080061E-035
 -9.200000000000000E-003    2.724599292848902E-035
 -9.099999999999999E-003    2.692981171169039E-035
 -8.999999999999999E-003    2.236183941024076E-035
 -8.900000000000000E-003    1.264217035157264E-035
 -8.799999999999999E-003   -2.669051037935103E-036
 -8.699999999999999E-003   -2.332129681222621E-035
 -8.600000000000000E-003   -4.817005555104141E-035
 -8.499999999999999E-003   -7.503955414586805E-035
 -8.399999999999999E-003   -1.006935196257183E-034
 -8.300000000000000E-003   -1.209520978551954E-034
 -8.199999999999999E-003   -1.309828742855755E-034
 -8.100000000000000E-003   -1.257769738594454E-034
 -8.000000000000000E-003   -1.007982512314494E-034
 -7.899999999999999E-003   -5.276685454952466E-035
 -7.800000000000000E-003    1.948974087930982E-035
 -7.699999999999999E-003    1.142110377399306E-034
 -7.599999999999999E-003    2.260159190287322E-034
 -7.499999999999999E-003    3.454768392392044E-034
 -7.399999999999999E-003    4.590789018751202E-034
 -7.299999999999999E-003    5.496731086103282E-034
 -7.199999999999999E-003    5.975064857814839E-034
 -7.100000000000000E-003    5.818721864837588E-034
 -6.999999999999999E-003    4.833729259471957E-034
 -6.899999999999999E-003    2.867305001072724E-034
 -6.800000000000000E-003   -1.599504884382781E-035
 -6.699999999999999E-003   -4.219928457703900E-034
 -6.599999999999999E-003   -9.143993773245295E-034
 -6.499999999999999E-003   -1.459510029030983E-033
 -6.399999999999999E-003   -2.005008123890693E-033
 -6.299999999999999E-003   -2.479809947217881E-033
 -6.199999999999999E-003   -2.796193646877005E-033
 -6.100000000000000E-003   -2.854888460318217E-033
 -5.999999999999999E-003   -2.553713202059632E-033
 -5.899999999999999E-003   -1.800122624135202E-033
 -5.800000000000000E-003   -5.275991350622121E-034
 -5.699999999999999E-003    1.284804023716641E-033
 -5.599999999999999E-003    3.591307225318042E-033
 -5.499999999999999E-003    6.259170746099281E-033
 -5.399999999999999E-003    9.052965392026339E-033
 -5.299999999999999E-003    1.162781901564017E-032
 -5.199999999999999E-003    1.353663693649297E-032
 -5.099999999999999E-003    1.425611735164272E-032
 -4.999999999999999E-003    1.323528906197828E-032
 -4.899999999999999E-003    9.968026838059653E-033
 -4.799999999999999E-003    4.087482024177394E-033
 -4.699999999999999E-003   -4.524223193124279E-033
 -4.599999999999999E-003   -1.562302601974533E-032
 -4.499999999999999E-003   -2.850391884524040E-032
 -4.399999999999999E-003   -4.193749330062030E-032
 -4.299999999999999E-003   -5.416573149224815E-032
 -4.199999999999999E-003   -6.297957539704231E-032
 -4.099999999999999E-003   -6.589520065842805E-032
 -3.999999999999999E-003   -6.043552309699335E-032
 -3.899999999999999E-003   -4.450819496112214E-032
 -3.799999999999999E-003   -1.685248277152546E-032
 -3.699999999999999E-003    2.249298248412531E-032
 -3.599999999999999E-003    7.176858810711253E-032
 -3.499999999999999E-003    1.271990389105776E-031
 -3.399999999999999E-003    1.829107781086486E-031
 -3.299999999999999E-003    2.311387502933311E-031
 -3.199999999999999E-003    2.627766950457900E-031
 -3.099999999999999E-003    2.682868554082721E-031
 -2.999999999999999E-003    2.389338641406404E-031
 -2.899999999999999E-003    1.682486462920996E-031
 -2.799999999999999E-003    5.356919125648199E-032
 -2.699999999999999E-003   -1.025448817327928E-031
 -2.599999999999999E-003   -2.912562796590787E-031
 -2.499999999999999E-003   -4.969866683970661E-031
 -2.399999999999999E-003   -6.977460175462168E-031
 -2.299999999999999E-003   -8.663848948168422E-031
 -2.199999999999999E-003   -9.727984061962520E-031
 -2.099999999999999E-003   -9.869876871425533E-031
 -1.999999999999999E-003   -8.827563326463724E-031
 -1.899999999999999E-003   -6.417054215287696E-031
 -1.799999999999999E-003   -2.571074556012589E-031
 -1.699999999999999E-003    2.627939338483749E-031
 -1.599999999999999E-003    8.924919325021303E-031
 -1.499999999999999E-003    1.588292061926695E-030
 -1.399999999999999E-003    2.289001646078303E-030
 -1.299999999999999E-003    2.918346782562366E-030
 -1.199999999999999E-003    3.389109040439854E-030
 -1.099999999999999E-003    3.608880188482706E-030
 -9.999999999999989E-004    3.487290004370075E-030
 -8.999999999999990E-004    2.944558261328814E-030
 -7.999999999999990E-004    1.921240740222818E-030
 -6.999999999999989E-004    3.890286034626996E-031
 -5.999999999999990E-004   -1.637640505860803E-030
 -4.999999999999989E-004   -4.089644353786484E-030
 -3.999999999999989E-004   -6.831834939213835E-030
 -2.999999999999989E-004   -9.653843607503840E-030
 -1.999999999999989E-004   -1.226534114802533E-029
 -9.999999999999892E-005   -1.429880184814621E-029
  1.084202172485504E-018   -1.532333357809660E-029
  1.000000000000011E-004   -1.487317912928164E-029
  2.000000000000011E-004   -1.249372097866764E-029
  3.000000000000011E-004   -7.806074348365402E-030
  4.000000000000011E-004   -5.884699889013213E-031
  5.000000000000011E-004    9.131304512690055E-030
  6.000000000000011E-004    2.098269964453118E-029
  7.000000000000011E-004    3.417341474008698E-029
  8.000000000000011E-004    4.744333885553615E-029
  9.000000000000012E-004    5.907204004178908E-029
  1.000000000000001E-003    6.695920274439914E-029
  1.100000000000001E-003    6.879237731748458E-029
  1.200000000000001E-003    6.230683097117964E-029
  1.300000000000001E-003    4.562874857906984E-029
  1.400000000000001E-003    1.767616627359350E-029
  1.500000000000001E-003   -2.142592295602623E-029
  1.600000000000001E-003   -6.997607580154046E-029
  1.700000000000001E-003   -1.244437584127323E-028
  1.800000000000001E-003   -1.794076909781354E-028
  1.900000000000001E-003   -2.277510072069465E-028
  2.000000000000001E-003   -2.611578765662753E-028
  2.100000000000001E-003   -2.709218043721309E-028
  2.200000000000001E-003   -2.490310005768384E-028
  2.300000000000001E-003   -1.894458485896979E-028
  2.400000000000001E-003   -8.943304707673259E-029
  2.500000000000001E-003    4.921888763258875E-029
  2.600000000000001E-003    2.193014345016869E-028
  2.700000000000001E-003    4.078010116851706E-028
  2.800000000000001E-003    5.961913586970231E-028
  2.900000000000001E-003    7.615044705984198E-028
  3.000000000000001E-003    8.781928054562880E-028
  3.100000000000001E-003    9.206898747058331E-028
  3.200000000000001E-003    8.664676327524393E-028
  3.300000000000001E-003    6.992930122766889E-028
  3.400000000000001E-003    4.123210665037162E-028
  3.500000000000001E-003    1.063684603172041E-029
  3.600000000000001E-003   -4.871131792231434E-028
  3.700000000000001E-003   -1.048284132803024E-027
  3.800000000000001E-003   -1.627156905171566E-027
  3.900000000000001E-003   -2.167248588287622E-027
  4.000000000000001E-003   -2.604898624987541E-027
  4.100000000000001E-003   -2.873898613049012E-027
  4.200000000000001E-003   -2.910868076059875E-027
  4.300000000000001E-003   -2.661055235661454E-027
  4.400000000000001E-003   -2.084276011026712E-027
  4.500000000000001E-003   -1.160763942705609E-027
  4.600000000000002E-003    1.032390067849448E-028
  4.700000000000001E-003    1.670305247398370E-027
  4.800000000000001E-003    3.467287574711004E-027
  4.900000000000002E-003    5.381828482086491E-027
  5.000000000000001E-003    7.260602712950705E-027
  5.100000000000001E-003    8.910320037158302E-027
  5.200000000000001E-003    1.010284917953140E-026
  5.300000000000002E-003    1.058603528965484E-026
  5.400000000000001E-003    1.010170032288214E-026
  5.500000000000001E-003    8.411874112840100E-027
  5.600000000000002E-003    5.333344259405219E-027
  5.700000000000001E-003    7.791579197097227E-028
  5.800000000000001E-003   -5.196168945968142E-027
  5.900000000000002E-003   -1.235308984303224E-026
  6.000000000000001E-003   -2.023245039476569E-026
  6.100000000000001E-003   -2.813867032482538E-026
  6.200000000000002E-003   -3.514991344602590E-026
  6.300000000000002E-003   -4.016343440662726E-026
  6.400000000000001E-003   -4.198152814006510E-026
  6.500000000000001E-003   -3.943889531497317E-026
  6.600000000000002E-003   -3.156599278370439E-026
  6.700000000000001E-003   -1.777569505831259E-026
  6.800000000000001E-003    1.946813891741603E-027
  6.900000000000002E-003    2.687733238069624E-026
  7.000000000000001E-003    5.543937375639969E-026
  7.100000000000001E-003    8.517494497103455E-026
  7.200000000000002E-003    1.128255814384203E-025
  7.300000000000002E-003    1.345404634815086E-025
  7.400000000000001E-003    1.462144497628859E-025
  7.500000000000001E-003    1.439409814739248E-025
  7.600000000000002E-003    1.245456446708677E-025
  7.700000000000001E-003    8.614759625005276E-026
  7.800000000000001E-003    2.868161158891623E-026
  7.900000000000001E-003   -4.569441677474268E-026
  8.000000000000002E-003   -1.323804999852910E-025
  8.100000000000001E-003   -2.243665058214104E-025
  8.200000000000001E-003   -3.125557910629255E-025
  8.300000000000002E-003   -3.863909068349418E-025
  8.400000000000001E-003   -4.347561656256210E-025
  8.500000000000002E-003   -4.470948775726373E-025
  8.600000000000002E-003   -4.146465307550310E-025
  8.700000000000001E-003   -3.316850463926225E-025
  8.800000000000002E-003   -1.966270768487189E-025
  8.900000000000002E-003   -1.288295772441220E-026
  9.000000000000001E-003    2.106600900092195E-025
  9.100000000000002E-003    4.596031687539930E-025
  9.200000000000002E-003    7.144926534962853E-025
  9.300000000000001E-003    9.517723752315664E-025
  9.400000000000002E-003    1.145197664683444E-024
  9.500000000000001E-003    1.267650156918796E-024
  9.600000000000001E-003    1.293270686320051E-024
  9.700000000000002E-003    1.199818794322937E-024
  9.800000000000001E-003    9.711595142704645E-025
  9.900000000000001E-003    5.997687641513412E-025
  1.000000000000000E-002    8.913258066610619E-026
  1.010000000000000E-002   -5.441205602324773E-025
  1.020000000000000E-002   -1.268563398074155E-024
  1.030000000000000E-002   -2.037062622515450E-024
  1.040000000000000E-002   -2.786956692216637E-024
  1.050000000000000E-002   -3.441698720772050E-024
  1.060000000000000E-002   -3.914348530643323E-024
  1.070000000000000E-002   -4.113225669647450E-024
  1.080000000000000E-002   -3.949878685346812E-024
  1.090000000000000E-002   -3.349261881354054E-024
  1.100000000000000E-002   -2.261643027028241E-024
  1.110000000000000E-002   -6.753434495937810E-025
  1.120000000000000E-002    1.371052024123078E-024
  1.130000000000000E-002    3.778775912393963E-024
  1.140000000000000E-002    6.383277026644341E-024
  1.150000000000000E-002    8.955003397212574E-024
  1.160000000000000E-002    1.120837038332324E-023
  1.170000000000000E-002    1.282010140282842E-023
  1.180000000000000E-002    1.345715923869499E-023
  1.190000000000000E-002    1.281323254411707E-023
  1.200000000000000E-002    1.065127444240818E-023
  1.210000000000000E-002    6.848168441495168E-024
  1.220000000000000E-002    1.436337756507226E-024
  1.230000000000000E-002   -5.363696450221463E-024
  1.240000000000000E-002   -1.312593421082463E-023
  1.250000000000000E-002   -2.122218824088737E-023
  1.260000000000000E-002   -2.885000605880611E-023
  1.270000000000000E-002   -3.508683583193231E-023
  1.280000000000000E-002   -3.896906600986867E-023
  1.290000000000000E-002   -3.959122069835252E-023
  1.300000000000000E-002   -3.621731739520038E-023
  1.310000000000000E-002   -2.839364263066563E-023
  1.320000000000000E-002   -1.605028672721944E-023
  1.330000000000000E-002    4.217067655663377E-025
  1.340000000000000E-002    2.012983298744715E-023
  1.350000000000000E-002    4.168597303626869E-023
  1.360000000000000E-002    6.326447292013069E-023
  1.370000000000000E-002    8.271342523936447E-023
  1.380000000000000E-002    9.771474086866014E-023
  1.390000000000000E-002    1.059832735294251E-022
  1.400000000000000E-002    1.054907806006561E-022
  1.410000000000000E-002    9.469687358287414E-023
  1.420000000000000E-002    7.276745531539892E-023
  1.430000000000000E-002    3.976078749853059E-023
  1.440000000000000E-002   -3.237489260486721E-024
  1.450000000000000E-002   -5.404632044882974E-023
  1.460000000000000E-002   -1.094009211007503E-022
  1.470000000000000E-002   -1.650529646248275E-022
  1.480000000000000E-002   -2.159639496265085E-022
  1.490000000000000E-002   -2.565921951707901E-022
  1.500000000000000E-002   -2.812691292788231E-022
  1.510000000000000E-002   -2.846554166797386E-022
  1.520000000000000E-002   -2.622606168825282E-022
  1.530000000000000E-002   -2.110018905245239E-022
  1.540000000000000E-002   -1.297676272010112E-022
  1.550000000000000E-002   -1.994026303078293E-023
  1.560000000000000E-002    1.141780503462987E-022
  1.570000000000000E-002    2.651034136222604E-022
  1.580000000000000E-002    4.221426151136976E-022
  1.590000000000000E-002    5.716696223448393E-022
  1.600000000000000E-002    6.977630464908398E-022
  1.610000000000000E-002    7.832379341372422E-022
  1.620000000000000E-002    8.110689133331932E-022
  1.630000000000000E-002    7.661528320879698E-022
  1.640000000000000E-002    6.373036881310133E-022
  1.650000000000000E-002    4.193137534027372E-022
  1.660000000000000E-002    1.148620315497714E-022
  1.670000000000000E-002   -2.639865142717878E-022
  1.680000000000000E-002   -6.949625704170937E-022
  1.690000000000000E-002   -1.145708248251460E-021
  1.700000000000000E-002   -1.575025845094187E-021
  1.710000000000000E-002   -1.935366755395131E-021
  1.720000000000000E-002   -2.176539941485130E-021
  1.730000000000000E-002   -2.250471424581292E-021
  1.740000000000000E-002   -2.116688121922778E-021
  1.750000000000000E-002   -1.748047857371686E-021
  1.760000000000000E-002   -1.136127133075872E-021
  1.770000000000000E-002   -2.956046421744625E-022
  1.780000000000000E-002    7.330118521890049E-022
  1.790000000000000E-002    1.882894989363114E-021
  1.800000000000000E-002    3.063061541276596E-021
  1.810000000000000E-002    4.163383857469226E-021
  1.820000000000000E-002    5.062363079919305E-021
  1.830000000000000E-002    5.637273768675562E-021
  1.840000000000000E-002    5.775995626453827E-021
  1.850000000000000E-002    5.389590030724385E-021
  1.860000000000000E-002    4.424492887929698E-021
  1.870000000000000E-002    2.873107477528794E-021