 -4.000000000000000E-002    0.000000000000000E+000
 -3.990000000000000E-002    0.000000000000000E+000
 -3.980000000000000E-002    0.000000000000000E+000
 -3.970000000000000E-002    1.694050584196629E-014
 -3.960000000000000E-002    1.027788607758117E-013
 -3.950000000000000E-002    3.478168901865163E-013
 -3.940000000000000E-002    8.591591022270268E-013
 -3.930000000000000E-002    1.713283182584461E-012
 -3.920000000000000E-002    2.891275991967380E-012
 -3.910000000000000E-002    4.212738800919608E-012
 -3.900000000000000E-002    5.287841857453758E-012
 -3.890000000000000E-002    5.505723131562459E-012
 -3.880000000000000E-002    4.071643549739587E-012
 -3.870000000000000E-002    9.626878206740293E-014
 -3.860000000000000E-002   -7.269980770487298E-012
 -3.850000000000000E-002   -1.867429924568905E-011
 -3.840000000000000E-002   -3.439447972392250E-011
 -3.830000000000000E-002   -5.419446215961671E-011
 -3.820000000000000E-002   -7.722790117346170E-011
 -3.810000000000000E-002   -1.020093296976080E-010
 -3.800000000000000E-002   -1.264633285345996E-010
 -3.790000000000000E-002   -1.480512398487571E-010
 -3.780000000000000E-002   -1.639643368452133E-010
 -3.770000000000000E-002   -1.713634878839317E-010
 -3.760000000000000E-002   -1.676398423656846E-010
 -3.750000000000000E-002   -1.506691687486055E-010
 -3.740000000000000E-002   -1.190345936318259E-010
 -3.730000000000000E-002   -7.219775561476063E-011
 -3.720000000000000E-002   -1.060548461167736E-011
 -3.710000000000000E-002    6.427293325019761E-011
 -3.700000000000000E-002    1.499754651833907E-010
 -3.690000000000000E-002    2.431355962130224E-010
 -3.680000000000000E-002    3.396168805960395E-010
 -3.670000000000000E-002    4.346797087610290E-010
 -3.660000000000000E-002    5.231662169393133E-010
 -3.650000000000000E-002    5.996912019793131E-010
 -3.640000000000000E-002    6.588292590294810E-010
 -3.630000000000000E-002    6.952925758607114E-010
 -3.620000000000000E-002    7.040972330770606E-010
 -3.610000000000000E-002    6.807209317270352E-010
 -3.600000000000000E-002    6.212586525771561E-010
 -3.590000000000000E-002    5.225880377909475E-010
 -3.580000000000000E-002    3.825570106488901E-010
 -3.570000000000000E-002    2.002076866738619E-010
 -3.560000000000000E-002   -2.395282057100240E-011
 -3.550000000000000E-002   -2.876328696454959E-010
 -3.540000000000000E-002   -5.863971586320148E-010
 -3.530000000000000E-002   -9.132945251190873E-010
 -3.520000000000000E-002   -1.258516397847019E-009
 -3.510000000000000E-002   -1.609148841671372E-009
 -3.500000000000000E-002   -1.949091875186700E-009
 -3.490000000000000E-002   -2.259226141035327E-009
 -3.480000000000000E-002   -2.517898314428020E-009
 -3.470000000000000E-002   -2.701775185817715E-009
 -3.460000000000000E-002   -2.787081991561896E-009
 -3.450000000000000E-002   -2.751194113956096E-009
 -3.440000000000000E-002   -2.574498983163243E-009
 -3.430000000000000E-002   -2.242395034732175E-009
 -3.420000000000000E-002   -1.747254350550399E-009
 -3.410000000000000E-002   -1.090151059564825E-009
 -3.400000000000000E-002   -2.821569348666648E-010
 -3.390000000000000E-002    6.549719172425807E-010
 -3.380000000000000E-002    1.688839358736053E-009
 -3.370000000000000E-002    2.777249500111706E-009
 -3.360000000000000E-002    3.869820555470069E-009
 -3.350000000000000E-002    4.910281372326953E-009
 -3.340000000000000E-002    5.839295325721550E-009
 -3.330000000000000E-002    6.597607845587492E-009
 -3.320000000000000E-002    7.129299886383519E-009
 -3.310000000000000E-002    7.384940717636881E-009
 -3.300000000000000E-002    7.324463235065118E-009
 -3.290000000000000E-002    6.919632520272108E-009
 -3.280000000000000E-002    6.156033074898173E-009
 -3.270000000000000E-002    5.034545165808708E-009
 -3.260000000000000E-002    3.572306886993737E-009
 -3.250000000000000E-002    1.803172987331966E-009
 -3.240000000000000E-002   -2.223310624276511E-010
 -3.230000000000000E-002   -2.437593768386116E-009
 -3.220000000000000E-002   -4.761100386185297E-009
 -3.210000000000000E-002   -7.098304602751179E-009
 -3.200000000000000E-002   -9.344289627892094E-009
 -3.190000000000000E-002   -1.138729423503369E-008
 -3.180000000000000E-002   -1.311313199659483E-008
 -3.170000000000000E-002   -1.441045179494972E-008
 -3.160000000000000E-002   -1.517667574356289E-008
 -3.150000000000000E-002   -1.532434686413887E-008
 -3.140000000000000E-002   -1.478750923192015E-008
 -3.130000000000000E-002   -1.352766611946009E-008
 -3.120000000000000E-002   -1.153882361737250E-008
 -3.110000000000000E-002   -8.851137912738042E-009
 -3.100000000000000E-002   -5.532748603597867E-009
 -3.090000000000000E-002   -1.689484927818165E-009
 -3.080000000000000E-002    2.537719118417573E-009
 -3.070000000000000E-002    6.977700955277432E-009
 -3.060000000000000E-002    1.143607247823347E-008
 -3.050000000000000E-002    1.570403187622736E-008
 -3.040000000000000E-002    1.956854129671708E-008
 -3.030000000000000E-002    2.282333651406106E-008
 -3.020000000000000E-002    2.528018340203995E-008
 -3.010000000000000E-002    2.677979425819348E-008
 -3.000000000000000E-002    2.720181617808228E-008
 -2.990000000000000E-002    2.647338638321076E-008
 -2.980000000000000E-002    2.457579386941034E-008
 -2.970000000000000E-002    2.154891002908997E-008
 -2.960000000000000E-002    1.749314259197599E-008
 -2.950000000000000E-002    1.256883242924711E-008
 -2.940000000000000E-002    6.993086645852992E-009
 -2.930000000000000E-002    1.034285686253345E-009
 -2.920000000000000E-002   -4.995424453948585E-009
 -2.910000000000000E-002   -1.074919745044000E-008
 -2.900000000000000E-002   -1.585553149194447E-008
 -2.890000000000000E-002   -1.992863563835649E-008
 -2.880000000000000E-002   -2.257856148441277E-008
 -2.870000000000000E-002   -2.342046950769741E-008
 -2.860000000000000E-002   -2.208259417792002E-008
 -2.850000000000000E-002   -1.821270206738120E-008
 -2.840000000000000E-002   -1.148278200245288E-008
 -2.830000000000000E-002   -1.592300619261230E-009
 -2.820000000000000E-002    1.172998326459269E-008
 -2.810000000000000E-002    2.872508689025212E-008
 -2.800000000000000E-002    4.960354500024391E-008
 -2.790000000000000E-002    7.454549752958104E-008
 -2.780000000000000E-002    1.037008901534691E-007
 -2.770000000000000E-002    1.371900160591815E-007
 -2.760000000000000E-002    1.751042864180408E-007
 -2.750000000000000E-002    2.175078658192847E-007
 -2.740000000000000E-002    2.644403335729932E-007
 -2.730000000000000E-002    3.159207858790750E-007
 -2.720000000000000E-002    3.719539240673094E-007
 -2.710000000000000E-002    4.325374738595897E-007
 -2.700000000000000E-002    4.976712182243564E-007
 -2.690000000000000E-002    5.673667825427729E-007
 -2.680000000000000E-002    6.416574967800293E-007
 -2.670000000000000E-002    7.206073562392269E-007
 -2.660000000000000E-002    8.043177105473988E-007
 -2.650000000000000E-002    8.929319724375189E-007
 -2.640000000000000E-002    9.866360890755451E-007
 -2.630000000000000E-002    1.085656586433407E-006
 -2.620000000000000E-002    1.190255081735408E-006
 -2.610000000000000E-002    1.300720579260892E-006
 -2.600000000000000E-002    1.417360680921359E-006
 -2.590000000000000E-002    1.540492318027675E-006
 -2.580000000000000E-002    1.670434811318426E-006
 -2.570000000000000E-002    1.807503826306794E-006
 -2.560000000000000E-002    1.952009196020044E-006
 -2.550000000000000E-002    2.104256614770806E-006
 -2.540000000000000E-002    2.264551807347299E-006
 -2.530000000000000E-002    2.433209108646694E-006
 -2.520000000000000E-002    2.610560981339698E-006
 -2.510000000000000E-002    2.796971111031527E-006
 -2.500000000000000E-002    2.992846017529813E-006
 -2.490000000000000E-002    3.198649625874634E-006
 -2.480000000000000E-002    3.414915404672484E-006
 -2.470000000000000E-002    3.642258519997530E-006
 -2.460000000000000E-002    3.881386327330271E-006
 -2.450000000000000E-002    4.133108700767492E-006
 -2.440000000000000E-002    4.398344406204577E-006
 -2.430000000000000E-002    4.678127106479167E-006
 -2.420000000000000E-002    4.973606456390114E-006
 -2.410000000000000E-002    5.286045830597074E-006
 -2.400000000000000E-002    5.616817499254503E-006
 -2.390000000000000E-002    5.967389238179727E-006
 -2.380000000000000E-002    6.339309136874909E-006
 -2.370000000000000E-002    6.734185171725055E-006
 -2.360000000000000E-002    7.153661684187051E-006
 -2.350000000000000E-002    7.599395561532747E-006
 -2.340000000000000E-002    8.073033798812692E-006
 -2.330000000000000E-002    8.576193484156022E-006
 -2.320000000000000E-002    9.110451298463920E-006
 -2.310000000000000E-002    9.677341297502903E-006
 -2.300000000000000E-002    1.027836106464026E-005
 -2.290000000000000E-002    1.091498773951036E-005
 -2.280000000000000E-002    1.158870708461420E-005
 -2.270000000000000E-002    1.230104686376490E-005
 -2.260000000000000E-002    1.305361246194745E-005
 -2.250000000000000E-002    1.384812885489372E-005
 -2.240000000000000E-002    1.468647247728537E-005
 -2.230000000000000E-002    1.557070315528722E-005
 -2.220000000000000E-002    1.650308297449211E-005
 -2.210000000000000E-002    1.748608892769719E-005
 -2.200000000000000E-002    1.852241133635719E-005
 -2.190000000000000E-002    1.961495203358646E-005
 -2.180000000000000E-002    2.076680680716335E-005
 -2.170000000000000E-002    2.198124874184830E-005
 -2.160000000000000E-002    2.326171868705999E-005
 -2.150000000000000E-002    2.461180521240808E-005
 -2.140000000000000E-002    2.603523481044226E-005
 -2.130000000000000E-002    2.753587350452849E-005
 -2.120000000000000E-002    2.911771827012342E-005
 -2.110000000000000E-002    3.078491378718144E-005
 -2.100000000000000E-002    3.254174888745639E-005
 -2.090000000000000E-002    3.439267740983308E-005
 -2.080000000000000E-002    3.634232466005828E-005
 -2.070000000000000E-002    3.839550392039573E-005
 -2.060000000000000E-002    4.055721506604174E-005
 -2.050000000000000E-002    4.283266566611760E-005
 -2.040000000000000E-002    4.522727192210267E-005
 -2.030000000000000E-002    4.774667031066711E-005
 -2.020000000000000E-002    5.039672823137033E-005
 -2.010000000000000E-002    5.318354418580824E-005
 -2.000000000000000E-002    5.611347429933571E-005
 -1.990000000000000E-002    5.919311991898479E-005
 -1.980000000000000E-002    6.242935559467929E-005
 -1.970000000000000E-002    6.582932705110417E-005
 -1.960000000000000E-002    6.940044980914251E-005
 -1.950000000000000E-002    7.315042644877304E-005
 -1.940000000000000E-002    7.708722823123652E-005
 -1.930000000000000E-002    8.121910464766312E-005
 -1.920000000000000E-002    8.555458699792720E-005
 -1.910000000000000E-002    9.010248470064092E-005
 -1.900000000000000E-002    9.487191154969587E-005
 -1.890000000000000E-002    9.987227390000635E-005
 -1.880000000000000E-002    1.051133250936972E-004
 -1.870000000000000E-002    1.106051830751817E-004
 -1.860000000000000E-002    1.163583570719787E-004
 -1.850000000000000E-002    1.223838138293924E-004
 -1.840000000000000E-002    1.286929949088044E-004
 -1.830000000000000E-002    1.352978532500238E-004
 -1.820000000000000E-002    1.422108760552485E-004
 -1.810000000000000E-002    1.494451151031127E-004
 -1.800000000000000E-002    1.570141573934629E-004
 -1.790000000000000E-002    1.649321375105494E-004
 -1.780000000000000E-002    1.732136936455611E-004
 -1.770000000000000E-002    1.818739744166514E-004
 -1.760000000000000E-002    1.909285828404707E-004
 -1.750000000000000E-002    2.003935577137723E-004
 -1.740000000000000E-002    2.102853636251906E-004
 -1.730000000000000E-002    2.206208684235191E-004
 -1.720000000000000E-002    2.314173723236723E-004
 -1.710000000000000E-002    2.426926156600486E-004
 -1.700000000000000E-002    2.544648048813449E-004
 -1.690000000000000E-002    2.667526865288626E-004
 -1.680000000000000E-002    2.795755960908870E-004
 -1.670000000000000E-002    2.929534909637328E-004
 -1.660000000000000E-002    3.069070879542351E-004
 -1.650000000000000E-002    3.214578217918292E-004
 -1.640000000000000E-002    3.366279636128644E-004
 -1.630000000000000E-002    3.524406798140331E-004
 -1.620000000000000E-002    3.689200067850309E-004
 -1.610000000000000E-002    3.860909081095223E-004
 -1.600000000000000E-002    4.039792914463431E-004
 -1.590000000000000E-002    4.226120125168945E-004
 -1.580000000000000E-002    4.420168726697790E-004
 -1.570000000000000E-002    4.622224989394401E-004
 -1.560000000000000E-002    4.832584863231904E-004
 -1.550000000000000E-002    5.051551359155490E-004
 -1.540000000000000E-002    5.279436216069227E-004
 -1.530000000000000E-002    5.516558397810336E-004
 -1.520000000000000E-002    5.763243919874543E-004
 -1.510000000000000E-002    6.019825281661038E-004
 -1.500000000000000E-002    6.286642109608720E-004
 -1.490000000000000E-002    6.564040641830212E-004
 -1.480000000000000E-002    6.852373357310660E-004
 -1.470000000000000E-002    7.152001234783372E-004
 -1.460000000000000E-002    7.463291311554643E-004
 -1.450000000000000E-002    7.786620976268147E-004
 -1.440000000000000E-002    8.122374762211532E-004
 -1.430000000000000E-002    8.470947527399773E-004
 -1.420000000000000E-002    8.832743929905517E-004
 -1.410000000000000E-002    9.208178942992653E-004
 -1.400000000000000E-002    9.597677100833495E-004
 -1.390000000000000E-002    1.000167513976107E-003
 -1.380000000000000E-002    1.042061876891977E-003
 -1.370000000000000E-002    1.085496385755105E-003
 -1.360000000000000E-002    1.130517582695900E-003
 -1.350000000000000E-002    1.177173058859821E-003
 -1.340000000000000E-002    1.225511203566384E-003
 -1.330000000000000E-002    1.275581471530988E-003
 -1.320000000000000E-002    1.327433966570462E-003
 -1.310000000000000E-002    1.381120004888501E-003
 -1.300000000000000E-002    1.436691669181131E-003
 -1.290000000000000E-002    1.494201788334570E-003
 -1.280000000000000E-002    1.553704413703123E-003
 -1.270000000000000E-002    1.615254304339848E-003
 -1.260000000000000E-002    1.678907395846396E-003
 -1.250000000000000E-002    1.744720210183686E-003
 -1.240000000000000E-002    1.812750205003404E-003
 -1.230000000000000E-002    1.883055755575873E-003
 -1.220000000000000E-002    1.955696018491047E-003
 -1.210000000000000E-002    2.030730827015125E-003
 -1.200000000000000E-002    2.108220875763817E-003
 -1.190000000000000E-002    2.188227315701495E-003
 -1.180000000000000E-002    2.270812204952511E-003
 -1.170000000000000E-002    2.356038313949857E-003
 -1.160000000000000E-002    2.443968851476826E-003
 -1.150000000000000E-002    2.534667763658706E-003
 -1.140000000000000E-002    2.628199678056938E-003
 -1.130000000000000E-002    2.724629742362792E-003
 -1.120000000000000E-002    2.824023577804856E-003
 -1.110000000000000E-002    2.926447161093337E-003
 -1.100000000000000E-002    3.031967118041965E-003
 -1.090000000000000E-002    3.140650195781435E-003
 -1.080000000000000E-002    3.252563543758316E-003
 -1.070000000000000E-002    3.367774346134888E-003
 -1.060000000000000E-002    3.486350095980111E-003
 -1.050000000000000E-002    3.608358266691787E-003
 -1.040000000000000E-002    3.733866587256387E-003
 -1.030000000000000E-002    3.862942661850081E-003
 -1.020000000000000E-002    3.995654326835340E-003
 -1.010000000000000E-002    4.132069316671275E-003
 -1.000000000000000E-002    4.272255528598327E-003
 -9.899999999999999E-003    4.416280533356614E-003
 -9.800000000000000E-003    4.564211403159310E-003
 -9.699999999999999E-003    4.716115577573057E-003
 -9.599999999999999E-003    4.872059858728246E-003
 -9.500000000000000E-003    5.032109558514476E-003
 -9.399999999999999E-003    5.196330503614489E-003
 -9.299999999999999E-003    5.364786589419726E-003
 -9.200000000000000E-003    5.537540719167594E-003
 -9.099999999999999E-003    5.714655342399101E-003
 -8.999999999999999E-003    5.896191023991797E-003
 -8.900000000000000E-003    6.082207433161813E-003
 -8.799999999999999E-003    6.272761941023794E-003
 -8.699999999999999E-003    6.467911242670225E-003
 -8.600000000000000E-003    6.667710501262094E-003
 -8.499999999999999E-003    6.872213045630092E-003
 -8.399999999999999E-003    7.081470383608134E-003
 -8.300000000000000E-003    7.295532014571351E-003
 -8.199999999999999E-003    7.514445622295222E-003
 -8.100000000000000E-003    7.738256589069771E-003
 -8.000000000000000E-003    7.967007970568046E-003
 -7.899999999999999E-003    8.200740674056389E-003
 -7.800000000000000E-003    8.439492702277644E-003
 -7.699999999999999E-003    8.683299515135419E-003
 -7.599999999999999E-003    8.932193070163909E-003
 -7.499999999999999E-003    9.186203300247610E-003
 -7.399999999999999E-003    9.445355969358787E-003
 -7.299999999999999E-003    9.709674162091593E-003
 -7.199999999999999E-003    9.979176690417655E-003
 -7.100000000000000E-003    1.025388011898058E-002
 -6.999999999999999E-003    1.053379571895468E-002
 -6.899999999999999E-003    1.081893213474840E-002
 -6.800000000000000E-003    1.110929291481773E-002
 -6.699999999999999E-003    1.140487731774341E-002
 -6.599999999999999E-003    1.170568140271067E-002
 -6.499999999999999E-003    1.201169452869260E-002
 -6.399999999999999E-003    1.232290328204552E-002
 -6.299999999999999E-003    1.263928785482481E-002
 -6.199999999999999E-003    1.296082245749746E-002
 -6.100000000000000E-003    1.328747764459156E-002
 -5.999999999999999E-003    1.361921725233855E-002
 -5.899999999999999E-003    1.395600013795994E-002
 -5.800000000000000E-003    1.429777863224312E-002
 -5.699999999999999E-003    1.464449967396016E-002
 -5.599999999999999E-003    1.499610467552650E-002
 -5.499999999999999E-003    1.535252675695340E-002
 -5.399999999999999E-003    1.571369360647299E-002
 -5.299999999999999E-003    1.607952592401119E-002
 -5.199999999999999E-003    1.644993699022205E-002
 -5.099999999999999E-003    1.682483350341944E-002
 -4.999999999999999E-003    1.720411343442929E-002
 -4.899999999999999E-003    1.758766930634492E-002
 -4.799999999999999E-003    1.797538400897430E-002
 -4.699999999999999E-003    1.836713345635149E-002
 -4.599999999999999E-003    1.876278416057390E-002
 -4.499999999999999E-003    1.916219622479414E-002
 -4.399999999999999E-003    1.956522214558678E-002
 -4.299999999999999E-003    1.997170338277236E-002
 -4.199999999999999E-003    2.038147433738065E-002
 -4.099999999999999E-003    2.079436043366324E-002
 -3.999999999999999E-003    2.121017971355104E-002
 -3.899999999999999E-003    2.162873761879887E-002
 -3.799999999999999E-003    2.204983451437023E-002
 -3.699999999999999E-003    2.247325875914332E-002
 -3.599999999999999E-003    2.289879059777001E-002
 -3.499999999999999E-003    2.332619943132567E-002
 -3.399999999999999E-003    2.375524594425133E-002
 -3.299999999999999E-003    2.418568007201235E-002
 -3.199999999999999E-003    2.461724209542445E-002
 -3.099999999999999E-003    2.504966159327889E-002
 -2.999999999999999E-003    2.548266027071756E-002
 -2.899999999999999E-003    2.591594672706417E-002
 -2.799999999999999E-003    2.634922277607004E-002
 -2.699999999999999E-003    2.678217522228054E-002
 -2.599999999999999E-003    2.721448402365114E-002
 -2.499999999999999E-003    2.764581657321439E-002
 -2.399999999999999E-003    2.807582952688259E-002
 -2.299999999999999E-003    2.850417035797341E-002
 -2.199999999999999E-003    2.893047707107664E-002
 -2.099999999999999E-003    2.935437284009611E-002
 -1.999999999999999E-003    2.977547244880987E-002
 -1.899999999999999E-003    3.019338114887450E-002
 -1.799999999999999E-003    3.060769058064970E-002
 -1.699999999999999E-003    3.101798377582103E-002
 -1.599999999999999E-003    3.142383291765769E-002
 -1.499999999999999E-003    3.182479987790500E-002
 -1.399999999999999E-003    3.222043617146909E-002
 -1.299999999999999E-003    3.261028205258343E-002
 -1.199999999999999E-003    3.299386805001351E-002
 -1.099999999999999E-003    3.337071405858184E-002
 -9.999999999999989E-004    3.374033014104080E-002
 -8.999999999999990E-004    3.410221413770322E-002
 -7.999999999999990E-004    3.445585907798764E-002
 -6.999999999999989E-004    3.480074246687318E-002
 -5.999999999999990E-004    3.513633605781102E-002
 -4.999999999999989E-004    3.546210126601731E-002
 -3.999999999999989E-004    3.577748933923400E-002
 -2.999999999999989E-004    3.608193981674232E-002
 -1.999999999999989E-004    3.637488908548259E-002
 -9.999999999999892E-005    3.665576129034866E-002
  1.084202172485504E-018    3.692397384109349E-002
  1.000000000000011E-004    3.717893165304592E-002
  2.000000000000011E-004    3.742003605695920E-002
  3.000000000000011E-004    3.764667620295992E-002
  4.000000000000011E-004    3.785823788335931E-002
  5.000000000000011E-004    3.805410252644231E-002
  6.000000000000011E-004    3.823363831065874E-002
  7.000000000000011E-004    3.839620496019543E-002
  8.000000000000011E-004    3.854116738543712E-002
  9.000000000000012E-004    3.866787452162557E-002
  1.000000000000001E-003    3.877567108939868E-002
  1.100000000000001E-003    3.886389907844053E-002
  1.200000000000001E-003    3.893190061004691E-002
  1.300000000000001E-003    3.897900143229967E-002
  1.400000000000001E-003    3.900453571244287E-002
  1.500000000000001E-003    3.900782488562626E-002
  1.600000000000001E-003    3.898819337761807E-002
  1.700000000000001E-003    3.894496265101491E-002
  1.800000000000001E-003    3.887744869954614E-002
  1.900000000000001E-003    3.878497012802403E-002
  2.000000000000001E-003    3.866684217937360E-002
  2.100000000000001E-003    3.852238135449488E-002
  2.200000000000001E-003    3.835090227750789E-002
  2.300000000000001E-003    3.815172283770344E-002
  2.400000000000001E-003    3.792416126338816E-002
  2.500000000000001E-003    3.766753492666563E-002
  2.600000000000001E-003    3.738117132888050E-002
  2.700000000000001E-003    3.706438991514570E-002
  2.800000000000001E-003    3.671652397226073E-002
  2.900000000000001E-003    3.633690735228250E-002
  3.000000000000001E-003    3.592487532833066E-002
  3.100000000000001E-003    3.547977272686397E-002
  3.200000000000001E-003    3.500094715529922E-002
  3.300000000000001E-003    3.448775790039095E-002
  3.400000000000001E-003    3.393956542712367E-002
  3.500000000000001E-003    3.335574224976139E-002
  3.600000000000001E-003    3.273567129329305E-002
  3.700000000000001E-003    3.207873812429993E-002
  3.800000000000001E-003    3.138434787814018E-002
  3.900000000000001E-003    3.065190728592701E-002
  4.000000000000001E-003    2.988084106249938E-002
  4.100000000000001E-003    2.907058511703799E-002
  4.200000000000001E-003    2.822058696028394E-002
  4.300000000000001E-003    2.733030789497427E-002
  4.400000000000001E-003    2.639922609123227E-002
  4.500000000000001E-003    2.542683148227633E-002
  4.600000000000002E-003    2.441263332270243E-002
  4.700000000000001E-003    2.335615219294762E-002
  4.800000000000001E-003    2.225693258677197E-002
  4.900000000000002E-003    2.111453305417896E-002
  5.000000000000001E-003    1.992853222389437E-002
  5.100000000000001E-003    1.869852619468591E-002
  5.200000000000001E-003    1.742413563635559E-002
  5.300000000000002E-003    1.610499831762896E-002
  5.400000000000001E-003    1.474077721229230E-002
  5.500000000000001E-003    1.333115413485823E-002
  5.600000000000002E-003    1.187583621777059E-002
  5.700000000000001E-003    1.037455581255640E-002
  5.800000000000001E-003    8.827066358063313E-003
  5.900000000000002E-003    7.233149098627212E-003
  6.000000000000001E-003    5.592609732171766E-003
  6.100000000000001E-003    3.905280609031585E-003
  6.200000000000002E-003    2.171021680801139E-003
  6.300000000000002E-003    3.897220068258260E-004
  6.400000000000001E-003   -1.438701802876702E-003
  6.500000000000001E-003   -3.314305286445233E-003
  6.600000000000002E-003   -5.237111396353511E-003
  6.700000000000001E-003   -7.207114324951637E-003
  6.800000000000001E-003   -9.224276695766663E-003
  6.900000000000002E-003   -1.128852734961877E-002
  7.000000000000001E-003   -1.339976597017740E-002
  7.100000000000001E-003   -1.555785680509027E-002
  7.200000000000002E-003   -1.776263532732137E-002
  7.300000000000002E-003   -2.001389752844110E-002
  7.400000000000001E-003   -2.231141034826561E-002
  7.500000000000001E-003   -2.465490323380743E-002
  7.600000000000002E-003   -2.704407239055187E-002
  7.700000000000001E-003   -2.947857664702068E-002
  7.800000000000001E-003   -3.195803846004991E-002
  7.900000000000001E-003   -3.448204955275092E-002
  8.000000000000002E-003   -3.705015527512361E-002
  8.100000000000001E-003   -3.966187113983891E-002
  8.200000000000001E-003   -4.231667458574412E-002
  8.300000000000002E-003   -4.501400014085515E-002
  8.400000000000001E-003   -4.775324823489860E-002
  8.500000000000002E-003   -5.053378257837231E-002
  8.600000000000002E-003   -5.335492791079091E-002
  8.700000000000001E-003   -5.621597078607469E-002
  8.800000000000002E-003   -5.911615165366891E-002
  8.900000000000002E-003   -6.205468587668639E-002
  9.000000000000001E-003   -6.503074034490616E-002
  9.100000000000002E-003   -6.804344327014306E-002
  9.200000000000002E-003   -7.109189594134888E-002
  9.300000000000001E-003   -7.417514406691716E-002
  9.400000000000002E-003   -7.729219750804792E-002
  9.500000000000001E-003   -8.044204142838432E-002
  9.600000000000001E-003   -8.362360946960060E-002
  9.700000000000002E-003   -8.683580174251226E-002
  9.800000000000001E-003   -9.007747793049531E-002
  9.900000000000001E-003   -9.334745587517967E-002
  1.000000000000000E-002   -9.664451908470964E-002
  1.010000000000000E-002   -9.996741979099681E-002
  1.020000000000000E-002   -0.103314868192640     
  1.030000000000000E-002   -0.106685531544779     
  1.040000000000000E-002   -0.110078046640780     
  1.050000000000000E-002   -0.113491018884406     
  1.060000000000000E-002   -0.116923007345783     
  1.070000000000000E-002   -0.120372541299284     
  1.080000000000000E-002   -0.123838127263543     
  1.090000000000000E-002   -0.127318218770187     
  1.100000000000000E-002   -0.130811259583000     
  1.110000000000000E-002   -0.134315636820576     
  1.120000000000000E-002   -0.137829724063542     
  1.130000000000000E-002   -0.141351850652419     
  1.140000000000000E-002   -0.144880323615839     
  1.150000000000000E-002   -0.148413412114315     
  1.160000000000000E-002   -0.151949374667177     
  1.170000000000000E-002   -0.155486424702232     
  1.180000000000000E-002   -0.159022757917342     
  1.190000000000000E-002   -0.162556552388475     
  1.200000000000000E-002   -0.166085947180873     
  1.210000000000000E-002   -0.169609051844758     
  1.220000000000000E-002   -0.173123976912539     
  1.230000000000000E-002   -0.176628790106120     
  1.240000000000000E-002   -0.180121546391071     
  1.250000000000000E-002   -0.183600290553379     
  1.260000000000000E-002   -0.187063035940357     
  1.270000000000000E-002   -0.190507789088624     
  1.280000000000000E-002   -0.193932531766982     
  1.290000000000000E-002   -0.197335236160233     
  1.300000000000000E-002   -0.200713860803463     
  1.310000000000000E-002   -0.204066363393382     
  1.320000000000000E-002   -0.207390682936281     
  1.330000000000000E-002   -0.210684752199035     
  1.340000000000000E-002   -0.213946496346901     
  1.350000000000000E-002   -0.217173827997199     
  1.360000000000000E-002   -0.220364680309501     
  1.370000000000000E-002   -0.223516965309878     
  1.380000000000000E-002   -0.226628574299247     
  1.390000000000000E-002   -0.229697462442922     
  1.400000000000000E-002   -0.232721510992074     
  1.410000000000000E-002   -0.235698650992572     
  1.420000000000000E-002   -0.238626810712702     
  1.430000000000000E-002   -0.241503939676831     
  1.440000000000000E-002   -0.244327967787023     
  1.450000000000000E-002   -0.247096849689024     
  1.460000000000000E-002   -0.249808562856227     
  1.470000000000000E-002   -0.252461068970162     
  1.480000000000000E-002   -0.255052387251496     
  1.490000000000000E-002   -0.257580515418812     
  1.500000000000000E-002   -0.260043487871815     
  1.510000000000000E-002   -0.262439369185739     
  1.520000000000000E-002   -0.264766220399624     
  1.530000000000000E-002   -0.267022151226713     
  1.540000000000000E-002   -0.269205291263880     
  1.550000000000000E-002   -0.271313786985800     
  1.560000000000000E-002   -0.273345829432106     
  1.570000000000000E-002   -0.275299621943733     
  1.580000000000000E-002   -0.277173423630607     
  1.590000000000000E-002   -0.278965523680299     
  1.600000000000000E-002   -0.280674224928568     
  1.610000000000000E-002   -0.282297905063636     
  1.620000000000000E-002   -0.283834934397457     
  1.630000000000000E-002   -0.285283769139864     
  1.640000000000000E-002   -0.286642900767540     
  1.650000000000000E-002   -0.287910825589394     
  1.660000000000000E-002   -0.289086130569010     
  1.670000000000000E-002   -0.290167419259632     
  1.680000000000000E-002   -0.291153363529463     
  1.690000000000000E-002   -0.292042679274725     
  1.700000000000000E-002   -0.292834122151344     
  1.710000000000000E-002   -0.293526548573209     
  1.720000000000000E-002   -0.294118806901477     
  1.730000000000000E-002   -0.294609823790677     
  1.740000000000000E-002   -0.294998620398909     
  1.750000000000000E-002   -0.295284209223936     
  1.760000000000000E-002   -0.295465708635797     
  1.770000000000000E-002   -0.295542275605733     
  1.780000000000000E-002   -0.295513144931883     
  1.790000000000000E-002   -0.295377572675239     
  1.800000000000000E-002   -0.295134959763827     
  1.810000000000000E-002   -0.294784700153677     
  1.820000000000000E-002   -0.294326251738194     
  1.830000000000000E-002   -0.293759187666349     
  1.840000000000000E-002   -0.293083141512375     
  1.850000000000000E-002   -0.292297760136206     
  1.860000000000000E-002   -0.291402817004033     
  1.870000000000000E-002   -0.290398140112527     