 -4.000000000000000E-002    0.000000000000000E+000
 -3.990000000000000E-002    0.000000000000000E+000
 -3.980000000000000E-002    0.000000000000000E+000
 -3.970000000000000E-002    8.031643396904275E-016
 -3.960000000000000E-002    5.090185291259861E-015
 -3.950000000000000E-002    1.989029710053226E-014
 -3.940000000000000E-002    6.264599557160847E-014
 -3.930000000000000E-002    1.720245423094943E-013
 -3.920000000000000E-002    4.214272380028460E-013
 -3.910000000000000E-002    9.290606712487346E-013
 -3.900000000000000E-002    1.855415575588025E-012
 -3.890000000000000E-002    3.378899028745725E-012
 -3.880000000000000E-002    5.644170482882901E-012
 -3.870000000000000E-002    8.685151102058205E-012
 -3.860000000000000E-002    1.233412248985774E-011
 -3.850000000000000E-002    1.613723626658592E-011
 -3.840000000000000E-002    1.930229403971660E-011
 -3.830000000000000E-002    2.070448629353884E-011
 -3.820000000000000E-002    1.896876057558264E-011
 -3.810000000000000E-002    1.263410195017930E-011
 -3.800000000000000E-002    3.874202302321606E-013
 -3.790000000000000E-002   -1.866312499848577E-011
 -3.780000000000000E-002   -4.472048606026384E-011
 -3.770000000000000E-002   -7.708845438512926E-011
 -3.760000000000000E-002   -1.140677352186668E-010
 -3.750000000000000E-002   -1.529933401231686E-010
 -3.740000000000000E-002   -1.904254208677290E-010
 -3.730000000000000E-002   -2.224776826837808E-010
 -3.720000000000000E-002   -2.452398172109040E-010
 -3.710000000000000E-002   -2.552286722118546E-010
 -3.700000000000000E-002   -2.497932563946227E-010
 -3.690000000000000E-002   -2.274026625534168E-010
 -3.680000000000000E-002   -1.877658992618382E-010
 -3.670000000000000E-002   -1.317637365905406E-010
 -3.660000000000000E-002   -6.121042968007222E-011
 -3.650000000000000E-002    2.150129470324074E-011
 -3.640000000000000E-002    1.137912164130440E-010
 -3.630000000000000E-002    2.132290582676227E-010
 -3.620000000000000E-002    3.177366623673154E-010
 -3.610000000000000E-002    4.256044471678177E-010
 -3.600000000000000E-002    5.353139319261753E-010
 -3.590000000000000E-002    6.452082203401667E-010
 -3.580000000000000E-002    7.530964768058170E-010
 -3.570000000000000E-002    8.559067771985760E-010
 -3.560000000000000E-002    9.495054077479375E-010
 -3.550000000000000E-002    1.028774424470046E-009
 -3.540000000000000E-002    1.087988078637800E-009
 -3.530000000000000E-002    1.121458237772374E-009
 -3.520000000000000E-002    1.124344292651531E-009
 -3.510000000000000E-002    1.093460258800220E-009
 -3.500000000000000E-002    1.027877615631969E-009
 -3.490000000000000E-002    9.291292028271466E-010
 -3.480000000000000E-002    8.008734188891960E-010
 -3.470000000000000E-002    6.479669786350459E-010
 -3.460000000000000E-002    4.750241957891055E-010
 -3.450000000000000E-002    2.846599842343519E-010
 -3.440000000000000E-002    7.572968485545024E-011
 -3.430000000000000E-002   -1.580612687720480E-010
 -3.420000000000000E-002   -4.288074475379411E-010
 -3.410000000000000E-002   -7.540171532991608E-010
 -3.400000000000000E-002   -1.155037212716238E-009
 -3.390000000000000E-002   -1.654336366453186E-009
 -3.380000000000000E-002   -2.271903954466901E-009
 -3.370000000000000E-002   -3.021217106325193E-009
 -3.360000000000000E-002   -3.905366265816910E-009
 -3.350000000000000E-002   -4.913956426008363E-009
 -3.340000000000000E-002   -6.021357388360451E-009
 -3.330000000000000E-002   -7.186663286341946E-009
 -3.320000000000000E-002   -8.355483662167278E-009
 -3.310000000000000E-002   -9.463351053570138E-009
 -3.300000000000000E-002   -1.044025411752882E-008
 -3.290000000000000E-002   -1.121554581372263E-008
 -3.280000000000000E-002   -1.172239119466187E-008
 -3.270000000000000E-002   -1.190095403954568E-008
 -3.260000000000000E-002   -1.169974545318660E-008
 -3.250000000000000E-002   -1.107492628927499E-008
 -3.240000000000000E-002   -9.987804683934775E-009
 -3.230000000000000E-002   -8.401257093874165E-009
 -3.220000000000000E-002   -6.276221232789490E-009
 -3.210000000000000E-002   -3.569648287203892E-009
 -3.200000000000000E-002   -2.353539299297293E-010
 -3.190000000000000E-002    3.771009248148634E-009
 -3.180000000000000E-002    8.482126057894723E-009
 -3.170000000000000E-002    1.390428652519631E-008
 -3.160000000000000E-002    1.999848932528469E-008
 -3.150000000000000E-002    2.665894878146144E-008
 -3.140000000000000E-002    3.369126101506372E-008
 -3.130000000000000E-002    4.079290665930917E-008
 -3.120000000000000E-002    4.753891873179794E-008
 -3.110000000000000E-002    5.337525257134972E-008
 -3.100000000000000E-002    5.762171670783176E-008
 -3.090000000000000E-002    5.948542869834767E-008
 -3.080000000000000E-002    5.808455071092141E-008
 -3.070000000000000E-002    5.248084744150158E-008
 -3.060000000000000E-002    4.171851442620844E-008
 -3.050000000000000E-002    2.486590671938219E-008
 -3.040000000000000E-002    1.056296216811501E-009
 -3.030000000000000E-002   -3.047616529834955E-008
 -3.020000000000000E-002   -7.036864191181127E-008
 -3.010000000000000E-002   -1.191124942555848E-007
 -3.000000000000000E-002   -1.770481025818879E-007
 -2.990000000000000E-002   -2.443717318545732E-007
 -2.980000000000000E-002   -3.211529352467059E-007
 -2.970000000000000E-002   -4.073604588289056E-007
 -2.960000000000000E-002   -5.028929521784833E-007
 -2.950000000000000E-002   -6.076116959470329E-007
 -2.940000000000000E-002   -7.213714345033068E-007
 -2.930000000000000E-002   -8.440465111398120E-007
 -2.920000000000000E-002   -9.755508345371245E-007
 -2.910000000000000E-002   -1.115850435960464E-006
 -2.900000000000000E-002   -1.264968512349961E-006
 -2.890000000000000E-002   -1.422985395624564E-006
 -2.880000000000000E-002   -1.590033952520269E-006
 -2.870000000000000E-002   -1.766294121756438E-006
 -2.860000000000000E-002   -1.951988025640837E-006
 -2.850000000000000E-002   -2.147378704462332E-006
 -2.840000000000000E-002   -2.352772627943707E-006
 -2.830000000000000E-002   -2.568528027564576E-006
 -2.820000000000000E-002   -2.795067722483255E-006
 -2.810000000000000E-002   -3.032895302596270E-006
 -2.800000000000000E-002   -3.282613147435349E-006
 -2.790000000000000E-002   -3.544939682425537E-006
 -2.780000000000000E-002   -3.820723679627652E-006
 -2.770000000000000E-002   -4.110953744288160E-006
 -2.760000000000000E-002   -4.416760638815910E-006
 -2.750000000000000E-002   -4.739413616507585E-006
 -2.740000000000000E-002   -5.080307264711293E-006
 -2.730000000000000E-002   -5.440943685784381E-006
 -2.720000000000000E-002   -5.822908528634578E-006
 -2.710000000000000E-002   -6.227846227352202E-006
 -2.700000000000000E-002   -6.657432813855292E-006
 -2.690000000000000E-002   -7.113351158879025E-006
 -2.680000000000000E-002   -7.597270105989357E-006
 -2.670000000000000E-002   -8.110830126232433E-006
 -2.660000000000000E-002   -8.655633650211145E-006
 -2.650000000000000E-002   -9.233243993769126E-006
 -2.640000000000000E-002   -9.845190535243255E-006
 -2.630000000000000E-002   -1.049298209938856E-005
 -2.620000000000000E-002   -1.117812378553776E-005
 -2.610000000000000E-002   -1.190214176216182E-005
 -2.600000000000000E-002   -1.266661285475640E-005
 -2.590000000000000E-002   -1.347319368830960E-005
 -2.580000000000000E-002   -1.432365465816244E-005
 -2.570000000000000E-002   -1.521991791839967E-005
 -2.560000000000000E-002   -1.616408920758646E-005
 -2.550000000000000E-002   -1.715849576296932E-005
 -2.540000000000000E-002   -1.820571056841093E-005
 -2.530000000000000E-002   -1.930857980207683E-005
 -2.520000000000000E-002   -2.047023818070021E-005
 -2.510000000000000E-002   -2.169411818471578E-005
 -2.500000000000000E-002   -2.298393850951070E-005
 -2.490000000000000E-002   -2.434369616551217E-005
 -2.480000000000000E-002   -2.577763498972657E-005
 -2.470000000000000E-002   -2.729020580680997E-005
 -2.460000000000000E-002   -2.888602468255161E-005
 -2.450000000000000E-002   -3.056983048025546E-005
 -2.440000000000000E-002   -3.234644070147463E-005
 -2.430000000000000E-002   -3.422071798736322E-005
 -2.420000000000000E-002   -3.619754065777870E-005
 -2.410000000000000E-002   -3.828181349060702E-005
 -2.400000000000000E-002   -4.047846582276822E-005
 -2.390000000000000E-002   -4.279249869735370E-005
 -2.380000000000000E-002   -4.522902994890062E-005
 -2.370000000000000E-002   -4.779335283284295E-005
 -2.360000000000000E-002   -5.049101777770996E-005
 -2.350000000000000E-002   -5.332790327167900E-005
 -2.340000000000000E-002   -5.631027340442895E-005
 -2.330000000000000E-002   -5.944483902636963E-005
 -2.320000000000000E-002   -6.273879637030247E-005
 -2.310000000000000E-002   -6.619984481583101E-005
 -2.300000000000000E-002   -6.983617155202089E-005
 -2.290000000000000E-002   -7.365645850172599E-005
 -2.280000000000000E-002   -7.766982819640481E-005
 -2.270000000000000E-002   -8.188581474318640E-005
 -2.260000000000000E-002   -8.631432235317735E-005
 -2.250000000000000E-002   -9.096559741454739E-005
 -2.240000000000000E-002   -9.585019501005918E-005
 -2.230000000000000E-002   -1.009789881648543E-004
 -2.220000000000000E-002   -1.063631543064644E-004
 -2.210000000000000E-002   -1.120142059460348E-004
 -2.200000000000000E-002   -1.179440274722672E-004
 -2.190000000000000E-002   -1.241648932164414E-004
 -2.180000000000000E-002   -1.306895339565353E-004
 -2.170000000000000E-002   -1.375311669271042E-004
 -2.160000000000000E-002   -1.447035348960173E-004
 -2.150000000000000E-002   -1.522209615868033E-004
 -2.140000000000000E-002   -1.600983289816790E-004
 -2.130000000000000E-002   -1.683511380762992E-004
 -2.120000000000000E-002   -1.769955037930170E-004
 -2.110000000000000E-002   -1.860481876437536E-004
 -2.100000000000000E-002   -1.955265791204280E-004
 -2.090000000000000E-002   -2.054487252473393E-004
 -2.080000000000000E-002   -2.158333312637176E-004
 -2.070000000000000E-002   -2.266997798988260E-004
 -2.060000000000000E-002   -2.380681019945139E-004
 -2.050000000000000E-002   -2.499590366447704E-004
 -2.040000000000000E-002   -2.623939662861663E-004
 -2.030000000000000E-002   -2.753950209439262E-004
 -2.020000000000000E-002   -2.889849351209714E-004
 -2.010000000000000E-002   -3.031871725996499E-004
 -2.000000000000000E-002   -3.180258651622150E-004
 -1.990000000000000E-002   -3.335258225783495E-004
 -1.980000000000000E-002   -3.497126172741472E-004
 -1.970000000000000E-002   -3.666125337107488E-004
 -1.960000000000000E-002   -3.842526879760013E-004
 -1.950000000000000E-002   -4.026610003313784E-004
 -1.940000000000000E-002   -4.218663171309593E-004
 -1.930000000000000E-002   -4.418984529755912E-004
 -1.920000000000000E-002   -4.627881894356063E-004
 -1.910000000000000E-002   -4.845673928382507E-004
 -1.900000000000000E-002   -5.072689451460144E-004
 -1.890000000000000E-002   -5.309268245034214E-004
 -1.880000000000000E-002   -5.555760325004455E-004
 -1.870000000000000E-002   -5.812525888917286E-004
 -1.860000000000000E-002   -6.079934770097877E-004
 -1.850000000000000E-002   -6.358364840209538E-004
 -1.840000000000000E-002   -6.648203474618035E-004
 -1.830000000000000E-002   -6.949845009918762E-004
 -1.820000000000000E-002   -7.263692433279338E-004
 -1.810000000000000E-002   -7.590154727649921E-004
 -1.800000000000000E-002   -7.929649551518981E-004
 -1.790000000000000E-002   -8.282602526245450E-004
 -1.780000000000000E-002   -8.649447013092937E-004
 -1.770000000000000E-002   -9.030626155551978E-004
 -1.760000000000000E-002   -9.426592312334362E-004
 -1.750000000000000E-002   -9.837809174974173E-004
 -1.740000000000000E-002   -1.026474870677957E-003
 -1.730000000000000E-002   -1.070789732139173E-003
 -1.720000000000000E-002   -1.116775009004660E-003
 -1.710000000000000E-002   -1.164481428128552E-003
 -1.700000000000000E-002   -1.213960894293716E-003
 -1.690000000000000E-002   -1.265266405170672E-003
 -1.680000000000000E-002   -1.318451939372789E-003
 -1.670000000000000E-002   -1.373572746342124E-003
 -1.660000000000000E-002   -1.430684829916434E-003
 -1.650000000000000E-002   -1.489845247734126E-003
 -1.640000000000000E-002   -1.551111987124488E-003
 -1.630000000000000E-002   -1.614544038727452E-003
 -1.620000000000000E-002   -1.680201010241225E-003
 -1.610000000000000E-002   -1.748143502165591E-003
 -1.600000000000000E-002   -1.818432660391671E-003
 -1.590000000000000E-002   -1.891130521065826E-003
 -1.580000000000000E-002   -1.966299630217413E-003
 -1.570000000000000E-002   -2.044003006286971E-003
 -1.560000000000000E-002   -2.124304682845176E-003
 -1.550000000000000E-002   -2.207268531995290E-003
 -1.540000000000000E-002   -2.292959314379161E-003
 -1.530000000000000E-002   -2.381441983984868E-003
 -1.520000000000000E-002   -2.472781948317336E-003
 -1.510000000000000E-002   -2.567044989457190E-003
 -1.500000000000000E-002   -2.664297269965509E-003
 -1.490000000000000E-002   -2.764604947047286E-003
 -1.480000000000000E-002   -2.868034453743965E-003
 -1.470000000000000E-002   -2.974652213953629E-003
 -1.460000000000000E-002   -3.084524796145119E-003
 -1.450000000000000E-002   -3.197718708654045E-003
 -1.440000000000000E-002   -3.314299929146253E-003
 -1.430000000000000E-002   -3.434334268539503E-003
 -1.420000000000000E-002   -3.557887007131333E-003
 -1.410000000000000E-002   -3.685022735046875E-003
 -1.400000000000000E-002   -3.815805737551108E-003
 -1.390000000000000E-002   -3.950299091371581E-003
 -1.380000000000000E-002   -4.088565480840245E-003
 -1.370000000000000E-002   -4.230666065925079E-003
 -1.360000000000000E-002   -4.376661872465828E-003
 -1.350000000000000E-002   -4.526612312564088E-003
 -1.340000000000000E-002   -4.680575716816458E-003
 -1.330000000000000E-002   -4.838609614290807E-003
 -1.320000000000000E-002   -5.000769310715412E-003
 -1.310000000000000E-002   -5.167108510732097E-003
 -1.300000000000000E-002   -5.337679639547873E-003
 -1.290000000000000E-002   -5.512531859351227E-003
 -1.280000000000000E-002   -5.691713845045425E-003
 -1.270000000000000E-002   -5.875270032490742E-003
 -1.260000000000000E-002   -6.063243434635393E-003
 -1.250000000000000E-002   -6.255673433455977E-003
 -1.240000000000000E-002   -6.452596072289643E-003
 -1.230000000000000E-002   -6.654045068672103E-003
 -1.220000000000000E-002   -6.860050228264327E-003
 -1.210000000000000E-002   -7.070637474515060E-003
 -1.200000000000000E-002   -7.285829981143648E-003
 -1.190000000000000E-002   -7.505645844299994E-003
 -1.180000000000000E-002   -7.730099210338024E-003
 -1.170000000000000E-002   -7.959200516367901E-003
 -1.160000000000000E-002   -8.192954764544015E-003
 -1.150000000000000E-002   -8.431363549790277E-003
 -1.140000000000000E-002   -8.674421502427740E-003
 -1.130000000000000E-002   -8.922119359846957E-003
 -1.120000000000000E-002   -9.174441788583643E-003
 -1.110000000000000E-002   -9.431367839959215E-003
 -1.100000000000000E-002   -9.692870781581361E-003
 -1.090000000000000E-002   -9.958916655519191E-003
 -1.080000000000000E-002   -1.022946709319883E-002
 -1.070000000000000E-002   -1.050447500412273E-002
 -1.060000000000000E-002   -1.078388822251924E-002
 -1.050000000000000E-002   -1.106764650809395E-002
 -1.040000000000000E-002   -1.135568178016404E-002
 -1.030000000000000E-002   -1.164791923252266E-002
 -1.020000000000000E-002   -1.194427575814454E-002
 -1.010000000000000E-002   -1.224466014240345E-002
 -1.000000000000000E-002   -1.254897234391721E-002
 -9.899999999999999E-003   -1.285710287959483E-002
 -9.800000000000000E-003   -1.316893480348288E-002
 -9.699999999999999E-003   -1.348433985977027E-002
 -9.599999999999999E-003   -1.380318151615878E-002
 -9.500000000000000E-003   -1.412531132267905E-002
 -9.399999999999999E-003   -1.445057391913621E-002
 -9.299999999999999E-003   -1.477880004023705E-002
 -9.200000000000000E-003   -1.510981258294504E-002
 -9.099999999999999E-003   -1.544342362476246E-002
 -8.999999999999999E-003   -1.577943110235343E-002
 -8.900000000000000E-003   -1.611762583693826E-002
 -8.799999999999999E-003   -1.645778418691674E-002
 -8.699999999999999E-003   -1.679967134277811E-002
 -8.600000000000000E-003   -1.714304293136251E-002
 -8.499999999999999E-003   -1.748763917671806E-002
 -8.399999999999999E-003   -1.783318883073273E-002
 -8.300000000000000E-003   -1.817940896244191E-002
 -8.199999999999999E-003   -1.852600137306001E-002
 -8.100000000000000E-003   -1.887265944110118E-002
 -8.000000000000000E-003   -1.921905814080112E-002
 -7.899999999999999E-003   -1.956486289437486E-002
 -7.800000000000000E-003   -1.990972447128306E-002
 -7.699999999999999E-003   -2.025327993082177E-002
 -7.599999999999999E-003   -2.059515266848083E-002
 -7.499999999999999E-003   -2.093495476089239E-002
 -7.399999999999999E-003   -2.127227934593997E-002
 -7.299999999999999E-003   -2.160671199952653E-002
 -7.199999999999999E-003   -2.193781857450176E-002
 -7.100000000000000E-003   -2.226515441565241E-002
 -6.999999999999999E-003   -2.258825713639363E-002
 -6.899999999999999E-003   -2.290665428521510E-002
 -6.800000000000000E-003   -2.321985769053916E-002
 -6.699999999999999E-003   -2.352736340707425E-002
 -6.599999999999999E-003   -2.382865606612529E-002
 -6.499999999999999E-003   -2.412320322201827E-002
 -6.399999999999999E-003   -2.441045981394696E-002
 -6.299999999999999E-003   -2.468986816866516E-002
 -6.199999999999999E-003   -2.496085623069446E-002
 -6.100000000000000E-003   -2.522283620252619E-002
 -5.999999999999999E-003   -2.547520961020090E-002
 -5.899999999999999E-003   -2.571736466801186E-002
 -5.800000000000000E-003   -2.594867548850615E-002
 -5.699999999999999E-003   -2.616850352311448E-002
 -5.599999999999999E-003   -2.637619687052863E-002
 -5.499999999999999E-003   -2.657109131597394E-002
 -5.399999999999999E-003   -2.675251299575176E-002
 -5.299999999999999E-003   -2.691977509490074E-002
 -5.199999999999999E-003   -2.707217900084933E-002
 -5.099999999999999E-003   -2.720901448698920E-002
 -4.999999999999999E-003   -2.732956182454066E-002
 -4.899999999999999E-003   -2.743309072479768E-002
 -4.799999999999999E-003   -2.751886119478478E-002
 -4.699999999999999E-003   -2.758612509116094E-002
 -4.599999999999999E-003   -2.763412523250134E-002
 -4.499999999999999E-003   -2.766209519861431E-002
 -4.399999999999999E-003   -2.766926346797939E-002
 -4.299999999999999E-003   -2.765485002901042E-002
 -4.199999999999999E-003   -2.761806909944114E-002
 -4.099999999999999E-003   -2.755812932643941E-002
 -3.999999999999999E-003   -2.747423534350494E-002
 -3.899999999999999E-003   -2.736558679561995E-002
 -3.799999999999999E-003   -2.723138052031830E-002
 -3.699999999999999E-003   -2.707081228425348E-002
 -3.599999999999999E-003   -2.688307306154609E-002
 -3.499999999999999E-003   -2.666735390514114E-002
 -3.399999999999999E-003   -2.642284706920755E-002
 -3.299999999999999E-003   -2.614874440419600E-002
 -3.199999999999999E-003   -2.584424086294455E-002
 -3.099999999999999E-003   -2.550853308111842E-002
 -2.999999999999999E-003   -2.514082098622068E-002
 -2.899999999999999E-003   -2.474030898344343E-002
 -2.799999999999999E-003   -2.430620965262802E-002
 -2.699999999999999E-003   -2.383773840671791E-002
 -2.599999999999999E-003   -2.333412298909052E-002
 -2.499999999999999E-003   -2.279459386541225E-002
 -2.399999999999999E-003   -2.221839699313063E-002
 -2.299999999999999E-003   -2.160478763569771E-002
 -2.199999999999999E-003   -2.095303279846932E-002
 -2.099999999999999E-003   -2.026241603763660E-002
 -1.999999999999999E-003   -1.953223199494804E-002
 -1.899999999999999E-003   -1.876179204611157E-002
 -1.799999999999999E-003   -1.795042494724667E-002
 -1.699999999999999E-003   -1.709747801437349E-002
 -1.599999999999999E-003   -1.620231859889572E-002
 -1.499999999999999E-003   -1.526433218745362E-002
 -1.399999999999999E-003   -1.428292869882437E-002
 -1.299999999999999E-003   -1.325754044719157E-002
 -1.199999999999999E-003   -1.218762390255692E-002
 -1.099999999999999E-003   -1.107266187959412E-002
 -9.999999999999989E-004   -9.912164939249584E-003
 -8.999999999999990E-004   -8.705671008568524E-003
 -7.999999999999990E-004   -7.452748286476408E-003
 -6.999999999999989E-004   -6.152996375156184E-003
 -5.999999999999990E-004   -4.806046083461443E-003
 -4.999999999999989E-004   -3.411562936293214E-003
 -3.999999999999989E-004   -1.969246952314909E-003
 -2.999999999999989E-004   -4.788329179116174E-004
 -1.999999999999989E-004    1.059904769434414E-003
 -9.999999999999892E-005    2.647155463375120E-003
  1.084202172485504E-018    4.283069505720965E-003
  1.000000000000011E-004    5.967753035787161E-003
  2.000000000000011E-004    7.701274556641559E-003
  3.000000000000011E-004    9.483656494936588E-003
  4.000000000000011E-004    1.131487747493089E-002
  5.000000000000011E-004    1.319487099424671E-002
  6.000000000000011E-004    1.512352321307098E-002
  7.000000000000011E-004    1.710067513275597E-002
  8.000000000000011E-004    1.912611548770808E-002
  9.000000000000012E-004    2.119958838552144E-002
  1.000000000000001E-003    2.332078423188641E-002
  1.100000000000001E-003    2.548934223335429E-002
  1.200000000000001E-003    2.770485201768996E-002
  1.300000000000001E-003    2.996684955621935E-002
  1.400000000000001E-003    3.227481511655909E-002
  1.500000000000001E-003    3.462817928217592E-002
  1.600000000000001E-003    3.702631806890062E-002
  1.700000000000001E-003    3.946854711871871E-002
  1.800000000000001E-003    4.195412843458736E-002
  1.900000000000001E-003    4.448226969252893E-002
  2.000000000000001E-003    4.705211984628899E-002
  2.100000000000001E-003    4.966276796382520E-002
  2.200000000000001E-003    5.231325120033632E-002
  2.300000000000001E-003    5.500254285120280E-002
  2.400000000000001E-003    5.772956556895088E-002
  2.500000000000001E-003    6.049317916935736E-002
  2.600000000000001E-003    6.329218385564067E-002
  2.700000000000001E-003    6.612532853183412E-002
  2.800000000000001E-003    6.899129480066227E-002
  2.900000000000001E-003    7.188871112063212E-002
  3.000000000000001E-003    7.481614913663685E-002
  3.100000000000001E-003    7.777212483010502E-002
  3.200000000000001E-003    8.075509703634422E-002
  3.300000000000001E-003    8.376346561409242E-002
  3.400000000000001E-003    8.679557658517204E-002
  3.500000000000001E-003    8.984972273465201E-002
  3.600000000000001E-003    9.292413705370010E-002
  3.700000000000001E-003    9.601700256011178E-002
  3.800000000000001E-003    9.912644879881675E-002
  3.900000000000001E-003    0.102250554724298     
  4.000000000000001E-003    0.105387348762968     
  4.100000000000001E-003    0.108534808220835     
  4.200000000000001E-003    0.111690870739823     
  4.300000000000001E-003    0.114853412538416     
  4.400000000000001E-003    0.118020269892894     
  4.500000000000001E-003    0.121189250783278     
  4.600000000000002E-003    0.124358094002615     
  4.700000000000001E-003    0.127524507663018     
  4.800000000000001E-003    0.130686167046142     
  4.900000000000002E-003    0.133840701766516     
  5.000000000000001E-003    0.136985715569630     
  5.100000000000001E-003    0.140118759831982     
  5.200000000000001E-003    0.143237381372189     
  5.300000000000002E-003    0.146339069403956     
  5.400000000000001E-003    0.149421311870895     
  5.500000000000001E-003    0.152481545621634     
  5.600000000000002E-003    0.155517197576848     
  5.700000000000001E-003    0.158525677767961     
  5.800000000000001E-003    0.161504361470252     
  5.900000000000002E-003    0.164450633828670     
  6.000000000000001E-003    0.167361836104444     
  6.100000000000001E-003    0.170235311847774     
  6.200000000000002E-003    0.173068404512750     
  6.300000000000002E-003    0.175858433622099     
  6.400000000000001E-003    0.178602740250795     
  6.500000000000001E-003    0.181298626541095     
  6.600000000000002E-003    0.183943424577939     
  6.700000000000001E-003    0.186534479328804     
  6.800000000000001E-003    0.189069122142995     
  6.900000000000002E-003    0.191544699724760     
  7.000000000000001E-003    0.193958594034383     
  7.100000000000001E-003    0.196308161694197     
  7.200000000000002E-003    0.198590818555089     
  7.300000000000002E-003    0.200803985257872     
  7.400000000000001E-003    0.202945113233595     
  7.500000000000001E-003    0.205011688909333     
  7.600000000000002E-003    0.207001196005480     
  7.700000000000001E-003    0.208911185363152     
  7.800000000000001E-003    0.210739248402794     
  7.900000000000001E-003    0.212482990923995     
  8.000000000000002E-003    0.214140069425616     
  8.100000000000001E-003    0.215708198882264     
  8.200000000000001E-003    0.217185140023572     
  8.300000000000002E-003    0.218568686372287     
  8.400000000000001E-003    0.219856714328774     
  8.500000000000002E-003    0.221047139752103     
  8.600000000000002E-003    0.222137933418948     
  8.700000000000001E-003    0.223127141142315     
  8.800000000000002E-003    0.224012873784486     
  8.900000000000002E-003    0.224793288360577     
  9.000000000000001E-003    0.225466646963105     
  9.100000000000002E-003    0.226031264468156     
  9.200000000000002E-003    0.226485529578910     
  9.300000000000001E-003    0.226827918500568     
  9.400000000000002E-003    0.227056968694476     
  9.500000000000001E-003    0.227171324888441     
  9.600000000000001E-003    0.227169703268564     
  9.700000000000002E-003    0.227050907663112     
  9.800000000000001E-003    0.226813836924944     
  9.900000000000001E-003    0.226457483874085     
  1.000000000000000E-002    0.225980918830275     
  1.010000000000000E-002    0.225383315373532     
  1.020000000000000E-002    0.224663926971645     
  1.030000000000000E-002    0.223822139996318     
  1.040000000000000E-002    0.222857403524696     
  1.050000000000000E-002    0.221769287095722     
  1.060000000000000E-002    0.220557454844335     
  1.070000000000000E-002    0.219221664563618     
  1.080000000000000E-002    0.217761791669829     
  1.090000000000000E-002    0.216177802620067     
  1.100000000000000E-002    0.214469783660564     
  1.110000000000000E-002    0.212637912147071     
  1.120000000000000E-002    0.210682480026484     
  1.130000000000000E-002    0.208603882057374     
  1.140000000000000E-002    0.206402634673649     
  1.150000000000000E-002    0.204079322473914     
  1.160000000000000E-002    0.201634683393304     
  1.170000000000000E-002    0.199069529954523     
  1.180000000000000E-002    0.196384800406682     
  1.190000000000000E-002    0.193581518640591     
  1.200000000000000E-002    0.190660839283691     
  1.210000000000000E-002    0.187624014198371     
  1.220000000000000E-002    0.184472372815008     
  1.230000000000000E-002    0.181207381767247     
  1.240000000000000E-002    0.177830600795480     
  1.250000000000000E-002    0.174343685521027     
  1.260000000000000E-002    0.170748388664580     
  1.270000000000000E-002    0.167046575669165     
  1.280000000000000E-002    0.163240196068449     
  1.290000000000000E-002    0.159331301866842     
  1.300000000000000E-002    0.155322032716416     
  1.310000000000000E-002    0.151214623830391     
  1.320000000000000E-002    0.147011400842372     
  1.330000000000000E-002    0.142714787159618     
  1.340000000000000E-002    0.138327275185887     
  1.350000000000000E-002    0.133851452024951     
  1.360000000000000E-002    0.129289991257314     
  1.370000000000000E-002    0.124645622499484     
  1.380000000000000E-002    0.119921175156239     
  1.390000000000000E-002    0.115119539988061     
  1.400000000000000E-002    0.110243687265701     
  1.410000000000000E-002    0.105296641494854     
  1.420000000000000E-002    0.100281514905198     
  1.430000000000000E-002    9.520145774089812E-002
  1.440000000000000E-002    9.005969664368661E-002
  1.450000000000000E-002    8.485950509991073E-002
  1.460000000000000E-002    7.960421031487992E-002
  1.470000000000000E-002    7.429720085083771E-002
  1.480000000000000E-002    6.894189044155263E-002
  1.490000000000000E-002    6.354175079526594E-002
  1.500000000000000E-002    5.810028200103348E-002
  1.510000000000000E-002    5.262102821512542E-002
  1.520000000000000E-002    4.710756138772740E-002
  1.530000000000000E-002    4.156348275215493E-002
  1.540000000000000E-002    3.599242285532124E-002
  1.550000000000000E-002    3.039802836426576E-002
  1.560000000000000E-002    2.478397023221639E-002
  1.570000000000000E-002    1.915393214570680E-002
  1.580000000000000E-002    1.351160568439639E-002
  1.590000000000000E-002    7.860692765489419E-003
  1.600000000000000E-002    2.204898129448392E-003
  1.610000000000000E-002   -3.452074038285336E-003
  1.620000000000000E-002   -9.106527875770262E-003
  1.630000000000000E-002   -1.475477027952318E-002
  1.640000000000000E-002   -2.039311941267105E-002
  1.650000000000000E-002   -2.601791491142526E-002
  1.660000000000000E-002   -3.162550878312990E-002
  1.670000000000000E-002   -3.721227302390302E-002
  1.680000000000000E-002   -4.277461608786696E-002
  1.690000000000000E-002   -4.830896743975473E-002
  1.700000000000000E-002   -5.381179753845602E-002
  1.710000000000000E-002   -5.927959915455905E-002
  1.720000000000000E-002   -6.470891351810860E-002
  1.730000000000000E-002   -7.009632226061363E-002
  1.740000000000000E-002   -7.543845236639315E-002
  1.750000000000000E-002   -8.073197603419327E-002
  1.760000000000000E-002   -8.597363087871995E-002
  1.770000000000000E-002   -9.116019134202691E-002
  1.780000000000000E-002   -9.628849937370766E-002
  1.790000000000000E-002   -0.101355454695264     
  1.800000000000000E-002   -0.106358028879118     
  1.810000000000000E-002   -0.111293259326208     
  1.820000000000000E-002   -0.116158228908656     
  1.830000000000000E-002   -0.120950118346457     
  1.840000000000000E-002   -0.125666173104466     
  1.850000000000000E-002   -0.130303717602647     
  1.860000000000000E-002   -0.134860151416859     
  1.870000000000000E-002   -0.139332954023331     