 -4.000000000000000E-002    0.000000000000000E+000
 -3.990000000000000E-002    0.000000000000000E+000
 -3.980000000000000E-002    0.000000000000000E+000
 -3.970000000000000E-002    0.000000000000000E+000
 -3.960000000000000E-002    0.000000000000000E+000
 -3.950000000000000E-002    0.000000000000000E+000
 -3.940000000000000E-002    0.000000000000000E+000
 -3.930000000000000E-002    0.000000000000000E+000
 -3.920000000000000E-002    0.000000000000000E+000
 -3.910000000000000E-002    0.000000000000000E+000
 -3.900000000000000E-002    0.000000000000000E+000
 -3.890000000000000E-002    0.000000000000000E+000
 -3.880000000000000E-002    0.000000000000000E+000
 -3.870000000000000E-002    0.000000000000000E+000
 -3.860000000000000E-002    0.000000000000000E+000
 -3.850000000000000E-002    0.000000000000000E+000
 -3.840000000000000E-002    0.000000000000000E+000
 -3.830000000000000E-002    0.000000000000000E+000
 -3.820000000000000E-002    0.000000000000000E+000
 -3.810000000000000E-002    0.000000000000000E+000
 -3.800000000000000E-002    0.000000000000000E+000
 -3.790000000000000E-002    0.000000000000000E+000
 -3.780000000000000E-002    0.000000000000000E+000
 -3.770000000000000E-002    0.000000000000000E+000
 -3.760000000000000E-002    0.000000000000000E+000
 -3.750000000000000E-002    0.000000000000000E+000
 -3.740000000000000E-002    0.000000000000000E+000
 -3.730000000000000E-002    0.000000000000000E+000
 -3.720000000000000E-002    0.000000000000000E+000
 -3.710000000000000E-002    0.000000000000000E+000
 -3.700000000000000E-002    0.000000000000000E+000
 -3.690000000000000E-002    0.000000000000000E+000
 -3.680000000000000E-002    0.000000000000000E+000
 -3.670000000000000E-002    0.000000000000000E+000
 -3.660000000000000E-002    0.000000000000000E+000
 -3.650000000000000E-002    0.000000000000000E+000
 -3.640000000000000E-002    0.000000000000000E+000
 -3.630000000000000E-002    0.000000000000000E+000
 -3.620000000000000E-002    0.000000000000000E+000
 -3.610000000000000E-002    0.000000000000000E+000
 -3.600000000000000E-002    0.000000000000000E+000
 -3.590000000000000E-002    0.000000000000000E+000
 -3.580000000000000E-002    0.000000000000000E+000
 -3.570000000000000E-002    0.000000000000000E+000
 -3.560000000000000E-002    0.000000000000000E+000
 -3.550000000000000E-002    0.000000000000000E+000
 -3.540000000000000E-002    0.000000000000000E+000
 -3.530000000000000E-002    0.000000000000000E+000
 -3.520000000000000E-002    0.000000000000000E+000
 -3.510000000000000E-002    0.000000000000000E+000
 -3.500000000000000E-002    0.000000000000000E+000
 -3.490000000000000E-002    0.000000000000000E+000
 -3.480000000000000E-002    0.000000000000000E+000
 -3.470000000000000E-002    0.000000000000000E+000
 -3.460000000000000E-002    0.000000000000000E+000
 -3.450000000000000E-002    0.000000000000000E+000
 -3.440000000000000E-002    0.000000000000000E+000
 -3.430000000000000E-002    0.000000000000000E+000
 -3.420000000000000E-002    0.000000000000000E+000
 -3.410000000000000E-002    0.000000000000000E+000
 -3.400000000000000E-002    0.000000000000000E+000
 -3.390000000000000E-002    0.000000000000000E+000
 -3.380000000000000E-002    0.000000000000000E+000
 -3.370000000000000E-002    0.000000000000000E+000
 -3.360000000000000E-002    0.000000000000000E+000
 -3.350000000000000E-002    0.000000000000000E+000
 -3.340000000000000E-002    0.000000000000000E+000
 -3.330000000000000E-002    0.000000000000000E+000
 -3.320000000000000E-002    0.000000000000000E+000
 -3.310000000000000E-002    0.000000000000000E+000
 -3.300000000000000E-002    0.000000000000000E+000
 -3.290000000000000E-002    0.000000000000000E+000
 -3.280000000000000E-002    0.000000000000000E+000
 -3.270000000000000E-002    0.000000000000000E+000
 -3.260000000000000E-002    0.000000000000000E+000
 -3.250000000000000E-002    0.000000000000000E+000
 -3.240000000000000E-002    0.000000000000000E+000
 -3.230000000000000E-002    0.000000000000000E+000
 -3.220000000000000E-002    0.000000000000000E+000
 -3.210000000000000E-002    0.000000000000000E+000
 -3.200000000000000E-002    0.000000000000000E+000
 -3.190000000000000E-002    0.000000000000000E+000
 -3.180000000000000E-002    0.000000000000000E+000
 -3.170000000000000E-002    0.000000000000000E+000
 -3.160000000000000E-002    0.000000000000000E+000
 -3.150000000000000E-002    0.000000000000000E+000
 -3.140000000000000E-002    0.000000000000000E+000
 -3.130000000000000E-002    0.000000000000000E+000
 -3.120000000000000E-002    0.000000000000000E+000
 -3.110000000000000E-002    0.000000000000000E+000
 -3.100000000000000E-002    0.000000000000000E+000
 -3.090000000000000E-002    0.000000000000000E+000
 -3.080000000000000E-002    0.000000000000000E+000
 -3.070000000000000E-002    0.000000000000000E+000
 -3.060000000000000E-002    0.000000000000000E+000
 -3.050000000000000E-002    0.000000000000000E+000
 -3.040000000000000E-002    0.000000000000000E+000
 -3.030000000000000E-002    0.000000000000000E+000
 -3.020000000000000E-002    0.000000000000000E+000
 -3.010000000000000E-002    0.000000000000000E+000
 -3.000000000000000E-002    0.000000000000000E+000
 -2.990000000000000E-002    0.000000000000000E+000
 -2.980000000000000E-002    0.000000000000000E+000
 -2.970000000000000E-002    0.000000000000000E+000
 -2.960000000000000E-002    0.000000000000000E+000
 -2.950000000000000E-002    0.000000000000000E+000
 -2.940000000000000E-002    0.000000000000000E+000
 -2.930000000000000E-002    0.000000000000000E+000
 -2.920000000000000E-002    0.000000000000000E+000
 -2.910000000000000E-002    0.000000000000000E+000
 -2.900000000000000E-002    0.000000000000000E+000
 -2.890000000000000E-002    0.000000000000000E+000
 -2.880000000000000E-002   -6.414635304221270E-048
 -2.870000000000000E-002   -6.414635304221270E-048
 -2.860000000000000E-002   -6.414635304221270E-048
 -2.850000000000000E-002    0.000000000000000E+000
 -2.840000000000000E-002    3.207317652110635E-047
 -2.830000000000000E-002    2.480053480516197E-046
 -2.820000000000000E-002    6.864845390712071E-046
 -2.810000000000000E-002    1.183095873137465E-045
 -2.800000000000000E-002    1.776527374730059E-045
 -2.790000000000000E-002    2.434505654673546E-045
 -2.780000000000000E-002    2.963469418928270E-045
 -2.770000000000000E-002    1.574305120817702E-045
 -2.760000000000000E-002   -1.134466915829818E-045
 -2.750000000000000E-002   -5.895581248635125E-045
 -2.740000000000000E-002   -1.362441681188692E-044
 -2.730000000000000E-002   -2.569043988866910E-044
 -2.720000000000000E-002   -4.161343608829658E-044
 -2.710000000000000E-002   -6.038786985382961E-044
 -2.700000000000000E-002   -7.971625223480787E-044
 -2.690000000000000E-002   -9.361313353824625E-044
 -2.680000000000000E-002   -9.195593205510525E-044
 -2.670000000000000E-002   -5.895396891720533E-044
 -2.660000000000000E-002    2.636959076697094E-044
 -2.650000000000000E-002    1.887588519158157E-043
 -2.640000000000000E-002    4.508429232774025E-043
 -2.630000000000000E-002    8.289781618129546E-043
 -2.620000000000000E-002    1.316751125144423E-042
 -2.610000000000000E-002    1.869618745532662E-042
 -2.600000000000000E-002    2.380620151664319E-042
 -2.590000000000000E-002    2.655033284907697E-042
 -2.580000000000000E-002    2.387865499448172E-042
 -2.570000000000000E-002    1.158756741279920E-042
 -2.560000000000000E-002   -1.548157637532775E-042
 -2.550000000000000E-002   -6.273363169372656E-042
 -2.540000000000000E-002   -1.344536992626866E-041
 -2.530000000000000E-002   -2.315182938089860E-041
 -2.520000000000000E-002   -3.482158203870508E-041
 -2.510000000000000E-002   -4.681744365630651E-041
 -2.500000000000000E-002   -5.599986297061907E-041
 -2.490000000000000E-002   -5.735914450056090E-041
 -2.480000000000000E-002   -4.388092526655120E-041
 -2.470000000000000E-002   -6.863647964481595E-042
 -2.460000000000000E-002    6.302302690110258E-041
 -2.450000000000000E-002    1.736597492675826E-040
 -2.440000000000000E-002    3.281550392851332E-040
 -2.430000000000000E-002    5.202320771936374E-040
 -2.420000000000000E-002    7.286039326070403E-040
 -2.410000000000000E-002    9.110931053839498E-040
 -2.400000000000000E-002    9.998962140204760E-040
 -2.390000000000000E-002    9.000888393370206E-040
 -2.380000000000000E-002    4.941237250516561E-040
 -2.370000000000000E-002   -3.445431042355875E-040
 -2.360000000000000E-002   -1.725754724298697E-039
 -2.350000000000000E-002   -3.703005662201693E-039
 -2.340000000000000E-002   -6.220256554328664E-039
 -2.330000000000000E-002   -9.049300694981627E-039
 -2.320000000000000E-002   -1.172684844935923E-038
 -2.310000000000000E-002   -1.350656578889844E-038
 -2.300000000000000E-002   -1.334742992799724E-038
 -2.290000000000000E-002   -9.964606237236240E-039
 -2.280000000000000E-002   -1.970474163187037E-039
 -2.270000000000000E-002    1.187075467291371E-038
 -2.260000000000000E-002    3.226365342814760E-038
 -2.250000000000000E-002    5.888822391534386E-038
 -2.240000000000000E-002    8.983560037230631E-038
 -2.230000000000000E-002    1.210566022757558E-037
 -2.220000000000000E-002    1.459517241337047E-037
 -2.210000000000000E-002    1.552722185285649E-037
 -2.200000000000000E-002    1.375285285188724E-037
 -2.190000000000000E-002    8.010098622857983E-038
 -2.180000000000000E-002   -2.879490692995364E-038
 -2.170000000000000E-002   -1.972316733803083E-037
 -2.160000000000000E-002   -4.258787123855875E-037
 -2.150000000000000E-002   -7.038031864684886E-037
 -2.140000000000000E-002   -1.004318174339853E-036
 -2.130000000000000E-002   -1.281692560839646E-036
 -2.120000000000000E-002   -1.469761680337371E-036
 -2.110000000000000E-002   -1.483616507899674E-036
 -2.100000000000000E-002   -1.225540251725803E-036
 -2.090000000000000E-002   -5.961539670485891E-037
 -2.080000000000000E-002    4.887167162088699E-037
 -2.070000000000000E-002    2.075648091389936E-036
 -2.060000000000000E-002    4.146843614855193E-036
 -2.050000000000000E-002    6.591273789532684E-036
 -2.040000000000000E-002    9.177297694194768E-036
 -2.030000000000000E-002    1.153162371517234E-035
 -2.020000000000000E-002    1.313065043172171E-035
 -2.010000000000000E-002    1.331115539835344E-035
 -2.000000000000000E-002    1.130781256366980E-035
 -1.990000000000000E-002    6.324871449847206E-036
 -1.980000000000000E-002   -2.351767721918235E-036
 -1.970000000000000E-002   -1.519833706242820E-035
 -1.960000000000000E-002   -3.225351163160154E-035
 -1.950000000000000E-002   -5.288294950887146E-035
 -1.940000000000000E-002   -7.552601837722631E-035
 -1.930000000000000E-002   -9.745653745600780E-035
 -1.920000000000000E-002   -1.146066623942434E-034
 -1.910000000000000E-002   -1.215223486451535E-034
 -1.900000000000000E-002   -1.115372795008760E-034
 -1.890000000000000E-002   -7.726467399874008E-035
 -1.880000000000000E-002   -1.150577688770358E-035
 -1.870000000000000E-002    9.134884467775835E-035
 -1.860000000000000E-002    2.334036453960301E-034
 -1.850000000000000E-002    4.109006156269638E-034
 -1.840000000000000E-002    6.116305875565922E-034
 -1.830000000000000E-002    8.124992121533211E-034
 -1.820000000000000E-002    9.778309489971694E-034
 -1.810000000000000E-002    1.059178172882787E-033
 -1.800000000000000E-002    9.975253187530100E-034
 -1.790000000000000E-002    7.287749429242899E-034
 -1.780000000000000E-002    1.932032996131440E-034
 -1.770000000000000E-002   -6.508840801875772E-034
 -1.760000000000000E-002   -1.809822116425134E-033
 -1.750000000000000E-002   -3.235147545601351E-033
 -1.740000000000000E-002   -4.804868489453253E-033
 -1.730000000000000E-002   -6.309547634430906E-033
 -1.720000000000000E-002   -7.448375569220727E-033
 -1.710000000000000E-002   -7.840921928081850E-033
 -1.700000000000000E-002   -7.059825894917963E-033
 -1.690000000000000E-002   -4.687973803660801E-033
 -1.680000000000000E-002   -4.004608156347659E-034
 -1.670000000000000E-002    5.933160957193516E-033
 -1.660000000000000E-002    1.413688860241287E-032
 -1.650000000000000E-002    2.362365423808410E-032
 -1.640000000000000E-002    3.332122421773017E-032
 -1.630000000000000E-002    4.165570767140240E-032
 -1.620000000000000E-002    4.662000484466219E-032
 -1.610000000000000E-002    4.594951732101032E-032
 -1.600000000000000E-002    3.741598065190487E-032
 -1.590000000000000E-002    1.923227659230015E-032
 -1.580000000000000E-002   -9.462588379233505E-033
 -1.570000000000000E-002   -4.809581146428559E-032
 -1.560000000000000E-002   -9.421352368067079E-032
 -1.550000000000000E-002   -1.431960664404105E-031
 -1.540000000000000E-002   -1.882446338013543E-031
 -1.530000000000000E-002   -2.207365279809885E-031
 -1.520000000000000E-002   -2.310126449916083E-031
 -1.510000000000000E-002   -2.096044897431119E-031
 -1.500000000000000E-002   -1.488318061029336E-031
 -1.490000000000000E-002   -4.461512425345538E-032
 -1.480000000000000E-002    1.017376006007988E-031
 -1.470000000000000E-002    2.820773036848394E-031
 -1.460000000000000E-002    4.806292320387135E-031
 -1.450000000000000E-002    6.741909030594166E-031
 -1.440000000000000E-002    8.335397491997301E-031
 -1.430000000000000E-002    9.261305271814011E-031
 -1.420000000000000E-002    9.199637209973176E-031
 -1.410000000000000E-002    7.882850369659816E-031
 -1.400000000000000E-002    5.145665438906127E-031
 -1.390000000000000E-002    9.706647755389888E-032
 -1.380000000000000E-002   -4.477898627064292E-031
 -1.370000000000000E-002   -1.083894256370883E-030
 -1.360000000000000E-002   -1.756282258840320E-030
 -1.350000000000000E-002   -2.394451797683832E-030
 -1.340000000000000E-002   -2.917931209507705E-030
 -1.330000000000000E-002   -3.243468815325934E-030
 -1.320000000000000E-002   -3.292934723619854E-030
 -1.310000000000000E-002   -3.000932554026036E-030
 -1.300000000000000E-002   -2.321267291379683E-030
 -1.290000000000000E-002   -1.231819103553457E-030
 -1.280000000000000E-002    2.620469849992040E-031
 -1.270000000000000E-002    2.124781748281587E-030
 -1.260000000000000E-002    4.287460017000167E-030
 -1.250000000000000E-002    6.642817819104152E-030
 -1.240000000000000E-002    9.037772502712187E-030
 -1.230000000000000E-002    1.126388298751065E-029
 -1.220000000000000E-002    1.304800475826190E-029
 -1.210000000000000E-002    1.404753947329221E-029
 -1.200000000000000E-002    1.385657928478624E-029
 -1.190000000000000E-002    1.203030756509439E-029
 -1.180000000000000E-002    8.134416430809333E-030
 -1.170000000000000E-002    1.823453780191244E-030
 -1.160000000000000E-002   -7.053396072794633E-030
 -1.150000000000000E-002   -1.832830674671751E-029
 -1.140000000000000E-002   -3.139087859003686E-029
 -1.130000000000000E-002   -4.509139607246357E-029
 -1.120000000000000E-002   -5.770456486928410E-029
 -1.110000000000000E-002   -6.698815020348524E-029
 -1.100000000000000E-002   -7.036450422770336E-029
 -1.090000000000000E-002   -6.523780644577580E-029
 -1.080000000000000E-002   -4.943576960221111E-029
 -1.070000000000000E-002   -2.173416401052812E-029
 -1.060000000000000E-002    1.761003399443085E-029
 -1.050000000000000E-002    6.641872474673583E-029
 -1.040000000000000E-002    1.203632191902217E-028
 -1.030000000000000E-002    1.730573734501955E-028
 -1.020000000000000E-002    2.165545077760020E-028
 -1.010000000000000E-002    2.422710289322648E-028
 -1.000000000000000E-002    2.422775443677417E-028
 -9.899999999999999E-003    2.108038367205083E-028
 -9.800000000000000E-003    1.457142358978111E-028
 -9.699999999999999E-003    4.964686173930713E-029
 -9.599999999999999E-003   -6.950400651977868E-029
 -9.500000000000000E-003   -1.990290420854633E-028
 -9.399999999999999E-003   -3.229038521879312E-028
 -9.299999999999999E-003   -4.242820901669856E-028
 -9.200000000000000E-003   -4.886683979875844E-028
 -9.099999999999999E-003   -5.072085579043053E-028
 -8.999999999999999E-003   -4.793405477729849E-028
 -8.900000000000000E-003   -4.139781031749604E-028
 -8.799999999999999E-003   -3.285029355376479E-028
 -8.699999999999999E-003   -2.451564145382266E-028
 -8.600000000000000E-003   -1.849451481946822E-028
 -8.499999999999999E-003   -1.598447270253258E-028
 -8.399999999999999E-003   -1.647984761383515E-028
 -8.300000000000000E-003   -1.716041169719175E-028
 -8.199999999999999E-003   -1.270761869943725E-028
 -8.100000000000000E-003    4.230323600480720E-029
 -8.000000000000000E-003    4.178077404237290E-028
 -7.899999999999999E-003    1.067924146488847E-027
 -7.800000000000000E-003    2.021717751487859E-027
 -7.699999999999999E-003    3.240151086913753E-027
 -7.599999999999999E-003    4.591420687004201E-027
 -7.499999999999999E-003    5.837736511835003E-027
 -7.399999999999999E-003    6.641139852303946E-027
 -7.299999999999999E-003    6.594496838239921E-027
 -7.199999999999999E-003    5.280494864087257E-027
 -7.100000000000000E-003    2.356405459323046E-027
 -6.999999999999999E-003   -2.343904584646674E-027
 -6.899999999999999E-003   -8.705800614807225E-027
 -6.800000000000000E-003   -1.624819298005114E-026
 -6.699999999999999E-003   -2.408001619510082E-026
 -6.599999999999999E-003   -3.092169200519384E-026
 -6.499999999999999E-003   -3.520865674479035E-026
 -6.399999999999999E-003   -3.528301556114064E-026
 -6.299999999999999E-003   -2.966400772214752E-026
 -6.199999999999999E-003   -1.736984251473226E-026
 -6.100000000000000E-003    1.754309017023862E-027
 -5.999999999999999E-003    2.676134451478331E-026
 -5.899999999999999E-003    5.544555166425811E-026
 -5.800000000000000E-003    8.436480039193266E-026
 -5.699999999999999E-003    1.090842667044940E-025
 -5.599999999999999E-003    1.246540262669339E-025
 -5.499999999999999E-003    1.262924207788777E-025
 -5.399999999999999E-003    1.102025266538615E-025
 -5.299999999999999E-003    7.440781604508086E-026
 -5.199999999999999E-003    1.946436956215021E-026
 -5.099999999999999E-003   -5.110079820114563E-026
 -4.999999999999999E-003   -1.307562346854842E-025
 -4.899999999999999E-003   -2.104193760968328E-025
 -4.799999999999999E-003   -2.794038396032507E-025
 -4.699999999999999E-003   -3.267766059098049E-025
 -4.599999999999999E-003   -3.429485806829890E-025
 -4.499999999999999E-003   -3.212476413903383E-025
 -4.399999999999999E-003   -2.591857874435114E-025
 -4.299999999999999E-003   -1.591478127076058E-025
 -4.199999999999999E-003   -2.830545995636616E-026
 -4.099999999999999E-003    1.223053486125586E-025
 -3.999999999999999E-003    2.794330588392496E-025
 -3.899999999999999E-003    4.296905933634770E-025
 -3.799999999999999E-003    5.616206540558790E-025
 -3.699999999999999E-003    6.672208426433758E-025
 -3.599999999999999E-003    7.424350669943148E-025
 -3.499999999999999E-003    7.862812019218451E-025
 -3.399999999999999E-003    7.985764174319382E-025
 -3.299999999999999E-003    7.766060900601956E-025
 -3.199999999999999E-003    7.114938207646552E-025
 -3.099999999999999E-003    5.853776119850856E-025
 -2.999999999999999E-003    3.706772013533624E-025
 -2.899999999999999E-003    3.265579273193796E-026
 -2.799999999999999E-003   -4.639274107029768E-025
 -2.699999999999999E-003   -1.144017670874197E-024
 -2.599999999999999E-003   -2.008273624128241E-024
 -2.499999999999999E-003   -3.017974399248072E-024
 -2.399999999999999E-003   -4.081971434988631E-024
 -2.299999999999999E-003   -5.049536859833564E-024
 -2.199999999999999E-003   -5.713071925169940E-024
 -2.099999999999999E-003   -5.823935465881503E-024
 -1.999999999999999E-003   -5.123041661283426E-024
 -1.899999999999999E-003   -3.385418656159788E-024
 -1.799999999999999E-003   -4.748648873388704E-025
 -1.699999999999999E-003    3.598380405374709E-024
 -1.599999999999999E-003    8.626807502659862E-024
 -1.499999999999999E-003    1.417321008002745E-023
 -1.399999999999999E-003    1.956817741945221E-023
 -1.299999999999999E-003    2.394685867867428E-023
 -1.199999999999999E-003    2.632984029082314E-023
 -1.099999999999999E-003    2.574645749960884E-023
 -9.999999999999989E-004    2.139096116044153E-023
 -8.999999999999990E-004    1.279390567598598E-023
 -7.999999999999990E-004   -1.581762470532213E-026
 -6.999999999999989E-004   -1.638701440935959E-023
 -5.999999999999990E-004   -3.498912240150736E-023
 -4.999999999999989E-004   -5.384608672159001E-023
 -3.999999999999989E-004   -7.047531814086270E-023
 -2.999999999999989E-004   -8.213155858488072E-023
 -1.999999999999989E-004   -8.613866235627250E-023
 -9.999999999999892E-005   -8.027504565481661E-023
  1.084202172485504E-018   -6.316425825356013E-023
  1.000000000000011E-004   -3.461338941486648E-023
  2.000000000000011E-004    4.158449968572763E-024
  3.000000000000011E-004    5.045036568705476E-023
  4.000000000000011E-004    1.001991946248271E-022
  5.000000000000011E-004    1.482931956672914E-022
  6.000000000000011E-004    1.890554307905394E-022
  7.000000000000011E-004    2.168441456488074E-022
  8.000000000000011E-004    2.266954912561727E-022
  9.000000000000012E-004    2.149232881999673E-022
  1.000000000000001E-003    1.795941068814299E-022
  1.100000000000001E-003    1.208148684089735E-022
  1.200000000000001E-003    4.080163783560177E-023
  1.300000000000001E-003   -5.626251770514042E-023
  1.400000000000001E-003   -1.645340434947876E-022
  1.500000000000001E-003   -2.769038993748160E-022
  1.600000000000001E-003   -3.853926206583429E-022
  1.700000000000001E-003   -4.814689260315379E-022
  1.800000000000001E-003   -5.562501280914531E-022
  1.900000000000001E-003   -6.005987743677299E-022
  2.000000000000001E-003   -6.051940335695701E-022
  2.100000000000001E-003   -5.607164629780976E-022
  2.200000000000001E-003   -4.583192105309637E-022
  2.300000000000001E-003   -2.905542429382993E-022
  2.400000000000001E-003   -5.286439591724440E-023
  2.500000000000001E-003    2.543614982413339E-022
  2.600000000000001E-003    6.233331605890102E-022
  2.700000000000001E-003    1.036349628624826E-021
  2.800000000000001E-003    1.463758119686885E-021
  2.900000000000001E-003    1.863027497629708E-021
  3.000000000000001E-003    2.179610014847180E-021
  3.100000000000001E-003    2.350168231884315E-021
  3.200000000000001E-003    2.308493214602220E-021
  3.300000000000001E-003    1.994053548667844E-021
  3.400000000000001E-003    1.362611322555380E-021
  3.500000000000001E-003    3.978063405464066E-022
  3.600000000000001E-003   -8.778899276203547E-022
  3.700000000000001E-003   -2.394795436427757E-021
  3.800000000000001E-003   -4.032258056958890E-021
  3.900000000000001E-003   -5.621345013290432E-021
  4.000000000000001E-003   -6.955222223414995E-021
  4.100000000000001E-003   -7.807554567878967E-021
  4.200000000000001E-003   -7.958077869895079E-021
  4.300000000000001E-003   -7.223207294522106E-021
  4.400000000000001E-003   -5.488340982277140E-021
  4.500000000000001E-003   -2.737591536140530E-021
  4.600000000000002E-003    9.237366727485813E-022
  4.700000000000001E-003    5.258403552015670E-021
  4.800000000000001E-003    9.901756413663212E-021
  4.900000000000002E-003    1.438345314280321E-020
  5.000000000000001E-003    1.816617788590990E-020
  5.100000000000001E-003    2.069875355878651E-020
  5.200000000000001E-003    2.147873676527437E-020
  5.300000000000002E-003    2.011771781468995E-020
  5.400000000000001E-003    1.640145360233495E-020
  5.500000000000001E-003    1.033691609555667E-020
  5.600000000000002E-003    2.179398679292340E-021
  5.700000000000001E-003   -7.565075311662302E-021
  5.800000000000001E-003   -1.816391113604887E-020
  5.900000000000002E-003   -2.870731734118904E-020
  6.000000000000001E-003   -3.817844292490828E-020
  6.100000000000001E-003   -4.553741067734769E-020
  6.200000000000002E-003   -4.981102823926499E-020
  6.300000000000002E-003   -5.017986154466407E-020
  6.400000000000001E-003   -4.605559330232788E-020
  6.500000000000001E-003   -3.714370073338274E-020
  6.600000000000002E-003   -2.348912987004210E-020
  6.700000000000001E-003   -5.505035458050008E-021
  6.800000000000001E-003    1.601386846508895E-020
  6.900000000000002E-003    3.989165538316412E-020
  7.000000000000001E-003    6.458506505149183E-020
  7.100000000000001E-003    8.821355218531264E-020
  7.200000000000002E-003    1.086117874266598E-019
  7.300000000000002E-003    1.234141027720395E-019
  7.400000000000001E-003    1.301820227101439E-019
  7.500000000000001E-003    1.265846978131090E-019
  7.600000000000002E-003    1.106370683829370E-019
  7.700000000000001E-003    8.099118779997629E-020
  7.800000000000001E-003    3.726334614190117E-020
  7.900000000000001E-003   -1.963535054631670E-020
  8.000000000000002E-003   -8.721190201809560E-020
  8.100000000000001E-003   -1.612061548547945E-019
  8.200000000000001E-003   -2.355700242205512E-019
  8.300000000000002E-003   -3.026687798221297E-019
  8.400000000000001E-003   -3.537455190937087E-019
  8.500000000000002E-003   -3.796613232352281E-019
  8.600000000000002E-003   -3.718856109540771E-019
  8.700000000000001E-003   -3.236666897757792E-019
  8.800000000000002E-003   -2.312681181859711E-019
  8.900000000000002E-003   -9.511933763436560E-020
  9.000000000000001E-003    7.929411618840201E-020
  9.100000000000002E-003    2.809768731232001E-019
  9.200000000000002E-003    4.935590329504907E-019
  9.300000000000001E-003    6.961224400862691E-019
  9.400000000000002E-003    8.647455672424305E-019
  9.500000000000001E-003    9.747034862854514E-019
  9.600000000000001E-003    1.003162585530746E-018
  9.700000000000002E-003    9.321180103284173E-019
  9.800000000000001E-003    7.512544880022344E-019
  9.900000000000001E-003    4.603725377865291E-019
  1.000000000000000E-002    7.103058642145564E-020
  1.010000000000000E-002   -3.928956026681843E-019
  1.020000000000000E-002   -8.959378326050006E-019
  1.030000000000000E-002   -1.393115597662599E-018
  1.040000000000000E-002   -1.833292584221690E-018
  1.050000000000000E-002   -2.163578288310325E-018
  1.060000000000000E-002   -2.334409984526910E-018
  1.070000000000000E-002   -2.304854302293746E-018
  1.080000000000000E-002   -2.047618320352231E-018
  1.090000000000000E-002   -1.553268833113365E-018
  1.100000000000000E-002   -8.332179949739889E-019
  1.110000000000000E-002    7.886036136937404E-020
  1.120000000000000E-002    1.127390591823085E-018
  1.130000000000000E-002    2.237090164959656E-018
  1.140000000000000E-002    3.316933161591504E-018
  1.150000000000000E-002    4.265698034684411E-018
  1.160000000000000E-002    4.978837297503050E-018
  1.170000000000000E-002    5.356350189666162E-018
  1.180000000000000E-002    5.311300517355251E-018
  1.190000000000000E-002    4.778584381374622E-018
  1.200000000000000E-002    3.723501726943216E-018
  1.210000000000000E-002    2.149608437372858E-018
  1.220000000000000E-002    1.052163796964572E-019
  1.230000000000000E-002   -2.312208333718683E-018
  1.240000000000000E-002   -4.954610159148344E-018
  1.250000000000000E-002   -7.625789546291180E-018
  1.260000000000000E-002   -1.008859969088839E-017
  1.270000000000000E-002   -1.207757057547782E-017
  1.280000000000000E-002   -1.331725879611760E-017
  1.290000000000000E-002   -1.354603803475231E-017
  1.300000000000000E-002   -1.254431078557199E-017
  1.310000000000000E-002   -1.016525374545324E-017
  1.320000000000000E-002   -6.365346782297681E-018
  1.330000000000000E-002   -1.231193892266769E-018
  1.340000000000000E-002    5.001328096739123E-018
  1.350000000000000E-002    1.193960259622526E-017
  1.360000000000000E-002    1.904206511766450E-017
  1.370000000000000E-002    2.564372783803750E-017
  1.380000000000000E-002    3.100036244052425E-017
  1.390000000000000E-002    3.435014677404718E-017
  1.400000000000000E-002    3.498928686478910E-017
  1.410000000000000E-002    3.235577099048890E-017
  1.420000000000000E-002    2.611340230734249E-017
  1.430000000000000E-002    1.622683967928202E-017
  1.440000000000000E-002    3.017849714958673E-018
  1.450000000000000E-002   -1.280639922593482E-017
  1.460000000000000E-002   -3.016047713736566E-017
  1.470000000000000E-002   -4.762786175008336E-017
  1.480000000000000E-002   -6.354900863866907E-017
  1.490000000000000E-002   -7.614694452378093E-017
  1.500000000000000E-002   -8.368258901463985E-017
  1.510000000000000E-002   -8.462811262898031E-017
  1.520000000000000E-002   -7.784345645747673E-017
  1.530000000000000E-002   -6.273934302012897E-017
  1.540000000000000E-002   -3.940975728589771E-017
  1.550000000000000E-002   -8.718163571554304E-018
  1.560000000000000E-002    2.767534629839889E-017
  1.570000000000000E-002    6.735468907565721E-017
  1.580000000000000E-002    1.072597400603047E-016
  1.590000000000000E-002    1.438674982482138E-016
  1.600000000000000E-002    1.734346568123248E-016
  1.610000000000000E-002    1.922883918071127E-016
  1.620000000000000E-002    1.971475863107387E-016
  1.630000000000000E-002    1.854530206666168E-016
  1.640000000000000E-002    1.556822466831461E-016
  1.650000000000000E-002    1.076238077406190E-016
  1.660000000000000E-002    4.258495731218415E-017
  1.670000000000000E-002   -3.649162073279633E-017
  1.680000000000000E-002   -1.250239268554969E-016
  1.690000000000000E-002   -2.169171191871134E-016
  1.700000000000000E-002   -3.048316851835481E-016
  1.710000000000000E-002   -3.805961807671212E-016
  1.720000000000000E-002   -4.357570145584836E-016
  1.730000000000000E-002   -4.622453142686628E-016
  1.740000000000000E-002   -4.531269172666379E-016
  1.750000000000000E-002   -4.033874574679845E-016
  1.760000000000000E-002   -3.106908139627485E-016
  1.770000000000000E-002   -1.760386555083571E-016
  1.780000000000000E-002   -4.252620622592998E-018
  1.790000000000000E-002    1.957988259083364E-016
  1.800000000000000E-002    4.112979150767619E-016
  1.810000000000000E-002    6.259512850208699E-016
  1.820000000000000E-002    8.208639482023582E-016
  1.830000000000000E-002    9.758028368650371E-016
  1.840000000000000E-002    1.070798487247184E-015
  1.850000000000000E-002    1.087989725540811E-015
  1.860000000000000E-002    1.013576635891998E-015
  1.870000000000000E-002    8.397120206770852E-016