 -4.000000000000000E-002    0.000000000000000E+000
 -3.990000000000000E-002    0.000000000000000E+000
 -3.980000000000000E-002    0.000000000000000E+000
 -3.970000000000000E-002    0.000000000000000E+000
 -3.960000000000000E-002    0.000000000000000E+000
 -3.950000000000000E-002    0.000000000000000E+000
 -3.940000000000000E-002    0.000000000000000E+000
 -3.930000000000000E-002    0.000000000000000E+000
 -3.920000000000000E-002    0.000000000000000E+000
 -3.910000000000000E-002    0.000000000000000E+000
 -3.900000000000000E-002    0.000000000000000E+000
 -3.890000000000000E-002    0.000000000000000E+000
 -3.880000000000000E-002    0.000000000000000E+000
 -3.870000000000000E-002    0.000000000000000E+000
 -3.860000000000000E-002    0.000000000000000E+000
 -3.850000000000000E-002    0.000000000000000E+000
 -3.840000000000000E-002    0.000000000000000E+000
 -3.830000000000000E-002    0.000000000000000E+000
 -3.820000000000000E-002    0.000000000000000E+000
 -3.810000000000000E-002    0.000000000000000E+000
 -3.800000000000000E-002    0.000000000000000E+000
 -3.790000000000000E-002    0.000000000000000E+000
 -3.780000000000000E-002    0.000000000000000E+000
 -3.770000000000000E-002    0.000000000000000E+000
 -3.760000000000000E-002    0.000000000000000E+000
 -3.750000000000000E-002    0.000000000000000E+000
 -3.740000000000000E-002    0.000000000000000E+000
 -3.730000000000000E-002    0.000000000000000E+000
 -3.720000000000000E-002    0.000000000000000E+000
 -3.710000000000000E-002    0.000000000000000E+000
 -3.700000000000000E-002    0.000000000000000E+000
 -3.690000000000000E-002    0.000000000000000E+000
 -3.680000000000000E-002    0.000000000000000E+000
 -3.670000000000000E-002    0.000000000000000E+000
 -3.660000000000000E-002    0.000000000000000E+000
 -3.650000000000000E-002    0.000000000000000E+000
 -3.640000000000000E-002    0.000000000000000E+000
 -3.630000000000000E-002    0.000000000000000E+000
 -3.620000000000000E-002    0.000000000000000E+000
 -3.610000000000000E-002    0.000000000000000E+000
 -3.600000000000000E-002    0.000000000000000E+000
 -3.590000000000000E-002    0.000000000000000E+000
 -3.580000000000000E-002    0.000000000000000E+000
 -3.570000000000000E-002    0.000000000000000E+000
 -3.560000000000000E-002    0.000000000000000E+000
 -3.550000000000000E-002    0.000000000000000E+000
 -3.540000000000000E-002    0.000000000000000E+000
 -3.530000000000000E-002    0.000000000000000E+000
 -3.520000000000000E-002    0.000000000000000E+000
 -3.510000000000000E-002    0.000000000000000E+000
 -3.500000000000000E-002    0.000000000000000E+000
 -3.490000000000000E-002    0.000000000000000E+000
 -3.480000000000000E-002    0.000000000000000E+000
 -3.470000000000000E-002    0.000000000000000E+000
 -3.460000000000000E-002    0.000000000000000E+000
 -3.450000000000000E-002    0.000000000000000E+000
 -3.440000000000000E-002    0.000000000000000E+000
 -3.430000000000000E-002    0.000000000000000E+000
 -3.420000000000000E-002    0.000000000000000E+000
 -3.410000000000000E-002    0.000000000000000E+000
 -3.400000000000000E-002    0.000000000000000E+000
 -3.390000000000000E-002    0.000000000000000E+000
 -3.380000000000000E-002    0.000000000000000E+000
 -3.370000000000000E-002    0.000000000000000E+000
 -3.360000000000000E-002    0.000000000000000E+000
 -3.350000000000000E-002    0.000000000000000E+000
 -3.340000000000000E-002    0.000000000000000E+000
 -3.330000000000000E-002    0.000000000000000E+000
 -3.320000000000000E-002    0.000000000000000E+000
 -3.310000000000000E-002    0.000000000000000E+000
 -3.300000000000000E-002    0.000000000000000E+000
 -3.290000000000000E-002    0.000000000000000E+000
 -3.280000000000000E-002    0.000000000000000E+000
 -3.270000000000000E-002    0.000000000000000E+000
 -3.260000000000000E-002    0.000000000000000E+000
 -3.250000000000000E-002    0.000000000000000E+000
 -3.240000000000000E-002    0.000000000000000E+000
 -3.230000000000000E-002    0.000000000000000E+000
 -3.220000000000000E-002    0.000000000000000E+000
 -3.210000000000000E-002    0.000000000000000E+000
 -3.200000000000000E-002    0.000000000000000E+000
 -3.190000000000000E-002    0.000000000000000E+000
 -3.180000000000000E-002    0.000000000000000E+000
 -3.170000000000000E-002    0.000000000000000E+000
 -3.160000000000000E-002    0.000000000000000E+000
 -3.150000000000000E-002    0.000000000000000E+000
 -3.140000000000000E-002    0.000000000000000E+000
 -3.130000000000000E-002    0.000000000000000E+000
 -3.120000000000000E-002    0.000000000000000E+000
 -3.110000000000000E-002    0.000000000000000E+000
 -3.100000000000000E-002    0.000000000000000E+000
 -3.090000000000000E-002    0.000000000000000E+000
 -3.080000000000000E-002    0.000000000000000E+000
 -3.070000000000000E-002    0.000000000000000E+000
 -3.060000000000000E-002    0.000000000000000E+000
 -3.050000000000000E-002    0.000000000000000E+000
 -3.040000000000000E-002    0.000000000000000E+000
 -3.030000000000000E-002    0.000000000000000E+000
 -3.020000000000000E-002    0.000000000000000E+000
 -3.010000000000000E-002    0.000000000000000E+000
 -3.000000000000000E-002    0.000000000000000E+000
 -2.990000000000000E-002    0.000000000000000E+000
 -2.980000000000000E-002    0.000000000000000E+000
 -2.970000000000000E-002    0.000000000000000E+000
 -2.960000000000000E-002    0.000000000000000E+000
 -2.950000000000000E-002    0.000000000000000E+000
 -2.940000000000000E-002    0.000000000000000E+000
 -2.930000000000000E-002    0.000000000000000E+000
 -2.920000000000000E-002    0.000000000000000E+000
 -2.910000000000000E-002    0.000000000000000E+000
 -2.900000000000000E-002    0.000000000000000E+000
 -2.890000000000000E-002    0.000000000000000E+000
 -2.880000000000000E-002    2.138211768073757E-048
 -2.870000000000000E-002    2.138211768073757E-048
 -2.860000000000000E-002    2.138211768073757E-048
 -2.850000000000000E-002    0.000000000000000E+000
 -2.840000000000000E-002   -1.069105884036878E-047
 -2.830000000000000E-002   -8.266844935053991E-047
 -2.820000000000000E-002   -2.288281796904024E-046
 -2.810000000000000E-002   -3.943652910458216E-046
 -2.800000000000000E-002   -5.921757915766865E-046
 -2.790000000000000E-002   -8.115018848911818E-046
 -2.780000000000000E-002   -9.974718746237266E-046
 -2.770000000000000E-002   -8.074631166080196E-046
 -2.760000000000000E-002   -2.488143463148225E-046
 -2.750000000000000E-002    8.506823906380062E-046
 -2.740000000000000E-002    2.922716353604660E-045
 -2.730000000000000E-002    6.229538036289799E-045
 -2.720000000000000E-002    1.107543880736650E-044
 -2.710000000000000E-002    1.697946732470176E-044
 -2.700000000000000E-002    2.324960067175918E-044
 -2.690000000000000E-002    2.982633356702564E-044
 -2.680000000000000E-002    3.420865338700729E-044
 -2.670000000000000E-002    3.191098262010735E-044
 -2.660000000000000E-002    1.706534454800569E-044
 -2.650000000000000E-002   -1.775415595570282E-044
 -2.640000000000000E-002   -8.163274079145221E-044
 -2.630000000000000E-002   -1.824988133443642E-043
 -2.620000000000000E-002   -3.259399420462539E-043
 -2.610000000000000E-002   -5.074052099914918E-043
 -2.600000000000000E-002   -7.077206670384418E-043
 -2.590000000000000E-002   -8.858373514278036E-043
 -2.580000000000000E-002   -9.667696902704897E-043
 -2.570000000000000E-002   -8.382857584250485E-043
 -2.560000000000000E-002   -3.452679924436116E-043
 -2.550000000000000E-002    6.940335855887310E-043
 -2.540000000000000E-002    2.467403190288270E-042
 -2.530000000000000E-002    5.112852349600849E-042
 -2.520000000000000E-002    8.639471669701852E-042
 -2.510000000000000E-002    1.281001967362963E-041
 -2.500000000000000E-002    1.700628551675587E-041
 -2.490000000000000E-002    2.008013005788232E-041
 -2.480000000000000E-002    2.023949755321303E-041
 -2.470000000000000E-002    1.501713367446414E-041
 -2.460000000000000E-002    1.404189557774166E-042
 -2.450000000000000E-002   -2.375913573284907E-041
 -2.440000000000000E-002   -6.304933299388624E-041
 -2.430000000000000E-002   -1.173158973651236E-040
 -2.420000000000000E-002   -1.841224468127771E-040
 -2.410000000000000E-002   -2.558804953968392E-040
 -2.400000000000000E-002   -3.179491663187974E-040
 -2.390000000000000E-002   -3.471606797703746E-040
 -2.380000000000000E-002   -3.114657440173176E-040
 -2.370000000000000E-002   -1.715804269655150E-040
 -2.360000000000000E-002    1.143691270057527E-040
 -2.350000000000000E-002    5.823275325760578E-040
 -2.340000000000000E-002    1.249359268892480E-039
 -2.330000000000000E-002    2.096493328453762E-039
 -2.320000000000000E-002    3.048718592449036E-039
 -2.310000000000000E-002    3.955084691721196E-039
 -2.300000000000000E-002    4.573672069663032E-039
 -2.290000000000000E-002    4.568072281737926E-039
 -2.280000000000000E-002    3.523380076963446E-039
 -2.270000000000000E-002    9.900873167425947E-040
 -2.260000000000000E-002   -3.437062811116291E-039
 -2.250000000000000E-002   -1.000191060576597E-038
 -2.240000000000000E-002   -1.863454915942295E-038
 -2.230000000000000E-002   -2.877649320502591E-038
 -2.220000000000000E-002   -3.920787880780635E-038
 -2.210000000000000E-002   -4.791432405005458E-038
 -2.200000000000000E-002   -5.204319366536136E-038
 -2.190000000000000E-002   -4.800710342376330E-038
 -2.180000000000000E-002   -3.179302289461980E-038
 -2.170000000000000E-002    4.754128328570870E-040
 -2.160000000000000E-002    5.170001275788934E-038
 -2.150000000000000E-002    1.227136978147020E-037
 -2.140000000000000E-002    2.110060327576780E-037
 -2.130000000000000E-002    3.094144654846705E-037
 -2.120000000000000E-002    4.050016230643899E-037
 -2.110000000000000E-002    4.784084771592128E-037
 -2.100000000000000E-002    5.040240591605788E-037
 -2.090000000000000E-002    4.513299634668450E-037
 -2.080000000000000E-002    2.877468216052055E-037
 -2.070000000000000E-002   -1.678187703134025E-038
 -2.060000000000000E-002   -4.833965759804019E-037
 -2.050000000000000E-002   -1.116285333299070E-036
 -2.040000000000000E-002   -1.893485299470949E-036
 -2.030000000000000E-002   -2.757383374548143E-036
 -2.020000000000000E-002   -3.606215965254400E-036
 -2.010000000000000E-002   -4.288334867408609E-036
 -2.000000000000000E-002   -4.601470880927967E-036
 -1.990000000000000E-002   -4.299628615352364E-036
 -1.980000000000000E-002   -3.110490628498673E-036
 -1.970000000000000E-002   -7.661625260138570E-037
 -1.960000000000000E-002    2.950436500721059E-036
 -1.950000000000000E-002    8.142486191035503E-036
 -1.940000000000000E-002    1.472067794694985E-035
 -1.930000000000000E-002    2.231380709483075E-035
 -1.920000000000000E-002    3.017809794492372E-035
 -1.910000000000000E-002    3.712093972319864E-035
 -1.900000000000000E-002    4.146162109220682E-035
 -1.890000000000000E-002    4.105829487151497E-035
 -1.880000000000000E-002    3.343507959418451E-035
 -1.870000000000000E-002    1.604356691626192E-035
 -1.860000000000000E-002   -1.331380147036842E-035
 -1.850000000000000E-002   -5.588785997255384E-035
 -1.840000000000000E-002   -1.112331538023833E-034
 -1.830000000000000E-002   -1.763658932894871E-034
 -1.820000000000000E-002   -2.449449642628824E-034
 -1.810000000000000E-002   -3.066513777587335E-034
 -1.800000000000000E-002   -3.469978712731939E-034
 -1.790000000000000E-002   -3.478380421527553E-034
 -1.780000000000000E-002   -2.888451660542784E-034
 -1.770000000000000E-002   -1.501756813302681E-034
 -1.760000000000000E-002    8.359759593661637E-035
 -1.750000000000000E-002    4.184104241475021E-034
 -1.740000000000000E-002    8.449119556962365E-034
 -1.730000000000000E-002    1.332723574731299E-033
 -1.720000000000000E-002    1.825889266536501E-033
 -1.710000000000000E-002    2.240961288093140E-033
 -1.700000000000000E-002    2.469321467204538E-033
 -1.690000000000000E-002    2.385246644357077E-033
 -1.680000000000000E-002    1.860791129998953E-033
 -1.670000000000000E-002    7.877196651978090E-034
 -1.660000000000000E-002   -8.945295339273623E-034
 -1.650000000000000E-002   -3.167456961510876E-033
 -1.640000000000000E-002   -5.903039989841643E-033
 -1.630000000000000E-002   -8.840173360586189E-033
 -1.620000000000000E-002   -1.157511266249050E-032
 -1.610000000000000E-002   -1.357325159588572E-032
 -1.600000000000000E-002   -1.420847464536640E-032
 -1.590000000000000E-002   -1.283367019601266E-032
 -1.580000000000000E-002   -8.881656206117656E-033
 -1.570000000000000E-002   -1.990008553132291E-033
 -1.560000000000000E-002    7.863334286535954E-033
 -1.550000000000000E-002    2.023331354941483E-032
 -1.540000000000000E-002    3.411461278157506E-032
 -1.530000000000000E-002    4.790926860205366E-032
 -1.520000000000000E-002    5.948037532671979E-032
 -1.510000000000000E-002    6.631044839573597E-032
 -1.500000000000000E-002    6.577070895152259E-032
 -1.490000000000000E-002    5.549073766053970E-032
 -1.480000000000000E-002    3.379799442447684E-032
 -1.470000000000000E-002    1.766980882960462E-034
 -1.460000000000000E-002   -4.432103542251476E-032
 -1.450000000000000E-002   -9.678824645566048E-032
 -1.440000000000000E-002   -1.523750803972937E-031
 -1.430000000000000E-002   -2.044601225055180E-031
 -1.420000000000000E-002   -2.451133736676924E-031
 -1.410000000000000E-002   -2.658446018937090E-031
 -1.400000000000000E-002   -2.585858068365224E-031
 -1.390000000000000E-002   -2.168126481891923E-031
 -1.380000000000000E-002   -1.366757026766530E-031
 -1.370000000000000E-002   -1.799524310544434E-032
 -1.360000000000000E-002    1.350207528682253E-031
 -1.350000000000000E-002    3.134451167075229E-031
 -1.340000000000000E-002    5.037456420478936E-031
 -1.330000000000000E-002    6.883426853343159E-031
 -1.320000000000000E-002    8.465496868861103E-031
 -1.310000000000000E-002    9.557988638936225E-031
 -1.300000000000000E-002    9.930483659880891E-031
 -1.290000000000000E-002    9.363041096210957E-031
 -1.280000000000000E-002    7.662616124558162E-031
 -1.270000000000000E-002    4.681631966848561E-031
 -1.260000000000000E-002    3.404021099332273E-032
 -1.250000000000000E-002   -5.344645374076304E-031
 -1.240000000000000E-002   -1.222582731635139E-030
 -1.230000000000000E-002   -1.998304423467387E-030
 -1.220000000000000E-002   -2.808091391451490E-030
 -1.210000000000000E-002   -3.573294726905682E-030
 -1.200000000000000E-002   -4.188611364336647E-030
 -1.190000000000000E-002   -4.524283223449824E-030
 -1.180000000000000E-002   -4.433848033687958E-030
 -1.170000000000000E-002   -3.768950307386914E-030
 -1.160000000000000E-002   -2.401888210302218E-030
 -1.150000000000000E-002   -2.551634251321001E-031
 -1.140000000000000E-002    2.664586726413190E-030
 -1.130000000000000E-002    6.233044606492595E-030
 -1.120000000000000E-002    1.018181062543248E-029
 -1.110000000000000E-002    1.408724301545133E-029
 -1.100000000000000E-002    1.738273127296682E-029
 -1.090000000000000E-002    1.940099190329527E-029
 -1.080000000000000E-002    1.944932600769528E-029
 -1.070000000000000E-002    1.691522413815377E-029
 -1.060000000000000E-002    1.139267006781422E-029
 -1.050000000000000E-002    2.812118513786996E-030
 -1.040000000000000E-002   -8.449252725151245E-030
 -1.030000000000000E-002   -2.150394152946362E-029
 -1.020000000000000E-002   -3.496315319819046E-029
 -1.010000000000000E-002   -4.703778764791844E-029
 -1.000000000000000E-002   -5.573787852114114E-029
 -9.899999999999999E-003   -5.915885367277587E-029
 -9.800000000000000E-003   -5.582188190963824E-029
 -9.699999999999999E-003   -4.501508745526079E-029
 -9.599999999999999E-003   -2.706743062583794E-029
 -9.500000000000000E-003   -3.482133942205964E-030
 -9.399999999999999E-003    2.313335562107233E-029
 -9.299999999999999E-003    4.937734067063090E-029
 -9.200000000000000E-003    7.159735996803055E-029
 -9.099999999999999E-003    8.660662583804233E-029
 -8.999999999999999E-003    9.245587429655391E-029
 -8.900000000000000E-003    8.909578657552004E-029
 -8.799999999999999E-003    7.874085403918853E-029
 -8.699999999999999E-003    6.575723443926146E-029
 -8.600000000000000E-003    5.595365507785545E-029
 -8.499999999999999E-003    5.525799865788831E-029
 -8.399999999999999E-003    6.790158484666853E-029
 -8.300000000000000E-003    9.439314210837208E-029
 -8.199999999999999E-003    1.297095949851941E-028
 -8.100000000000000E-003    1.622286577508929E-028
 -8.000000000000000E-003    1.739390287321088E-028
 -7.899999999999999E-003    1.423542042808729E-028
 -7.800000000000000E-003    4.432132923165765E-029
 -7.699999999999999E-003   -1.384492370933508E-028
 -7.599999999999999E-003   -4.127462804087085E-028
 -7.499999999999999E-003   -7.671815296652831E-028
 -7.399999999999999E-003   -1.166917671465812E-027
 -7.299999999999999E-003   -1.551428141155162E-027
 -7.199999999999999E-003   -1.836821638461061E-027
 -7.100000000000000E-003   -1.923815733090871E-027
 -6.999999999999999E-003   -1.711638973133079E-027
 -6.899999999999999E-003   -1.117028404960516E-027
 -6.800000000000000E-003   -9.621760687472623E-029
 -6.699999999999999E-003    1.333413602098861E-027
 -6.599999999999999E-003    3.076264457264922E-027
 -6.499999999999999E-003    4.950601377081297E-027
 -6.399999999999999E-003    6.693904705098445E-027
 -6.299999999999999E-003    7.984201724828688E-027
 -6.199999999999999E-003    8.477812862451447E-027
 -6.100000000000000E-003    7.861011825843837E-027
 -5.999999999999999E-003    5.909865570547157E-027
 -5.899999999999999E-003    2.549675340994008E-027
 -5.800000000000000E-003   -2.096545434116082E-027
 -5.699999999999999E-003   -7.681469135699328E-027
 -5.599999999999999E-003   -1.363804417397761E-026
 -5.499999999999999E-003   -1.922087843062746E-026
 -5.399999999999999E-003   -2.358443264008299E-026
 -5.299999999999999E-003   -2.589134166346424E-026
 -5.199999999999999E-003   -2.543741988441526E-026
 -5.099999999999999E-003   -2.177450523668352E-026
 -4.999999999999999E-003   -1.480952109335134E-026
 -4.899999999999999E-003   -4.859242523881565E-027
 -4.799999999999999E-003    7.354295920968488E-027
 -4.699999999999999E-003    2.077331349519531E-026
 -4.599999999999999E-003    3.413183743519079E-026
 -4.499999999999999E-003    4.612121145186736E-026
 -4.399999999999999E-003    5.556239922256576E-026
 -4.299999999999999E-003    6.154777280092725E-026
 -4.199999999999999E-003    6.351660541027996E-026
 -4.099999999999999E-003    6.123906908842296E-026
 -3.999999999999999E-003    5.470295764390137E-026
 -3.899999999999999E-003    4.392333978145994E-026
 -3.799999999999999E-003    2.872309135582901E-026
 -3.699999999999999E-003    8.555838395622285E-027
 -3.599999999999999E-003   -1.754475408539037E-026
 -3.499999999999999E-003   -5.081117669615081E-026
 -3.399999999999999E-003   -9.233271289400940E-026
 -3.299999999999999E-003   -1.423895783739768E-025
 -3.199999999999999E-003   -1.995974204056490E-025
 -3.099999999999999E-003   -2.600050298456093E-025
 -2.999999999999999E-003   -3.163578073255398E-025
 -2.899999999999999E-003   -3.577846747316298E-025
 -2.799999999999999E-003   -3.701702289861306E-025
 -2.699999999999999E-003   -3.374214071261615E-025
 -2.599999999999999E-003   -2.437228499666603E-025
 -2.499999999999999E-003   -7.670370380027072E-026
 -2.399999999999999E-003    1.687765317328587E-025
 -2.299999999999999E-003    4.867358570022650E-025
 -2.199999999999999E-003    8.567776339354826E-025
 -2.099999999999999E-003    1.242216323509782E-024
 -1.999999999999999E-003    1.590431151327626E-024
 -1.899999999999999E-003    1.836096803669990E-024
 -1.799999999999999E-003    1.907612710774042E-024
 -1.699999999999999E-003    1.736579074947641E-024
 -1.599999999999999E-003    1.269596410941482E-024
 -1.499999999999999E-003    4.810705214067143E-025
 -1.399999999999999E-003   -6.148029128918920E-025
 -1.299999999999999E-003   -1.955027533144297E-024
 -1.199999999999999E-003   -3.423949229671296E-024
 -1.099999999999999E-003   -4.856411576711757E-024
 -9.999999999999989E-004   -6.049073523297088E-024
 -8.999999999999990E-004   -6.780003419783640E-024
 -7.999999999999990E-004   -6.835377231810045E-024
 -6.999999999999989E-004   -6.040802316781255E-024
 -5.999999999999990E-004   -4.293587328130520E-024
 -4.999999999999989E-004   -1.591492104186775E-024
 -3.999999999999989E-004    1.946761074118816E-024
 -2.999999999999989E-004    6.073454394464821E-024
 -1.999999999999989E-004    1.041940144703138E-023
 -9.999999999999892E-005    1.451828929295004E-023
  1.084202172485504E-018    1.784685123899494E-023
  1.000000000000011E-004    1.987759132407254E-023
  2.000000000000011E-004    2.013868054993513E-023
  3.000000000000011E-004    1.827425817543811E-023
  4.000000000000011E-004    1.409785051816525E-023
  5.000000000000011E-004    7.632236293821140E-024
  6.000000000000011E-004   -8.692999458336984E-025
  7.000000000000011E-004   -1.092294583212756E-023
  8.000000000000011E-004   -2.183536985819727E-023
  9.000000000000012E-004   -3.274289650205287E-023
  1.000000000000001E-003   -4.266406054402037E-023
  1.100000000000001E-003   -5.055989372137760E-023
  1.200000000000001E-003   -5.539702935157865E-023
  1.300000000000001E-003   -5.621041707533267E-023
  1.400000000000001E-003   -5.216543120353065E-023
  1.500000000000001E-003   -4.262182045709853E-023
  1.600000000000001E-003   -2.720413868501959E-023
  1.700000000000001E-003   -5.883340078582939E-024
  1.800000000000001E-003    2.092802596160995E-023
  1.900000000000001E-003    5.226994251018495E-023
  2.000000000000001E-003    8.652915635719421E-023
  2.100000000000001E-003    1.213533977982827E-022
  2.200000000000001E-003    1.536144382064851E-022
  2.300000000000001E-003    1.794547910610801E-022
  2.400000000000001E-003    1.944538420888241E-022
  2.500000000000001E-003    1.939424145667170E-022
  2.600000000000001E-003    1.734794076139792E-022
  2.700000000000001E-003    1.294805925875708E-022
  2.800000000000001E-003    5.995850831891180E-023
  2.900000000000001E-003   -3.470129640182983E-023
  3.000000000000001E-003   -1.510335879207260E-022
  3.100000000000001E-003   -2.819858431243727E-022
  3.200000000000001E-003   -4.167467527097610E-022
  3.300000000000001E-003   -5.410365825501464E-022
  3.400000000000001E-003   -6.379479223248397E-022
  3.500000000000001E-003   -6.893677064236899E-022
  3.600000000000001E-003   -6.779326652065791E-022
  3.700000000000001E-003   -5.893801484950109E-022
  3.800000000000001E-003   -4.150684935153835E-022
  3.900000000000001E-003   -1.543651432146039E-022
  4.000000000000001E-003    1.834430290035142E-022
  4.100000000000001E-003    5.780702394196726E-022
  4.200000000000001E-003    9.982897124504018E-022
  4.300000000000001E-003    1.403341930010351E-021
  4.400000000000001E-003    1.745765138955485E-021
  4.500000000000001E-003    1.975548227441225E-021
  4.600000000000002E-003    2.045321435795044E-021
  4.700000000000001E-003    1.916127757410310E-021
  4.800000000000001E-003    1.563182689236555E-021
  4.900000000000002E-003    9.809559768285373E-022
  5.000000000000001E-003    1.869096047309342E-022
  5.100000000000001E-003   -7.766922247102279E-022
  5.200000000000001E-003   -1.843324918570766E-021
  5.300000000000002E-003   -2.925295493627955E-021
  5.400000000000001E-003   -3.919330331639273E-021
  5.500000000000001E-003   -4.714341980565904E-021
  5.600000000000002E-003   -5.200827847163269E-021
  5.700000000000001E-003   -5.281165922528298E-021
  5.800000000000001E-003   -4.879992544677738E-021
  5.900000000000002E-003   -3.953798384266165E-021
  6.000000000000001E-003   -2.498959061762427E-021
  6.100000000000001E-003   -5.575080166123120E-022
  6.200000000000002E-003    1.779897210518145E-021
  6.300000000000002E-003    4.374218792783952E-021
  6.400000000000001E-003    7.041773302336584E-021
  6.500000000000001E-003    9.561639662270560E-021
  6.600000000000002E-003    1.168683125372664E-020
  6.700000000000001E-003    1.315922711657690E-020
  6.800000000000001E-003    1.372812793694097E-020
  6.900000000000002E-003    1.317204767216650E-020
  7.000000000000001E-003    1.132301414057058E-020
  7.100000000000001E-003    8.092161487129928E-021
  7.200000000000002E-003    3.494794384672742E-021
  7.300000000000002E-003   -2.327563460603451E-021
  7.400000000000001E-003   -9.091168329627747E-021
  7.500000000000001E-003   -1.636362611591964E-020
  7.600000000000002E-003   -2.357050338250956E-020
  7.700000000000001E-003   -3.001810079199936E-020
  7.800000000000001E-003   -3.493445135126548E-020
  7.900000000000001E-003   -3.752891093857902E-020
  8.000000000000002E-003   -3.706854522964254E-020
  8.100000000000001E-003   -3.296682424417961E-020
  8.200000000000001E-003   -2.487745794181097E-020
  8.300000000000002E-003   -1.278368732152820E-020
  8.400000000000001E-003    2.928409712877298E-021
  8.500000000000002E-003    2.142479430764905E-020
  8.600000000000002E-003    4.141793365446463E-020
  8.700000000000001E-003    6.121002547982323E-020
  8.800000000000002E-003    7.878995691084083E-020
  8.900000000000002E-003    9.198376196695321E-020
  9.000000000000001E-003    9.865175606330133E-020
  9.100000000000002E-003    9.691899659564383E-020
  9.200000000000002E-003    8.541931114011233E-020
  9.300000000000001E-003    6.352828918945449E-020
  9.400000000000002E-003    3.155807964925859E-020
  9.500000000000001E-003   -9.113455426251542E-021
  9.600000000000001E-003   -5.600332523061771E-020
  9.700000000000002E-003   -1.055915091893361E-019
  9.800000000000001E-003   -1.535055421773769E-019
  9.900000000000001E-003   -1.948192460102657E-019
  1.000000000000000E-002   -2.244513159841444E-019
  1.010000000000000E-002   -2.376375167586368E-019
  1.020000000000000E-002   -2.304399405675357E-019
  1.030000000000000E-002   -2.002489192068933E-019
  1.040000000000000E-002   -1.462288374658357E-019
  1.050000000000000E-002   -6.965944300176603E-020
  1.060000000000000E-002    2.587184291427511E-020
  1.070000000000000E-002    1.344622248593751E-019
  1.080000000000000E-002    2.480939024651969E-019
  1.090000000000000E-002    3.570512441510663E-019
  1.100000000000000E-002    4.505459300633342E-019
  1.110000000000000E-002    5.175245253665242E-019
  1.120000000000000E-002    5.476141908222733E-019
  1.130000000000000E-002    5.321481436436841E-019
  1.140000000000000E-002    4.651963319450121E-019
  1.150000000000000E-002    3.445189364780417E-019
  1.160000000000000E-002    1.723512436516763E-019
  1.170000000000000E-002   -4.407027412484042E-020
  1.180000000000000E-002   -2.923279746978530E-019
  1.190000000000000E-002   -5.550617871342789E-019
  1.200000000000000E-002   -8.106805472772203E-019
  1.210000000000000E-002   -1.034570315506349E-018
  1.220000000000000E-002   -1.200785874139080E-018
  1.230000000000000E-002   -1.284166256265788E-018
  1.240000000000000E-002   -1.262765604432551E-018
  1.250000000000000E-002   -1.120440027727331E-018
  1.260000000000000E-002   -8.493797667047081E-019
  1.270000000000000E-002   -4.523414585765587E-019
  1.280000000000000E-002    5.569158443835668E-020
  1.290000000000000E-002    6.466893256633937E-019
  1.300000000000000E-002    1.279841454980264E-018
  1.310000000000000E-002    1.903090047719940E-018
  1.320000000000000E-002    2.456029509950547E-018
  1.330000000000000E-002    2.874143701903659E-018
  1.340000000000000E-002    3.094220520830065E-018
  1.350000000000000E-002    3.060632559237501E-018
  1.360000000000000E-002    2.732015236709003E-018
  1.370000000000000E-002    2.087769132189148E-018
  1.380000000000000E-002    1.133702664428376E-018
  1.390000000000000E-002   -9.388342625266738E-020
  1.400000000000000E-002   -1.526349797271049E-018
  1.410000000000000E-002   -3.063674861399283E-018
  1.420000000000000E-002   -4.578601671896420E-018
  1.430000000000000E-002   -5.924109044781506E-018
  1.440000000000000E-002   -6.944038119537208E-018
  1.450000000000000E-002   -7.486367049601040E-018
  1.460000000000000E-002   -7.418301466754952E-018
  1.470000000000000E-002   -6.642020475649062E-018
  1.480000000000000E-002   -5.109698169924164E-018
  1.490000000000000E-002   -2.836261981492226E-018
  1.500000000000000E-002    9.167085125609740E-020
  1.510000000000000E-002    3.512107780842354E-018
  1.520000000000000E-002    7.190421606449281E-018
  1.530000000000000E-002    1.082923684588534E-017
  1.540000000000000E-002    1.408568516415396E-017
  1.550000000000000E-002    1.659555602342589E-017
  1.560000000000000E-002    1.800323273513481E-017
  1.570000000000000E-002    1.799554395152342E-017
  1.580000000000000E-002    1.633710982198972E-017
  1.590000000000000E-002    1.290419462251174E-017
  1.600000000000000E-002    7.713829505508680E-018
  1.610000000000000E-002    9.448458832585905E-019
  1.620000000000000E-002   -7.052278789203470E-018
  1.630000000000000E-002   -1.575938888951071E-017
  1.640000000000000E-002   -2.451015281895203E-017
  1.650000000000000E-002   -3.252582782708730E-017
  1.660000000000000E-002   -3.896663691948559E-017
  1.670000000000000E-002   -4.299660477481165E-017
  1.680000000000000E-002   -4.385827954623766E-017
  1.690000000000000E-002   -4.095234141127332E-017
  1.700000000000000E-002   -3.391578276846761E-017
  1.710000000000000E-002   -2.269172434137588E-017
  1.720000000000000E-002   -7.583368483083584E-018
  1.730000000000000E-002    1.071505121767397E-017
  1.740000000000000E-002    3.111660708576759E-017
  1.750000000000000E-002    5.217404753860203E-017
  1.760000000000000E-002    7.214867797374672E-017
  1.770000000000000E-002    8.911546907715331E-017
  1.780000000000000E-002    1.011010335162799E-016
  1.790000000000000E-002    1.062475405983304E-016
  1.800000000000000E-002    1.029924974248916E-016
  1.810000000000000E-002    9.025134367995979E-017
  1.820000000000000E-002    6.758745024571737E-017
  1.830000000000000E-002    3.535298765166695E-017
  1.840000000000000E-002   -5.216279750267911E-018
  1.850000000000000E-002   -5.196740957218059E-017
  1.860000000000000E-002   -1.018706206757181E-016
  1.870000000000000E-002   -1.511416170455847E-016