 -4.000000000000000E-002    0.000000000000000E+000
 -3.990000000000000E-002    0.000000000000000E+000
 -3.980000000000000E-002    0.000000000000000E+000
 -3.970000000000000E-002    0.000000000000000E+000
 -3.960000000000000E-002    0.000000000000000E+000
 -3.950000000000000E-002    0.000000000000000E+000
 -3.940000000000000E-002    0.000000000000000E+000
 -3.930000000000000E-002    0.000000000000000E+000
 -3.920000000000000E-002    0.000000000000000E+000
 -3.910000000000000E-002    0.000000000000000E+000
 -3.900000000000000E-002    0.000000000000000E+000
 -3.890000000000000E-002    0.000000000000000E+000
 -3.880000000000000E-002    0.000000000000000E+000
 -3.870000000000000E-002    0.000000000000000E+000
 -3.860000000000000E-002    0.000000000000000E+000
 -3.850000000000000E-002    0.000000000000000E+000
 -3.840000000000000E-002    0.000000000000000E+000
 -3.830000000000000E-002    0.000000000000000E+000
 -3.820000000000000E-002    0.000000000000000E+000
 -3.810000000000000E-002    0.000000000000000E+000
 -3.800000000000000E-002    0.000000000000000E+000
 -3.790000000000000E-002    0.000000000000000E+000
 -3.780000000000000E-002    0.000000000000000E+000
 -3.770000000000000E-002    0.000000000000000E+000
 -3.760000000000000E-002    0.000000000000000E+000
 -3.750000000000000E-002    0.000000000000000E+000
 -3.740000000000000E-002    0.000000000000000E+000
 -3.730000000000000E-002    0.000000000000000E+000
 -3.720000000000000E-002    0.000000000000000E+000
 -3.710000000000000E-002    0.000000000000000E+000
 -3.700000000000000E-002    0.000000000000000E+000
 -3.690000000000000E-002    0.000000000000000E+000
 -3.680000000000000E-002    0.000000000000000E+000
 -3.670000000000000E-002    0.000000000000000E+000
 -3.660000000000000E-002    0.000000000000000E+000
 -3.650000000000000E-002    0.000000000000000E+000
 -3.640000000000000E-002    0.000000000000000E+000
 -3.630000000000000E-002    0.000000000000000E+000
 -3.620000000000000E-002    0.000000000000000E+000
 -3.610000000000000E-002    0.000000000000000E+000
 -3.600000000000000E-002    0.000000000000000E+000
 -3.590000000000000E-002    0.000000000000000E+000
 -3.580000000000000E-002    0.000000000000000E+000
 -3.570000000000000E-002    0.000000000000000E+000
 -3.560000000000000E-002    0.000000000000000E+000
 -3.550000000000000E-002    0.000000000000000E+000
 -3.540000000000000E-002    0.000000000000000E+000
 -3.530000000000000E-002    0.000000000000000E+000
 -3.520000000000000E-002    0.000000000000000E+000
 -3.510000000000000E-002    0.000000000000000E+000
 -3.500000000000000E-002    0.000000000000000E+000
 -3.490000000000000E-002    0.000000000000000E+000
 -3.480000000000000E-002    0.000000000000000E+000
 -3.470000000000000E-002    0.000000000000000E+000
 -3.460000000000000E-002    0.000000000000000E+000
 -3.450000000000000E-002    0.000000000000000E+000
 -3.440000000000000E-002    0.000000000000000E+000
 -3.430000000000000E-002    0.000000000000000E+000
 -3.420000000000000E-002    0.000000000000000E+000
 -3.410000000000000E-002    0.000000000000000E+000
 -3.400000000000000E-002    0.000000000000000E+000
 -3.390000000000000E-002    0.000000000000000E+000
 -3.380000000000000E-002    0.000000000000000E+000
 -3.370000000000000E-002    0.000000000000000E+000
 -3.360000000000000E-002    0.000000000000000E+000
 -3.350000000000000E-002    0.000000000000000E+000
 -3.340000000000000E-002    0.000000000000000E+000
 -3.330000000000000E-002    0.000000000000000E+000
 -3.320000000000000E-002    0.000000000000000E+000
 -3.310000000000000E-002    0.000000000000000E+000
 -3.300000000000000E-002    0.000000000000000E+000
 -3.290000000000000E-002    0.000000000000000E+000
 -3.280000000000000E-002    0.000000000000000E+000
 -3.270000000000000E-002    0.000000000000000E+000
 -3.260000000000000E-002    0.000000000000000E+000
 -3.250000000000000E-002    0.000000000000000E+000
 -3.240000000000000E-002    0.000000000000000E+000
 -3.230000000000000E-002    0.000000000000000E+000
 -3.220000000000000E-002    0.000000000000000E+000
 -3.210000000000000E-002    0.000000000000000E+000
 -3.200000000000000E-002    0.000000000000000E+000
 -3.190000000000000E-002    0.000000000000000E+000
 -3.180000000000000E-002    0.000000000000000E+000
 -3.170000000000000E-002    0.000000000000000E+000
 -3.160000000000000E-002    0.000000000000000E+000
 -3.150000000000000E-002    0.000000000000000E+000
 -3.140000000000000E-002    0.000000000000000E+000
 -3.130000000000000E-002    0.000000000000000E+000
 -3.120000000000000E-002    0.000000000000000E+000
 -3.110000000000000E-002    0.000000000000000E+000
 -3.100000000000000E-002    0.000000000000000E+000
 -3.090000000000000E-002    0.000000000000000E+000
 -3.080000000000000E-002    0.000000000000000E+000
 -3.070000000000000E-002    0.000000000000000E+000
 -3.060000000000000E-002    0.000000000000000E+000
 -3.050000000000000E-002    0.000000000000000E+000
 -3.040000000000000E-002   -6.414635304221270E-048
 -3.030000000000000E-002   -1.282927060844254E-047
 -3.020000000000000E-002   -1.282927060844254E-047
 -3.010000000000000E-002   -6.414635304221270E-048
 -3.000000000000000E-002   -1.302948326278190E-047
 -2.990000000000000E-002    6.759470891606673E-047
 -2.980000000000000E-002    7.104306478992076E-047
 -2.970000000000000E-002    2.938876087988654E-047
 -2.960000000000000E-002    6.855886180304032E-047
 -2.950000000000000E-002    1.658215852663538E-046
 -2.940000000000000E-002    3.036435896768396E-046
 -2.930000000000000E-002    1.030113983682354E-045
 -2.920000000000000E-002    1.062472374209383E-045
 -2.910000000000000E-002    9.304677071673100E-046
 -2.900000000000000E-002   -2.574513961921201E-046
 -2.890000000000000E-002   -1.197437114389734E-045
 -2.880000000000000E-002   -4.326683982604536E-045
 -2.870000000000000E-002   -9.050456320571495E-045
 -2.860000000000000E-002   -1.494081722464069E-044
 -2.850000000000000E-002   -2.364439121571825E-044
 -2.840000000000000E-002   -3.479886564738372E-044
 -2.830000000000000E-002   -4.585091157265396E-044
 -2.820000000000000E-002   -5.378974291222224E-044
 -2.810000000000000E-002   -5.160896046093561E-044
 -2.800000000000000E-002   -2.843268200854308E-044
 -2.790000000000000E-002    3.010823386503654E-044
 -2.780000000000000E-002    1.415631081593806E-043
 -2.770000000000000E-002    3.296298958464130E-043
 -2.760000000000000E-002    6.144195371106438E-043
 -2.750000000000000E-002    1.009317965492452E-042
 -2.740000000000000E-002    1.507607338272755E-042
 -2.730000000000000E-002    2.070402446099245E-042
 -2.720000000000000E-002    2.602133999609711E-042
 -2.710000000000000E-002    2.929663858827543E-042
 -2.700000000000000E-002    2.777431097162899E-042
 -2.690000000000000E-002    1.746735016876417E-042
 -2.680000000000000E-002   -6.823892359412056E-043
 -2.670000000000000E-002   -5.134720365857095E-042
 -2.660000000000000E-002   -1.227321621510527E-041
 -2.650000000000000E-002   -2.266937082313985E-041
 -2.640000000000000E-002   -3.660414008763238E-041
 -2.630000000000000E-002   -5.377072070299559E-041
 -2.620000000000000E-002   -7.288080218908217E-041
 -2.610000000000000E-002   -9.119258155364553E-041
 -2.600000000000000E-002   -1.039915969581567E-040
 -2.590000000000000E-002   -1.041065528637979E-040
 -2.580000000000000E-002   -8.157597143927617E-041
 -2.570000000000000E-002   -2.364756261200269E-041
 -2.560000000000000E-002    8.465938651605465E-041
 -2.550000000000000E-002    2.591570075628984E-040
 -2.540000000000000E-002    5.139327106101695E-040
 -2.530000000000000E-002    8.573402650575803E-040
 -2.520000000000000E-002    1.286298918361283E-039
 -2.510000000000000E-002    1.778826583018473E-039
 -2.500000000000000E-002    2.284985333939409E-039
 -2.490000000000000E-002    2.716863172373079E-039
 -2.480000000000000E-002    2.938778719902470E-039
 -2.470000000000000E-002    2.759673192899440E-039
 -2.460000000000000E-002    1.930547685294218E-039
 -2.450000000000000E-002    1.508173660067406E-040
 -2.440000000000000E-002   -2.911598087103960E-039
 -2.430000000000000E-002   -7.580904497222463E-039
 -2.420000000000000E-002   -1.410910996864422E-038
 -2.410000000000000E-002   -2.258181305206906E-038
 -2.400000000000000E-002   -3.279145764841944E-038
 -2.390000000000000E-002   -4.407963102989935E-038
 -2.380000000000000E-002   -5.515668138902602E-038
 -2.370000000000000E-002   -6.391671793653468E-038
 -2.360000000000000E-002   -6.727850273343517E-038
 -2.350000000000000E-002   -6.109798329002309E-038
 -2.340000000000000E-002   -4.021454496558159E-038
 -2.330000000000000E-002    1.291962598610294E-039
 -2.320000000000000E-002    6.954560773591740E-038
 -2.310000000000000E-002    1.699321088351823E-037
 -2.300000000000000E-002    3.056964178307298E-037
 -2.290000000000000E-002    4.760451120691330E-037
 -2.280000000000000E-002    6.737857585885715E-037
 -2.270000000000000E-002    8.826370582711996E-037
 -2.260000000000000E-002    1.074483331397642E-036
 -2.250000000000000E-002    1.207016706409631E-036
 -2.240000000000000E-002    1.222403553817216E-036
 -2.230000000000000E-002    1.047799868645943E-036
 -2.220000000000000E-002    5.986946221505684E-037
 -2.210000000000000E-002   -2.138728761744983E-037
 -2.200000000000000E-002   -1.471248064368846E-036
 -2.190000000000000E-002   -3.229554427496212E-036
 -2.180000000000000E-002   -5.496400067361004E-036
 -2.170000000000000E-002   -8.202615068943787E-036
 -2.160000000000000E-002   -1.117094094754249E-035
 -2.150000000000000E-002   -1.408509750877032E-035
 -2.140000000000000E-002   -1.646439829629733E-035
 -2.130000000000000E-002   -1.765082372328886E-035
 -2.120000000000000E-002   -1.681707551408447E-035
 -2.110000000000000E-002   -1.300505119593133E-035
 -2.100000000000000E-002   -5.204214736245036E-036
 -2.090000000000000E-002    7.522243110090124E-036
 -2.080000000000000E-002    2.585895497216440E-035
 -2.070000000000000E-002    5.000901696937517E-035
 -2.060000000000000E-002    7.942342900424775E-035
 -2.050000000000000E-002    1.125098219611539E-034
 -2.040000000000000E-002    1.463537094964165E-034
 -2.030000000000000E-002    1.764991093803308E-034
 -2.020000000000000E-002    1.968482182932874E-034
 -2.010000000000000E-002    1.997499197889492E-034
 -2.000000000000000E-002    1.763512095936711E-034
 -1.990000000000000E-002    1.172809735452118E-034
 -1.980000000000000E-002    1.371949425614930E-035
 -1.970000000000000E-002   -1.411242047951635E-034
 -1.960000000000000E-002   -3.501523084158035E-034
 -1.950000000000000E-002   -6.102253801762011E-034
 -1.940000000000000E-002   -9.098853778574232E-034
 -1.930000000000000E-002   -1.227212412270500E-033
 -1.920000000000000E-002   -1.528163442893829E-033
 -1.910000000000000E-002   -1.765824695872572E-033
 -1.900000000000000E-002   -1.881060495575947E-033
 -1.890000000000000E-002   -1.805060561743534E-033
 -1.880000000000000E-002   -1.464234241675993E-033
 -1.870000000000000E-002   -7.877739563889900E-034
 -1.860000000000000E-002    2.820094324550252E-034
 -1.850000000000000E-002    1.776806299977779E-033
 -1.840000000000000E-002    3.687524396298388E-033
 -1.830000000000000E-002    5.948750568287004E-033
 -1.820000000000000E-002    8.424156112917707E-033
 -1.810000000000000E-002    1.089507709178101E-032
 -1.800000000000000E-002    1.305497348612100E-032
 -1.790000000000000E-002    1.451274785450592E-032
 -1.780000000000000E-002    1.480793568075955E-032
 -1.770000000000000E-002    1.344041954539841E-032
 -1.760000000000000E-002    9.916478756393716E-033
 -1.750000000000000E-002    3.811679156268089E-033
 -1.740000000000000E-002   -5.150875987608286E-033
 -1.730000000000000E-002   -1.701079194178416E-032
 -1.720000000000000E-002   -3.147586914650386E-032
 -1.710000000000000E-002   -4.783258627537420E-032
 -1.700000000000000E-002   -6.487434291558270E-032
 -1.690000000000000E-002   -8.086260566968401E-032
 -1.680000000000000E-002   -9.353757850368799E-032
 -1.670000000000000E-002   -1.001951483165199E-031
 -1.660000000000000E-002   -9.784453098637513E-032
 -1.650000000000000E-002   -8.345686882082763E-032
 -1.640000000000000E-002   -5.430749957107433E-032
 -1.630000000000000E-002   -8.404448515285842E-033
 -1.620000000000000E-002    5.501704423986773E-032
 -1.610000000000000E-002    1.349692634441691E-031
 -1.600000000000000E-002    2.282074883433052E-031
 -1.590000000000000E-002    3.288126272135410E-031
 -1.580000000000000E-002    4.279410916389416E-031
 -1.570000000000000E-002    5.138295936040806E-031
 -1.560000000000000E-002    5.721434519942285E-031
 -1.550000000000000E-002    5.867465892531409E-031
 -1.540000000000000E-002    5.409496948587894E-031
 -1.530000000000000E-002    4.192553892034603E-031
 -1.520000000000000E-002    2.095672149864500E-031
 -1.510000000000000E-002   -9.423685427629143E-032
 -1.500000000000000E-002   -4.895441847865254E-031
 -1.490000000000000E-002   -9.623225408875928E-031
 -1.480000000000000E-002   -1.484853583803156E-030
 -1.470000000000000E-002   -2.014300280646640E-030
 -1.460000000000000E-002   -2.492567408686451E-030
 -1.450000000000000E-002   -2.847920747162971E-030
 -1.440000000000000E-002   -2.998779758327161E-030
 -1.430000000000000E-002   -2.859989209646257E-030
 -1.420000000000000E-002   -2.351673737038097E-030
 -1.410000000000000E-002   -1.410509540273958E-030
 -1.400000000000000E-002   -2.892969369486097E-033
 -1.390000000000000E-002    1.860925957932041E-030
 -1.380000000000000E-002    4.113121850000057E-030
 -1.370000000000000E-002    6.616800257090987E-030
 -1.360000000000000E-002    9.158900161863024E-030
 -1.350000000000000E-002    1.144989744968718E-029
 -1.340000000000000E-002    1.313271862855329E-029
 -1.330000000000000E-002    1.380297181657297E-029
 -1.320000000000000E-002    1.304198204635132E-029
 -1.310000000000000E-002    1.046301442388592E-029
 -1.300000000000000E-002    5.769616818156524E-030
 -1.290000000000000E-002   -1.176877966334950E-030
 -1.280000000000000E-002   -1.028582011860886E-029
 -1.270000000000000E-002   -2.116906422920608E-029
 -1.260000000000000E-002   -3.308573554895915E-029
 -1.250000000000000E-002   -4.491122808689468E-029
 -1.240000000000000E-002   -5.514265858192958E-029
 -1.230000000000000E-002   -6.195282773383997E-029
 -1.220000000000000E-002   -6.330276758723740E-029
 -1.210000000000000E-002   -5.711948062926239E-029
 -1.200000000000000E-002   -4.153954024463400E-029
 -1.190000000000000E-002   -1.521159900281671E-029
 -1.180000000000000E-002    2.235881571570871E-029
 -1.170000000000000E-002    7.044962390427155E-029
 -1.160000000000000E-002    1.267861474010389E-028
 -1.150000000000000E-002    1.872773819665197E-028
 -1.140000000000000E-002    2.458811596546109E-028
 -1.130000000000000E-002    2.946581821455307E-028
 -1.120000000000000E-002    3.240726818663030E-028
 -1.110000000000000E-002    3.235873400931534E-028
 -1.100000000000000E-002    2.825812534687325E-028
 -1.090000000000000E-002    1.915905673284029E-028
 -1.080000000000000E-002    4.383464896675938E-029
 -1.070000000000000E-002   -1.630564475647393E-028
 -1.060000000000000E-002   -4.252475235203549E-028
 -1.050000000000000E-002   -7.310233185063007E-028
 -1.040000000000000E-002   -1.059466222702619E-027
 -1.030000000000000E-002   -1.379755373289554E-027
 -1.020000000000000E-002   -1.651371063484497E-027
 -1.010000000000000E-002   -1.825477192038792E-027
 -1.000000000000000E-002   -1.847708246663282E-027
 -9.899999999999999E-003   -1.662502351764892E-027
 -9.800000000000000E-003   -1.218991017829195E-027
 -9.699999999999999E-003   -4.782905468204903E-028
 -9.599999999999999E-003    5.781699357412757E-028
 -9.500000000000000E-003    1.939873063353809E-027
 -9.399999999999999E-003    3.558815975614168E-027
 -9.299999999999999E-003    5.342529647674517E-027
 -9.200000000000000E-003    7.149722287307676E-027
 -9.099999999999999E-003    8.789844149586148E-027
 -8.999999999999999E-003    1.002784067478464E-026
 -8.900000000000000E-003    1.059519636878692E-026
 -8.799999999999999E-003    1.020803801169233E-026
 -8.699999999999999E-003    8.592540221602122E-027
 -8.600000000000000E-003    5.517184150102767E-027
 -8.499999999999999E-003    8.305657069691559E-028
 -8.399999999999999E-003   -5.497532366917106E-027
 -8.300000000000000E-003   -1.333509530303696E-026
 -8.199999999999999E-003   -2.235113778505089E-026
 -8.100000000000000E-003   -3.198836255783879E-026
 -8.000000000000000E-003   -4.145082558886743E-026
 -7.899999999999999E-003   -4.971234554962881E-026
 -7.800000000000000E-003   -5.555093465552414E-026
 -7.699999999999999E-003   -5.761341606692342E-026
 -7.599999999999999E-003   -5.451253699039201E-026
 -7.499999999999999E-003   -4.495633024962079E-026
 -7.399999999999999E-003   -2.790610977347471E-026
 -7.299999999999999E-003   -2.755619176169251E-027
 -7.199999999999999E-003    3.048036720316522E-026
 -7.100000000000000E-003    7.098393877573987E-026
 -6.999999999999999E-003    1.169782437344130E-025
 -6.899999999999999E-003    1.656207892757980E-025
 -6.800000000000000E-003    2.129702068339982E-025
 -6.699999999999999E-003    2.540504273151437E-025
 -6.599999999999999E-003    2.830335866642111E-025
 -6.499999999999999E-003    2.935571185237953E-025
 -6.399999999999999E-003    2.791820772555806E-025
 -6.299999999999999E-003    2.339878866012500E-025
 -6.199999999999999E-003    1.532846183641471E-025
 -6.100000000000000E-003    3.440708155392540E-026
 -5.999999999999999E-003   -1.224617498878589E-025
 -5.899999999999999E-003   -3.135083777638079E-025
 -5.800000000000000E-003   -5.306324046391991E-025
 -5.699999999999999E-003   -7.610121155714257E-025
 -5.599999999999999E-003   -9.869930914037845E-025
 -5.499999999999999E-003   -1.186398176372326E-024
 -5.399999999999999E-003   -1.333342426206860E-024
 -5.299999999999999E-003   -1.399614500149972E-024
 -5.199999999999999E-003   -1.356646524682092E-024
 -5.099999999999999E-003   -1.178048162844712E-024
 -4.999999999999999E-003   -8.426206427214682E-025
 -4.899999999999999E-003   -3.377004677718081E-025
 -4.799999999999999E-003    3.373874691305211E-025
 -4.699999999999999E-003    1.168055712007931E-024
 -4.599999999999999E-003    2.121704917293325E-024
 -4.499999999999999E-003    3.145889120183073E-024
 -4.399999999999999E-003    4.167800530293021E-024
 -4.299999999999999E-003    5.095465132466717E-024
 -4.199999999999999E-003    5.820982396111660E-024
 -4.099999999999999E-003    6.226045617972288E-024
 -3.999999999999999E-003    6.189827362836869E-024
 -3.899999999999999E-003    5.599127243850987E-024
 -3.799999999999999E-003    4.360447058110597E-024
 -3.699999999999999E-003    2.413388308627246E-024
 -3.599999999999999E-003   -2.554830327133745E-025
 -3.499999999999999E-003   -3.599439117775770E-024
 -3.399999999999999E-003   -7.500402792586230E-024
 -3.299999999999999E-003   -1.176127850148783E-023
 -3.199999999999999E-003   -1.610335590622787E-023
 -3.099999999999999E-003   -2.017028304414949E-023
 -2.999999999999999E-003   -2.353988442164693E-023
 -2.899999999999999E-003   -2.574469973015473E-023
 -2.799999999999999E-003   -2.630156740176848E-023
 -2.699999999999999E-003   -2.474986218961775E-023
 -2.599999999999999E-003   -2.069709986557150E-023
 -2.499999999999999E-003   -1.386970252362588E-023
 -2.399999999999999E-003   -4.165691452845386E-024
 -2.299999999999999E-003    8.294836120403092E-024
 -2.199999999999999E-003    2.312638926559032E-023
 -2.099999999999999E-003    3.964741247396895E-023
 -1.999999999999999E-003    5.686791468799334E-023
 -1.899999999999999E-003    7.350079136896659E-023
 -1.799999999999999E-003    8.800139861075774E-023
 -1.699999999999999E-003    9.863854837721668E-023
 -1.599999999999999E-003    1.035980927976328E-022
 -1.499999999999999E-003    1.011176795901170E-022
 -1.399999999999999E-003    8.964824829105904E-023
 -1.299999999999999E-003    6.803459330014659E-023
 -1.199999999999999E-003    3.570375201291796E-023
 -1.099999999999999E-003   -7.152994104394381E-024
 -9.999999999999989E-004   -5.942150350001189E-023
 -8.999999999999990E-004   -1.189482911474004E-022
 -7.999999999999990E-004   -1.824854588723285E-022
 -6.999999999999989E-004   -2.457153569845264E-022
 -5.999999999999990E-004   -3.033704445301655E-022
 -4.999999999999989E-004   -3.494593544985063E-022
 -3.999999999999989E-004   -3.776031793325239E-022
 -2.999999999999989E-004   -3.814779201648186E-022
 -1.999999999999989E-004   -3.553491055333410E-022
 -9.999999999999892E-005   -2.946735670270666E-022
  1.084202172485504E-018   -1.967327704506004E-022
  1.000000000000011E-004   -6.125200399810560E-023
  2.000000000000011E-004    1.090494998458364E-022
  3.000000000000011E-004    3.080370405521213E-022
  4.000000000000011E-004    5.259300926743200E-022
  5.000000000000011E-004    7.493215910435989E-022
  6.000000000000011E-004    9.614975323763453E-022
  7.000000000000011E-004    1.143093478621008E-021
  8.000000000000011E-004    1.273103003913884E-021
  9.000000000000012E-004    1.330229107780925E-021
  1.000000000000001E-003    1.294537691852817E-021
  1.100000000000001E-003    1.149341018891503E-021
  1.200000000000001E-003    8.832049691657959E-022
  1.300000000000001E-003    4.919417739454031E-022
  1.400000000000001E-003   -1.957501482911565E-023
  1.500000000000001E-003   -6.359547585735322E-022
  1.600000000000001E-003   -1.330383470764065E-021
  1.700000000000001E-003   -2.064447243877354E-021
  1.800000000000001E-003   -2.788845127088114E-021
  1.900000000000001E-003   -3.445108247840399E-021
  2.000000000000001E-003   -3.968386212615401E-021
  2.100000000000001E-003   -4.291287110910581E-021
  2.200000000000001E-003   -4.348669135987874E-021
  2.300000000000001E-003   -4.083190062370651E-021
  2.400000000000001E-003   -3.451319406569974E-021
  2.500000000000001E-003   -2.429427433481413E-021
  2.600000000000001E-003   -1.019485487739447E-021
  2.700000000000001E-003    7.461474422591696E-022
  2.800000000000001E-003    2.801397893408005E-021
  2.900000000000001E-003    5.045149394051615E-021
  3.000000000000001E-003    7.342394463606489E-021
  3.100000000000001E-003    9.528234783533040E-021
  3.200000000000001E-003    1.141495724216436E-020
  3.300000000000001E-003    1.280219508135674E-020
  3.400000000000001E-003    1.348996015619437E-020
  3.500000000000001E-003    1.329405776184252E-020
  3.600000000000001E-003    1.206313006018783E-020
  3.700000000000001E-003    9.696292603334353E-021
  3.800000000000001E-003    6.160125610545709E-021
  3.900000000000001E-003    1.503569877837548E-021
  4.000000000000001E-003   -4.130781342079059E-021
  4.100000000000001E-003   -1.050052128074562E-020
  4.200000000000001E-003   -1.726378461404045E-020
  4.300000000000001E-003   -2.398724946270503E-020
  4.400000000000001E-003   -3.016252040008217E-020
  4.500000000000001E-003   -3.523112564285315E-020
  4.600000000000002E-003   -3.861771701570091E-020
  4.700000000000001E-003   -3.977036925700645E-020
  4.800000000000001E-003   -3.820615164254169E-020
  4.900000000000002E-003   -3.355938852759129E-020
  5.000000000000001E-003   -2.562944441262910E-020
  5.100000000000001E-003   -1.442429533665422E-020
  5.200000000000001E-003   -1.958773880542151E-022
  5.300000000000002E-003    1.653684087047198E-020
  5.400000000000001E-003    3.498088033746206E-020
  5.500000000000001E-003    5.408159557125892E-020
  5.600000000000002E-003    7.255663692463363E-020
  5.700000000000001E-003    8.895252234326706E-020
  5.800000000000001E-003    1.017233947015025E-019
  5.900000000000002E-003    1.093296322071961E-019
  6.000000000000001E-003    1.103521922285238E-019
  6.100000000000001E-003    1.036167642835204E-019
  6.200000000000002E-003    8.832000163772324E-020
  6.300000000000002E-003    6.414881316287181E-020
  6.400000000000001E-003    3.138276919074005E-020
  6.500000000000001E-003   -9.030720123431274E-021
  6.600000000000002E-003   -5.543821835121287E-020
  6.700000000000001E-003   -1.054878091101967E-019
  6.800000000000001E-003   -1.561888467907020E-019
  6.900000000000002E-003   -2.040277126830347E-019
  7.000000000000001E-003   -2.451397730755512E-019
  7.100000000000001E-003   -2.755333307261518E-019
  7.200000000000002E-003   -2.913574684637590E-019
  7.300000000000002E-003   -2.892006816094189E-019
  7.400000000000001E-003   -2.664031588465167E-019
  7.500000000000001E-003   -2.213621753337758E-019
  7.600000000000002E-003   -1.538074046518268E-019
  7.700000000000001E-003   -6.502166636151690E-020
  7.800000000000001E-003    4.201685417298417E-020
  7.900000000000001E-003    1.625926507295163E-019
  8.000000000000002E-003    2.903288898835771E-019
  8.100000000000001E-003    4.173929471710193E-019
  8.200000000000001E-003    5.348354505967408E-019
  8.300000000000002E-003    6.330576397221281E-019
  8.400000000000001E-003    7.023921625676985E-019
  8.500000000000002E-003    7.337715962962006E-019
  8.600000000000002E-003    7.194503150367325E-019
  8.700000000000001E-003    6.537349989874256E-019
  8.800000000000002E-003    5.336740708074824E-019
  8.900000000000002E-003    3.596518444939702E-019
  9.000000000000001E-003    1.358316760508730E-019
  9.100000000000002E-003   -1.296030608558831E-019
  9.200000000000002E-003   -4.244546992627989E-019
  9.300000000000001E-003   -7.327967508735120E-019
  9.400000000000002E-003   -1.035556888216783E-018
  9.500000000000001E-003   -1.311396582613751E-018
  9.600000000000001E-003   -1.537865885738890E-018
  9.700000000000002E-003   -1.692789652258221E-018
  9.800000000000001E-003   -1.755820178619574E-018
  9.900000000000001E-003   -1.710070190347773E-018
  1.000000000000000E-002   -1.543725322953345E-018
  1.010000000000000E-002   -1.251521443356622E-018
  1.020000000000000E-002   -8.359694464714668E-019
  1.030000000000000E-002   -3.082097118823713E-019
  1.040000000000000E-002    3.116080947411892E-019
  1.050000000000000E-002    9.945064552795087E-019
  1.060000000000000E-002    1.703482195467225E-018
  1.070000000000000E-002    2.394951668133667E-018
  1.080000000000000E-002    3.020823766735017E-018
  1.090000000000000E-002    3.531136485920006E-018
  1.100000000000000E-002    3.877152548568157E-018
  1.110000000000000E-002    4.014757936472431E-018
  1.120000000000000E-002    3.907978011204210E-018
  1.130000000000000E-002    3.532385462147444E-018
  1.140000000000000E-002    2.878161504003743E-018
  1.150000000000000E-002    1.952561896090087E-018
  1.160000000000000E-002    7.815536216403885E-019
  1.170000000000000E-002   -5.895866553742494E-019
  1.180000000000000E-002   -2.096877495290731E-018
  1.190000000000000E-002   -3.659542839895884E-018
  1.200000000000000E-002   -5.183256982596178E-018
  1.210000000000000E-002   -6.564666312518265E-018
  1.220000000000000E-002   -7.697040120666932E-018
  1.230000000000000E-002   -8.476814569230677E-018
  1.240000000000000E-002   -8.810697231105066E-018
  1.250000000000000E-002   -8.622940667500158E-018
  1.260000000000000E-002   -7.862320420059713E-018
  1.270000000000000E-002   -6.508336289980877E-018
  1.280000000000000E-002   -4.576138469975843E-018
  1.290000000000000E-002   -2.119717044612828E-018
  1.300000000000000E-002    7.670502228924995E-019
  1.310000000000000E-002    3.951801447368703E-018
  1.320000000000000E-002    7.267727386122597E-018
  1.330000000000000E-002    1.052027767599730E-017
  1.340000000000000E-002    1.349640099086728E-017
  1.350000000000000E-002    1.597600400252366E-017
  1.360000000000000E-002    1.774514643388689E-017
  1.370000000000000E-002    1.861030666032654E-017
  1.380000000000000E-002    1.841293191941611E-017
  1.390000000000000E-002    1.704338113164293E-017
  1.400000000000000E-002    1.445329661267432E-017
  1.410000000000000E-002    1.066546070580607E-017
  1.420000000000000E-002    5.780230086070437E-018
  1.430000000000000E-002   -2.220476513930336E-020
  1.440000000000000E-002   -6.484342351016798E-018
  1.450000000000000E-002   -1.327901190845752E-017
  1.460000000000000E-002   -2.002220095922451E-017
  1.470000000000000E-002   -2.629080829427951E-017
  1.480000000000000E-002   -3.164473098494544E-017
  1.490000000000000E-002   -3.565236055034106E-017
  1.500000000000000E-002   -3.791824609259586E-017
  1.510000000000000E-002   -3.811144833904030E-017
  1.520000000000000E-002   -3.599289724224877E-017
  1.530000000000000E-002   -3.143991782648591E-017
  1.540000000000000E-002   -2.446617093768638E-017
  1.550000000000000E-002   -1.523528184255370E-017
  1.560000000000000E-002   -4.066654798438195E-018
  1.570000000000000E-002    8.567646428553669E-018
  1.580000000000000E-002    2.205571736730971E-017
  1.590000000000000E-002    3.566850109709888E-017
  1.600000000000000E-002    4.859199142981675E-017
  1.610000000000000E-002    5.996794321202523E-017
  1.620000000000000E-002    6.894148117485770E-017
  1.630000000000000E-002    7.471342437373445E-017
  1.640000000000000E-002    7.659460757219163E-017
  1.650000000000000E-002    7.405912719947231E-017
  1.660000000000000E-002    6.679315830217224E-017
  1.670000000000000E-002    5.473597267412526E-017
  1.680000000000000E-002    3.810984427079747E-017
  1.690000000000000E-002    1.743592054900143E-017
  1.700000000000000E-002   -6.466309058927527E-018
  1.710000000000000E-002   -3.249761246481544E-017
  1.720000000000000E-002   -5.931639639143979E-017
  1.730000000000000E-002   -8.539452356396307E-017
  1.740000000000000E-002   -1.090900937667318E-016
  1.750000000000000E-002   -1.287345473342376E-016
  1.760000000000000E-002   -1.427302765513172E-016
  1.770000000000000E-002   -1.496540024726776E-016
  1.780000000000000E-002   -1.483602022043265E-016
  1.790000000000000E-002   -1.380784411119974E-016
  1.800000000000000E-002   -1.184980858039323E-016
  1.810000000000000E-002   -8.983401474610350E-017
  1.820000000000000E-002   -5.286739862618112E-017
  1.830000000000000E-002   -8.956614006294454E-018
  1.840000000000000E-002    3.998549624763602E-017
  1.850000000000000E-002    9.155004520027399E-017
  1.860000000000000E-002    1.429262755584530E-016
  1.870000000000000E-002    1.910294969982682E-016