 -4.000000000000000E-002    0.000000000000000E+000
 -3.990000000000000E-002    0.000000000000000E+000
 -3.980000000000000E-002   -4.317253945471216E-011
 -3.970000000000000E-002   -2.084796381273325E-010
 -3.960000000000000E-002   -5.975867471161589E-010
 -3.950000000000000E-002   -1.319872358642380E-009
 -3.940000000000000E-002   -2.478711944510358E-009
 -3.930000000000000E-002   -4.161254009958618E-009
 -3.920000000000000E-002   -6.432788627092874E-009
 -3.910000000000000E-002   -9.335735671321145E-009
 -3.900000000000000E-002   -1.289237241143228E-008
 -3.890000000000000E-002   -1.710986792921251E-008
 -3.880000000000000E-002   -2.198585605636888E-008
 -3.870000000000000E-002   -2.751299487816697E-008
 -3.860000000000000E-002   -3.368116599009222E-008
 -3.850000000000000E-002   -4.047688320168509E-008
 -3.840000000000000E-002   -4.787975036141044E-008
 -3.830000000000000E-002   -5.585709144454945E-008
 -3.820000000000000E-002   -6.435774192971564E-008
 -3.810000000000000E-002   -7.330721194755361E-008
 -3.800000000000000E-002   -8.260566490296852E-008
 -3.790000000000000E-002   -9.213070250868905E-008
 -3.780000000000000E-002   -1.017459420858626E-007
 -3.770000000000000E-002   -1.113160506948008E-007
 -3.760000000000000E-002   -1.207278363065710E-007
 -3.750000000000000E-002   -1.299162322892011E-007
 -3.740000000000000E-002   -1.388931905047360E-007
 -3.730000000000000E-002   -1.477767965173089E-007
 -3.720000000000000E-002   -1.568176276135130E-007
 -3.710000000000000E-002   -1.664191203673447E-007
 -3.700000000000000E-002   -1.771490180695821E-007
 -3.690000000000000E-002   -1.897395850255051E-007
 -3.680000000000000E-002   -2.050748913117134E-007
 -3.670000000000000E-002   -2.241647463600328E-007
 -3.660000000000000E-002   -2.481056835025195E-007
 -3.650000000000000E-002   -2.780308721101321E-007
 -3.640000000000000E-002   -3.150514718358921E-007
 -3.630000000000000E-002   -3.601934669964024E-007
 -3.620000000000000E-002   -4.143337946129240E-007
 -3.610000000000000E-002   -4.781406009330065E-007
 -3.600000000000000E-002   -5.520218076228189E-007
 -3.590000000000000E-002   -6.360861053496259E-007
 -3.580000000000000E-002   -7.301194927343054E-007
 -3.570000000000000E-002   -8.335795681678003E-007
 -3.560000000000000E-002   -9.456082573393787E-007
 -3.550000000000000E-002   -1.065062881936971E-006
 -3.540000000000000E-002   -1.190563033674810E-006
 -3.530000000000000E-002   -1.320551368250800E-006
 -3.520000000000000E-002   -1.453362662597904E-006
 -3.510000000000000E-002   -1.587298004180878E-006
 -3.500000000000000E-002   -1.720698112845348E-006
 -3.490000000000000E-002   -1.852010653147999E-006
 -3.480000000000000E-002   -1.979848009709966E-006
 -3.470000000000000E-002   -2.103030566036560E-006
 -3.460000000000000E-002   -2.220615298830640E-006
 -3.450000000000000E-002   -2.331905252838501E-006
 -3.440000000000000E-002   -2.436444342936686E-006
 -3.430000000000000E-002   -2.533995897214648E-006
 -3.420000000000000E-002   -2.624509965237586E-006
 -3.410000000000000E-002   -2.708083694184653E-006
 -3.400000000000000E-002   -2.784916174152783E-006
 -3.390000000000000E-002   -2.855266936330792E-006
 -3.380000000000000E-002   -2.919417736156290E-006
 -3.370000000000000E-002   -2.977644488650818E-006
 -3.360000000000000E-002   -3.030198301065523E-006
 -3.350000000000000E-002   -3.077295646871306E-006
 -3.340000000000000E-002   -3.119123137303537E-006
 -3.330000000000000E-002   -3.155845880858472E-006
 -3.320000000000000E-002   -3.187622273538026E-006
 -3.310000000000000E-002   -3.214620534096071E-006
 -3.300000000000000E-002   -3.237029111002640E-006
 -3.290000000000000E-002   -3.255063618522316E-006
 -3.280000000000000E-002   -3.268961086234320E-006
 -3.270000000000000E-002   -3.278968847102019E-006
 -3.260000000000000E-002   -3.285317443761004E-006
 -3.250000000000000E-002   -3.288189414800807E-006
 -3.240000000000000E-002   -3.287676526627136E-006
 -3.230000000000000E-002   -3.283751986579454E-006
 -3.220000000000000E-002   -3.276225694363888E-006
 -3.210000000000000E-002   -3.264726106227374E-006
 -3.200000000000000E-002   -3.248689735038606E-006
 -3.190000000000000E-002   -3.227369335016885E-006
 -3.180000000000000E-002   -3.199860471082383E-006
 -3.170000000000000E-002   -3.165147241938764E-006
 -3.160000000000000E-002   -3.122157585033288E-006
 -3.150000000000000E-002   -3.069837857929436E-006
 -3.140000000000000E-002   -3.007227526432971E-006
 -3.130000000000000E-002   -2.933528909314164E-006
 -3.120000000000000E-002   -2.848163073924993E-006
 -3.110000000000000E-002   -2.750816084481211E-006
 -3.100000000000000E-002   -2.641453427032242E-006
 -3.090000000000000E-002   -2.520314148132461E-006
 -3.080000000000000E-002   -2.387865973816017E-006
 -3.070000000000000E-002   -2.244756046594637E-006
 -3.060000000000000E-002   -2.091703731927526E-006
 -3.050000000000000E-002   -1.929403132040987E-006
 -3.040000000000000E-002   -1.758424936320043E-006
 -3.030000000000000E-002   -1.579087914297874E-006
 -3.020000000000000E-002   -1.391355849218330E-006
 -3.010000000000000E-002   -1.194750528228390E-006
 -3.000000000000000E-002   -9.882932178713163E-007
 -2.990000000000000E-002   -7.704456823340704E-007
 -2.980000000000000E-002   -5.391093656664706E-007
 -2.970000000000000E-002   -2.916274247828942E-007
 -2.960000000000000E-002   -2.481889009540543E-008
 -2.950000000000000E-002    2.649798200164376E-007
 -2.940000000000000E-002    5.818540010235812E-007
 -2.930000000000000E-002    9.302507110450552E-007
 -2.920000000000000E-002    1.314921882953637E-006
 -2.910000000000000E-002    1.740866246443612E-006
 -2.900000000000000E-002    2.213299708372004E-006
 -2.890000000000000E-002    2.737626767949259E-006
 -2.880000000000000E-002    3.319399004618435E-006
 -2.870000000000000E-002    3.964317274575520E-006
 -2.860000000000000E-002    4.678244012663657E-006
 -2.850000000000000E-002    5.467175784217559E-006
 -2.840000000000000E-002    6.337255455526311E-006
 -2.830000000000000E-002    7.294773911242747E-006
 -2.820000000000000E-002    8.346132737731750E-006
 -2.810000000000000E-002    9.497866107199544E-006
 -2.800000000000000E-002    1.075660397246769E-005
 -2.790000000000000E-002    1.212910387570533E-005
 -2.780000000000000E-002    1.362215324280848E-005
 -2.770000000000000E-002    1.524265548572982E-005
 -2.760000000000000E-002    1.699766853579364E-005
 -2.750000000000000E-002    1.889436816975448E-005
 -2.740000000000000E-002    2.094012253726131E-005
 -2.730000000000000E-002    2.314257842343592E-005
 -2.720000000000000E-002    2.550975516482339E-005
 -2.710000000000000E-002    2.805018462357590E-005
 -2.700000000000000E-002    3.077298343483713E-005
 -2.690000000000000E-002    3.368794632468015E-005
 -2.680000000000000E-002    3.680576008737516E-005
 -2.670000000000000E-002    4.013795939011286E-005
 -2.660000000000000E-002    4.369715333267373E-005
 -2.650000000000000E-002    4.749700948124554E-005
 -2.640000000000000E-002    5.155233232038997E-005
 -2.630000000000000E-002    5.587901109846275E-005
 -2.620000000000000E-002    6.049413659956375E-005
 -2.610000000000000E-002    6.541594550343472E-005
 -2.600000000000000E-002    7.066362521545438E-005
 -2.590000000000000E-002    7.625755081204228E-005
 -2.580000000000000E-002    8.221899048752745E-005
 -2.570000000000000E-002    8.857031226115682E-005
 -2.560000000000000E-002    9.533476034437530E-005
 -2.550000000000000E-002    1.025365765485414E-004
 -2.540000000000000E-002    1.102009138401918E-004
 -2.530000000000000E-002    1.183539091742909E-004
 -2.520000000000000E-002    1.270228794175469E-004
 -2.510000000000000E-002    1.362361611106295E-004
 -2.500000000000000E-002    1.460232416377974E-004
 -2.490000000000000E-002    1.564149521850050E-004
 -2.480000000000000E-002    1.674434142067190E-004
 -2.470000000000000E-002    1.791421924990059E-004
 -2.460000000000000E-002    1.915463048625584E-004
 -2.450000000000000E-002    2.046924925502107E-004
 -2.440000000000000E-002    2.186189898799756E-004
 -2.430000000000000E-002    2.333658365354776E-004
 -2.420000000000000E-002    2.489748514693537E-004
 -2.410000000000000E-002    2.654893318266612E-004
 -2.400000000000000E-002    2.829547885383310E-004
 -2.390000000000000E-002    3.014183247489019E-004
 -2.380000000000000E-002    3.209289791989405E-004
 -2.370000000000000E-002    3.415377193868439E-004
 -2.360000000000000E-002    3.632974997572803E-004
 -2.350000000000000E-002    3.862632933893593E-004
 -2.340000000000000E-002    4.104924115960240E-004
 -2.330000000000000E-002    4.360440178209073E-004
 -2.320000000000000E-002    4.629798767784055E-004
 -2.310000000000000E-002    4.913638498706768E-004
 -2.300000000000000E-002    5.212625646659946E-004
 -2.290000000000000E-002    5.527453059640300E-004
 -2.280000000000000E-002    5.858843761865045E-004
 -2.270000000000000E-002    6.207546005167350E-004
 -2.260000000000000E-002    6.574341593790587E-004
 -2.250000000000000E-002    6.960040768266917E-004
 -2.240000000000000E-002    7.365492278798528E-004
 -2.230000000000000E-002    7.791572572455815E-004
 -2.220000000000000E-002    8.239192026864770E-004
 -2.210000000000000E-002    8.709298712576124E-004
 -2.200000000000000E-002    9.202877017505894E-004
 -2.190000000000000E-002    9.720935819727248E-004
 -2.180000000000000E-002    1.026452684473772E-003
 -2.170000000000000E-002    1.083473473472985E-003
 -2.160000000000000E-002    1.143267883092535E-003
 -2.150000000000000E-002    1.205951056003184E-003
 -2.140000000000000E-002    1.271641950375116E-003
 -2.130000000000000E-002    1.340462774818666E-003
 -2.120000000000000E-002    1.412538896093292E-003
 -2.110000000000000E-002    1.488000623328999E-003
 -2.100000000000000E-002    1.566981099188491E-003
 -2.090000000000000E-002    1.649617649112813E-003
 -2.080000000000000E-002    1.736052356986534E-003
 -2.070000000000000E-002    1.826430820866975E-003
 -2.060000000000000E-002    1.920903201181773E-003
 -2.050000000000000E-002    2.019624790420240E-003
 -2.040000000000000E-002    2.122754821833714E-003
 -2.030000000000000E-002    2.230457710002012E-003
 -2.020000000000000E-002    2.342902863010403E-003
 -2.010000000000000E-002    2.460264019163845E-003
 -2.000000000000000E-002    2.582718715720488E-003
 -1.990000000000000E-002    2.710451144626063E-003
 -1.980000000000000E-002    2.843649531439762E-003
 -1.970000000000000E-002    2.982506237169797E-003
 -1.960000000000000E-002    3.127219166213890E-003
 -1.950000000000000E-002    3.277989851732743E-003
 -1.940000000000000E-002    3.435026285737561E-003
 -1.930000000000000E-002    3.598539618582748E-003
 -1.920000000000000E-002    3.768745085921471E-003
 -1.910000000000000E-002    3.945865228307844E-003
 -1.900000000000000E-002    4.130125089146086E-003
 -1.890000000000000E-002    4.321755989718835E-003
 -1.880000000000000E-002    4.520995121024744E-003
 -1.870000000000000E-002    4.728081927927513E-003
 -1.860000000000000E-002    4.943264433637352E-003
 -1.850000000000000E-002    5.166794150915440E-003
 -1.840000000000000E-002    5.398927245360289E-003
 -1.830000000000000E-002    5.639925404897859E-003
 -1.820000000000000E-002    5.890054325422387E-003
 -1.810000000000000E-002    6.149587848657619E-003
 -1.800000000000000E-002    6.418801011539133E-003
 -1.790000000000000E-002    6.697973902258457E-003
 -1.780000000000000E-002    6.987394238215904E-003
 -1.770000000000000E-002    7.287348026850392E-003
 -1.760000000000000E-002    7.598131344076204E-003
 -1.750000000000000E-002    7.920040866179801E-003
 -1.740000000000000E-002    8.253376248676466E-003
 -1.730000000000000E-002    8.598442250655883E-003
 -1.720000000000000E-002    8.955550106189931E-003
 -1.710000000000000E-002    9.325011840404756E-003
 -1.700000000000000E-002    9.707141433394819E-003
 -1.690000000000000E-002    1.010225821620833E-002
 -1.680000000000000E-002    1.051068472190773E-002
 -1.670000000000000E-002    1.093274812518269E-002
 -1.660000000000000E-002    1.136877620484075E-002
 -1.650000000000000E-002    1.181909967956252E-002
 -1.640000000000000E-002    1.228405221688745E-002
 -1.630000000000000E-002    1.276396643508390E-002
 -1.620000000000000E-002    1.325918204910446E-002
 -1.610000000000000E-002    1.377003766673789E-002
 -1.600000000000000E-002    1.429687019273717E-002
 -1.590000000000000E-002    1.484002074652804E-002
 -1.580000000000000E-002    1.539982928404783E-002
 -1.570000000000000E-002    1.597663646136731E-002
 -1.560000000000000E-002    1.657078083049976E-002
 -1.550000000000000E-002    1.718259490768450E-002
 -1.540000000000000E-002    1.781242164891084E-002
 -1.530000000000000E-002    1.846059394326797E-002
 -1.520000000000000E-002    1.912744407922068E-002
 -1.510000000000000E-002    1.981330294553787E-002
 -1.500000000000000E-002    2.051849620701966E-002
 -1.490000000000000E-002    2.124335042420815E-002
 -1.480000000000000E-002    2.198818963552556E-002
 -1.470000000000000E-002    2.275332791423555E-002
 -1.460000000000000E-002    2.353908000105216E-002
 -1.450000000000000E-002    2.434575590542175E-002
 -1.440000000000000E-002    2.517365779792092E-002
 -1.430000000000000E-002    2.602307944526271E-002
 -1.420000000000000E-002    2.689431659008018E-002
 -1.410000000000000E-002    2.778765096153930E-002
 -1.400000000000000E-002    2.870336067585760E-002
 -1.390000000000000E-002    2.964170747451091E-002
 -1.380000000000000E-002    3.060295276157979E-002
 -1.370000000000000E-002    3.158733892460587E-002
 -1.360000000000000E-002    3.259509836037978E-002
 -1.350000000000000E-002    3.362646265136255E-002
 -1.340000000000000E-002    3.468164021506687E-002
 -1.330000000000000E-002    3.576083158918431E-002
 -1.320000000000000E-002    3.686422236326587E-002
 -1.310000000000000E-002    3.799198445583822E-002
 -1.300000000000000E-002    3.914428070965568E-002
 -1.290000000000000E-002    4.032124906928771E-002
 -1.280000000000000E-002    4.152302305581572E-002
 -1.270000000000000E-002    4.274971574887399E-002
 -1.260000000000000E-002    4.400141919651129E-002
 -1.250000000000000E-002    4.527820914140158E-002
 -1.240000000000000E-002    4.658013937649760E-002
 -1.230000000000000E-002    4.790725092403676E-002
 -1.220000000000000E-002    4.925955975886735E-002
 -1.210000000000000E-002    5.063705858371179E-002
 -1.200000000000000E-002    5.203972197536236E-002
 -1.190000000000000E-002    5.346749859181516E-002
 -1.180000000000000E-002    5.492031539646184E-002
 -1.170000000000000E-002    5.639808059692306E-002
 -1.160000000000000E-002    5.790066256102901E-002
 -1.150000000000000E-002    5.942792245243269E-002
 -1.140000000000000E-002    6.097968076256692E-002
 -1.130000000000000E-002    6.255573163081807E-002
 -1.120000000000000E-002    6.415584281291996E-002
 -1.110000000000000E-002    6.577975599032274E-002
 -1.100000000000000E-002    6.742720652750064E-002
 -1.090000000000000E-002    6.909785635781102E-002
 -1.080000000000000E-002    7.079136100329311E-002
 -1.070000000000000E-002    7.250736342518577E-002
 -1.060000000000000E-002    7.424545342225394E-002
 -1.050000000000000E-002    7.600517612417240E-002
 -1.040000000000000E-002    7.778607744793228E-002
 -1.030000000000000E-002    7.958765088269135E-002
 -1.020000000000000E-002    8.140934452510880E-002
 -1.010000000000000E-002    8.325058986014440E-002
 -1.000000000000000E-002    8.511077910191378E-002
 -9.899999999999999E-003    8.698927783639300E-002
 -9.800000000000000E-003    8.888538645868831E-002
 -9.699999999999999E-003    9.079840116595092E-002
 -9.599999999999999E-003    9.272756524815817E-002
 -9.500000000000000E-003    9.467207999529421E-002
 -9.399999999999999E-003    9.663112217721974E-002
 -9.299999999999999E-003    9.860382637252504E-002
 -9.200000000000000E-003    0.100589292125892     
 -9.099999999999999E-003    0.102586574271216     
 -8.999999999999999E-003    0.104594689812797     
 -8.900000000000000E-003    0.106612624160633     
 -8.799999999999999E-003    0.108639335379753     
 -8.699999999999999E-003    0.110673724771243     
 -8.600000000000000E-003    0.112714666113803     
 -8.499999999999999E-003    0.114760976704107     
 -8.399999999999999E-003    0.116811459998393     
 -8.300000000000000E-003    0.118864877436160     
 -8.199999999999999E-003    0.120919945683438     
 -8.100000000000000E-003    0.122975343035261     
 -8.000000000000000E-003    0.125029709519691     
 -7.899999999999999E-003    0.127081645004932     
 -7.800000000000000E-003    0.129129717203035     
 -7.699999999999999E-003    0.131172467581512     
 -7.599999999999999E-003    0.133208391499575     
 -7.499999999999999E-003    0.135235959584025     
 -7.399999999999999E-003    0.137253599778661     
 -7.299999999999999E-003    0.139259713386539     
 -7.199999999999999E-003    0.141252653562336     
 -7.100000000000000E-003    0.143230763722698     
 -6.999999999999999E-003    0.145192352771975     
 -6.899999999999999E-003    0.147135691675621     
 -6.800000000000000E-003    0.149059021932539     
 -6.699999999999999E-003    0.150960592855898     
 -6.599999999999999E-003    0.152838584997163     
 -6.499999999999999E-003    0.154691144014196     
 -6.399999999999999E-003    0.156516447839019     
 -6.299999999999999E-003    0.158312585132708     
 -6.199999999999999E-003    0.160077682588219     
 -6.100000000000000E-003    0.161809818690601     
 -5.999999999999999E-003    0.163507044664043     
 -5.899999999999999E-003    0.165167412794430     
 -5.800000000000000E-003    0.166788936759980     
 -5.699999999999999E-003    0.168369650068761     
 -5.599999999999999E-003    0.169907561984575     
 -5.499999999999999E-003    0.171400647269468     
 -5.399999999999999E-003    0.172846920400721     
 -5.299999999999999E-003    0.174244345184378     
 -5.199999999999999E-003    0.175590904481228     
 -5.099999999999999E-003    0.176884574287507     
 -4.999999999999999E-003    0.178123340234833     
 -4.899999999999999E-003    0.179305179028979     
 -4.799999999999999E-003    0.180428054784344     
 -4.699999999999999E-003    0.181489979066203     
 -4.599999999999999E-003    0.182488930833352     
 -4.499999999999999E-003    0.183422919340707     
 -4.399999999999999E-003    0.184289982027688     
 -4.299999999999999E-003    0.185088128025095     
 -4.199999999999999E-003    0.185815418515193     
 -4.099999999999999E-003    0.186469918144986     
 -3.999999999999999E-003    0.187049713464126     
 -3.899999999999999E-003    0.187552952283172     
 -3.799999999999999E-003    0.187977732850235     
 -3.699999999999999E-003    0.188322269226505     
 -3.599999999999999E-003    0.188584731475222     
 -3.499999999999999E-003    0.188763372747430     
 -3.399999999999999E-003    0.188856464714698     
 -3.299999999999999E-003    0.188862338296657     
 -3.199999999999999E-003    0.188779316410526     
 -3.099999999999999E-003    0.188605823694300     
 -2.999999999999999E-003    0.188340314993043     
 -2.899999999999999E-003    0.187981260997781     
 -2.799999999999999E-003    0.187527212054286     
 -2.699999999999999E-003    0.186976775558279     
 -2.599999999999999E-003    0.186328597447088     
 -2.499999999999999E-003    0.185581390002738     
 -2.399999999999999E-003    0.184733932187065     
 -2.299999999999999E-003    0.183785060173877     
 -2.199999999999999E-003    0.182733661084325     
 -2.099999999999999E-003    0.181578717136792     
 -1.999999999999999E-003    0.180319260329392     
 -1.899999999999999E-003    0.178954392091492     
 -1.799999999999999E-003    0.177483298888873     
 -1.699999999999999E-003    0.175905221188461     
 -1.599999999999999E-003    0.174219497918084     
 -1.499999999999999E-003    0.172425548311057     
 -1.399999999999999E-003    0.170522858982104     
 -1.299999999999999E-003    0.168510999304118     
 -1.199999999999999E-003    0.166389625468396     
 -1.099999999999999E-003    0.164158487227383     
 -9.999999999999989E-004    0.161817406454031     
 -8.999999999999990E-004    0.159366297686318     
 -7.999999999999990E-004    0.156805176343332     
 -6.999999999999989E-004    0.154134150710398     
 -5.999999999999990E-004    0.151353396656300     
 -4.999999999999989E-004    0.148463206813508     
 -3.999999999999989E-004    0.145463952965237     
 -2.999999999999989E-004    0.142356117418973     
 -1.999999999999989E-004    0.139140252747162     
 -9.999999999999892E-005    0.135817037685924     
  1.084202172485504E-018    0.132387223779436     
  1.000000000000011E-004    0.128851675066472     
  2.000000000000011E-004    0.125211346022045     
  3.000000000000011E-004    0.121467291925044     
  4.000000000000011E-004    0.117620653678516     
  5.000000000000011E-004    0.113672682922961     
  6.000000000000011E-004    0.109624723705835     
  7.000000000000011E-004    0.105478221473139     
  8.000000000000011E-004    0.101234726279308     
  9.000000000000012E-004    9.689586759780093E-002
  1.000000000000001E-003    9.246338181697830E-002
  1.100000000000001E-003    8.793908524986077E-002
  1.200000000000001E-003    8.332490420929925E-002
  1.300000000000001E-003    7.862285615845302E-002
  1.400000000000001E-003    7.383504360644261E-002
  1.500000000000001E-003    6.896366427166266E-002
  1.600000000000001E-003    6.401100782145504E-002
  1.700000000000001E-003    5.897943691296533E-002
  1.800000000000001E-003    5.387141699414177E-002
  1.900000000000001E-003    4.868949345679169E-002
  2.000000000000001E-003    4.343628294671974E-002
  2.100000000000001E-003    3.811450392904699E-002
  2.200000000000001E-003    3.272694700698329E-002
  2.300000000000001E-003    2.727646837824208E-002
  2.400000000000001E-003    2.176599201960730E-002
  2.500000000000001E-003    1.619854062217373E-002
  2.600000000000001E-003    1.057717872370417E-002
  2.700000000000001E-003    4.905067466845322E-003
  2.800000000000001E-003   -8.145970448816924E-004
  2.900000000000001E-003   -6.578541319593408E-003
  3.000000000000001E-003   -1.238344010853053E-002
  3.100000000000001E-003   -1.822590227578202E-002
  3.200000000000001E-003   -2.410250149561882E-002
  3.300000000000001E-003   -3.000974246431368E-002
  3.400000000000001E-003   -3.594410637702618E-002
  3.500000000000001E-003   -4.190201518086824E-002
  3.600000000000001E-003   -4.787983824582380E-002
  3.700000000000001E-003   -5.387395613624728E-002
  3.800000000000001E-003   -5.988067756544127E-002
  3.900000000000001E-003   -6.589627318582053E-002
  4.000000000000001E-003   -7.191702806795935E-002
  4.100000000000001E-003   -7.793917779508722E-002
  4.200000000000001E-003   -8.395894834597428E-002
  4.300000000000001E-003   -8.997253740862002E-002
  4.400000000000001E-003   -9.597615955749429E-002
  4.500000000000001E-003   -0.101965985277142     
  4.600000000000002E-003   -0.107938210601685     
  4.700000000000001E-003   -0.113889020766964     
  4.800000000000001E-003   -0.119814610279919     
  4.900000000000002E-003   -0.125711179372305     
  5.000000000000001E-003   -0.131574934238507     
  5.100000000000001E-003   -0.137402088184448     
  5.200000000000001E-003   -0.143188908465593     
  5.300000000000002E-003   -0.148931642156370     
  5.400000000000001E-003   -0.154626611246670     
  5.500000000000001E-003   -0.160270131341462     
  5.600000000000002E-003   -0.165858568535200     
  5.700000000000001E-003   -0.171388314156919     
  5.800000000000001E-003   -0.176855827461396     
  5.900000000000002E-003   -0.182257562879987     
  6.000000000000001E-003   -0.187590085747802     
  6.100000000000001E-003   -0.192849984608355     
  6.200000000000002E-003   -0.198033878900903     
  6.300000000000002E-003   -0.203138499085504     
  6.400000000000001E-003   -0.208160609979754     
  6.500000000000001E-003   -0.213097031347534     
  6.600000000000002E-003   -0.217944668319552     
  6.700000000000001E-003   -0.222700514002013     
  6.800000000000001E-003   -0.227361591276464     
  6.900000000000002E-003   -0.231925030836007     
  7.000000000000001E-003   -0.236388034316570     
  7.100000000000001E-003   -0.240747913337349     
  7.200000000000002E-003   -0.245002023894483     
  7.300000000000002E-003   -0.249147832256300     
  7.400000000000001E-003   -0.253182871589701     
  7.500000000000001E-003   -0.257104798442425     
  7.600000000000002E-003   -0.260911379265758     
  7.700000000000001E-003   -0.264600445316947     
  7.800000000000001E-003   -0.268169916826538     
  7.900000000000001E-003   -0.271617859099763     
  8.000000000000002E-003   -0.274942392902321     
  8.100000000000001E-003   -0.278141781543184     
  8.200000000000001E-003   -0.281214357481737     
  8.300000000000002E-003   -0.284158591739169     
  8.400000000000001E-003   -0.286973050078374     
  8.500000000000002E-003   -0.289656419190216     
  8.600000000000002E-003   -0.292207473602280     
  8.700000000000001E-003   -0.294625102243787     
  8.800000000000002E-003   -0.296908326966825     
  8.900000000000002E-003   -0.299056263753364     
  9.000000000000001E-003   -0.301068120647072     
  9.100000000000002E-003   -0.302943252566545     
  9.200000000000002E-003   -0.304681103409822     
  9.300000000000001E-003   -0.306281263652075     
  9.400000000000002E-003   -0.307743387888654     
  9.500000000000001E-003   -0.309067292917255     
  9.600000000000001E-003   -0.310252875060841     
  9.700000000000002E-003   -0.311300133845006     
  9.800000000000001E-003   -0.312209203628856     
  9.900000000000001E-003   -0.312980322214749     
  1.000000000000000E-002   -0.313613827318230     
  1.010000000000000E-002   -0.314110176497158     
  1.020000000000000E-002   -0.314469914656571     
  1.030000000000000E-002   -0.314693704504198     
  1.040000000000000E-002   -0.314782330417413     
  1.050000000000000E-002   -0.314736650784256     
  1.060000000000000E-002   -0.314557604990450     
  1.070000000000000E-002   -0.314246276877267     
  1.080000000000000E-002   -0.313803837364442     
  1.090000000000000E-002   -0.313231533586404     
  1.100000000000000E-002   -0.312530721885928     
  1.110000000000000E-002   -0.311702845762114     
  1.120000000000000E-002   -0.310749419030426     
  1.130000000000000E-002   -0.309672061460637     
  1.140000000000000E-002   -0.308472456607115     
  1.150000000000000E-002   -0.307152396706960     
  1.160000000000000E-002   -0.305713730784636     
  1.170000000000000E-002   -0.304158407699170     
  1.180000000000000E-002   -0.302488411829749     
  1.190000000000000E-002   -0.300705837366308     
  1.200000000000000E-002   -0.298812807550757     
  1.210000000000000E-002   -0.296811572093015     
  1.220000000000000E-002   -0.294704376943772     
  1.230000000000000E-002   -0.292493581394199     
  1.240000000000000E-002   -0.290181542517158     
  1.250000000000000E-002   -0.287770725386172     
  1.260000000000000E-002   -0.285263639214580     
  1.270000000000000E-002   -0.282662806520992     
  1.280000000000000E-002   -0.279970805444632     
  1.290000000000000E-002   -0.277190277930476     
  1.300000000000000E-002   -0.274323896692273     
  1.310000000000000E-002   -0.271374325500603     
  1.320000000000000E-002   -0.268344349661457     
  1.330000000000000E-002   -0.265236684323235     
  1.340000000000000E-002   -0.262054133450306     
  1.350000000000000E-002   -0.258799518270349     
  1.360000000000000E-002   -0.255475643951690     
  1.370000000000000E-002   -0.252085374981374     
  1.380000000000000E-002   -0.248631544005085     
  1.390000000000000E-002   -0.245117048677574     
  1.400000000000000E-002   -0.241544770738052     
  1.410000000000000E-002   -0.237917601144401     
  1.420000000000000E-002   -0.234238397427086     
  1.430000000000000E-002   -0.230510061280926     
  1.440000000000000E-002   -0.226735475298700     
  1.450000000000000E-002   -0.222917508923593     
  1.460000000000000E-002   -0.219059045298755     
  1.470000000000000E-002   -0.215162939341769     
  1.480000000000000E-002   -0.211232026359790     
  1.490000000000000E-002   -0.207269138189835     
  1.500000000000000E-002   -0.203277077196867     
  1.510000000000000E-002   -0.199258617806858     
  1.520000000000000E-002   -0.195216529668305     
  1.530000000000000E-002   -0.191153547799187     
  1.540000000000000E-002   -0.187072356021522     
  1.550000000000000E-002   -0.182975645971852     
  1.560000000000000E-002   -0.178866038161774     
  1.570000000000000E-002   -0.174746151077772     
  1.580000000000000E-002   -0.170618539095645     
  1.590000000000000E-002   -0.166485748244213     
  1.600000000000000E-002   -0.162350251189935     
  1.610000000000000E-002   -0.158214491244638     
  1.620000000000000E-002   -0.154080888881206     
  1.630000000000000E-002   -0.149951788001532     
  1.640000000000000E-002   -0.145829495070856     
  1.650000000000000E-002   -0.141716275145366     
  1.660000000000000E-002   -0.137614350922953     
  1.670000000000000E-002   -0.133525875430361     
  1.680000000000000E-002   -0.129452961036283     
  1.690000000000000E-002   -0.125397672747434     
  1.700000000000000E-002   -0.121362012974546     
  1.710000000000000E-002   -0.117347937960532     
  1.720000000000000E-002   -0.113357332086372     
  1.730000000000000E-002   -0.109392045426372     
  1.740000000000000E-002   -0.105453867304327     
  1.750000000000000E-002   -0.101544511337476     
  1.760000000000000E-002   -9.766564981611844E-002
  1.770000000000000E-002   -9.381889224847895E-002
  1.780000000000000E-002   -9.000579953693263E-002
  1.790000000000000E-002   -8.622786142563697E-002
  1.800000000000000E-002   -8.248650483326750E-002
  1.810000000000000E-002   -7.878311829853589E-002
  1.820000000000000E-002   -7.511901967690331E-002
  1.830000000000000E-002   -7.149546482576016E-002
  1.840000000000000E-002   -6.791365789331218E-002
  1.850000000000000E-002   -6.437474067692248E-002
  1.860000000000000E-002   -6.087980162417073E-002
  1.870000000000000E-002   -5.742986362094256E-002