 -4.000000000000000E-002    0.000000000000000E+000
 -3.990000000000000E-002    0.000000000000000E+000
 -3.980000000000000E-002    0.000000000000000E+000
 -3.970000000000000E-002    0.000000000000000E+000
 -3.960000000000000E-002    0.000000000000000E+000
 -3.950000000000000E-002    0.000000000000000E+000
 -3.940000000000000E-002    0.000000000000000E+000
 -3.930000000000000E-002    0.000000000000000E+000
 -3.920000000000000E-002    0.000000000000000E+000
 -3.910000000000000E-002    0.000000000000000E+000
 -3.900000000000000E-002    0.000000000000000E+000
 -3.890000000000000E-002    0.000000000000000E+000
 -3.880000000000000E-002    0.000000000000000E+000
 -3.870000000000000E-002    0.000000000000000E+000
 -3.860000000000000E-002    0.000000000000000E+000
 -3.850000000000000E-002    0.000000000000000E+000
 -3.840000000000000E-002    0.000000000000000E+000
 -3.830000000000000E-002    0.000000000000000E+000
 -3.820000000000000E-002    0.000000000000000E+000
 -3.810000000000000E-002    0.000000000000000E+000
 -3.800000000000000E-002    0.000000000000000E+000
 -3.790000000000000E-002    0.000000000000000E+000
 -3.780000000000000E-002    1.708295117466251E-046
 -3.770000000000000E-002    6.512448704653942E-046
 -3.760000000000000E-002    3.224151175805865E-045
 -3.750000000000000E-002    1.407978222749573E-044
 -3.740000000000000E-002    5.494688500185119E-044
 -3.730000000000000E-002    1.966227942470733E-043
 -3.720000000000000E-002    6.443211991771515E-043
 -3.710000000000000E-002    1.952417147969898E-042
 -3.700000000000000E-002    5.472478410689002E-042
 -3.690000000000000E-002    1.419986513260857E-041
 -3.680000000000000E-002    3.403421438937480E-041
 -3.670000000000000E-002    7.485053572165688E-041
 -3.660000000000000E-002    1.487269417783304E-040
 -3.650000000000000E-002    2.575040912651938E-040
 -3.640000000000000E-002    3.503055610674009E-040
 -3.630000000000000E-002    2.085796417633286E-040
 -3.620000000000000E-002   -8.253876882388048E-040
 -3.610000000000000E-002   -4.428036132843199E-039
 -3.600000000000000E-002   -1.442972432399962E-038
 -3.590000000000000E-002   -3.886487799668473E-038
 -3.580000000000000E-002   -9.337601777665829E-038
 -3.570000000000000E-002   -2.063443918650503E-037
 -3.560000000000000E-002   -4.256873425813295E-037
 -3.550000000000000E-002   -8.260929119787939E-037
 -3.540000000000000E-002   -1.513009970588462E-036
 -3.530000000000000E-002   -2.615288505810424E-036
 -3.520000000000000E-002   -4.251292601126181E-036
 -3.510000000000000E-002   -6.443276035380399E-036
 -3.500000000000000E-002   -8.942535522929121E-036
 -3.490000000000000E-002   -1.091609251119699E-035
 -3.480000000000000E-002   -1.044060583479334E-035
 -3.470000000000000E-002   -3.762006485328799E-036
 -3.460000000000000E-002    1.567256186778508E-035
 -3.450000000000000E-002    5.829684875697875E-035
 -3.440000000000000E-002    1.393139784846733E-034
 -3.430000000000000E-002    2.787772288588984E-034
 -3.420000000000000E-002    4.998192699534828E-034
 -3.410000000000000E-002    8.234557183194509E-034
 -3.400000000000000E-002    1.257843214830021E-033
 -3.390000000000000E-002    1.779488365062522E-033
 -3.380000000000000E-002    2.303984749398531E-033
 -3.370000000000000E-002    2.644847169304513E-033
 -3.360000000000000E-002    2.461491859974002E-033
 -3.350000000000000E-002    1.202025452514557E-033
 -3.340000000000000E-002   -1.946164430624215E-033
 -3.330000000000000E-002   -8.074720883045379E-033
 -3.320000000000000E-002   -1.850532856356747E-032
 -3.310000000000000E-002   -3.462320153262885E-032
 -3.300000000000000E-002   -5.753070880457960E-032
 -3.290000000000000E-002   -8.745359333172337E-032
 -3.280000000000000E-002   -1.228411752860288E-031
 -3.270000000000000E-002   -1.591339828632319E-031
 -3.260000000000000E-002   -1.872377912244981E-031
 -3.250000000000000E-002   -1.918508296422526E-031
 -3.240000000000000E-002   -1.499477645246301E-031
 -3.230000000000000E-002   -2.992645036150982E-032
 -3.220000000000000E-002    2.078414639790993E-031
 -3.210000000000000E-002    6.080794112489027E-031
 -3.200000000000000E-002    1.214135504780703E-030
 -3.190000000000000E-002    2.056761623237920E-030
 -3.180000000000000E-002    3.137109066922318E-030
 -3.170000000000000E-002    4.403432775017587E-030
 -3.160000000000000E-002    5.721986176606758E-030
 -3.150000000000000E-002    6.844138895234056E-030
 -3.140000000000000E-002    7.373912413381463E-030
 -3.130000000000000E-002    6.742859635168805E-030
 -3.120000000000000E-002    4.202336423839798E-030
 -3.110000000000000E-002   -1.153608112808668E-030
 -3.100000000000000E-002   -1.031882777180303E-029
 -3.090000000000000E-002   -2.424188962894753E-029
 -3.080000000000000E-002   -4.361273834092309E-029
 -3.070000000000000E-002   -6.855726549038994E-029
 -3.060000000000000E-002   -9.823699062739153E-029
 -3.050000000000000E-002   -1.303662311670016E-028
 -3.040000000000000E-002   -1.606811204388194E-028
 -3.030000000000000E-002   -1.824241781169882E-028
 -3.020000000000000E-002   -1.859438048737987E-028
 -3.010000000000000E-002   -1.585484928502267E-028
 -3.000000000000000E-002   -8.479595007783813E-029
 -2.990000000000000E-002    5.256817430044027E-029
 -2.980000000000000E-002    2.707884464171240E-028
 -2.970000000000000E-002    5.841704036762575E-028
 -2.960000000000000E-002    9.998718798881161E-028
 -2.950000000000000E-002    1.512355314627993E-027
 -2.940000000000000E-002    2.096630112125545E-027
 -2.930000000000000E-002    2.700693322712096E-027
 -2.920000000000000E-002    3.237951736012752E-027
 -2.910000000000000E-002    3.580869521237627E-027
 -2.900000000000000E-002    3.557605949527121E-027
 -2.890000000000000E-002    2.953930348741837E-027
 -2.880000000000000E-002    1.523133877190661E-027
 -2.870000000000000E-002   -9.931262994958990E-028
 -2.860000000000000E-002   -4.830272261854844E-027
 -2.850000000000000E-002   -1.015049337806620E-026
 -2.840000000000000E-002   -1.697610290209766E-026
 -2.830000000000000E-002   -2.510838701000447E-026
 -2.820000000000000E-002   -3.403715919884702E-026
 -2.810000000000000E-002   -4.285056164506357E-026
 -2.800000000000000E-002   -5.015970389066272E-026
 -2.790000000000000E-002   -5.405794783912073E-026
 -2.780000000000000E-002   -5.213933744217266E-026
 -2.770000000000000E-002   -4.160364190330374E-026
 -2.760000000000000E-002   -1.947545022188137E-026
 -2.750000000000000E-002    1.703970637372621E-026
 -2.740000000000000E-002    7.004965036552939E-026
 -2.730000000000000E-002    1.403251077254110E-025
 -2.720000000000000E-002    2.265341568322683E-025
 -2.710000000000000E-002    3.244228061449757E-025
 -2.700000000000000E-002    4.260394106606629E-025
 -2.690000000000000E-002    5.191379893811537E-025
 -2.680000000000000E-002    5.869288432765897E-025
 -2.670000000000000E-002    6.083665040405308E-025
 -2.660000000000000E-002    5.591672257241166E-025
 -2.650000000000000E-002    4.137226373980379E-025
 -2.640000000000000E-002    1.480148505527088E-025
 -2.630000000000000E-002   -2.564621645406825E-025
 -2.620000000000000E-002   -8.079122107641507E-025
 -2.610000000000000E-002   -1.498890100822206E-024
 -2.600000000000000E-002   -2.300909199418484E-024
 -2.590000000000000E-002   -3.159712248066435E-024
 -2.580000000000000E-002   -3.992085646912544E-024
 -2.570000000000000E-002   -4.685205761335791E-024
 -2.560000000000000E-002   -5.099518968892250E-024
 -2.550000000000000E-002   -5.076034651501796E-024
 -2.540000000000000E-002   -4.448634639769277E-024
 -2.530000000000000E-002   -3.061551777431247E-024
 -2.520000000000000E-002   -7.915690839916151E-025
 -2.510000000000000E-002    2.426250578793122E-024
 -2.500000000000000E-002    6.571286947671178E-024
 -2.490000000000000E-002    1.151130251682692E-023
 -2.480000000000000E-002    1.698101394336471E-023
 -2.470000000000000E-002    2.256911944374561E-023
 -2.460000000000000E-002    2.771765560047442E-023
 -2.450000000000000E-002    3.173716727912247E-023
 -2.440000000000000E-002    3.384027220883568E-023
 -2.430000000000000E-002    3.319481364783632E-023
 -2.420000000000000E-002    2.899595887935430E-023
 -2.410000000000000E-002    2.055445976466431E-023
 -2.400000000000000E-002    7.396044893898404E-024
 -2.390000000000000E-002   -1.063523134292809E-023
 -2.380000000000000E-002   -3.327858343202265E-023
 -2.370000000000000E-002   -5.977312275133022E-023
 -2.360000000000000E-002   -8.879992270721628E-023
 -2.350000000000000E-002   -1.184593683633893E-022
 -2.340000000000000E-002   -1.462922345059031E-022
 -2.330000000000000E-002   -1.693506353991404E-022
 -2.320000000000000E-002   -1.843222240791325E-022
 -2.310000000000000E-002   -1.877079779460443E-022
 -2.300000000000000E-002   -1.760507055769004E-022
 -2.290000000000000E-002   -1.462085879639082E-022
 -2.280000000000000E-002   -9.566550771394226E-023
 -2.270000000000000E-002   -2.286763418952529E-023
 -2.260000000000000E-002    7.242666982326686E-023
 -2.250000000000000E-002    1.887991266002478E-022
 -2.240000000000000E-002    3.228451895588020E-022
 -2.230000000000000E-002    4.688931152548385E-022
 -2.220000000000000E-002    6.187988552530644E-022
 -2.210000000000000E-002    7.618549607183969E-022
 -2.200000000000000E-002    8.848595070470943E-022
 -2.190000000000000E-002    9.723980614026812E-022
 -2.180000000000000E-002    1.007395072390814E-021
 -2.170000000000000E-002    9.719880758286641E-022
 -2.160000000000000E-002    8.487663335313885E-022
 -2.150000000000000E-002    6.223907363931720E-022
 -2.140000000000000E-002    2.815745939257515E-022
 -2.130000000000000E-002   -1.786484751656747E-022
 -2.120000000000000E-002   -7.545058948704174E-022
 -2.110000000000000E-002   -1.431125525204724E-021
 -2.100000000000000E-002   -2.180510551056869E-021
 -2.090000000000000E-002   -2.960187640465925E-021
 -2.080000000000000E-002   -3.712897131833016E-021
 -2.070000000000000E-002   -4.367694509383491E-021
 -2.060000000000000E-002   -4.842774972399105E-021
 -2.050000000000000E-002   -5.050226068963364E-021
 -2.040000000000000E-002   -4.902739727623724E-021
 -2.030000000000000E-002   -4.322089027443499E-021
 -2.020000000000000E-002   -3.248911190804667E-021
 -2.010000000000000E-002   -1.653056313408465E-021
 -2.000000000000000E-002    4.565004033841934E-022
 -1.990000000000000E-002    3.023384758358993E-021
 -1.980000000000000E-002    5.938493399451685E-021
 -1.970000000000000E-002    9.038868450015544E-021
 -1.960000000000000E-002    1.211183358646408E-020
 -1.950000000000000E-002    1.490504739399776E-020
 -1.940000000000000E-002    1.714257082394381E-020
 -1.930000000000000E-002    1.854633847199102E-020
 -1.920000000000000E-002    1.886164873339780E-020
 -1.910000000000000E-002    1.788452147051637E-020
 -1.900000000000000E-002    1.548813577893659E-020
 -1.890000000000000E-002    1.164513797244633E-020
 -1.880000000000000E-002    6.442539640818243E-021
 -1.870000000000000E-002    8.627514788485234E-023
 -1.860000000000000E-002   -7.106719738425656E-021
 -1.850000000000000E-002   -1.472980261613418E-020
 -1.840000000000000E-002   -2.232056052918093E-020
 -1.830000000000000E-002   -2.940483809429557E-020
 -1.820000000000000E-002   -3.554647269574953E-020
 -1.810000000000000E-002   -4.039673107703842E-020
 -1.800000000000000E-002   -4.373638075816410E-020
 -1.790000000000000E-002   -4.550298653957803E-020
 -1.780000000000000E-002   -4.579671821510638E-020
 -1.770000000000000E-002   -4.485968921068214E-020
 -1.760000000000000E-002   -4.302665501532823E-020
 -1.750000000000000E-002   -4.064866831613199E-020
 -1.740000000000000E-002   -3.799559588061969E-020
 -1.730000000000000E-002   -3.514793996688268E-020
 -1.720000000000000E-002   -3.189232173497574E-020
 -1.710000000000000E-002   -2.763803228555172E-020
 -1.700000000000000E-002   -2.137328485484054E-020
 -1.690000000000000E-002   -1.167890670673362E-020
 -1.680000000000000E-002    3.186294853106790E-021
 -1.670000000000000E-002    2.512022698475011E-020
 -1.660000000000000E-002    5.593248659218167E-020
 -1.650000000000000E-002    9.702995199333305E-020
 -1.640000000000000E-002    1.490541811577946E-019
 -1.630000000000000E-002    2.115028585161597E-019
 -1.620000000000000E-002    2.823763158716339E-019
 -1.610000000000000E-002    3.578964692694454E-019
 -1.600000000000000E-002    4.323473649541894E-019
 -1.590000000000000E-002    4.980836187472973E-019
 -1.580000000000000E-002    5.457446505822006E-019
 -1.570000000000000E-002    5.646982814853605E-019
 -1.560000000000000E-002    5.437196537333775E-019
 -1.550000000000000E-002    4.718890914455000E-019
 -1.540000000000000E-002    3.396695057316556E-019
 -1.530000000000000E-002    1.401023963048114E-019
 -1.520000000000000E-002   -1.299595479094868E-019
 -1.510000000000000E-002   -4.686779411327296E-019
 -1.500000000000000E-002   -8.682159410906951E-019
 -1.490000000000000E-002   -1.313990958698764E-018
 -1.480000000000000E-002   -1.784288386226323E-018
 -1.470000000000000E-002   -2.250318460060439E-018
 -1.460000000000000E-002   -2.676775812498396E-018
 -1.450000000000000E-002   -3.022940050905145E-018
 -1.440000000000000E-002   -3.244326503417256E-018
 -1.430000000000000E-002   -3.294872925758686E-018
 -1.420000000000000E-002   -3.129623603674809E-018
 -1.410000000000000E-002   -2.707848654755952E-018
 -1.400000000000000E-002   -1.996517778545705E-018
 -1.390000000000000E-002   -9.740280647008376E-019
 -1.380000000000000E-002    3.659411512787574E-019
 -1.370000000000000E-002    2.010597790844523E-018
 -1.360000000000000E-002    3.924423733648157E-018
 -1.350000000000000E-002    6.046013211455377E-018
 -1.340000000000000E-002    8.285656634630038E-018
 -1.330000000000000E-002    1.052402128117561E-017
 -1.320000000000000E-002    1.261233817837673E-017
 -1.310000000000000E-002    1.437455087517841E-017
 -1.300000000000000E-002    1.561189536390469E-017
 -1.290000000000000E-002    1.611035923932939E-017
 -1.280000000000000E-002    1.565137542616365E-017
 -1.270000000000000E-002    1.402595284496134E-017
 -1.260000000000000E-002    1.105219057925853E-017
 -1.250000000000000E-002    6.595812812287757E-018
 -1.240000000000000E-002    5.929254351485427E-019
 -1.230000000000000E-002   -6.926233325018221E-018
 -1.220000000000000E-002   -1.581429299659581E-017
 -1.210000000000000E-002   -2.578668276736775E-017
 -1.200000000000000E-002   -3.640706323971656E-017
 -1.190000000000000E-002   -4.708104045222679E-017
 -1.180000000000000E-002   -5.706099173160134E-017
 -1.170000000000000E-002   -6.546455756386463E-017
 -1.160000000000000E-002   -7.130877386299465E-017
 -1.150000000000000E-002   -7.356097280983736E-017
 -1.140000000000000E-002   -7.120629984615635E-017
 -1.130000000000000E-002   -6.333020371368818E-017
 -1.120000000000000E-002   -4.921259106492549E-017
 -1.110000000000000E-002   -2.842849433022549E-017
 -1.100000000000000E-002   -9.483892548315540E-019
 -1.090000000000000E-002    3.277009492238037E-017
 -1.080000000000000E-002    7.170850397112411E-017
 -1.070000000000000E-002    1.142416410083981E-016
 -1.060000000000000E-002    1.581289850513837E-016
 -1.050000000000000E-002    2.005516528725330E-016
 -1.040000000000000E-002    2.382011583816679E-016
 -1.030000000000000E-002    2.674232082378480E-016
 -1.020000000000000E-002    2.844159047209107E-016
 -1.010000000000000E-002    2.854774651547537E-016
 -1.000000000000000E-002    2.672938829929756E-016
 -9.899999999999999E-003    2.272521060364959E-016
 -9.800000000000000E-003    1.637601193593048E-016
 -9.699999999999999E-003    7.655175853573878E-017
 -9.599999999999999E-003   -3.304842943239996E-017
 -9.500000000000000E-003   -1.619259670714603E-016
 -9.399999999999999E-003   -3.050676627862646E-016
 -9.299999999999999E-003   -4.555655045339364E-016
 -9.200000000000000E-003   -6.047510338988067E-016
 -9.099999999999999E-003   -7.424718041888468E-016
 -8.999999999999999E-003   -8.575132108633923E-016
 -8.900000000000000E-003   -9.381605860464937E-016
 -8.799999999999999E-003   -9.728858242111571E-016
 -8.699999999999999E-003   -9.511334828541205E-016
 -8.600000000000000E-003   -8.641711029823366E-016
 -8.499999999999999E-003   -7.059594319567781E-016
 -8.399999999999999E-003   -4.739917073666214E-016
 -8.300000000000000E-003   -1.700444747677395E-016
 -8.199999999999999E-003    1.992185161594313E-016
 -8.100000000000000E-003    6.218499678142076E-016
 -8.000000000000000E-003    1.080485694718594E-015
 -7.899999999999999E-003    1.552523383100340E-015
 -7.800000000000000E-003    2.010653225744735E-015
 -7.699999999999999E-003    2.423763768022367E-015
 -7.599999999999999E-003    2.758231606113430E-015
 -7.499999999999999E-003    2.979579134779568E-015
 -7.399999999999999E-003    3.054464565089688E-015
 -7.299999999999999E-003    2.952938105794041E-015
 -7.199999999999999E-003    2.650876076643534E-015
 -7.100000000000000E-003    2.132473662745360E-015
 -6.999999999999999E-003    1.392653690178288E-015
 -6.899999999999999E-003    4.392284829692168E-016
 -6.800000000000000E-003   -7.053640280705160E-016
 -6.699999999999999E-003   -2.002936686513818E-015
 -6.599999999999999E-003   -3.399222698023931E-015
 -6.499999999999999E-003   -4.824502397113098E-015
 -6.399999999999999E-003   -6.195323260043725E-015
 -6.299999999999999E-003   -7.417395631946570E-015
 -6.199999999999999E-003   -8.389690391060646E-015
 -6.100000000000000E-003   -9.009689674775638E-015
 -5.999999999999999E-003   -9.179642485812876E-015
 -5.899999999999999E-003   -8.813601489632930E-015
 -5.800000000000000E-003   -7.844901911094712E-015
 -5.699999999999999E-003   -6.233670234177038E-015
 -5.599999999999999E-003   -3.973857319128872E-015
 -5.499999999999999E-003   -1.099258567928097E-015
 -5.399999999999999E-003    2.312074389274360E-015
 -5.299999999999999E-003    6.135574256048760E-015
 -5.199999999999999E-003    1.020057547478747E-014
 -5.099999999999999E-003    1.429380491093554E-014
 -4.999999999999999E-003    1.816621637619554E-014
 -4.899999999999999E-003    2.154323950898588E-014
 -4.799999999999999E-003    2.413829626603910E-014
 -4.699999999999999E-003    2.566918661079391E-014
 -4.599999999999999E-003    2.587670557890626E-014
 -4.499999999999999E-003    2.454457714417855E-014
 -4.399999999999999E-003    2.151961317241986E-014
 -4.299999999999999E-003    1.673078331664631E-014
 -4.199999999999999E-003    1.020581561839952E-014
 -4.099999999999999E-003    2.083892849352742E-015
 -3.999999999999999E-003   -7.376923449589140E-015
 -3.899999999999999E-003   -1.779873384269606E-014
 -3.799999999999999E-003   -2.869025482521030E-014
 -3.699999999999999E-003   -3.946126136265262E-014
 -3.599999999999999E-003   -4.944516684979732E-014
 -3.499999999999999E-003   -5.792939681514750E-014
 -3.399999999999999E-003   -6.419264503175402E-014
 -3.299999999999999E-003   -6.754762300559515E-014
 -3.199999999999999E-003   -6.738732469835587E-014
 -3.099999999999999E-003   -6.323245073577185E-014
 -2.999999999999999E-003   -5.477725119450612E-014
 -2.899999999999999E-003   -4.193078336589624E-014
 -2.799999999999999E-003   -2.485059080443835E-014
 -2.699999999999999E-003   -3.965822371640883E-015
 -2.599999999999999E-003    2.001283852045420E-014
 -2.499999999999999E-003    4.609867246253197E-014
 -2.399999999999999E-003    7.305138125935410E-014
 -2.299999999999999E-003    9.941724501740828E-014
 -2.199999999999999E-003    1.235868284580635E-013
 -2.099999999999999E-003    1.438689845152164E-013
 -1.999999999999999E-003    1.585788954851939E-013
 -1.899999999999999E-003    1.661367635644467E-013
 -1.799999999999999E-003    1.651728052170395E-013
 -1.699999999999999E-003    1.546332397960029E-013
 -1.599999999999999E-003    1.338813021623939E-013
 -1.499999999999999E-003    1.027869116227859E-013
 -1.399999999999999E-003    6.179837132621654E-014
 -1.299999999999999E-003    1.198970436816281E-014
 -1.199999999999999E-003   -4.492208351866515E-014
 -1.099999999999999E-003   -1.065947023524549E-013
 -9.999999999999989E-004   -1.701165945659333E-013
 -8.999999999999990E-004   -2.321029143421589E-013
 -7.999999999999990E-004   -2.888309756526733E-013
 -6.999999999999989E-004   -3.364123115282924E-013
 -5.999999999999990E-004   -3.709960161802259E-013
 -4.999999999999989E-004   -3.889954649621041E-013
 -3.999999999999989E-004   -3.873279625729930E-013
 -2.999999999999989E-004   -3.636552048867496E-013
 -1.999999999999989E-004   -3.166101343411938E-013
 -9.999999999999892E-005   -2.459952447906669E-013
  1.084202172485504E-018   -1.529371502925130E-013
  1.000000000000011E-004   -3.998262809210569E-014
  2.000000000000011E-004    8.887681630960993E-014
  3.000000000000011E-004    2.282619609197898E-013
  4.000000000000011E-004    3.715509854499221E-013
  5.000000000000011E-004    5.111149443129270E-013
  6.000000000000011E-004    6.386400487196665E-013
  7.000000000000011E-004    7.455278809301764E-013
  8.000000000000011E-004    8.233590364080209E-013
  9.000000000000012E-004    8.643994221798139E-013
  1.000000000000001E-003    8.621243209296102E-013
  1.100000000000001E-003    8.117307737696200E-013
  1.200000000000001E-003    7.106065092686273E-013
  1.300000000000001E-003    5.587232009749811E-013
  1.400000000000001E-003    3.589219155536236E-013
  1.500000000000001E-003    1.170625610427629E-013
  1.600000000000001E-003   -1.579856603134233E-013
  1.700000000000001E-003   -4.545289659021508E-013
  1.800000000000001E-003   -7.584160039063169E-013
  1.900000000000001E-003   -1.053584351429742E-012
  2.000000000000001E-003   -1.322772067842682E-012
  2.100000000000001E-003   -1.548370059775852E-012
  2.200000000000001E-003   -1.713379045395443E-012
  2.300000000000001E-003   -1.802426528930112E-012
  2.400000000000001E-003   -1.802790465159145E-012
  2.500000000000001E-003   -1.705372637205054E-012
  2.600000000000001E-003   -1.505561572028703E-012
  2.700000000000001E-003   -1.203925216221255E-012
  2.800000000000001E-003   -8.066801012269303E-013
  2.900000000000001E-003   -3.258897803587581E-013
  3.000000000000001E-003    2.206430781356520E-013
  3.100000000000001E-003    8.098114808057032E-013
  3.200000000000001E-003    1.413970641484921E-012
  3.300000000000001E-003    2.002023767551222E-012
  3.400000000000001E-003    2.540794985042572E-012
  3.500000000000001E-003    2.996640403288449E-012
  3.600000000000001E-003    3.337228447607971E-012
  3.700000000000001E-003    3.533409456480631E-012
  3.800000000000001E-003    3.561080424731033E-012
  3.900000000000001E-003    3.402943281652722E-012
  4.000000000000001E-003    3.050052807166799E-012
  4.100000000000001E-003    2.503054075400371E-012
  4.200000000000001E-003    1.773013561842715E-012
  4.300000000000001E-003    8.817638538818542E-013
  4.400000000000001E-003   -1.382966518521871E-013
  4.500000000000001E-003   -1.244989851867210E-012
  4.600000000000002E-003   -2.387737539713048E-012
  4.700000000000001E-003   -3.509513664358731E-012
  4.800000000000001E-003   -4.549314475940203E-012
  4.900000000000002E-003   -5.445061324539849E-012
  5.000000000000001E-003   -6.136817197436904E-012
  5.100000000000001E-003   -6.570170860581764E-012
  5.200000000000001E-003   -6.699623443606036E-012
  5.300000000000002E-003   -6.491791463425597E-012
  5.400000000000001E-003   -5.928239203802610E-012
  5.500000000000001E-003   -5.007750019042438E-012
  5.600000000000002E-003   -3.747871363981150E-012
  5.700000000000001E-003   -2.185577385894557E-012
  5.800000000000001E-003   -3.769411050808190E-013
  5.900000000000002E-003    1.604248026947640E-012
  6.000000000000001E-003    3.668943326428654E-012
  6.100000000000001E-003    5.716325672835160E-012
  6.200000000000002E-003    7.638213208822913E-012
  6.300000000000002E-003    9.324225678047050E-012
  6.400000000000001E-003    1.066749034089082E-011
  6.500000000000001E-003    1.157060765544107E-011
  6.600000000000002E-003    1.195158122501236E-011
  6.700000000000001E-003    1.174937894531752E-011
  6.800000000000001E-003    1.092879606450244E-011
  6.900000000000002E-003    9.484293402466744E-012
  7.000000000000001E-003    7.442534169763434E-012
  7.100000000000001E-003    4.863380270534556E-012
  7.200000000000002E-003    1.839185899218520E-012
  7.300000000000002E-003   -1.507697688338829E-012
  7.400000000000001E-003   -5.029190967353980E-012
  7.500000000000001E-003   -8.557423729491302E-012
  7.600000000000002E-003   -1.191213008027629E-011
  7.700000000000001E-003   -1.490920362837132E-011
  7.800000000000001E-003   -1.737002897729378E-011
  7.900000000000001E-003   -1.913114448467005E-011
  8.000000000000002E-003   -2.005374443284439E-011
  8.100000000000001E-003   -2.003250290080835E-011
  8.200000000000001E-003   -1.900322714744696E-011
  8.300000000000002E-003   -1.694885366980453E-011
  8.400000000000001E-003   -1.390338528571673E-011
  8.500000000000002E-003   -9.953445246178676E-012
  8.600000000000002E-003   -5.237216676221281E-012
  8.700000000000001E-003    5.932108767230642E-014
  8.800000000000002E-003    5.708821658096381E-012
  8.900000000000002E-003    1.145149442589878E-011
  9.000000000000001E-003    1.700621441047134E-011
  9.100000000000002E-003    2.208337739274114E-011
  9.200000000000002E-003    2.639895146064913E-011
  9.300000000000001E-003    2.968908573490750E-011
  9.400000000000002E-003    3.172459088540394E-011
  9.500000000000001E-003    3.232453028789009E-011
  9.600000000000001E-003    3.136822562022724E-011
  9.700000000000002E-003    2.880496448855638E-011
  9.800000000000001E-003    2.466079892343048E-011
  9.900000000000001E-003    1.904194280856892E-011
  1.000000000000000E-002    1.213436875272552E-011
  1.010000000000000E-002    4.199418752643514E-012
  1.020000000000000E-002   -4.434584922149204E-012
  1.030000000000000E-002   -1.338456681012863E-011
  1.040000000000000E-002   -2.222838981723395E-011
  1.050000000000000E-002   -3.052341950202864E-011
  1.060000000000000E-002   -3.782723844710437E-011
  1.070000000000000E-002   -4.371959091983684E-011
  1.080000000000000E-002   -4.782455546357325E-011
  1.090000000000000E-002   -4.983184393899975E-011
  1.100000000000000E-002   -4.951611565167452E-011
  1.110000000000000E-002   -4.675322725004687E-011
  1.120000000000000E-002   -4.153241729390626E-011
  1.130000000000000E-002   -3.396357005270677E-011
  1.140000000000000E-002   -2.427893590341588E-011
  1.150000000000000E-002   -1.282884816867641E-011
  1.160000000000000E-002   -7.133959690225440E-014
  1.170000000000000E-002    1.344416759514919E-011
  1.180000000000000E-002    2.709866238427202E-011
  1.190000000000000E-002    4.022999179793032E-011
  1.200000000000000E-002    5.216294383164309E-011
  1.210000000000000E-002    6.224164207111149E-011
  1.220000000000000E-002    6.986276349495350E-011
  1.230000000000000E-002    7.450800858004754E-011
  1.240000000000000E-002    7.577411888484827E-011
  1.250000000000000E-002    7.339893443567434E-011
  1.260000000000000E-002    6.728194556083031E-011
  1.270000000000000E-002    5.749809622652845E-011
  1.280000000000000E-002    4.430385743191421E-011
  1.290000000000000E-002    2.813491373810811E-011
  1.300000000000000E-002    9.595197388333930E-012
  1.310000000000000E-002   -1.056261997475351E-011
  1.320000000000000E-002   -3.146459147212252E-011
  1.330000000000000E-002   -5.215001483068861E-011
  1.340000000000000E-002   -7.161165049072118E-011
  1.350000000000000E-002   -8.884005810034683E-011
  1.360000000000000E-002   -1.028702036586938E-010
  1.370000000000000E-002   -1.128282935538057E-010
  1.380000000000000E-002   -1.179767613001593E-010
  1.390000000000000E-002   -1.177553451695803E-010
  1.400000000000000E-002   -1.118163030204335E-010
  1.410000000000000E-002   -1.000519820129945E-010
  1.420000000000000E-002   -8.261332220351624E-011
  1.430000000000000E-002   -5.991807126136050E-011
  1.440000000000000E-002   -3.264802205937715E-011
  1.450000000000000E-002   -1.734929093337122E-012
  1.460000000000000E-002    3.166480031310794E-011
  1.470000000000000E-002    6.620606301346480E-011
  1.480000000000000E-002    1.004006677396323E-010
  1.490000000000000E-002    1.326712241211582E-010
  1.500000000000000E-002    1.614115445312536E-010
  1.510000000000000E-002    1.850515222820880E-010
  1.520000000000000E-002    2.021242623818126E-010
  1.530000000000000E-002    2.113329284281906E-010
  1.540000000000000E-002    2.116148745378652E-010
  1.550000000000000E-002    2.022005168058492E-010
  1.560000000000000E-002    1.826645394494733E-010
  1.570000000000000E-002    1.529671193702189E-010
  1.580000000000000E-002    1.134832351622311E-010
  1.590000000000000E-002    6.501833931378407E-011
  1.600000000000000E-002    8.809079192079308E-012
  1.610000000000000E-002   -5.349168831791714E-011
  1.620000000000000E-002   -1.198461051322872E-010
  1.630000000000000E-002   -1.878785268738503E-010
  1.640000000000000E-002   -2.549379480524879E-010
  1.650000000000000E-002   -3.181745892847464E-010
  1.660000000000000E-002   -3.746289291116815E-010
  1.670000000000000E-002   -4.213308916458798E-010
  1.680000000000000E-002   -4.554066686543115E-010
  1.690000000000000E-002   -4.741903129474952E-010
  1.700000000000000E-002   -4.753367807599350E-010
  1.710000000000000E-002   -4.569329012094186E-010
  1.720000000000000E-002   -4.176032174577657E-010
  1.730000000000000E-002   -3.566065770965338E-010
  1.740000000000000E-002   -2.739204228754103E-010
  1.750000000000000E-002   -1.703091393461368E-010
  1.760000000000000E-002   -4.737359507019923E-011
  1.770000000000000E-002    9.242118562994350E-011
  1.780000000000000E-002    2.457427667428149E-010
  1.790000000000000E-002    4.084144601964907E-010
  1.800000000000000E-002    5.754666948726418E-010
  1.810000000000000E-002    7.412179171347937E-010
  1.820000000000000E-002    8.993855428268014E-010
  1.830000000000000E-002    1.043226826261079E-009
  1.840000000000000E-002    1.165709447023068E-009
  1.850000000000000E-002    1.259709352245653E-009
  1.860000000000000E-002    1.318234760571224E-009
  1.870000000000000E-002    1.334671629052996E-009