 -4.000000000000000E-002    0.000000000000000E+000
 -3.990000000000000E-002    0.000000000000000E+000
 -3.980000000000000E-002   -9.157455506677083E-013
 -3.970000000000000E-002   -4.467875129617544E-012
 -3.960000000000000E-002   -1.278263152110355E-011
 -3.950000000000000E-002   -2.783385151935318E-011
 -3.940000000000000E-002   -5.084056820057587E-011
 -3.930000000000000E-002   -8.170975013195314E-011
 -3.920000000000000E-002   -1.185888666781323E-010
 -3.910000000000000E-002   -1.575737191292334E-010
 -3.900000000000000E-002   -1.926031268259320E-010
 -3.890000000000000E-002   -2.155643285132052E-010
 -3.880000000000000E-002   -2.166231910154401E-010
 -3.870000000000000E-002   -1.847819779972994E-010
 -3.860000000000000E-002   -1.086501549802396E-010
 -3.850000000000000E-002    2.261073716422269E-011
 -3.840000000000000E-002    2.182342324495575E-010
 -3.830000000000000E-002    4.847811129539038E-010
 -3.820000000000000E-002    8.251721272787529E-010
 -3.810000000000000E-002    1.237951535168685E-009
 -3.800000000000000E-002    1.716898866659668E-009
 -3.790000000000000E-002    2.251098646319485E-009
 -3.780000000000000E-002    2.825520117226238E-009
 -3.770000000000000E-002    3.422119953829058E-009
 -3.760000000000000E-002    4.021405085238741E-009
 -3.750000000000000E-002    4.604329843016516E-009
 -3.740000000000000E-002    5.154333073500517E-009
 -3.730000000000000E-002    5.659282179634096E-009
 -3.720000000000000E-002    6.113054901107541E-009
 -3.710000000000000E-002    6.516499747408542E-009
 -3.700000000000000E-002    6.877544901590362E-009
 -3.690000000000000E-002    7.210290592069979E-009
 -3.680000000000000E-002    7.533009889827705E-009
 -3.670000000000000E-002    7.865090236927811E-009
 -3.660000000000000E-002    8.223074381084475E-009
 -3.650000000000000E-002    8.616076478984185E-009
 -3.640000000000000E-002    9.040961387298308E-009
 -3.630000000000000E-002    9.477742231059354E-009
 -3.620000000000000E-002    9.885731052063064E-009
 -3.610000000000000E-002    1.020094953430525E-008
 -3.600000000000000E-002    1.033529018074429E-008
 -3.590000000000000E-002    1.017781798054241E-008
 -3.580000000000000E-002    9.598465192339560E-009
 -3.570000000000000E-002    8.454211552565429E-009
 -3.560000000000000E-002    6.597629657872368E-009
 -3.550000000000000E-002    3.887478369875820E-009
 -3.540000000000000E-002    2.008061661008488E-010
 -3.530000000000000E-002   -4.554127867480562E-009
 -3.520000000000000E-002   -1.042497920437184E-008
 -3.510000000000000E-002   -1.740341464320733E-008
 -3.500000000000000E-002   -2.541514447468644E-008
 -3.490000000000000E-002   -3.431276273761031E-008
 -3.480000000000000E-002   -4.387221413247231E-008
 -3.470000000000000E-002   -5.379343299880444E-008
 -3.460000000000000E-002   -6.370551461302476E-008
 -3.450000000000000E-002   -7.317647507199122E-008
 -3.440000000000000E-002   -8.172739597789078E-008
 -3.430000000000000E-002   -8.885044069719175E-008
 -3.420000000000000E-002   -9.403000885280538E-008
 -3.410000000000000E-002   -9.676616332374734E-008
 -3.400000000000000E-002   -9.659922531873850E-008
 -3.390000000000000E-002   -9.313455918133285E-008
 -3.380000000000000E-002   -8.606649758860416E-008
 -3.370000000000000E-002   -7.520051616986549E-008
 -3.360000000000000E-002   -6.047294255075921E-008
 -3.350000000000000E-002   -4.196763534388812E-008
 -3.340000000000000E-002   -1.992925925826168E-008
 -3.330000000000000E-002    5.227002162496331E-009
 -3.320000000000000E-002    3.290938482649638E-008
 -3.310000000000000E-002    6.234711210416449E-008
 -3.300000000000000E-002    9.259162516423493E-008
 -3.290000000000000E-002    1.225214527483065E-007
 -3.280000000000000E-002    1.508508900794598E-007
 -3.270000000000000E-002    1.761426451509572E-007
 -3.260000000000000E-002    1.968247822847639E-007
 -3.250000000000000E-002    2.112122298799120E-007
 -3.240000000000000E-002    2.175330999477064E-007
 -3.230000000000000E-002    2.139599287547953E-007
 -3.220000000000000E-002    1.986457227213526E-007
 -3.210000000000000E-002    1.697642657253522E-007
 -3.200000000000000E-002    1.255538161072580E-007
 -3.190000000000000E-002    6.436281326557118E-008
 -3.180000000000000E-002   -1.530421294480726E-008
 -3.170000000000000E-002   -1.147425893237287E-007
 -3.160000000000000E-002   -2.350077738579190E-007
 -3.150000000000000E-002   -3.768826274029160E-007
 -3.140000000000000E-002   -5.408538190111375E-007
 -3.130000000000000E-002   -7.270997876404957E-007
 -3.120000000000000E-002   -9.354912464917798E-007
 -3.110000000000000E-002   -1.165605975803037E-006
 -3.100000000000000E-002   -1.416757672991066E-006
 -3.090000000000000E-002   -1.688037289591006E-006
 -3.080000000000000E-002   -1.978366887754165E-006
 -3.070000000000000E-002   -2.286561855827148E-006
 -3.060000000000000E-002   -2.611399942077053E-006
 -3.050000000000000E-002   -2.951692809858158E-006
 -3.040000000000000E-002   -3.306356343005801E-006
 -3.030000000000000E-002   -3.674477197157879E-006
 -3.020000000000000E-002   -4.055370944547292E-006
 -3.010000000000000E-002   -4.448631229551444E-006
 -3.000000000000000E-002   -4.854165844305173E-006
 -2.990000000000000E-002   -5.272219242736159E-006
 -2.980000000000000E-002   -5.703383239564349E-006
 -2.970000000000000E-002   -6.148592402034877E-006
 -2.960000000000000E-002   -6.609108741712350E-006
 -2.950000000000000E-002   -7.086496245798509E-006
 -2.940000000000000E-002   -7.582586100084487E-006
 -2.930000000000000E-002   -8.099438692605420E-006
 -2.920000000000000E-002   -8.639298195552640E-006
 -2.910000000000000E-002   -9.204548595828607E-006
 -2.900000000000000E-002   -9.797670329469173E-006
 -2.890000000000000E-002   -1.042119852336137E-005
 -2.880000000000000E-002   -1.107768751679951E-005
 -2.870000000000000E-002   -1.176967747319054E-005
 -2.860000000000000E-002   -1.249967013011862E-005
 -2.850000000000000E-002   -1.327011156569881E-005
 -2.840000000000000E-002   -1.408338213420699E-005
 -2.830000000000000E-002   -1.494179673197632E-005
 -2.820000000000000E-002   -1.584760884250440E-005
 -2.810000000000000E-002   -1.680302914732216E-005
 -2.800000000000000E-002   -1.781024658179339E-005
 -2.790000000000000E-002   -1.887145974914212E-005
 -2.780000000000000E-002   -1.998891410641047E-005
 -2.770000000000000E-002   -2.116494081641500E-005
 -2.760000000000000E-002   -2.240200274752551E-005
 -2.750000000000000E-002   -2.370274100998987E-005
 -2.740000000000000E-002   -2.507001323138403E-005
 -2.730000000000000E-002   -2.650694067224340E-005
 -2.720000000000000E-002   -2.801693830930314E-005
 -2.710000000000000E-002   -2.960374613796044E-005
 -2.700000000000000E-002   -3.127144964284864E-005
 -2.690000000000000E-002   -3.302448877353619E-005
 -2.680000000000000E-002   -3.486766834593779E-005
 -2.670000000000000E-002   -3.680614653856721E-005
 -2.660000000000000E-002   -3.884542855395847E-005
 -2.650000000000000E-002   -4.099135566705887E-005
 -2.640000000000000E-002   -4.325007488698177E-005
 -2.630000000000000E-002   -4.562803013862707E-005
 -2.620000000000000E-002   -4.813193934284086E-005
 -2.610000000000000E-002   -5.076878477447430E-005
 -2.600000000000000E-002   -5.354579575020769E-005
 -2.590000000000000E-002   -5.647044317108229E-005
 -2.580000000000000E-002   -5.955043989819374E-005
 -2.570000000000000E-002   -6.279374231160656E-005
 -2.560000000000000E-002   -6.620855954387070E-005
 -2.550000000000000E-002   -6.980337242163189E-005
 -2.540000000000000E-002   -7.358692957345274E-005
 -2.530000000000000E-002   -7.756827159943961E-005
 -2.520000000000000E-002   -8.175674847563090E-005
 -2.510000000000000E-002   -8.616203135045601E-005
 -2.500000000000000E-002   -9.079413087372283E-005
 -2.490000000000000E-002   -9.566340759653813E-005
 -2.480000000000000E-002   -1.007805824576003E-004
 -2.470000000000000E-002   -1.061567644040906E-004
 -2.460000000000000E-002   -1.118034522440563E-004
 -2.450000000000000E-002   -1.177325615882258E-004
 -2.440000000000000E-002   -1.239564313581153E-004
 -2.430000000000000E-002   -1.304878691259009E-004
 -2.420000000000000E-002   -1.373401610101743E-004
 -2.410000000000000E-002   -1.445270728126869E-004
 -2.400000000000000E-002   -1.520629322671021E-004
 -2.390000000000000E-002   -1.599626125267733E-004
 -2.380000000000000E-002   -1.682415797409587E-004
 -2.370000000000000E-002   -1.769159130061706E-004
 -2.360000000000000E-002   -1.860023497228727E-004
 -2.350000000000000E-002   -1.955182593727291E-004
 -2.340000000000000E-002   -2.054817057790674E-004
 -2.330000000000000E-002   -2.159114706631625E-004
 -2.320000000000000E-002   -2.268270235085392E-004
 -2.310000000000000E-002   -2.382485476057233E-004
 -2.300000000000000E-002   -2.501969636494238E-004
 -2.290000000000000E-002   -2.626939241605257E-004
 -2.280000000000000E-002   -2.757618073766050E-004
 -2.270000000000000E-002   -2.894237212979453E-004
 -2.260000000000000E-002   -3.037034905176478E-004
 -2.250000000000000E-002   -3.186256604188440E-004
 -2.240000000000000E-002   -3.342154636977402E-004
 -2.230000000000000E-002   -3.504988561838243E-004
 -2.220000000000000E-002   -3.675025072529848E-004
 -2.210000000000000E-002   -3.852537263593958E-004
 -2.200000000000000E-002   -4.037805302384902E-004
 -2.190000000000000E-002   -4.231116138932458E-004
 -2.180000000000000E-002   -4.432763428342611E-004
 -2.170000000000000E-002   -4.643047574854845E-004
 -2.160000000000000E-002   -4.862276360546518E-004
 -2.150000000000000E-002   -5.090764835497025E-004
 -2.140000000000000E-002   -5.328835752181944E-004
 -2.130000000000000E-002   -5.576820088954030E-004
 -2.120000000000000E-002   -5.835056827926192E-004
 -2.110000000000000E-002   -6.103894460517695E-004
 -2.100000000000000E-002   -6.383690424401615E-004
 -2.090000000000000E-002   -6.674812912902776E-004
 -2.080000000000000E-002   -6.977639706884761E-004
 -2.070000000000000E-002   -7.292559961921408E-004
 -2.060000000000000E-002   -7.619972959906486E-004
 -2.050000000000000E-002   -7.960288368081358E-004
 -2.040000000000000E-002   -8.313927437116831E-004
 -2.030000000000000E-002   -8.681320856750106E-004
 -2.020000000000000E-002   -9.062909219340902E-004
 -2.010000000000000E-002   -9.459142220240367E-004
 -2.000000000000000E-002   -9.870477871297423E-004
 -1.990000000000000E-002   -1.029738251022362E-003
 -1.980000000000000E-002   -1.074032833921466E-003
 -1.970000000000000E-002   -1.119979506106717E-003
 -1.960000000000000E-002   -1.167626632613364E-003
 -1.950000000000000E-002   -1.217023383297683E-003
 -1.940000000000000E-002   -1.268219109423086E-003
 -1.930000000000000E-002   -1.321263836710487E-003
 -1.920000000000000E-002   -1.376207808230059E-003
 -1.910000000000000E-002   -1.433102003223346E-003
 -1.900000000000000E-002   -1.491997602668967E-003
 -1.890000000000000E-002   -1.552946263434211E-003
 -1.880000000000000E-002   -1.616000139710673E-003
 -1.870000000000000E-002   -1.681211790084649E-003
 -1.860000000000000E-002   -1.748634033950727E-003
 -1.850000000000000E-002   -1.818320101081169E-003
 -1.840000000000000E-002   -1.890323588350506E-003
 -1.830000000000000E-002   -1.964698267515073E-003
 -1.820000000000000E-002   -2.041498189348210E-003
 -1.810000000000000E-002   -2.120777549534438E-003
 -1.800000000000000E-002   -2.202590565335062E-003
 -1.790000000000000E-002   -2.286991203433078E-003
 -1.780000000000000E-002   -2.374033616721678E-003
 -1.770000000000000E-002   -2.463771569255337E-003
 -1.760000000000000E-002   -2.556258487913598E-003
 -1.750000000000000E-002   -2.651547558692236E-003
 -1.740000000000000E-002   -2.749691665908765E-003
 -1.730000000000000E-002   -2.850742997444874E-003
 -1.720000000000000E-002   -2.954752844367351E-003
 -1.710000000000000E-002   -3.061772112365295E-003
 -1.700000000000000E-002   -3.171850698990547E-003
 -1.690000000000000E-002   -3.285037569064926E-003
 -1.680000000000000E-002   -3.401380372724253E-003
 -1.670000000000000E-002   -3.520925952503189E-003
 -1.660000000000000E-002   -3.643718975423978E-003
 -1.650000000000000E-002   -3.769802835477625E-003
 -1.640000000000000E-002   -3.899219123082586E-003
 -1.630000000000000E-002   -4.032007113537863E-003
 -1.620000000000000E-002   -4.168203925401638E-003
 -1.610000000000000E-002   -4.307844091693880E-003
 -1.600000000000000E-002   -4.450959180839717E-003
 -1.590000000000000E-002   -4.597578808615598E-003
 -1.580000000000000E-002   -4.747728309123710E-003
 -1.570000000000000E-002   -4.901430390300584E-003
 -1.560000000000000E-002   -5.058703488101758E-003
 -1.550000000000000E-002   -5.219563416603717E-003
 -1.540000000000000E-002   -5.384021364746200E-003
 -1.530000000000000E-002   -5.552084681893002E-003
 -1.520000000000000E-002   -5.723756369338719E-003
 -1.510000000000000E-002   -5.899034711195835E-003
 -1.500000000000000E-002   -6.077914189510881E-003
 -1.490000000000000E-002   -6.260383537637462E-003
 -1.480000000000000E-002   -6.446426817978287E-003
 -1.470000000000000E-002   -6.636022772699722E-003
 -1.460000000000000E-002   -6.829144878961838E-003
 -1.450000000000000E-002   -7.025760450282223E-003
 -1.440000000000000E-002   -7.225830647328235E-003
 -1.430000000000000E-002   -7.429311322721861E-003
 -1.420000000000000E-002   -7.636150875509562E-003
 -1.410000000000000E-002   -7.846291408723479E-003
 -1.400000000000000E-002   -8.059667914261825E-003
 -1.390000000000000E-002   -8.276207647690761E-003
 -1.380000000000000E-002   -8.495830281458047E-003
 -1.370000000000000E-002   -8.718448204817434E-003
 -1.360000000000000E-002   -8.943964061333253E-003
 -1.350000000000000E-002   -9.172272623070724E-003
 -1.340000000000000E-002   -9.403259638851795E-003
 -1.330000000000000E-002   -9.636801807319264E-003
 -1.320000000000000E-002   -9.872765452483549E-003
 -1.310000000000000E-002   -1.011100754693639E-002
 -1.300000000000000E-002   -1.035137400069740E-002
 -1.290000000000000E-002   -1.059370083589540E-002
 -1.280000000000000E-002   -1.083781243064700E-002
 -1.270000000000000E-002   -1.108352342055362E-002
 -1.260000000000000E-002   -1.133063532996465E-002
 -1.250000000000000E-002   -1.157893822480387E-002
 -1.240000000000000E-002   -1.182821013590285E-002
 -1.230000000000000E-002   -1.207821713931978E-002
 -1.220000000000000E-002   -1.232871342965162E-002
 -1.210000000000000E-002   -1.257943909406826E-002
 -1.200000000000000E-002   -1.283012029898502E-002
 -1.190000000000000E-002   -1.308047201201555E-002
 -1.180000000000000E-002   -1.333019440195053E-002
 -1.170000000000000E-002   -1.357897268388446E-002
 -1.160000000000000E-002   -1.382647948703570E-002
 -1.150000000000000E-002   -1.407237163504646E-002
 -1.140000000000000E-002   -1.431629236949306E-002
 -1.130000000000000E-002   -1.455786994186079E-002
 -1.120000000000000E-002   -1.479671659188307E-002
 -1.110000000000000E-002   -1.503243028502203E-002
 -1.100000000000000E-002   -1.526459369218258E-002
 -1.090000000000000E-002   -1.549277205846418E-002
 -1.080000000000000E-002   -1.571651851601273E-002
 -1.070000000000000E-002   -1.593536708282277E-002
 -1.060000000000000E-002   -1.614883793836790E-002
 -1.050000000000000E-002   -1.635643410283514E-002
 -1.040000000000000E-002   -1.655764310623551E-002
 -1.030000000000000E-002   -1.675193561892874E-002
 -1.020000000000000E-002   -1.693876818282040E-002
 -1.010000000000000E-002   -1.711757899556644E-002
 -1.000000000000000E-002   -1.728779093114343E-002
 -9.899999999999999E-003   -1.744881013248354E-002
 -9.800000000000000E-003   -1.760002571163322E-002
 -9.699999999999999E-003   -1.774081284201724E-002
 -9.599999999999999E-003   -1.787052749864448E-002
 -9.500000000000000E-003   -1.798851018274998E-002
 -9.399999999999999E-003   -1.809408639585218E-002
 -9.299999999999999E-003   -1.818656471480585E-002
 -9.200000000000000E-003   -1.826523898828041E-002
 -9.099999999999999E-003   -1.832938619949586E-002
 -8.999999999999999E-003   -1.837826924383791E-002
 -8.900000000000000E-003   -1.841113633270944E-002
 -8.799999999999999E-003   -1.842722048242729E-002
 -8.699999999999999E-003   -1.842574158457658E-002
 -8.600000000000000E-003   -1.840590349025241E-002
 -8.499999999999999E-003   -1.836690130361597E-002
 -8.399999999999999E-003   -1.830791336540350E-002
 -8.300000000000000E-003   -1.822810671679148E-002
 -8.199999999999999E-003   -1.812663547711832E-002
 -8.100000000000000E-003   -1.800264457029505E-002
 -8.000000000000000E-003   -1.785526869116537E-002
 -7.899999999999999E-003   -1.768362804337247E-002
 -7.800000000000000E-003   -1.748683699012018E-002
 -7.699999999999999E-003   -1.726399923178391E-002
 -7.599999999999999E-003   -1.701421000587645E-002
 -7.499999999999999E-003   -1.673655826271471E-002
 -7.399999999999999E-003   -1.643012714759272E-002
 -7.299999999999999E-003   -1.609399120075883E-002
 -7.199999999999999E-003   -1.572722142465536E-002
 -7.100000000000000E-003   -1.532888828890942E-002
 -6.999999999999999E-003   -1.489805451838780E-002
 -6.899999999999999E-003   -1.443378415102175E-002
 -6.800000000000000E-003   -1.393513948583104E-002
 -6.699999999999999E-003   -1.340118199442792E-002
 -6.599999999999999E-003   -1.283097898082959E-002
 -6.499999999999999E-003   -1.222359595442898E-002
 -6.399999999999999E-003   -1.157810284225795E-002
 -6.299999999999999E-003   -1.089357840075132E-002
 -6.199999999999999E-003   -1.016910318504586E-002
 -6.100000000000000E-003   -9.403769037603583E-003
 -5.999999999999999E-003   -8.596673720435185E-003
 -5.899999999999999E-003   -7.746925520323977E-003
 -5.800000000000000E-003   -6.853645578775760E-003
 -5.699999999999999E-003   -5.915965528364288E-003
 -5.599999999999999E-003   -4.933034094635905E-003
 -5.499999999999999E-003   -3.904015875424492E-003
 -5.399999999999999E-003   -2.828089928503535E-003
 -5.299999999999999E-003   -1.704455688457045E-003
 -5.199999999999999E-003   -5.323325390950992E-004
 -5.099999999999999E-003    6.890360771025618E-004
 -4.999999999999999E-003    1.960382974111489E-003
 -4.899999999999999E-003    3.282415060548478E-003
 -4.799999999999999E-003    4.655815697540491E-003
 -4.699999999999999E-003    6.081237315159952E-003
 -4.599999999999999E-003    7.559302715892509E-003
 -4.499999999999999E-003    9.090597545733497E-003
 -4.399999999999999E-003    1.067568157167428E-002
 -4.299999999999999E-003    1.231507698374238E-002
 -4.199999999999999E-003    1.400926542723160E-002
 -4.099999999999999E-003    1.575869465395451E-002
 -3.999999999999999E-003    1.756376727007796E-002
 -3.899999999999999E-003    1.942484701837579E-002
 -3.799999999999999E-003    2.134225637930898E-002
 -3.699999999999999E-003    2.331626706267989E-002
 -3.599999999999999E-003    2.534710556434309E-002
 -3.499999999999999E-003    2.743495400903105E-002
 -3.399999999999999E-003    2.957993448392164E-002
 -3.299999999999999E-003    3.178212956128731E-002
 -3.199999999999999E-003    3.404155411168638E-002
 -3.099999999999999E-003    3.635818040491376E-002
 -2.999999999999999E-003    3.873191572229938E-002
 -2.899999999999999E-003    4.116261375495640E-002
 -2.799999999999999E-003    4.365006169855179E-002
 -2.699999999999999E-003    4.619399568363917E-002
 -2.599999999999999E-003    4.879407854244910E-002
 -2.499999999999999E-003    5.144991091183058E-002
 -2.399999999999999E-003    5.416102788005139E-002
 -2.299999999999999E-003    5.692689441742612E-002
 -2.199999999999999E-003    5.974691744105887E-002
 -2.099999999999999E-003    6.262043116286220E-002
 -1.999999999999999E-003    6.554669191853806E-002
 -1.899999999999999E-003    6.852488793426255E-002
 -1.799999999999999E-003    7.155414380120811E-002
 -1.699999999999999E-003    7.463350803464541E-002
 -1.599999999999999E-003    7.776195282830453E-002
 -1.499999999999999E-003    8.093837036539750E-002
 -1.399999999999999E-003    8.416158737182697E-002
 -1.299999999999999E-003    8.743035063204188E-002
 -1.199999999999999E-003    9.074332596424664E-002
 -1.099999999999999E-003    9.409911001771171E-002
 -9.999999999999989E-004    9.749622018387635E-002
 -8.999999999999990E-004    0.100933102714369     
 -7.999999999999990E-004    0.104408100732541     
 -6.999999999999989E-004    0.107919518272016     
 -5.999999999999990E-004    0.111465537194158     
 -4.999999999999989E-004    0.115044303355859     
 -3.999999999999989E-004    0.118653859281266     
 -2.999999999999989E-004    0.122292179033123     
 -1.999999999999989E-004    0.125957157913407     
 -9.999999999999892E-005    0.129646621727951     
  1.084202172485504E-018    0.133358307788852     
  1.000000000000011E-004    0.137089909489312     
  2.000000000000011E-004    0.140839012921707     
  3.000000000000011E-004    0.144603150095322     
  4.000000000000011E-004    0.148379774665216     
  5.000000000000011E-004    0.152166279275142     
  6.000000000000011E-004    0.155959974462215     
  7.000000000000011E-004    0.159758118579612     
  8.000000000000011E-004    0.163557890149123     
  9.000000000000012E-004    0.167356419662577     
  1.000000000000001E-003    0.171150752230244     
  1.100000000000001E-003    0.174937883093011     
  1.200000000000001E-003    0.178714761378280     
  1.300000000000001E-003    0.182478278615276     
  1.400000000000001E-003    0.186225257221114     
  1.500000000000001E-003    0.189952463859276     
  1.600000000000001E-003    0.193656641528694     
  1.700000000000001E-003    0.197334469881683     
  1.800000000000001E-003    0.200982588611188     
  1.900000000000001E-003    0.204597606412778     
  2.000000000000001E-003    0.208176086386559     
  2.100000000000001E-003    0.211714557094349     
  2.200000000000001E-003    0.215209508075043     
  2.300000000000001E-003    0.218657438697324     
  2.400000000000001E-003    0.222054781655939     
  2.500000000000001E-003    0.225397968658951     
  2.600000000000001E-003    0.228683416869803     
  2.700000000000001E-003    0.231907505244562     
  2.800000000000001E-003    0.235066644049385     
  2.900000000000001E-003    0.238157174448299     
  3.000000000000001E-003    0.241175507316082     
  3.100000000000001E-003    0.244118006259016     
  3.200000000000001E-003    0.246981065686963     
  3.300000000000001E-003    0.249761073115327     
  3.400000000000001E-003    0.252454438696680     
  3.500000000000001E-003    0.255057563904614     
  3.600000000000001E-003    0.257566908952075     
  3.700000000000001E-003    0.259978961559251     
  3.800000000000001E-003    0.262290204198211     
  3.900000000000001E-003    0.264497179512383     
  4.000000000000001E-003    0.266596453999237     
  4.100000000000001E-003    0.268584677381884     
  4.200000000000001E-003    0.270458503319553     
  4.300000000000001E-003    0.272214639145483     
  4.400000000000001E-003    0.273849875546307     
  4.500000000000001E-003    0.275361066334176     
  4.600000000000002E-003    0.276745085431792     
  4.700000000000001E-003    0.277998929286445     
  4.800000000000001E-003    0.279119639261140     
  4.900000000000002E-003    0.280104314449021     
  5.000000000000001E-003    0.280950164304941     
  5.100000000000001E-003    0.281654488339442     
  5.200000000000001E-003    0.282214681199253     
  5.300000000000002E-003    0.282628173130945     
  5.400000000000001E-003    0.282892571045553     
  5.500000000000001E-003    0.283005521629058     
  5.600000000000002E-003    0.282964817975063     
  5.700000000000001E-003    0.282768355594240     
  5.800000000000001E-003    0.282414120815870     
  5.900000000000002E-003    0.281900254255740     
  6.000000000000001E-003    0.281224969000686     
  6.100000000000001E-003    0.280386670960166     
  6.200000000000002E-003    0.279383802909741     
  6.300000000000002E-003    0.278215008548954     
  6.400000000000001E-003    0.276879039703417     
  6.500000000000001E-003    0.275374773801341     
  6.600000000000002E-003    0.273701234326724     
  6.700000000000001E-003    0.271857583491993     
  6.800000000000001E-003    0.269843130635043     
  6.900000000000002E-003    0.267657344162884     
  7.000000000000001E-003    0.265299777017626     
  7.100000000000001E-003    0.262770216781420     
  7.200000000000002E-003    0.260068531483118     
  7.300000000000002E-003    0.257194786727810     
  7.400000000000001E-003    0.254149179588538     
  7.500000000000001E-003    0.250932080651972     
  7.600000000000002E-003    0.247543991826429     
  7.700000000000001E-003    0.243985590701511     
  7.800000000000001E-003    0.240257711541244     
  7.900000000000001E-003    0.236361342758290     
  8.000000000000002E-003    0.232297619887075     
  8.100000000000001E-003    0.228067858087446     
  8.200000000000001E-003    0.223673515440168     
  8.300000000000002E-003    0.219116201747941     
  8.400000000000001E-003    0.214397712421535     
  8.500000000000002E-003    0.209519948670621     
  8.600000000000002E-003    0.204485000097484     
  8.700000000000001E-003    0.199295127439779     
  8.800000000000002E-003    0.193952694196863     
  8.900000000000002E-003    0.188460261092381     
  9.000000000000001E-003    0.182820514620620     
  9.100000000000002E-003    0.177036294754536     
  9.200000000000002E-003    0.171110583554825     
  9.300000000000001E-003    0.165046513945675     
  9.400000000000002E-003    0.158847359067033     
  9.500000000000001E-003    0.152516530886631     
  9.600000000000001E-003    0.146057567348819     
  9.700000000000002E-003    0.139474150435592     
  9.800000000000001E-003    0.132770088294591     
  9.900000000000001E-003    0.125949310392385     
  1.000000000000000E-002    0.119015860877996     
  1.010000000000000E-002    0.111973925324007     
  1.020000000000000E-002    0.104827776117321     
  1.030000000000000E-002    9.758181342804108E-002
  1.040000000000000E-002    9.024053211188346E-002
  1.050000000000000E-002    8.280853913876948E-002
  1.060000000000000E-002    7.529052956458437E-002
  1.070000000000000E-002    6.769129343805087E-002
  1.080000000000000E-002    6.001570892394045E-002
  1.090000000000000E-002    5.226874160679760E-002
  1.100000000000000E-002    4.445543323488782E-002
  1.110000000000000E-002    3.658090406742925E-002
  1.120000000000000E-002    2.865033388260595E-002
  1.130000000000000E-002    2.066896639626150E-002
  1.140000000000000E-002    1.264210697203145E-002
  1.150000000000000E-002    4.575114622585218E-003
  1.160000000000000E-002   -3.526614313159640E-003
  1.170000000000000E-002   -1.165763365396143E-002
  1.180000000000000E-002   -1.981246228331849E-002
  1.190000000000000E-002   -2.798559975488494E-002
  1.200000000000000E-002   -3.617151540656499E-002
  1.210000000000000E-002   -4.436466098170819E-002
  1.220000000000000E-002   -5.255947508845225E-002
  1.230000000000000E-002   -6.075039617339127E-002
  1.240000000000000E-002   -6.893185405851775E-002
  1.250000000000000E-002   -7.709830773881718E-002
  1.260000000000000E-002   -8.524418357423055E-002
  1.270000000000000E-002   -9.336396565278626E-002
  1.280000000000000E-002   -0.101452148010133     
  1.290000000000000E-002   -0.109503241086853     
  1.300000000000000E-002   -0.117511800392120     
  1.310000000000000E-002   -0.125472421944224     
  1.320000000000000E-002   -0.133379739282581     
  1.330000000000000E-002   -0.141228442487650     
  1.340000000000000E-002   -0.149013286718789     
  1.350000000000000E-002   -0.156729070922508     
  1.360000000000000E-002   -0.164370677693934     
  1.370000000000000E-002   -0.171933044130317     
  1.380000000000000E-002   -0.179411200214384     
  1.390000000000000E-002   -0.186800257395079     
  1.400000000000000E-002   -0.194095375764512     
  1.410000000000000E-002   -0.201291867131771     
  1.420000000000000E-002   -0.208385103769491     
  1.430000000000000E-002   -0.215370568894452     
  1.440000000000000E-002   -0.222243869273421     
  1.450000000000000E-002   -0.229000670092418     
  1.460000000000000E-002   -0.235636793502869     
  1.470000000000000E-002   -0.242148172854711     
  1.480000000000000E-002   -0.248530845413550     
  1.490000000000000E-002   -0.254781001722557     
  1.500000000000000E-002   -0.260894908826757     
  1.510000000000000E-002   -0.266869033808624     
  1.520000000000000E-002   -0.272699935007686     
  1.530000000000000E-002   -0.278384299197403     
  1.540000000000000E-002   -0.283918990840034     
  1.550000000000000E-002   -0.289300980547506     
  1.560000000000000E-002   -0.294527406340863     
  1.570000000000000E-002   -0.299595546435942     
  1.580000000000000E-002   -0.304502820389301     
  1.590000000000000E-002   -0.309246811145787     
  1.600000000000000E-002   -0.313825255170506     
  1.610000000000000E-002   -0.318236021622550     
  1.620000000000000E-002   -0.322477180652108     
  1.630000000000000E-002   -0.326546894349344     
  1.640000000000000E-002   -0.330443518742370     
  1.650000000000000E-002   -0.334165559140033     
  1.660000000000000E-002   -0.337711689719017     
  1.670000000000000E-002   -0.341080732863668     
  1.680000000000000E-002   -0.344271642337842     
  1.690000000000000E-002   -0.347283573732306     
  1.700000000000000E-002   -0.350115829143127     
  1.710000000000000E-002   -0.352767849544818     
  1.720000000000000E-002   -0.355239248671964     
  1.730000000000000E-002   -0.357529776876455     
  1.740000000000000E-002   -0.359639335297473     
  1.750000000000000E-002   -0.361568004147274     
  1.760000000000000E-002   -0.363315995266384     
  1.770000000000000E-002   -0.364883695950067     
  1.780000000000000E-002   -0.366271600091542     
  1.790000000000000E-002   -0.367480367221380     
  1.800000000000000E-002   -0.368510809619212     
  1.810000000000000E-002   -0.369363880595852     
  1.820000000000000E-002   -0.370040643015560     
  1.830000000000000E-002   -0.370542341276828     
  1.840000000000000E-002   -0.370870312876926     
  1.850000000000000E-002   -0.371026043429677     
  1.860000000000000E-002   -0.371011144176920     
  1.870000000000000E-002   -0.370827345562988     