 -4.000000000000000E-002    0.000000000000000E+000
 -3.990000000000000E-002    0.000000000000000E+000
 -3.980000000000000E-002    0.000000000000000E+000
 -3.970000000000000E-002    0.000000000000000E+000
 -3.960000000000000E-002    0.000000000000000E+000
 -3.950000000000000E-002    0.000000000000000E+000
 -3.940000000000000E-002    0.000000000000000E+000
 -3.930000000000000E-002    0.000000000000000E+000
 -3.920000000000000E-002    0.000000000000000E+000
 -3.910000000000000E-002    0.000000000000000E+000
 -3.900000000000000E-002    0.000000000000000E+000
 -3.890000000000000E-002    0.000000000000000E+000
 -3.880000000000000E-002    0.000000000000000E+000
 -3.870000000000000E-002    2.067152124812432E-041
 -3.860000000000000E-002    5.065203644457145E-040
 -3.850000000000000E-002    6.402483480817491E-039
 -3.840000000000000E-002    5.556733952939408E-038
 -3.830000000000000E-002    3.719108893375524E-037
 -3.820000000000000E-002    2.044206442885687E-036
 -3.810000000000000E-002    9.596257423808846E-036
 -3.800000000000000E-002    3.950916654186944E-035
 -3.790000000000000E-002    1.453942776956084E-034
 -3.780000000000000E-002    4.850012015326275E-034
 -3.770000000000000E-002    1.482138016448869E-033
 -3.760000000000000E-002    4.183037897695640E-033
 -3.750000000000000E-002    1.096979382588082E-032
 -3.740000000000000E-002    2.684903839765205E-032
 -3.730000000000000E-002    6.150797858233609E-032
 -3.720000000000000E-002    1.320557588885718E-031
 -3.710000000000000E-002    2.655359026278439E-031
 -3.700000000000000E-002    4.984093283243585E-031
 -3.690000000000000E-002    8.665993045072899E-031
 -3.680000000000000E-002    1.373653760038390E-030
 -3.670000000000000E-002    1.915741114045943E-030
 -3.660000000000000E-002    2.131213575894304E-030
 -3.650000000000000E-002    1.132138627645326E-030
 -3.640000000000000E-002   -2.928029626979405E-030
 -3.630000000000000E-002   -1.348092825755186E-029
 -3.620000000000000E-002   -3.634184180677913E-029
 -3.610000000000000E-002   -8.054513375357036E-029
 -3.600000000000000E-002   -1.588810627292387E-028
 -3.590000000000000E-002   -2.874903203676475E-028
 -3.580000000000000E-002   -4.834563752492256E-028
 -3.570000000000000E-002   -7.588526073496600E-028
 -3.560000000000000E-002   -1.109262352484808E-027
 -3.550000000000000E-002   -1.494601129712045E-027
 -3.540000000000000E-002   -1.810455485818773E-027
 -3.530000000000000E-002   -1.849547707423449E-027
 -3.520000000000000E-002   -1.255846649002826E-027
 -3.510000000000000E-002    5.212521079790351E-028
 -3.500000000000000E-002    4.258091938239018E-027
 -3.490000000000000E-002    1.094944911947402E-026
 -3.480000000000000E-002    2.172860489364208E-026
 -3.470000000000000E-002    3.767125247652886E-026
 -3.460000000000000E-002    5.943467016809316E-026
 -3.450000000000000E-002    8.668772212613510E-026
 -3.440000000000000E-002    1.173064135843266E-025
 -3.430000000000000E-002    1.463502081399194E-025
 -3.420000000000000E-002    1.649014805048365E-025
 -3.410000000000000E-002    1.589459584993972E-025
 -3.400000000000000E-002    1.085932146646178E-025
 -3.390000000000000E-002   -1.192907140332876E-026
 -3.380000000000000E-002   -2.329470405623949E-025
 -3.370000000000000E-002   -5.860345753359954E-025
 -3.360000000000000E-002   -1.098087839127628E-024
 -3.350000000000000E-002   -1.782280442546657E-024
 -3.340000000000000E-002   -2.625731506429506E-024
 -3.330000000000000E-002   -3.574279698664028E-024
 -3.320000000000000E-002   -4.515566415946248E-024
 -3.310000000000000E-002   -5.262657690566312E-024
 -3.300000000000000E-002   -5.541600255003854E-024
 -3.290000000000000E-002   -4.987460914810120E-024
 -3.280000000000000E-002   -3.154325965195934E-024
 -3.270000000000000E-002    4.548294413775465E-025
 -3.260000000000000E-002    6.332885681264488E-024
 -3.250000000000000E-002    1.488388963390611E-023
 -3.240000000000000E-002    2.630772023503843E-023
 -3.230000000000000E-002    4.045715625582253E-023
 -3.220000000000000E-002    5.667603324118327E-023
 -3.210000000000000E-002    7.363384349715081E-023
 -3.200000000000000E-002    8.917928296953318E-023
 -3.190000000000000E-002    1.002420547028679E-022
 -3.180000000000000E-002    1.028175709105476E-022
 -3.170000000000000E-002    9.207221021699326E-023
 -3.160000000000000E-002    6.260598482748768E-023
 -3.150000000000000E-002    8.904310512369289E-024
 -3.140000000000000E-002   -7.399984331726249E-023
 -3.130000000000000E-002   -1.896480380773905E-022
 -3.120000000000000E-002   -3.390785240602512E-022
 -3.110000000000000E-002   -5.195906111949597E-022
 -3.100000000000000E-002   -7.234241107842779E-022
 -3.090000000000000E-002   -9.364608749649025E-022
 -3.080000000000000E-002   -1.137092990404521E-021
 -3.070000000000000E-002   -1.295441582285659E-021
 -3.060000000000000E-002   -1.373150173800423E-021
 -3.050000000000000E-002   -1.324014609653900E-021
 -3.040000000000000E-002   -1.095744500351116E-021
 -3.030000000000000E-002   -6.331680308880745E-022
 -3.020000000000000E-002    1.168137927588761E-022
 -3.010000000000000E-002    1.198267678236379E-021
 -3.000000000000000E-002    2.637116364080949E-021
 -2.990000000000000E-002    4.429922721315827E-021
 -2.980000000000000E-002    6.530917914044650E-021
 -2.970000000000000E-002    8.838036666444667E-021
 -2.960000000000000E-002    1.117926215740875E-020
 -2.950000000000000E-002    1.330121145351720E-020
 -2.940000000000000E-002    1.486256179095788E-020
 -2.930000000000000E-002    1.543553461707930E-020
 -2.920000000000000E-002    1.451908065275097E-020
 -2.910000000000000E-002    1.156749363574939E-020
 -2.900000000000000E-002    6.037717853175131E-021
 -2.890000000000000E-002   -2.542570231260535E-021
 -2.880000000000000E-002   -1.448605369152400E-020
 -2.870000000000000E-002   -2.983895774945543E-020
 -2.860000000000000E-002   -4.826305900930294E-020
 -2.850000000000000E-002   -6.891768093806833E-020
 -2.840000000000000E-002   -9.035746741703634E-020
 -2.830000000000000E-002   -1.104658806446589E-019
 -2.820000000000000E-002   -1.264472994312107E-019
 -2.810000000000000E-002   -1.349013123666120E-019
 -2.800000000000000E-002   -1.320004470449008E-019
 -2.790000000000000E-002   -1.137863407583770E-019
 -2.780000000000000E-002   -7.658892101820605E-020
 -2.770000000000000E-002   -1.755831304282056E-020
 -2.760000000000000E-002    6.471898117487338E-020
 -2.750000000000000E-002    1.695684251195208E-019
 -2.740000000000000E-002    2.936092701482106E-019
 -2.730000000000000E-002    4.302557764522972E-019
 -2.720000000000000E-002    5.694346594782289E-019
 -2.710000000000000E-002    6.976164441018551E-019
 -2.700000000000000E-002    7.982470666913794E-019
 -2.690000000000000E-002    8.526408120393132E-019
 -2.680000000000000E-002    8.413547040258707E-019
 -2.670000000000000E-002    7.460126730268400E-019
 -2.660000000000000E-002    5.514853233095990E-019
 -2.650000000000000E-002    2.482678756571921E-019
 -2.640000000000000E-002   -1.651605788535032E-019
 -2.630000000000000E-002   -6.802563374624488E-019
 -2.620000000000000E-002   -1.276890277813970E-018
 -2.610000000000000E-002   -1.922658535717820E-018
 -2.600000000000000E-002   -2.573250572444977E-018
 -2.590000000000000E-002   -3.174020181609009E-018
 -2.580000000000000E-002   -3.662794772406667E-018
 -2.570000000000000E-002   -3.973826083408893E-018
 -2.560000000000000E-002   -4.042649175161753E-018
 -2.550000000000000E-002   -3.811492466555320E-018
 -2.540000000000000E-002   -3.234790759851140E-018
 -2.530000000000000E-002   -2.284311096963700E-018
 -2.520000000000000E-002   -9.534226777087804E-019
 -2.510000000000000E-002    7.398729967749719E-019
 -2.500000000000000E-002    2.751386921601359E-018
 -2.490000000000000E-002    5.010713248233227E-018
 -2.480000000000000E-002    7.422572316063709E-018
 -2.470000000000000E-002    9.869202745574770E-018
 -2.460000000000000E-002    1.221336004943562E-017
 -2.450000000000000E-002    1.430147198502772E-017
 -2.440000000000000E-002    1.596660681906619E-017
 -2.430000000000000E-002    1.703115302909089E-017
 -2.420000000000000E-002    1.730945334189951E-017
 -2.410000000000000E-002    1.661105727314765E-017
 -2.400000000000000E-002    1.474564831985686E-017
 -2.390000000000000E-002    1.153101715603501E-017
 -2.380000000000000E-002    6.805555385603359E-018
 -2.370000000000000E-002    4.465440490526946E-019
 -2.360000000000000E-002   -7.605032543642666E-018
 -2.350000000000000E-002   -1.731335558682058E-017
 -2.340000000000000E-002   -2.851182271866708E-017
 -2.330000000000000E-002   -4.086532950740121E-017
 -2.320000000000000E-002   -5.383538363394599E-017
 -2.310000000000000E-002   -6.665413898730710E-017
 -2.300000000000000E-002   -7.831438730036160E-017
 -2.290000000000000E-002   -8.758275056503763E-017
 -2.280000000000000E-002   -9.304266504655691E-017
 -2.270000000000000E-002   -9.317180892610458E-017
 -2.260000000000000E-002   -8.645555564373689E-017
 -2.250000000000000E-002   -7.153401588376412E-017
 -2.240000000000000E-002   -4.737534209642109E-017
 -2.230000000000000E-002   -1.346282014388716E-017
 -2.220000000000000E-002    3.002132035106345E-017
 -2.210000000000000E-002    8.203625525725247E-017
 -2.200000000000000E-002    1.405697728831157E-016
 -2.190000000000000E-002    2.025944438163183E-016
 -2.180000000000000E-002    2.641118309074300E-016
 -2.170000000000000E-002    3.202974884987168E-016
 -2.160000000000000E-002    3.657506989117847E-016
 -2.150000000000000E-002    3.948425059309101E-016
 -2.140000000000000E-002    4.021436172432708E-016
 -2.130000000000000E-002    3.829027955380214E-016
 -2.120000000000000E-002    3.335368869161464E-016
 -2.110000000000000E-002    2.520875771933922E-016
 -2.100000000000000E-002    1.385985335063938E-016
 -2.090000000000000E-002   -4.630156108234981E-018
 -2.080000000000000E-002   -1.729435153766948E-016
 -2.070000000000000E-002   -3.594093940109453E-016
 -2.060000000000000E-002   -5.550743977023069E-016
 -2.050000000000000E-002   -7.493819346488572E-016
 -2.040000000000000E-002   -9.307171162382475E-016
 -2.030000000000000E-002   -1.087030100810608E-015
 -2.020000000000000E-002   -1.206479819324267E-015
 -2.010000000000000E-002   -1.278040091599720E-015
 -2.000000000000000E-002   -1.292017558221698E-015
 -1.990000000000000E-002   -1.240448105523734E-015
 -1.980000000000000E-002   -1.117360833504462E-015
 -1.970000000000000E-002   -9.189260682270391E-016
 -1.960000000000000E-002   -6.435307232719674E-016
 -1.950000000000000E-002   -2.918446402988438E-016
 -1.940000000000000E-002    1.330454999023451E-016
 -1.930000000000000E-002    6.253619261150633E-016
 -1.920000000000000E-002    1.176165937280177E-015
 -1.910000000000000E-002    1.772674501624345E-015
 -1.900000000000000E-002    2.397394190332329E-015
 -1.890000000000000E-002    3.027165010647426E-015
 -1.880000000000000E-002    3.632269973896619E-015
 -1.870000000000000E-002    4.175819755659535E-015
 -1.860000000000000E-002    4.613663000032912E-015
 -1.850000000000000E-002    4.895082072147239E-015
 -1.840000000000000E-002    4.964511085763482E-015
 -1.830000000000000E-002    4.764447064987037E-015
 -1.820000000000000E-002    4.239621886205877E-015
 -1.810000000000000E-002    3.342356871863617E-015
 -1.800000000000000E-002    2.038866003241821E-015
 -1.790000000000000E-002    3.160832576535580E-016
 -1.780000000000000E-002   -1.811557814863175E-015
 -1.770000000000000E-002   -4.296109648737608E-015
 -1.760000000000000E-002   -7.051645825593954E-015
 -1.750000000000000E-002   -9.952137942996983E-015
 -1.740000000000000E-002   -1.283238619992429E-014
 -1.730000000000000E-002   -1.549254079492280E-014
 -1.720000000000000E-002   -1.770649097991137E-014
 -1.710000000000000E-002   -1.923408434225217E-014
 -1.700000000000000E-002   -1.983675143686006E-014
 -1.690000000000000E-002   -1.929575850078183E-014
 -1.680000000000000E-002   -1.743192309930912E-014
 -1.670000000000000E-002   -1.412539381055475E-014
 -1.660000000000000E-002   -9.333884652804196E-015
 -1.650000000000000E-002   -3.107714433365794E-015
 -1.640000000000000E-002    4.399866144311407E-015
 -1.630000000000000E-002    1.292836277087443E-014
 -1.620000000000000E-002    2.211264631894077E-014
 -1.610000000000000E-002    3.149289747669993E-014
 -1.600000000000000E-002    4.053177832260796E-014
 -1.590000000000000E-002    4.863818406329328E-014
 -1.580000000000000E-002    5.519641016314103E-014
 -1.570000000000000E-002    5.959923036117615E-014
 -1.560000000000000E-002    6.128308406054502E-014
 -1.550000000000000E-002    5.976349526622908E-014
 -1.540000000000000E-002    5.466891852138340E-014
 -1.530000000000000E-002    4.577138707889919E-014
 -1.520000000000000E-002    3.301266627571989E-014
 -1.510000000000000E-002    1.652490487582089E-014
 -1.500000000000000E-002   -3.354860311714121E-015
 -1.490000000000000E-002   -2.607679160541163E-014
 -1.480000000000000E-002   -5.087726220884720E-014
 -1.470000000000000E-002   -7.678515181399158E-014
 -1.460000000000000E-002   -1.026359754123875E-013
 -1.450000000000000E-002   -1.270946974108733E-013
 -1.440000000000000E-002   -1.486883440494499E-013
 -1.430000000000000E-002   -1.658497697860089E-013
 -1.420000000000000E-002   -1.769740433265601E-013
 -1.410000000000000E-002   -1.804885281824856E-013
 -1.400000000000000E-002   -1.749372092802341E-013
 -1.390000000000000E-002   -1.590786482132995E-013
 -1.380000000000000E-002   -1.319954363325546E-013
 -1.370000000000000E-002   -9.321110354070224E-014
 -1.360000000000000E-002   -4.280826836702907E-014
 -1.350000000000000E-002    1.846034644515393E-014
 -1.340000000000000E-002    8.907828693703468E-014
 -1.330000000000000E-002    1.667008679125360E-013
 -1.320000000000000E-002    2.481320508717605E-013
 -1.310000000000000E-002    3.293544419467597E-013
 -1.300000000000000E-002    4.056223703083451E-013
 -1.290000000000000E-002    4.716247541512955E-013
 -1.280000000000000E-002    5.217201931809590E-013
 -1.270000000000000E-002    5.502407867247152E-013
 -1.260000000000000E-002    5.518553381742316E-013
 -1.250000000000000E-002    5.219756322456832E-013
 -1.240000000000000E-002    4.571828415365698E-013
 -1.230000000000000E-002    3.556466352018389E-013
 -1.220000000000000E-002    2.175047455663698E-013
 -1.210000000000000E-002    4.516940803196703E-014
 -1.200000000000000E-002   -1.564721018791684E-013
 -1.190000000000000E-002   -3.799928172755849E-013
 -1.180000000000000E-002   -6.155197053428598E-013
 -1.170000000000000E-002   -8.510010818952075E-013
 -1.160000000000000E-002   -1.072650993191779E-012
 -1.150000000000000E-002   -1.265562835878757E-012
 -1.140000000000000E-002   -1.414471006809138E-012
 -1.130000000000000E-002   -1.504628587664327E-012
 -1.120000000000000E-002   -1.522756233526374E-012
 -1.110000000000000E-002   -1.458012250050471E-012
 -1.100000000000000E-002   -1.302924479160813E-012
 -1.090000000000000E-002   -1.054226145655148E-012
 -1.080000000000000E-002   -7.135364388144837E-013
 -1.070000000000000E-002   -2.878344580489940E-013
 -1.060000000000000E-002    2.103188744377915E-013
 -1.050000000000000E-002    7.628439458967967E-013
 -1.040000000000000E-002    1.346510175302270E-012
 -1.030000000000000E-002    1.933614586556530E-012
 -1.020000000000000E-002    2.492961697481143E-012
 -1.010000000000000E-002    2.991121515807075E-012
 -1.000000000000000E-002    3.393927090736457E-012
 -9.899999999999999E-003    3.668161988959117E-012
 -9.800000000000000E-003    3.783375634127009E-012
 -9.699999999999999E-003    3.713755335551854E-012
 -9.599999999999999E-003    3.439973975787670E-012
 -9.500000000000000E-003    2.950931068682873E-012
 -9.399999999999999E-003    2.245291079584723E-012
 -9.299999999999999E-003    1.332728711161453E-012
 -9.200000000000000E-003    2.347876749767329E-013
 -9.099999999999999E-003   -1.014736053013366E-012
 -8.999999999999999E-003   -2.369974206328734E-012
 -8.900000000000000E-003   -3.773791949126500E-012
 -8.799999999999999E-003   -5.159273251445699E-012
 -8.699999999999999E-003   -6.451912682220003E-012
 -8.600000000000000E-003   -7.572501339333442E-012
 -8.499999999999999E-003   -8.440665634972204E-012
 -8.399999999999999E-003   -8.978961279867194E-012
 -8.300000000000000E-003   -9.117388398935030E-012
 -8.199999999999999E-003   -8.798134043350019E-012
 -8.100000000000000E-003   -7.980312305373301E-012
 -8.000000000000000E-003   -6.644424851376387E-012
 -7.899999999999999E-003   -4.796240133814559E-012
 -7.800000000000000E-003   -2.469783433336163E-012
 -7.699999999999999E-003    2.708763969555840E-013
 -7.599999999999999E-003    3.331309263611714E-012
 -7.499999999999999E-003    6.588109354981559E-012
 -7.399999999999999E-003    9.892118851789803E-012
 -7.299999999999999E-003    1.307354590742552E-011
 -7.199999999999999E-003    1.594891139720615E-011
 -7.100000000000000E-003    1.832962419688525E-011
 -6.999999999999999E-003    2.003188644225082E-011
 -6.899999999999999E-003    2.088746680330396E-011
 -6.800000000000000E-003    2.075482182464924E-011
 -6.699999999999999E-003    1.952991934870897E-011
 -6.599999999999999E-003    1.715610873665796E-011
 -6.499999999999999E-003    1.363233947803191E-011
 -6.399999999999999E-003    9.019093353408630E-012
 -6.299999999999999E-003    3.441450727362976E-012
 -6.199999999999999E-003   -2.911147778995472E-012
 -6.100000000000000E-003   -9.788748814026057E-012
 -5.999999999999999E-003   -1.688842910656162E-011
 -5.899999999999999E-003   -2.386544303534320E-011
 -5.800000000000000E-003   -3.034765166716946E-011
 -5.699999999999999E-003   -3.595270438972520E-011
 -5.599999999999999E-003   -4.030725581873690E-011
 -5.499999999999999E-003   -4.306734580868105E-011
 -5.399999999999999E-003   -4.393891843328505E-011
 -5.299999999999999E-003   -4.269745153236340E-011
 -5.199999999999999E-003   -3.920556508430114E-011
 -5.099999999999999E-003   -3.342757170719213E-011
 -4.999999999999999E-003   -2.544001156443742E-011
 -4.899999999999999E-003   -1.543735277316740E-011
 -4.799999999999999E-003   -3.732198882228815E-012
 -4.699999999999999E-003    9.250363965921049E-012
 -4.599999999999999E-003    2.298444656819789E-011
 -4.499999999999999E-003    3.686095400266909E-011
 -4.399999999999999E-003    5.021067846941007E-011
 -4.299999999999999E-003    6.233219647101469E-011
 -4.199999999999999E-003    7.252361085996530E-011
 -4.099999999999999E-003    8.011694117144564E-011
 -3.999999999999999E-003    8.451372814310835E-011
 -3.899999999999999E-003    8.522024781965396E-011
 -3.799999999999999E-003    8.188062110908436E-011
 -3.699999999999999E-003    7.430604798767942E-011
 -3.599999999999999E-003    6.249841342443560E-011
 -3.499999999999999E-003    4.666657988933613E-011
 -3.399999999999999E-003    2.723394385830985E-011
 -3.299999999999999E-003    4.836027183503146E-012
 -3.199999999999999E-003   -1.969263776981180E-011
 -3.099999999999999E-003   -4.534277456685885E-011
 -2.999999999999999E-003   -7.096550322494847E-011
 -2.899999999999999E-003   -9.531763927914040E-011
 -2.799999999999999E-003   -1.171157611901822E-010
 -2.699999999999999E-003   -1.350970103379565E-010
 -2.599999999999999E-003   -1.480841745479818E-010
 -2.499999999999999E-003   -1.550518123059448E-010
 -2.399999999999999E-003   -1.551902811694305E-010
 -2.299999999999999E-003   -1.479638211316220E-010
 -2.199999999999999E-003   -1.331592441092473E-010
 -2.099999999999999E-003   -1.109217208382210E-010
 -1.999999999999999E-003   -8.177468762326607E-011
 -1.899999999999999E-003   -4.662158905099902E-011
 -1.799999999999999E-003   -6.727860788875734E-012
 -1.699999999999999E-003    3.631739329528819E-011
 -1.599999999999999E-003    8.065927690827420E-011
 -1.499999999999999E-003    1.242530115687359E-010
 -1.399999999999999E-003    1.649548466138232E-010
 -1.299999999999999E-003    2.006241199033469E-010
 -1.199999999999999E-003    2.292316297067205E-010
 -1.099999999999999E-003    2.489689385854369E-010
 -9.999999999999989E-004    2.583527462238510E-010
 -8.999999999999990E-004    2.563184086806338E-010
 -7.999999999999990E-004    2.422972979166317E-010
 -6.999999999999989E-004    2.162725923243689E-010
 -5.999999999999990E-004    1.788099175847245E-010
 -4.999999999999989E-004    1.310596469914902E-010
 -3.999999999999989E-004    7.472965231527426E-011
 -2.999999999999989E-004    1.202832398552273E-011
 -1.999999999999989E-004   -5.442031242365376E-011
 -9.999999999999892E-005   -1.216863912499297E-010
  1.084202172485504E-018   -1.866642823602342E-010
  1.000000000000011E-004   -2.462172093414196E-010
  2.000000000000011E-004   -2.973298015806732E-010
  3.000000000000011E-004   -3.372611055016906E-010
  4.000000000000011E-004   -3.636905662024370E-010
  5.000000000000011E-004   -3.748494363117409E-010
  6.000000000000011E-004   -3.696304351823502E-010
  7.000000000000011E-004   -3.476693424438977E-010
  8.000000000000011E-004   -3.093936284692793E-010
  9.000000000000012E-004   -2.560337883208664E-010
  1.000000000000001E-003   -1.895955575301615E-010
  1.100000000000001E-003   -1.127925794970240E-010
  1.200000000000001E-003   -2.894065361267861E-011
  1.300000000000001E-003    5.818276308913976E-011
  1.400000000000001E-003    1.445088475391419E-010
  1.500000000000001E-003    2.258706717286749E-010
  1.600000000000001E-003    2.982107589097530E-010
  1.700000000000001E-003    3.577937910145370E-010
  1.800000000000001E-003    4.014136334172983E-010
  1.900000000000001E-003    4.265842320621077E-010
  2.000000000000001E-003    4.317034633759082E-010
  2.100000000000001E-003    4.161796469002382E-010
  2.200000000000001E-003    3.805122513731367E-010
  2.300000000000001E-003    3.263188781701413E-010
  2.400000000000001E-003    2.563039792168260E-010
  2.500000000000001E-003    1.741668153119111E-010
  2.600000000000001E-003    8.444918101440250E-011
  2.700000000000001E-003   -7.673218725128349E-012
  2.800000000000001E-003   -9.664849423349504E-011
  2.900000000000001E-003   -1.768451158475325E-010
  3.000000000000001E-003   -2.428741033561607E-010
  3.100000000000001E-003   -2.899211158483439E-010
  3.200000000000001E-003   -3.140710879983485E-010
  3.300000000000001E-003   -3.126072648515933E-010
  3.400000000000001E-003   -2.842660596265512E-010
  3.500000000000001E-003   -2.294307104954206E-010
  3.600000000000001E-003   -1.502482020716646E-010
  3.700000000000001E-003   -5.065735285683945E-011
  3.800000000000001E-003    6.368050680860587E-011
  3.900000000000001E-003    1.855522709903117E-010
  4.000000000000001E-003    3.064637128098255E-010
  4.100000000000001E-003    4.170042559025788E-010
  4.200000000000001E-003    5.072932678038506E-010
  4.300000000000001E-003    5.674921799191188E-010
  4.400000000000001E-003    5.883604289962286E-010
  4.500000000000001E-003    5.618313700130705E-010
  4.600000000000002E-003    4.815803209839928E-010
  4.700000000000001E-003    3.435565596049640E-010
  4.800000000000001E-003    1.464502789297471E-010
  4.900000000000002E-003   -1.079323575050356E-010
  5.000000000000001E-003   -4.144119025564409E-010
  5.100000000000001E-003   -7.643163168622303E-010
  5.200000000000001E-003   -1.145516571811145E-009
  5.300000000000002E-003   -1.542628206230821E-009
  5.400000000000001E-003   -1.937382478762542E-009
  5.500000000000001E-003   -2.309166123319440E-009
  5.600000000000002E-003   -2.635719050080984E-009
  5.700000000000001E-003   -2.893975636238470E-009
  5.800000000000001E-003   -3.061024931900576E-009
  5.900000000000002E-003   -3.115163624745489E-009
  6.000000000000001E-003   -3.037005186965586E-009
  6.100000000000001E-003   -2.810607916280527E-009
  6.200000000000002E-003   -2.424580210634715E-009
  6.300000000000002E-003   -1.873116904086766E-009
  6.400000000000001E-003   -1.156922560126988E-009
  6.500000000000001E-003   -2.839759167850027E-010
  6.600000000000002E-003    7.299078632371700E-010
  6.700000000000001E-003    1.860758775271885E-009
  6.800000000000001E-003    3.076411478510788E-009
  6.900000000000002E-003    4.336775115156832E-009
  7.000000000000001E-003    5.594433563875777E-009
  7.100000000000001E-003    6.795590824058188E-009
  7.200000000000002E-003    7.881368620542160E-009
  7.300000000000002E-003    8.789445933705486E-009
  7.400000000000001E-003    9.456026045628213E-009
  7.500000000000001E-003    9.818102479345383E-009
  7.600000000000002E-003    9.815983394486237E-009
  7.700000000000001E-003    9.396024427422524E-009
  7.800000000000001E-003    8.513511321838800E-009
  7.900000000000001E-003    7.135620992169142E-009
  8.000000000000002E-003    5.244390941240141E-009
  8.100000000000001E-003    2.839608980187521E-009
  8.200000000000001E-003   -5.845341048942741E-011
  8.300000000000002E-003   -3.406548839858888E-009
  8.400000000000001E-003   -7.136287765744229E-009
  8.500000000000002E-003   -1.115236752610394E-008
  8.600000000000002E-003   -1.533127852393172E-008
  8.700000000000001E-003   -1.952053331375455E-008
  8.800000000000002E-003   -2.353847444839750E-008
  8.900000000000002E-003   -2.717470117276339E-008
  9.000000000000001E-003   -3.019112351518559E-008
  9.100000000000002E-003   -3.232366069871531E-008
  9.200000000000002E-003   -3.328455685557535E-008
  9.300000000000001E-003   -3.276529759651845E-008
  9.400000000000002E-003   -3.044007209253855E-008
  9.500000000000001E-003   -2.596972126597570E-008
  9.600000000000001E-003   -1.900608297516167E-008
  9.700000000000002E-003   -9.196646651059281E-009
  9.800000000000001E-003    3.810580463758690E-009
  9.900000000000001E-003    2.036214679006199E-008
  1.000000000000000E-002    4.079426495911389E-008
  1.010000000000000E-002    6.542808649238618E-008
  1.020000000000000E-002    9.456532009146538E-008
  1.030000000000000E-002    1.284843218371257E-007
  1.040000000000000E-002    1.674366668030878E-007
  1.050000000000000E-002    2.116445627485492E-007
  1.060000000000000E-002    2.612989779413974E-007
  1.070000000000000E-002    3.165587737649618E-007
  1.080000000000000E-002    3.775506414119352E-007
  1.090000000000000E-002    4.443703742627673E-007
  1.100000000000000E-002    5.170849034429912E-007
  1.110000000000000E-002    5.957355423753059E-007
  1.120000000000000E-002    6.803423199947874E-007
  1.130000000000000E-002    7.709091257359771E-007
  1.140000000000000E-002    8.674298204858670E-007
  1.150000000000000E-002    9.698952559859212E-007
  1.160000000000000E-002    1.078300678363326E-006
  1.170000000000000E-002    1.192653707467567E-006
  1.180000000000000E-002    1.312982625884787E-006
  1.190000000000000E-002    1.439344740925441E-006
  1.200000000000000E-002    1.571834601150280E-006
  1.210000000000000E-002    1.710592035772559E-006
  1.220000000000000E-002    1.855809297785953E-006
  1.230000000000000E-002    2.007738286896332E-006
  1.240000000000000E-002    2.166695991379557E-006
  1.250000000000000E-002    2.333069924121871E-006
  1.260000000000000E-002    2.507321370836989E-006
  1.270000000000000E-002    2.689988690455891E-006
  1.280000000000000E-002    2.881688379092802E-006
  1.290000000000000E-002    3.083115383284488E-006
  1.300000000000000E-002    3.295042147191412E-006
  1.310000000000000E-002    3.518316734341413E-006
  1.320000000000000E-002    3.753859966809884E-006
  1.330000000000000E-002    4.002661249855441E-006
  1.340000000000000E-002    4.265774482416558E-006
  1.350000000000000E-002    4.544312133697402E-006
  1.360000000000000E-002    4.839441709341354E-006
  1.370000000000000E-002    5.152378991087753E-006
  1.380000000000000E-002    5.484383832639493E-006
  1.390000000000000E-002    5.836755333735590E-006
  1.400000000000000E-002    6.210828941085135E-006
  1.410000000000000E-002    6.607971941711076E-006
  1.420000000000000E-002    7.029582638974247E-006
  1.430000000000000E-002    7.477088943762188E-006
  1.440000000000000E-002    7.951950323326006E-006
  1.450000000000000E-002    8.455659326196324E-006
  1.460000000000000E-002    8.989744886434049E-006
  1.470000000000000E-002    9.555776458456420E-006
  1.480000000000000E-002    1.015537176866102E-005
  1.490000000000000E-002    1.079020264485091E-005
  1.500000000000000E-002    1.146200523501965E-005
  1.510000000000000E-002    1.217258828412649E-005
  1.520000000000000E-002    1.292384285272295E-005
  1.530000000000000E-002    1.371775357481883E-005
  1.540000000000000E-002    1.455640748500091E-005
  1.550000000000000E-002    1.544200610651458E-005
  1.560000000000000E-002    1.637687373943069E-005
  1.570000000000000E-002    1.736346633643252E-005
  1.580000000000000E-002    1.840438347303055E-005
  1.590000000000000E-002    1.950237181979493E-005
  1.600000000000000E-002    2.066033171242265E-005
  1.610000000000000E-002    2.188132389421098E-005
  1.620000000000000E-002    2.316857486897322E-005
  1.630000000000000E-002    2.452547781593189E-005
  1.640000000000000E-002    2.595559266251486E-005
  1.650000000000000E-002    2.746265446831483E-005
  1.660000000000000E-002    2.905057071496121E-005
  1.670000000000000E-002    3.072342156017365E-005
  1.680000000000000E-002    3.248545843341650E-005
  1.690000000000000E-002    3.434111367885176E-005
  1.700000000000000E-002    3.629499701930005E-005
  1.710000000000000E-002    3.835190080242684E-005
  1.720000000000000E-002    4.051680197414581E-005
  1.730000000000000E-002    4.279487118373317E-005
  1.740000000000000E-002    4.519147616006502E-005
  1.750000000000000E-002    4.771219784107382E-005
  1.760000000000000E-002    5.036283409168010E-005
  1.770000000000000E-002    5.314940843157195E-005
  1.780000000000000E-002    5.607819719989246E-005
  1.790000000000000E-002    5.915572590950743E-005
  1.800000000000000E-002    6.238879786175102E-005
  1.810000000000000E-002    6.578451250117689E-005
  1.820000000000000E-002    6.935027098868718E-005
  1.830000000000000E-002    7.309379507308269E-005
  1.840000000000000E-002    7.702314931365240E-005
  1.850000000000000E-002    8.114675459305472E-005
  1.860000000000000E-002    8.547339956718365E-005
  1.870000000000000E-002    9.001225763957975E-005