 -4.000000000000000E-002    0.000000000000000E+000
 -3.990000000000000E-002    0.000000000000000E+000
 -3.980000000000000E-002    0.000000000000000E+000
 -3.970000000000000E-002    7.166796163132370E-015
 -3.960000000000000E-002    4.557075318046066E-014
 -3.950000000000000E-002    1.631343903791535E-013
 -3.940000000000000E-002    4.310617756066958E-013
 -3.930000000000000E-002    9.327542417423469E-013
 -3.920000000000000E-002    1.741648254262640E-012
 -3.910000000000000E-002    2.890052471392833E-012
 -3.900000000000000E-002    4.333437501097680E-012
 -3.890000000000000E-002    5.916335554533163E-012
 -3.880000000000000E-002    7.346749622879294E-012
 -3.870000000000000E-002    8.185611558661445E-012
 -3.860000000000000E-002    7.856409821488118E-012
 -3.850000000000000E-002    5.677783251553588E-012
 -3.840000000000000E-002    9.189747151700744E-013
 -3.830000000000000E-002   -7.125049568988553E-012
 -3.820000000000000E-002   -1.904492092531936E-011
 -3.810000000000000E-002   -3.522300014311324E-011
 -3.800000000000000E-002   -5.574409854991508E-011
 -3.790000000000000E-002   -8.032086316485478E-011
 -3.780000000000000E-002   -1.082430182233998E-010
 -3.770000000000000E-002   -1.383578704353539E-010
 -3.760000000000000E-002   -1.690866035531829E-010
 -3.750000000000000E-002   -1.984778000488394E-010
 -3.740000000000000E-002   -2.242961635875677E-010
 -3.730000000000000E-002   -2.441412426839169E-010
 -3.720000000000000E-002   -2.555882685395297E-010
 -3.710000000000000E-002   -2.563414494366716E-010
 -3.700000000000000E-002   -2.443890001937712E-010
 -3.690000000000000E-002   -2.181492917919643E-010
 -3.680000000000000E-002   -1.765983565426919E-010
 -3.670000000000000E-002   -1.193705523685154E-010
 -3.660000000000000E-002   -4.682660320670889E-011
 -3.650000000000000E-002    3.991474490790095E-011
 -3.640000000000000E-002    1.389822179651538E-010
 -3.630000000000000E-002    2.477932821094297E-010
 -3.620000000000000E-002    3.631273737542195E-010
 -3.610000000000000E-002    4.812262530909300E-010
 -3.600000000000000E-002    5.979142577924032E-010
 -3.590000000000000E-002    7.087314611142402E-010
 -3.580000000000000E-002    8.090721672404692E-010
 -3.570000000000000E-002    8.943213089112064E-010
 -3.560000000000000E-002    9.599829507165956E-010
 -3.550000000000000E-002    1.001795746693251E-009
 -3.540000000000000E-002    1.015832968738983E-009
 -3.530000000000000E-002    9.985866708761627E-010
 -3.520000000000000E-002    9.470379061798401E-010
 -3.510000000000000E-002    8.587185563659234E-010
 -3.500000000000000E-002    7.317707620970750E-010
 -3.490000000000000E-002    5.650129994780085E-010
 -3.480000000000000E-002    3.580212504134919E-010
 -3.470000000000000E-002    1.112329944301086E-010
 -3.460000000000000E-002   -1.739210110133998E-010
 -3.450000000000000E-002   -4.948559251839385E-010
 -3.440000000000000E-002   -8.476480022693457E-010
 -3.430000000000000E-002   -1.226836163575843E-009
 -3.420000000000000E-002   -1.625228716028444E-009
 -3.410000000000000E-002   -2.033738130753966E-009
 -3.400000000000000E-002   -2.441273732924221E-009
 -3.390000000000000E-002   -2.834723163208330E-009
 -3.380000000000000E-002   -3.199052928273992E-009
 -3.370000000000000E-002   -3.517555528552751E-009
 -3.360000000000000E-002   -3.772261744516535E-009
 -3.350000000000000E-002   -3.944525300507948E-009
 -3.340000000000000E-002   -4.015774712007432E-009
 -3.330000000000000E-002   -3.968412181871062E-009
 -3.320000000000000E-002   -3.786820983226705E-009
 -3.310000000000000E-002   -3.458433689113229E-009
 -3.300000000000000E-002   -2.974799661480509E-009
 -3.290000000000000E-002   -2.332582877855797E-009
 -3.280000000000000E-002   -1.534423405478930E-009
 -3.270000000000000E-002   -5.895928338877666E-010
 -3.260000000000000E-002    4.856080649889637E-010
 -3.250000000000000E-002    1.667757431026078E-009
 -3.240000000000000E-002    2.926549151062465E-009
 -3.230000000000000E-002    4.225368640822921E-009
 -3.220000000000000E-002    5.522195182630710E-009
 -3.210000000000000E-002    6.770804686817690E-009
 -3.200000000000000E-002    7.922226262934044E-009
 -3.190000000000000E-002    8.926403589652845E-009
 -3.180000000000000E-002    9.733995501161732E-009
 -3.170000000000000E-002    1.029825360503967E-008
 -3.160000000000000E-002    1.057691183483363E-008
 -3.150000000000000E-002    1.053402645438795E-008
 -3.140000000000000E-002    1.014170562608873E-008
 -3.130000000000000E-002    9.381677711339193E-009
 -3.120000000000000E-002    8.246644242432873E-009
 -3.110000000000000E-002    6.741371383664815E-009
 -3.100000000000000E-002    4.883472349576431E-009
 -3.090000000000000E-002    2.703839018370889E-009
 -3.080000000000000E-002    2.466776251037662E-010
 -3.070000000000000E-002   -2.430883560713758E-009
 -3.060000000000000E-002   -5.259648411637171E-009
 -3.050000000000000E-002   -8.159689994135485E-009
 -3.040000000000000E-002   -1.104216823407922E-008
 -3.030000000000000E-002   -1.381162357791284E-008
 -3.020000000000000E-002   -1.636870531307441E-008
 -3.010000000000000E-002   -1.861327392199191E-008
 -3.000000000000000E-002   -2.044779816934711E-008
 -2.990000000000000E-002   -2.178093648278800E-008
 -2.980000000000000E-002   -2.253117590081924E-008
 -2.970000000000000E-002   -2.263039422771861E-008
 -2.960000000000000E-002   -2.202719384547562E-008
 -2.950000000000000E-002   -2.068986111006525E-008
 -2.940000000000000E-002   -1.860881682906180E-008
 -2.930000000000000E-002   -1.579842903971746E-008
 -2.920000000000000E-002   -1.229809413024745E-008
 -2.910000000000000E-002   -8.172498472518572E-009
 -2.900000000000000E-002   -3.511022969078855E-009
 -2.890000000000000E-002    1.573739307607289E-009
 -2.880000000000000E-002    6.948333433099271E-009
 -2.870000000000000E-002    1.246162225506892E-008
 -2.860000000000000E-002    1.794873997567851E-008
 -2.850000000000000E-002    2.323571274208565E-008
 -2.840000000000000E-002    2.814463700628648E-008
 -2.830000000000000E-002    3.249928319701221E-008
 -2.820000000000000E-002    3.613095913042655E-008
 -2.810000000000000E-002    3.888446360198872E-008
 -2.800000000000000E-002    4.062393741907374E-008
 -2.790000000000000E-002    4.123842606028927E-008
 -2.780000000000000E-002    4.064695104160533E-008
 -2.770000000000000E-002    3.880290869897625E-008
 -2.760000000000000E-002    3.569761993423013E-008
 -2.750000000000000E-002    3.136290164070637E-008
 -2.740000000000000E-002    2.587255370388132E-008
 -2.730000000000000E-002    1.934272075688265E-008
 -2.720000000000000E-002    1.193114043795079E-008
 -2.710000000000000E-002    3.835318269870907E-009
 -2.700000000000000E-002   -4.710204555245215E-009
 -2.690000000000000E-002   -1.343737756506030E-008
 -2.680000000000000E-002   -2.204869126582329E-008
 -2.670000000000000E-002   -3.022156372697272E-008
 -2.660000000000000E-002   -3.761286667740879E-008
 -2.650000000000000E-002   -4.386326860220425E-008
 -2.640000000000000E-002   -4.860141657166662E-008
 -2.630000000000000E-002   -5.144762506424771E-008
 -2.620000000000000E-002   -5.201719624203502E-008
 -2.610000000000000E-002   -4.992330085079273E-008
 -2.600000000000000E-002   -4.477940762922843E-008
 -2.590000000000000E-002   -3.620157122772136E-008
 -2.580000000000000E-002   -2.381048555476029E-008
 -2.570000000000000E-002   -7.233618210395819E-009
 -2.560000000000000E-002    1.389263063285765E-008
 -2.550000000000000E-002    3.992054514246554E-008
 -2.540000000000000E-002    7.118857994979183E-008
 -2.530000000000000E-002    1.080186748100342E-007
 -2.520000000000000E-002    1.507135333587389E-007
 -2.510000000000000E-002    1.995543478357352E-007
 -2.500000000000000E-002    2.547986693237635E-007
 -2.490000000000000E-002    3.166791169492263E-007
 -2.480000000000000E-002    3.854032180985022E-007
 -2.470000000000000E-002    4.611539692758637E-007
 -2.460000000000000E-002    5.440922301629274E-007
 -2.450000000000000E-002    6.343599168804107E-007
 -2.440000000000000E-002    7.320849872660643E-007
 -2.430000000000000E-002    8.373873576001335E-007
 -2.420000000000000E-002    9.503858020557146E-007
 -2.410000000000000E-002    1.071205513776667E-006
 -2.400000000000000E-002    1.199986114591290E-006
 -2.390000000000000E-002    1.336889289397953E-006
 -2.380000000000000E-002    1.482105827597577E-006
 -2.370000000000000E-002    1.635862774209537E-006
 -2.360000000000000E-002    1.798428383109626E-006
 -2.350000000000000E-002    1.970116476373019E-006
 -2.340000000000000E-002    2.151289778078450E-006
 -2.330000000000000E-002    2.342360739485121E-006
 -2.320000000000000E-002    2.543792743380844E-006
 -2.310000000000000E-002    2.756098789602737E-006
 -2.300000000000000E-002    2.979840524281827E-006
 -2.290000000000000E-002    3.215625748335611E-006
 -2.280000000000000E-002    3.464106940480134E-006
 -2.270000000000000E-002    3.725978662157862E-006
 -2.260000000000000E-002    4.001975824530801E-006
 -2.250000000000000E-002    4.292873225906757E-006
 -2.240000000000000E-002    4.599486093298920E-006
 -2.230000000000000E-002    4.922671561868276E-006
 -2.220000000000000E-002    5.263331651051416E-006
 -2.210000000000000E-002    5.622418250532540E-006
 -2.200000000000000E-002    6.000940805423122E-006
 -2.190000000000000E-002    6.399973171018370E-006
 -2.180000000000000E-002    6.820664567956377E-006
 -2.170000000000000E-002    7.264250478127373E-006
 -2.160000000000000E-002    7.732063801934464E-006
 -2.150000000000000E-002    8.225547397043614E-006
 -2.140000000000000E-002    8.746265496777557E-006
 -2.130000000000000E-002    9.295912025818779E-006
 -2.120000000000000E-002    9.876322638223563E-006
 -2.110000000000000E-002    1.048947581839194E-005
 -2.100000000000000E-002    1.113749932638829E-005
 -2.090000000000000E-002    1.182266528399111E-005
 -2.080000000000000E-002    1.254739040375913E-005
 -2.070000000000000E-002    1.331422240480354E-005
 -2.060000000000000E-002    1.412583392472117E-005
 -2.050000000000000E-002    1.498500762050724E-005
 -2.040000000000000E-002    1.589462440953133E-005
 -2.030000000000000E-002    1.685764617792547E-005
 -2.020000000000000E-002    1.787711042820127E-005
 -2.010000000000000E-002    1.895611385020677E-005
 -2.000000000000000E-002    2.009781423083905E-005
 -1.990000000000000E-002    2.130542645326998E-005
 -1.980000000000000E-002    2.258223182980345E-005
 -1.970000000000000E-002    2.393158395011670E-005
 -1.960000000000000E-002    2.535693000848047E-005
 -1.950000000000000E-002    2.686183172676907E-005
 -1.940000000000000E-002    2.844998671228106E-005
 -1.930000000000000E-002    3.012525728666223E-005
 -1.920000000000000E-002    3.189169192612108E-005
 -1.910000000000000E-002    3.375355965458224E-005
 -1.900000000000000E-002    3.571537025011853E-005
 -1.890000000000000E-002    3.778189205771452E-005
 -1.880000000000000E-002    3.995816923552686E-005
 -1.870000000000000E-002    4.224953747390887E-005
 -1.860000000000000E-002    4.466162914262412E-005
 -1.850000000000000E-002    4.720038599370752E-005
 -1.840000000000000E-002    4.987205486319789E-005
 -1.830000000000000E-002    5.268318854383064E-005
 -1.820000000000000E-002    5.564065817895990E-005
 -1.810000000000000E-002    5.875164851854769E-005
 -1.800000000000000E-002    6.202366984467198E-005
 -1.790000000000000E-002    6.546455940678841E-005
 -1.780000000000000E-002    6.908249860071155E-005
 -1.770000000000000E-002    7.288602156703910E-005
 -1.760000000000000E-002    7.688403798005182E-005
 -1.750000000000000E-002    8.108584255757669E-005
 -1.740000000000000E-002    8.550112706422204E-005
 -1.730000000000000E-002    9.014000626625496E-005
 -1.720000000000000E-002    9.501301658207795E-005
 -1.710000000000000E-002    1.001311456123745E-004
 -1.700000000000000E-002    1.055058164188353E-004
 -1.690000000000000E-002    1.111489069834536E-004
 -1.680000000000000E-002    1.170727488354498E-004
 -1.670000000000000E-002    1.232901226305705E-004
 -1.660000000000000E-002    1.298142612013552E-004
 -1.650000000000000E-002    1.366588442207212E-004
 -1.640000000000000E-002    1.438380250330209E-004
 -1.630000000000000E-002    1.513663988026507E-004
 -1.620000000000000E-002    1.592590613495717E-004
 -1.610000000000000E-002    1.675315750478967E-004
 -1.600000000000000E-002    1.762000403603753E-004
 -1.590000000000000E-002    1.852810723747426E-004
 -1.580000000000000E-002    1.947918788047808E-004
 -1.570000000000000E-002    2.047502560388619E-004
 -1.560000000000000E-002    2.151746767481331E-004
 -1.550000000000000E-002    2.260842176701368E-004
 -1.540000000000000E-002    2.374987286378646E-004
 -1.530000000000000E-002    2.494387664310400E-004
 -1.520000000000000E-002    2.619256502695386E-004
 -1.510000000000000E-002    2.749814930047189E-004
 -1.500000000000000E-002    2.886292094971821E-004
 -1.490000000000000E-002    3.028925611225625E-004
 -1.480000000000000E-002    3.177961105734148E-004
 -1.470000000000000E-002    3.333652636557463E-004
 -1.460000000000000E-002    3.496263211363022E-004
 -1.450000000000000E-002    3.666064035292832E-004
 -1.440000000000000E-002    3.843335163971320E-004
 -1.430000000000000E-002    4.028365377810481E-004
 -1.420000000000000E-002    4.221452337362238E-004
 -1.410000000000000E-002    4.422902634336850E-004
 -1.400000000000000E-002    4.633032092918477E-004
 -1.390000000000000E-002    4.852166018549912E-004
 -1.380000000000000E-002    5.080638629024299E-004
 -1.370000000000000E-002    5.318794548270528E-004
 -1.360000000000000E-002    5.566987839464275E-004
 -1.350000000000000E-002    5.825583026469615E-004
 -1.340000000000000E-002    6.094955166818592E-004
 -1.330000000000000E-002    6.375489777106344E-004
 -1.320000000000000E-002    6.667583578762316E-004
 -1.310000000000000E-002    6.971644627068480E-004
 -1.300000000000000E-002    7.288092618450756E-004
 -1.290000000000000E-002    7.617358240866456E-004
 -1.280000000000000E-002    7.959884790209683E-004
 -1.270000000000000E-002    8.316127208002722E-004
 -1.260000000000000E-002    8.686552704232195E-004
 -1.250000000000000E-002    9.071640771277942E-004
 -1.240000000000000E-002    9.471884096411294E-004
 -1.230000000000000E-002    9.887786524815246E-004
 -1.220000000000000E-002    1.031986511958263E-003
 -1.210000000000000E-002    1.076864960409790E-003
 -1.200000000000000E-002    1.123468140719992E-003
 -1.190000000000000E-002    1.171851440548702E-003
 -1.180000000000000E-002    1.222071577387095E-003
 -1.170000000000000E-002    1.274186553667312E-003
 -1.160000000000000E-002    1.328255458833583E-003
 -1.150000000000000E-002    1.384338886869358E-003
 -1.140000000000000E-002    1.442498460458093E-003
 -1.130000000000000E-002    1.502797183190246E-003
 -1.120000000000000E-002    1.565299415108880E-003
 -1.110000000000000E-002    1.630070957547023E-003
 -1.100000000000000E-002    1.697178838658729E-003
 -1.090000000000000E-002    1.766691408469215E-003
 -1.080000000000000E-002    1.838678185837209E-003
 -1.070000000000000E-002    1.913210434149035E-003
 -1.060000000000000E-002    1.990360507975563E-003
 -1.050000000000000E-002    2.070202042768398E-003
 -1.040000000000000E-002    2.152810050226355E-003
 -1.030000000000000E-002    2.238260625913938E-003
 -1.020000000000000E-002    2.326631371084135E-003
 -1.010000000000000E-002    2.418000639178339E-003
 -1.000000000000000E-002    2.512448346303720E-003
 -9.899999999999999E-003    2.610055055142644E-003
 -9.800000000000000E-003    2.710902783093905E-003
 -9.699999999999999E-003    2.815074322134307E-003
 -9.599999999999999E-003    2.922653339685890E-003
 -9.500000000000000E-003    3.033724369257999E-003
 -9.399999999999999E-003    3.148372825568224E-003
 -9.299999999999999E-003    3.266685083669378E-003
 -9.200000000000000E-003    3.388748093346079E-003
 -9.099999999999999E-003    3.514649723782300E-003
 -8.999999999999999E-003    3.644478403322166E-003
 -8.900000000000000E-003    3.778322910807676E-003
 -8.799999999999999E-003    3.916272992595704E-003
 -8.699999999999999E-003    4.058418586677980E-003
 -8.600000000000000E-003    4.204850077719709E-003
 -8.499999999999999E-003    4.355658832419820E-003
 -8.399999999999999E-003    4.510935937605282E-003
 -8.300000000000000E-003    4.670772308037250E-003
 -8.199999999999999E-003    4.835259879591549E-003
 -8.100000000000000E-003    5.004490699218699E-003
 -8.000000000000000E-003    5.178555994997910E-003
 -7.899999999999999E-003    5.357548026801613E-003
 -7.800000000000000E-003    5.541558231397086E-003
 -7.699999999999999E-003    5.730677623555428E-003
 -7.599999999999999E-003    5.924997781081301E-003
 -7.499999999999999E-003    6.124609001212027E-003
 -7.399999999999999E-003    6.329601577364280E-003
 -7.299999999999999E-003    6.540064891894641E-003
 -7.199999999999999E-003    6.756087677041467E-003
 -7.100000000000000E-003    6.977757775753797E-003
 -6.999999999999999E-003    7.205161598327753E-003
 -6.899999999999999E-003    7.438385072859081E-003
 -6.800000000000000E-003    7.677511822768946E-003
 -6.699999999999999E-003    7.922624662340175E-003
 -6.599999999999999E-003    8.173803912541754E-003
 -6.499999999999999E-003    8.431128584880820E-003
 -6.399999999999999E-003    8.694675509261130E-003
 -6.299999999999999E-003    8.964519346609674E-003
 -6.199999999999999E-003    9.240732561575898E-003
 -6.100000000000000E-003    9.523384883327634E-003
 -5.999999999999999E-003    9.812542935970496E-003
 -5.899999999999999E-003    1.010827102466102E-002
 -5.800000000000000E-003    1.041063039020554E-002
 -5.699999999999999E-003    1.071967848321850E-002
 -5.599999999999999E-003    1.103547114084062E-002
 -5.499999999999999E-003    1.135805831175043E-002
 -5.399999999999999E-003    1.168748734210103E-002
 -5.299999999999999E-003    1.202380207995512E-002
 -5.199999999999999E-003    1.236704172753936E-002
 -5.099999999999999E-003    1.271724101883294E-002
 -4.999999999999999E-003    1.307442997099322E-002
 -4.899999999999999E-003    1.343863372537600E-002
 -4.799999999999999E-003    1.380987386158229E-002
 -4.699999999999999E-003    1.418816433723282E-002
 -4.599999999999999E-003    1.457351535191662E-002
 -4.499999999999999E-003    1.496593218407134E-002
 -4.399999999999999E-003    1.536541292294203E-002
 -4.299999999999999E-003    1.577195055621716E-002
 -4.199999999999999E-003    1.618553115094051E-002
 -4.099999999999999E-003    1.660613563193867E-002
 -3.999999999999999E-003    1.703373743771687E-002
 -3.899999999999999E-003    1.746830386816699E-002
 -3.799999999999999E-003    1.790979303451536E-002
 -3.699999999999999E-003    1.835815928543820E-002
 -3.599999999999999E-003    1.881334777356960E-002
 -3.499999999999999E-003    1.927529495748356E-002
 -3.399999999999999E-003    1.974393042892304E-002
 -3.299999999999999E-003    2.021917551055065E-002
 -3.199999999999999E-003    2.070094283827686E-002
 -3.099999999999999E-003    2.118913547382306E-002
 -2.999999999999999E-003    2.168364847664274E-002
 -2.899999999999999E-003    2.218436679309760E-002
 -2.799999999999999E-003    2.269116774992901E-002
 -2.699999999999999E-003    2.320391708066070E-002
 -2.599999999999999E-003    2.372247188675847E-002
 -2.499999999999999E-003    2.424667854604107E-002
 -2.399999999999999E-003    2.477637415317037E-002
 -2.299999999999999E-003    2.531138597856410E-002
 -2.199999999999999E-003    2.585152904297394E-002
 -2.099999999999999E-003    2.639660960983653E-002
 -1.999999999999999E-003    2.694642428350897E-002
 -1.899999999999999E-003    2.750075493119941E-002
 -1.799999999999999E-003    2.805937423589087E-002
 -1.699999999999999E-003    2.862204329291275E-002
 -1.599999999999999E-003    2.918851241512329E-002
 -1.499999999999999E-003    2.975851943254866E-002
 -1.399999999999999E-003    3.033179090953970E-002
 -1.299999999999999E-003    3.090804022960435E-002
 -1.199999999999999E-003    3.148697039893597E-002
 -1.099999999999999E-003    3.206827191179053E-002
 -9.999999999999989E-004    3.265162304688991E-002
 -8.999999999999990E-004    3.323668847544160E-002
 -7.999999999999990E-004    3.382312069720574E-002
 -6.999999999999989E-004    3.441056253021248E-002
 -5.999999999999990E-004    3.499864090790053E-002
 -4.999999999999989E-004    3.558696878200276E-002
 -3.999999999999989E-004    3.617514958642359E-002
 -2.999999999999989E-004    3.676277621666667E-002
 -1.999999999999989E-004    3.734942380368076E-002
 -9.999999999999892E-005    3.793465867436296E-002
  1.084202172485504E-018    3.851803044282866E-002
  1.000000000000011E-004    3.909908196192280E-002
  2.000000000000011E-004    3.967733653944110E-002
  3.000000000000011E-004    4.025230922004799E-002
  4.000000000000011E-004    4.082350252046969E-002
  5.000000000000011E-004    4.139040303015017E-002
  6.000000000000011E-004    4.195248886615732E-002
  7.000000000000011E-004    4.250922167456009E-002
  8.000000000000011E-004    4.306005351640987E-002
  9.000000000000012E-004    4.360442543729445E-002
  1.000000000000001E-003    4.414176298440050E-002
  1.100000000000001E-003    4.467148217564815E-002
  1.200000000000001E-003    4.519298782564202E-002
  1.300000000000001E-003    4.570567283812149E-002
  1.400000000000001E-003    4.620891982089333E-002
  1.500000000000001E-003    4.670210025138224E-002
  1.600000000000001E-003    4.718457430117380E-002
  1.700000000000001E-003    4.765569039191502E-002
  1.800000000000001E-003    4.811478883916565E-002
  1.900000000000001E-003    4.856119760184510E-002
  2.000000000000001E-003    4.899423663158516E-002
  2.100000000000001E-003    4.941321464536835E-002
  2.200000000000001E-003    4.981743532311211E-002
  2.300000000000001E-003    5.020618856020150E-002
  2.400000000000001E-003    5.057876111055779E-002
  2.500000000000001E-003    5.093442436330323E-002
  2.600000000000001E-003    5.127245177512246E-002
  2.700000000000001E-003    5.159210010092222E-002
  2.800000000000001E-003    5.189262505109925E-002
  2.900000000000001E-003    5.217327429044911E-002
  3.000000000000001E-003    5.243328801873287E-002
  3.100000000000001E-003    5.267190488407309E-002
  3.200000000000001E-003    5.288835808355824E-002
  3.300000000000001E-003    5.308186943673670E-002
  3.400000000000001E-003    5.325166479748759E-002
  3.500000000000001E-003    5.339696331309642E-002
  3.600000000000001E-003    5.351698202644781E-002
  3.700000000000001E-003    5.361093625061196E-002
  3.800000000000001E-003    5.367803525479375E-002
  3.900000000000001E-003    5.371749135381873E-002
  4.000000000000001E-003    5.372851700099724E-002
  4.100000000000001E-003    5.371032024294962E-002
  4.200000000000001E-003    5.366211582661837E-002
  4.300000000000001E-003    5.358311214066705E-002
  4.400000000000001E-003    5.347252510397812E-002
  4.500000000000001E-003    5.332956775729758E-002
  4.600000000000002E-003    5.315346238463442E-002
  4.700000000000001E-003    5.294343181480781E-002
  4.800000000000001E-003    5.269869987607635E-002
  4.900000000000002E-003    5.241850278717291E-002
  5.000000000000001E-003    5.210207505823631E-002
  5.100000000000001E-003    5.174866552428434E-002
  5.200000000000001E-003    5.135751862341109E-002
  5.300000000000002E-003    5.092789780186271E-002
  5.400000000000001E-003    5.045906705081009E-002
  5.500000000000001E-003    4.995030113580067E-002
  5.600000000000002E-003    4.940088583541136E-002
  5.700000000000001E-003    4.881011687102616E-002
  5.800000000000001E-003    4.817729857883370E-002
  5.900000000000002E-003    4.750175100714090E-002
  6.000000000000001E-003    4.678280560333493E-002
  6.100000000000001E-003    4.601980687593273E-002
  6.200000000000002E-003    4.521211005556679E-002
  6.300000000000002E-003    4.435908619465218E-002
  6.400000000000001E-003    4.346012397201589E-002
  6.500000000000001E-003    4.251462753300900E-002
  6.600000000000002E-003    4.152201620183718E-002
  6.700000000000001E-003    4.048172855119245E-002
  6.800000000000001E-003    3.939321922580562E-002
  6.900000000000002E-003    3.825596175427791E-002
  7.000000000000001E-003    3.706945026596774E-002
  7.100000000000001E-003    3.583319600090362E-002
  7.200000000000002E-003    3.454673412220738E-002
  7.300000000000002E-003    3.320962080634005E-002
  7.400000000000001E-003    3.182143137948648E-002
  7.500000000000001E-003    3.038176668145433E-002
  7.600000000000002E-003    2.889024997913868E-002
  7.700000000000001E-003    2.734652798352583E-002
  7.800000000000001E-003    2.575027425425467E-002
  7.900000000000001E-003    2.410118363451391E-002
  8.000000000000002E-003    2.239898231122859E-002
  8.100000000000001E-003    2.064341804587182E-002
  8.200000000000001E-003    1.883426595580600E-002
  8.300000000000002E-003    1.697132912232788E-002
  8.400000000000001E-003    1.505443880565138E-002
  8.500000000000002E-003    1.308345252602979E-002
  8.600000000000002E-003    1.105825907815630E-002
  8.700000000000001E-003    8.978776206870100E-003
  8.800000000000002E-003    6.844951258050451E-003
  8.900000000000002E-003    4.656761542428207E-003
  9.000000000000001E-003    2.414214208528663E-003
  9.100000000000002E-003    1.173487401209560E-004
  9.200000000000002E-003   -2.233763527671475E-003
  9.300000000000001E-003   -4.639017923736345E-003
  9.400000000000002E-003   -7.098282966445796E-003
  9.500000000000001E-003   -9.611387069387462E-003
  9.600000000000001E-003   -1.217812766698651E-002
  9.700000000000002E-003   -1.479827037877713E-002
  9.800000000000001E-003   -1.747154837546543E-002
  9.900000000000001E-003   -2.019765574342805E-002
  1.000000000000000E-002   -2.297625792357740E-002
  1.010000000000000E-002   -2.580698256887818E-002
  1.020000000000000E-002   -2.868942121984514E-002
  1.030000000000000E-002   -3.162313278327174E-002
  1.040000000000000E-002   -3.460764493841817E-002
  1.050000000000000E-002   -3.764244243093006E-002
  1.060000000000000E-002   -4.072697879654742E-002
  1.070000000000000E-002   -4.386067396924621E-002
  1.080000000000000E-002   -4.704290478386672E-002
  1.090000000000000E-002   -5.027301879699667E-002
  1.100000000000000E-002   -5.355032541707447E-002
  1.110000000000000E-002   -5.687410120114275E-002
  1.120000000000000E-002   -6.024358120415571E-002
  1.130000000000000E-002   -6.365796919798333E-002
  1.140000000000000E-002   -6.711642724455420E-002
  1.150000000000000E-002   -7.061808481519619E-002
  1.160000000000000E-002   -7.416204302962146E-002
  1.170000000000000E-002   -7.774735202041563E-002
  1.180000000000000E-002   -8.137303620953215E-002
  1.190000000000000E-002   -8.503808358913965E-002
  1.200000000000000E-002   -8.874144483797188E-002
  1.210000000000000E-002   -9.248204006829804E-002
  1.220000000000000E-002   -9.625874145917677E-002
  1.230000000000000E-002   -0.100070396095935     
  1.240000000000000E-002   -0.103915817189755     
  1.250000000000000E-002   -0.107793776428912     
  1.260000000000000E-002   -0.111703016753346     
  1.270000000000000E-002   -0.115642254061288     
  1.280000000000000E-002   -0.119610153279444     
  1.290000000000000E-002   -0.123605360441549     
  1.300000000000000E-002   -0.127626475377865     
  1.310000000000000E-002   -0.131672082930553     
  1.320000000000000E-002   -0.135740712157997     
  1.330000000000000E-002   -0.139830880164294     
  1.340000000000000E-002   -0.143941066330877     
  1.350000000000000E-002   -0.148069718841646     
  1.360000000000000E-002   -0.152215257123705     
  1.370000000000000E-002   -0.156376070161994     
  1.380000000000000E-002   -0.160550503539258     
  1.390000000000000E-002   -0.164736901678961     
  1.400000000000000E-002   -0.168933562624969     
  1.410000000000000E-002   -0.173138764266637     
  1.420000000000000E-002   -0.177350741828134     
  1.430000000000000E-002   -0.181567729891359     
  1.440000000000000E-002   -0.185787912803340     
  1.450000000000000E-002   -0.190009469563872     
  1.460000000000000E-002   -0.194230545814927     
  1.470000000000000E-002   -0.198449256588016     
  1.480000000000000E-002   -0.202663703827489     
  1.490000000000000E-002   -0.206871952120073     
  1.500000000000000E-002   -0.211072077971614     
  1.510000000000000E-002   -0.215262092745505     
  1.520000000000000E-002   -0.219440030508417     
  1.530000000000000E-002   -0.223603883722735     
  1.540000000000000E-002   -0.227751615707306     
  1.550000000000000E-002   -0.231881205192051     
  1.560000000000000E-002   -0.235990574090272     
  1.570000000000000E-002   -0.240077663634771     
  1.580000000000000E-002   -0.244140392526502     
  1.590000000000000E-002   -0.248176659663550     
  1.600000000000000E-002   -0.252184345075978     
  1.610000000000000E-002   -0.256161339691563     
  1.620000000000000E-002   -0.260105502444506     
  1.630000000000000E-002   -0.264014692242779     
  1.640000000000000E-002   -0.267886741943747     
  1.650000000000000E-002   -0.271719507696157     
  1.660000000000000E-002   -0.275510830615193     
  1.670000000000000E-002   -0.279258547404371     
  1.680000000000000E-002   -0.282960464527260     
  1.690000000000000E-002   -0.286614424059704     
  1.700000000000000E-002   -0.290218253563259     
  1.710000000000000E-002   -0.293769781318258     
  1.720000000000000E-002   -0.297266819165719     
  1.730000000000000E-002   -0.300707208357363     
  1.740000000000000E-002   -0.304088795111251     
  1.750000000000000E-002   -0.307409412149473     
  1.760000000000000E-002   -0.310666936472193     
  1.770000000000000E-002   -0.313859198824805     
  1.780000000000000E-002   -0.316984063235031     
  1.790000000000000E-002   -0.320039418971310     
  1.800000000000000E-002   -0.323023142307069     
  1.810000000000000E-002   -0.325933153727567     
  1.820000000000000E-002   -0.328767352324465     
  1.830000000000000E-002   -0.331523681432474     
  1.840000000000000E-002   -0.334200122514972     
  1.850000000000000E-002   -0.336794609939835     
  1.860000000000000E-002   -0.339305147310657     
  1.870000000000000E-002   -0.341729771161687     