 -4.000000000000000E-002    0.000000000000000E+000
 -3.990000000000000E-002    0.000000000000000E+000
 -3.980000000000000E-002    0.000000000000000E+000
 -3.970000000000000E-002    0.000000000000000E+000
 -3.960000000000000E-002    0.000000000000000E+000
 -3.950000000000000E-002    0.000000000000000E+000
 -3.940000000000000E-002    0.000000000000000E+000
 -3.930000000000000E-002    0.000000000000000E+000
 -3.920000000000000E-002   -2.569317048893558E-029
 -3.910000000000000E-002   -4.002097290067674E-028
 -3.900000000000000E-002   -3.337119322415995E-027
 -3.890000000000000E-002   -1.977896699426911E-026
 -3.880000000000000E-002   -9.330363071029943E-026
 -3.870000000000000E-002   -3.717954363371911E-025
 -3.860000000000000E-002   -1.296988046385337E-024
 -3.850000000000000E-002   -4.053942517522368E-024
 -3.840000000000000E-002   -1.153614225237497E-023
 -3.830000000000000E-002   -3.023145321537378E-023
 -3.820000000000000E-002   -7.357976564720840E-023
 -3.810000000000000E-002   -1.673963187980987E-022
 -3.800000000000000E-002   -3.577174863549232E-022
 -3.790000000000000E-002   -7.206460529843678E-022
 -3.780000000000000E-002   -1.372135529323038E-021
 -3.770000000000000E-002   -2.472877402317114E-021
 -3.760000000000000E-002   -4.219447882818618E-021
 -3.750000000000000E-002   -6.807932176839279E-021
 -3.740000000000000E-002   -1.035133271417720E-020
 -3.730000000000000E-002   -1.472896757367135E-020
 -3.720000000000000E-002   -1.934751833634367E-020
 -3.710000000000000E-002   -2.280285052690455E-020
 -3.700000000000000E-002   -2.245284454357778E-020
 -3.690000000000000E-002   -1.394731156810761E-020
 -3.680000000000000E-002    9.187728388464288E-021
 -3.670000000000000E-002    5.575055452314555E-020
 -3.660000000000000E-002    1.366201556312299E-019
 -3.650000000000000E-002    2.637825912047486E-019
 -3.640000000000000E-002    4.483159330639417E-019
 -3.630000000000000E-002    6.970557252089715E-019
 -3.620000000000000E-002    1.007781083248504E-018
 -3.610000000000000E-002    1.362990648860697E-018
 -3.600000000000000E-002    1.722684730682723E-018
 -3.590000000000000E-002    2.017027172724259E-018
 -3.580000000000000E-002    2.140289413699851E-018
 -3.570000000000000E-002    1.948001927833915E-018
 -3.560000000000000E-002    1.259645410059097E-018
 -3.550000000000000E-002   -1.306268648596405E-019
 -3.540000000000000E-002   -2.433000953012432E-018
 -3.530000000000000E-002   -5.829296214495601E-018
 -3.520000000000000E-002   -1.042852685009428E-017
 -3.510000000000000E-002   -1.621278379916355E-017
 -3.500000000000000E-002   -2.297807751330641E-017
 -3.490000000000000E-002   -3.027765890069988E-017
 -3.480000000000000E-002   -3.737803828932886E-017
 -3.470000000000000E-002   -4.323992554952584E-017
 -3.460000000000000E-002   -4.653695938253015E-017
 -3.450000000000000E-002   -4.572381630669917E-017
 -3.440000000000000E-002   -3.916142845263716E-017
 -3.430000000000000E-002   -2.530057062474784E-017
 -3.420000000000000E-002   -2.916010961096266E-018
 -3.410000000000000E-002    2.862758909964460E-017
 -3.400000000000000E-002    6.910822438216155E-017
 -3.390000000000000E-002    1.172182128651677E-016
 -3.380000000000000E-002    1.704224584674970E-016
 -3.370000000000000E-002    2.249518168642356E-016
 -3.360000000000000E-002    2.759733159564692E-016
 -3.350000000000000E-002    3.179626705278024E-016
 -3.340000000000000E-002    3.452785553389745E-016
 -3.330000000000000E-002    3.529035868493317E-016
 -3.320000000000000E-002    3.372773472823244E-016
 -3.310000000000000E-002    2.971067505936779E-016
 -3.300000000000000E-002    2.340058010790390E-016
 -3.290000000000000E-002    1.527970586478955E-016
 -3.280000000000000E-002    6.131115309563406E-017
 -3.270000000000000E-002   -3.044781903069883E-017
 -3.260000000000000E-002   -1.118386569086387E-016
 -3.250000000000000E-002   -1.737905217811256E-016
 -3.240000000000000E-002   -2.115267682839183E-016
 -3.230000000000000E-002   -2.275091122876466E-016
 -3.220000000000000E-002   -2.341688916886536E-016
 -3.210000000000000E-002   -2.558757754739772E-016
 -3.200000000000000E-002   -3.295303221394323E-016
 -3.190000000000000E-002   -5.031753385029143E-016
 -3.180000000000000E-002   -8.321240292161816E-016
 -3.170000000000000E-002   -1.372317564420387E-015
 -3.160000000000000E-002   -2.170937489128313E-015
 -3.150000000000000E-002   -3.254715639531365E-015
 -3.140000000000000E-002   -4.616848904493060E-015
 -3.130000000000000E-002   -6.203902762635467E-015
 -3.120000000000000E-002   -7.904520340809450E-015
 -3.110000000000000E-002   -9.542033677305210E-015
 -3.100000000000000E-002   -1.087317928286196E-014
 -3.090000000000000E-002   -1.159493861753320E-014
 -3.080000000000000E-002   -1.136107006645092E-014
 -3.070000000000000E-002   -9.809075161173097E-015
 -3.060000000000000E-002   -6.597265914422017E-015
 -3.050000000000000E-002   -1.450304291793096E-015
 -3.040000000000000E-002    5.789845940474717E-015
 -3.030000000000000E-002    1.511198410102340E-014
 -3.020000000000000E-002    2.628831892340313E-014
 -3.010000000000000E-002    3.883801956783254E-014
 -3.000000000000000E-002    5.200816876260188E-014
 -2.990000000000000E-002    6.477802337894446E-014
 -2.980000000000000E-002    7.589128890326290E-014
 -2.970000000000000E-002    8.391891911032310E-014
 -2.960000000000000E-002    8.735230090940847E-014
 -2.950000000000000E-002    8.472346770742747E-014
 -2.940000000000000E-002    7.474566732196315E-014
 -2.930000000000000E-002    5.646433166718482E-014
 -2.920000000000000E-002    2.940600081543141E-014
 -2.910000000000000E-002   -6.289130038461140E-015
 -2.900000000000000E-002   -4.976568626537528E-014
 -2.890000000000000E-002   -9.939641171696182E-014
 -2.880000000000000E-002   -1.527816544804274E-013
 -2.870000000000000E-002   -2.068123897954305E-013
 -2.860000000000000E-002   -2.577993326094981E-013
 -2.850000000000000E-002   -3.016645496367283E-013
 -2.840000000000000E-002   -3.341867225899091E-013
 -2.830000000000000E-002   -3.512846486666585E-013
 -2.820000000000000E-002   -3.493202965010061E-013
 -2.810000000000000E-002   -3.253986770925647E-013
 -2.800000000000000E-002   -2.776418111942691E-013
 -2.790000000000000E-002   -2.054148193579848E-013
 -2.780000000000000E-002   -1.094855428318006E-013
 -2.770000000000000E-002    7.895204521586527E-015
 -2.760000000000000E-002    1.429998078571095E-013
 -2.750000000000000E-002    2.907158008731341E-013
 -2.740000000000000E-002    4.447166435519834E-013
 -2.730000000000000E-002    5.976985551145333E-013
 -2.720000000000000E-002    7.416666885199153E-013
 -2.710000000000000E-002    8.682528287623199E-013
 -2.700000000000000E-002    9.690465772010210E-013
 -2.690000000000000E-002    1.035927446539244E-012
 -2.680000000000000E-002    1.061387819566057E-012
 -2.670000000000000E-002    1.038844670102899E-012
 -2.660000000000000E-002    9.629422074355158E-013
 -2.650000000000000E-002    8.298529599151494E-013
 -2.640000000000000E-002    6.375852854834845E-013
 -2.630000000000000E-002    3.863054336187634E-013
 -2.620000000000000E-002    7.867397943807123E-014
 -2.610000000000000E-002   -2.798102087256672E-013
 -2.600000000000000E-002   -6.804794320217690E-013
 -2.590000000000000E-002   -1.111215032409385E-012
 -2.580000000000000E-002   -1.556261236797578E-012
 -2.570000000000000E-002   -1.996195715329124E-012
 -2.560000000000000E-002   -2.408122709180550E-012
 -2.550000000000000E-002   -2.766153485122753E-012
 -2.540000000000000E-002   -3.042231583492178E-012
 -2.530000000000000E-002   -3.207337367834422E-012
 -2.520000000000000E-002   -3.233080321244146E-012
 -2.510000000000000E-002   -3.093649110075111E-012
 -2.500000000000000E-002   -2.768041338676360E-012
 -2.490000000000000E-002   -2.242458022897505E-012
 -2.480000000000000E-002   -1.512693837975611E-012
 -2.470000000000000E-002   -5.863255497473175E-013
 -2.460000000000000E-002    5.155299398815628E-013
 -2.450000000000000E-002    1.757115703701554E-012
 -2.440000000000000E-002    3.087814712812064E-012
 -2.430000000000000E-002    4.442989224592007E-012
 -2.420000000000000E-002    5.746004173064395E-012
 -2.410000000000000E-002    6.911475620126757E-012
 -2.400000000000000E-002    7.849689792715325E-012
 -2.390000000000000E-002    8.472036667434533E-012
 -2.380000000000000E-002    8.697188171281910E-012
 -2.370000000000000E-002    8.457658802633824E-012
 -2.360000000000000E-002    7.706295763845053E-012
 -2.350000000000000E-002    6.422205645274703E-012
 -2.340000000000000E-002    4.615594326572864E-012
 -2.330000000000000E-002    2.331019406554685E-012
 -2.320000000000000E-002   -3.513710262528416E-013
 -2.310000000000000E-002   -3.316943763274844E-012
 -2.300000000000000E-002   -6.420205225132966E-012
 -2.290000000000000E-002   -9.490958468405845E-012
 -2.280000000000000E-002   -1.234279670007346E-011
 -2.270000000000000E-002   -1.478356004605689E-011
 -2.260000000000000E-002   -1.662719637479740E-011
 -2.250000000000000E-002   -1.770629944282805E-011
 -2.240000000000000E-002   -1.788451088461887E-011
 -2.230000000000000E-002   -1.706789594323018E-011
 -2.220000000000000E-002   -1.521443357694256E-011
 -2.210000000000000E-002   -1.234082191498315E-011
 -2.200000000000000E-002   -8.525945553351560E-012
 -2.190000000000000E-002   -3.910581847907820E-012
 -2.180000000000000E-002    1.306879311047974E-012
 -2.170000000000000E-002    6.878614477118517E-012
 -2.160000000000000E-002    1.251908285402465E-011
 -2.150000000000000E-002    1.791966026749045E-011
 -2.140000000000000E-002    2.276534650592793E-011
 -2.130000000000000E-002    2.675251759274044E-011
 -2.120000000000000E-002    2.960661610781064E-011
 -2.110000000000000E-002    3.109867123218769E-011
 -2.100000000000000E-002    3.105957172409246E-011
 -2.090000000000000E-002    2.939124875019756E-011
 -2.080000000000000E-002    2.607408359514307E-011
 -2.070000000000000E-002    2.117017037061668E-011
 -2.060000000000000E-002    1.482233638486146E-011
 -2.050000000000000E-002    7.249143697094384E-012
 -2.040000000000000E-002   -1.263660687689307E-012
 -2.030000000000000E-002   -1.037459098088101E-011
 -2.020000000000000E-002   -1.969995231348390E-011
 -2.010000000000000E-002   -2.882863415582575E-011
 -2.000000000000000E-002   -3.733739181933232E-011
 -1.990000000000000E-002   -4.480596178290777E-011
 -1.980000000000000E-002   -5.083158441285855E-011
 -1.970000000000000E-002   -5.504266618679624E-011
 -1.960000000000000E-002   -5.711163889751024E-011
 -1.950000000000000E-002   -5.676710168928466E-011
 -1.940000000000000E-002   -5.380560342975797E-011
 -1.930000000000000E-002   -4.810332704958699E-011
 -1.920000000000000E-002   -3.962779978024483E-011
 -1.910000000000000E-002   -2.844965613727379E-011
 -1.900000000000000E-002   -1.475399619003050E-011
 -1.890000000000000E-002    1.149345681135420E-012
 -1.880000000000000E-002    1.881790757332864E-011
 -1.870000000000000E-002    3.767252673402659E-011
 -1.860000000000000E-002    5.699897303820650E-011
 -1.850000000000000E-002    7.595716565627752E-011
 -1.840000000000000E-002    9.359973401689132E-011
 -1.830000000000000E-002    1.089013484217329E-010
 -1.820000000000000E-002    1.207994823948122E-010
 -1.810000000000000E-002    1.282465133768111E-010
 -1.800000000000000E-002    1.302717957531787E-010
 -1.790000000000000E-002    1.260512636539446E-010
 -1.780000000000000E-002    1.149808197489269E-010
 -1.770000000000000E-002    9.674859316530365E-011
 -1.760000000000000E-002    7.140046509692213E-011
 -1.750000000000000E-002    3.939253750483861E-011
 -1.740000000000000E-002    1.624452868996920E-012
 -1.730000000000000E-002   -4.055209220864197E-011
 -1.720000000000000E-002   -8.535421834732388E-011
 -1.710000000000000E-002   -1.306207981351266E-010
 -1.700000000000000E-002   -1.738981101414334E-010
 -1.690000000000000E-002   -2.125563318326667E-010
 -1.680000000000000E-002   -2.439322482037073E-010
 -1.670000000000000E-002   -2.654910955181678E-010
 -1.660000000000000E-002   -2.749980755903657E-010
 -1.650000000000000E-002   -2.706883822121241E-010
 -1.640000000000000E-002   -2.514237392846656E-010
 -1.630000000000000E-002   -2.168229642324667E-010
 -1.620000000000000E-002   -1.673554929000851E-010
 -1.610000000000000E-002   -1.043882646950071E-010
 -1.600000000000000E-002   -3.017916436706277E-011
 -1.590000000000000E-002    5.218613197083578E-011
 -1.580000000000000E-002    1.389135317874556E-010
 -1.570000000000000E-002    2.256713677544884E-010
 -1.560000000000000E-002    3.078044477730456E-010
 -1.550000000000000E-002    3.805794667942903E-010
 -1.540000000000000E-002    4.394477438964750E-010
 -1.530000000000000E-002    4.803096442831824E-010
 -1.520000000000000E-002    4.997647105649669E-010
 -1.510000000000000E-002    4.953327879182608E-010
 -1.500000000000000E-002    4.656334294866629E-010
 -1.490000000000000E-002    4.105132131043554E-010
 -1.480000000000000E-002    3.311153245679507E-010
 -1.470000000000000E-002    2.298886842919073E-010
 -1.460000000000000E-002    1.105378085584987E-010
 -1.450000000000000E-002   -2.208191921546284E-011
 -1.440000000000000E-002   -1.621165615656809E-010
 -1.430000000000000E-002   -3.029054745176002E-010
 -1.420000000000000E-002   -4.372039600740917E-010
 -1.410000000000000E-002   -5.574287209721323E-010
 -1.400000000000000E-002   -6.559197640856861E-010
 -1.390000000000000E-002   -7.252146162922553E-010
 -1.380000000000000E-002   -7.583326885049340E-010
 -1.370000000000000E-002   -7.490692978405857E-010
 -1.360000000000000E-002   -6.923001655680559E-010
 -1.350000000000000E-002   -5.842969046856263E-010
 -1.340000000000000E-002   -4.230522321273377E-010
 -1.330000000000000E-002   -2.086105917493770E-010
 -1.320000000000000E-002    5.660410031726229E-011
 -1.310000000000000E-002    3.674787774325270E-010
 -1.300000000000000E-002    7.159382102223016E-010
 -1.290000000000000E-002    1.090736383354565E-009
 -1.280000000000000E-002    1.477341303924855E-009
 -1.270000000000000E-002    1.857947992812867E-009
 -1.260000000000000E-002    2.211652613859237E-009
 -1.250000000000000E-002    2.514819379052970E-009
 -1.240000000000000E-002    2.741664056135809E-009
 -1.230000000000000E-002    2.865070715871821E-009
 -1.220000000000000E-002    2.857640257885721E-009
 -1.210000000000000E-002    2.692960942405420E-009
 -1.200000000000000E-002    2.347066727503360E-009
 -1.190000000000000E-002    1.800036296333096E-009
 -1.180000000000000E-002    1.037666453110676E-009
 -1.170000000000000E-002    5.314131568217668E-011
 -1.160000000000000E-002   -1.151395204872512E-009
 -1.150000000000000E-002   -2.563457537549840E-009
 -1.140000000000000E-002   -4.159124993142609E-009
 -1.130000000000000E-002   -5.902330521218627E-009
 -1.120000000000000E-002   -7.744609233812216E-009
 -1.110000000000000E-002   -9.625373500081051E-009
 -1.100000000000000E-002   -1.147275321054644E-008
 -1.090000000000000E-002   -1.320502955916046E-008
 -1.080000000000000E-002   -1.473265058819447E-008
 -1.070000000000000E-002   -1.596079933239299E-008
 -1.060000000000000E-002   -1.679246415761066E-008
 -1.050000000000000E-002   -1.713193262983639E-008
 -1.040000000000000E-002   -1.688862513101638E-008
 -1.030000000000000E-002   -1.598115522893146E-008
 -1.020000000000000E-002   -1.434151350901787E-008
 -1.010000000000000E-002   -1.191925819964550E-008
 -1.000000000000000E-002   -8.685599089569271E-009
 -9.899999999999999E-003   -4.637261411388697E-009
 -9.800000000000000E-003    1.999711359309699E-010
 -9.699999999999999E-003    5.768128191866069E-009
 -9.599999999999999E-003    1.197444458834800E-008
 -9.500000000000000E-003    1.868933126813530E-008
 -9.399999999999999E-003    2.574502707758091E-008
 -9.299999999999999E-003    3.293496413526407E-008
 -9.200000000000000E-003    4.001392782500787E-008
 -9.099999999999999E-003    4.669904481105945E-008
 -8.999999999999999E-003    5.267162730087516E-008
 -8.900000000000000E-003    5.757987129836323E-008
 -8.799999999999999E-003    6.104241810874548E-008
 -8.699999999999999E-003    6.265271909915959E-008
 -8.600000000000000E-003    6.198413805467712E-008
 -8.499999999999999E-003    5.859567159076971E-008
 -8.399999999999999E-003    5.203817403648667E-008
 -8.300000000000000E-003    4.186086936982188E-008
 -8.199999999999999E-003    2.761799934152666E-008
 -8.100000000000000E-003    8.875328191840135E-009
 -8.000000000000000E-003   -1.478370807166634E-008
 -7.899999999999999E-003   -4.375245379577241E-008
 -7.800000000000000E-003   -7.839633994432315E-008
 -7.699999999999999E-003   -1.190492634082315E-007
 -7.599999999999999E-003   -1.660110642872844E-007
 -7.499999999999999E-003   -2.195466187447758E-007
 -7.399999999999999E-003   -2.798860306393714E-007
 -7.299999999999999E-003   -3.472265337988931E-007
 -7.199999999999999E-003   -4.217356438871660E-007
 -7.100000000000000E-003   -5.035556613806476E-007
 -6.999999999999999E-003   -5.928091638549679E-007
 -6.899999999999999E-003   -6.896055280124627E-007
 -6.800000000000000E-003   -7.940482487355109E-007
 -6.699999999999999E-003   -9.062425266192527E-007
 -6.599999999999999E-003   -1.026302957074194E-006
 -6.499999999999999E-003   -1.154361762382692E-006
 -6.399999999999999E-003   -1.290576043483334E-006
 -6.299999999999999E-003   -1.435135190858379E-006
 -6.199999999999999E-003   -1.588267720187163E-006
 -6.100000000000000E-003   -1.750247264023257E-006
 -5.999999999999999E-003   -1.921397988715096E-006
 -5.899999999999999E-003   -2.102099477153852E-006
 -5.800000000000000E-003   -2.292790745720486E-006
 -5.699999999999999E-003   -2.493973359690373E-006
 -5.599999999999999E-003   -2.706214303898048E-006
 -5.499999999999999E-003   -2.930147884771101E-006
 -5.399999999999999E-003   -3.166476962491583E-006
 -5.299999999999999E-003   -3.415973882231381E-006
 -5.199999999999999E-003   -3.679479857197177E-006
 -5.099999999999999E-003   -3.957905333897841E-006
 -4.999999999999999E-003   -4.252228502975367E-006
 -4.899999999999999E-003   -4.563493999509285E-006
 -4.799999999999999E-003   -4.892811486561622E-006
 -4.699999999999999E-003   -5.241352990413185E-006
 -4.599999999999999E-003   -5.610352388746390E-006
 -4.499999999999999E-003   -6.001103075006148E-006
 -4.399999999999999E-003   -6.414956731412498E-006
 -4.299999999999999E-003   -6.853323224121302E-006
 -4.199999999999999E-003   -7.317672461704707E-006
 -4.099999999999999E-003   -7.809533951184397E-006
 -3.999999999999999E-003   -8.330501994681605E-006
 -3.899999999999999E-003   -8.882239207286121E-006
 -3.799999999999999E-003   -9.466482130815701E-006
 -3.699999999999999E-003   -1.008504910024768E-005
 -3.599999999999999E-003   -1.073984750509029E-005
 -3.499999999999999E-003   -1.143288354101150E-005
 -3.399999999999999E-003   -1.216627083515225E-005
 -3.299999999999999E-003   -1.294224039192793E-005
 -3.199999999999999E-003   -1.376314967110577E-005
 -3.099999999999999E-003   -1.463148958531658E-005
 -2.999999999999999E-003   -1.554989498247981E-005
 -2.899999999999999E-003   -1.652114868524510E-005
 -2.799999999999999E-003   -1.754818568924515E-005
 -2.699999999999999E-003   -1.863409942557558E-005
 -2.599999999999999E-003   -1.978214250145492E-005
 -2.499999999999999E-003   -2.099572918992915E-005
 -2.399999999999999E-003   -2.227843256288311E-005
 -2.299999999999999E-003   -2.363399120985279E-005
 -2.199999999999999E-003   -2.506630651948333E-005
 -2.099999999999999E-003   -2.657944549870971E-005
 -1.999999999999999E-003   -2.817764192353178E-005
 -1.899999999999999E-003   -2.986530290250364E-005
 -1.799999999999999E-003   -3.164701662404782E-005
 -1.699999999999999E-003   -3.352755499917290E-005
 -1.599999999999999E-003   -3.551188910890393E-005
 -1.499999999999999E-003   -3.760519190443788E-005
 -1.399999999999999E-003   -3.981285870851334E-005
 -1.299999999999999E-003   -4.214051878731915E-005
 -1.199999999999999E-003   -4.459404913351047E-005
 -1.099999999999999E-003   -4.717958966439750E-005
 -9.999999999999989E-004   -4.990355403069456E-005
 -8.999999999999990E-004   -5.277264826536045E-005
 -7.999999999999990E-004   -5.579388449055981E-005
 -6.999999999999989E-004   -5.897459250917485E-005
 -5.999999999999990E-004   -6.232242742900135E-005
 -4.999999999999989E-004   -6.584538537705194E-005
 -3.999999999999989E-004   -6.955182508606129E-005
 -2.999999999999989E-004   -7.345046771221569E-005
 -1.999999999999989E-004   -7.755041253502701E-005
 -9.999999999999892E-005   -8.186115294746759E-005
  1.084202172485504E-018   -8.639259053799038E-005
  1.000000000000011E-004   -9.115505815978507E-005
  2.000000000000011E-004   -9.615932448220274E-005
  3.000000000000011E-004   -1.014166285105974E-004
  4.000000000000011E-004   -1.069386911542747E-004
  5.000000000000011E-004   -1.127377408876262E-004
  6.000000000000011E-004   -1.188265328765326E-004
  7.000000000000011E-004   -1.252183800279202E-004
  8.000000000000011E-004   -1.319271551715384E-004
  9.000000000000012E-004   -1.389673248438692E-004
  1.000000000000001E-003   -1.463539685920310E-004
  1.100000000000001E-003   -1.541027931318200E-004
  1.200000000000001E-003   -1.622301445717720E-004
  1.300000000000001E-003   -1.707530245284438E-004
  1.400000000000001E-003   -1.796890722340703E-004
  1.500000000000001E-003   -1.890566289321599E-004
  1.600000000000001E-003   -1.988746871510980E-004
  1.700000000000001E-003   -2.091629463615386E-004
  1.800000000000001E-003   -2.199417692975769E-004
  1.900000000000001E-003   -2.312322360840184E-004
  2.000000000000001E-003   -2.430561439209414E-004
  2.100000000000001E-003   -2.554360084639284E-004
  2.200000000000001E-003   -2.683950979680823E-004
  2.300000000000001E-003   -2.819574083071781E-004
  2.400000000000001E-003   -2.961477762260641E-004
  2.500000000000001E-003   -3.109917908634701E-004
  2.600000000000001E-003   -3.265159416970333E-004
  2.700000000000001E-003   -3.427475543989066E-004
  2.800000000000001E-003   -3.597149040313481E-004
  2.900000000000001E-003   -3.774472178904160E-004
  3.000000000000001E-003   -3.959746396288170E-004
  3.100000000000001E-003   -4.153284181024536E-004
  3.200000000000001E-003   -4.355407935424786E-004
  3.300000000000001E-003   -4.566451647023552E-004
  3.400000000000001E-003   -4.786760213277571E-004
  3.500000000000001E-003   -5.016689891965707E-004
  3.600000000000001E-003   -5.256609634108592E-004
  3.700000000000001E-003   -5.506900026270242E-004
  3.800000000000001E-003   -5.767954007528803E-004
  3.900000000000001E-003   -6.040177445244587E-004
  4.000000000000001E-003   -6.323988905848320E-004
  4.100000000000001E-003   -6.619820210138911E-004
  4.200000000000001E-003   -6.928115813205045E-004
  4.300000000000001E-003   -7.249334946450622E-004
  4.400000000000001E-003   -7.583949215195505E-004
  4.500000000000001E-003   -7.932444934033477E-004
  4.600000000000002E-003   -8.295320884725189E-004
  4.700000000000001E-003   -8.673091340696850E-004
  4.800000000000001E-003   -9.066282663002065E-004
  4.900000000000002E-003   -9.475436808318160E-004
  5.000000000000001E-003   -9.901109415983399E-004
  5.100000000000001E-003   -1.034386963886207E-003
  5.200000000000001E-003   -1.080430190068397E-003
  5.300000000000002E-003   -1.128300358647264E-003
  5.400000000000001E-003   -1.178058804601057E-003
  5.500000000000001E-003   -1.229768279065779E-003
  5.600000000000002E-003   -1.283492980655019E-003
  5.700000000000001E-003   -1.339298665968750E-003
  5.800000000000001E-003   -1.397252425751660E-003
  5.900000000000002E-003   -1.457422929513757E-003
  6.000000000000001E-003   -1.519880523530911E-003
  6.100000000000001E-003   -1.584696975047619E-003
  6.200000000000002E-003   -1.651945702636449E-003
  6.300000000000002E-003   -1.721701876228435E-003
  6.400000000000001E-003   -1.794042094984130E-003
  6.500000000000001E-003   -1.869044567541780E-003
  6.600000000000002E-003   -1.946789519587279E-003
  6.700000000000001E-003   -2.027358430917713E-003
  6.800000000000001E-003   -2.110834925587610E-003
  6.900000000000002E-003   -2.197303887130477E-003
  7.000000000000001E-003   -2.286852009447215E-003
  7.100000000000001E-003   -2.379567725706017E-003
  7.200000000000002E-003   -2.475540892402939E-003
  7.300000000000002E-003   -2.574863170185325E-003
  7.400000000000001E-003   -2.677627671891299E-003
  7.500000000000001E-003   -2.783929145351088E-003
  7.600000000000002E-003   -2.893863770243886E-003
  7.700000000000001E-003   -3.007529233073724E-003
  7.800000000000001E-003   -3.125024431489924E-003
  7.900000000000001E-003   -3.246449779088674E-003
  8.000000000000002E-003   -3.371906890289410E-003
  8.100000000000001E-003   -3.501498990580241E-003
  8.200000000000001E-003   -3.635329902439930E-003
  8.300000000000002E-003   -3.773504874319520E-003
  8.400000000000001E-003   -3.916130536909949E-003
  8.500000000000002E-003   -4.063314222087597E-003
  8.600000000000002E-003   -4.215164154418864E-003
  8.700000000000001E-003   -4.371789901337571E-003
  8.800000000000002E-003   -4.533301888040248E-003
  8.900000000000002E-003   -4.699811307087307E-003
  9.000000000000001E-003   -4.871429804755859E-003
  9.100000000000002E-003   -5.048269464961928E-003
  9.200000000000002E-003   -5.230444112796994E-003
  9.300000000000001E-003   -5.418067163588748E-003
  9.400000000000002E-003   -5.611252888797264E-003
  9.500000000000001E-003   -5.810115648265612E-003
  9.600000000000001E-003   -6.014770719242734E-003
  9.700000000000002E-003   -6.225333091692549E-003
  9.800000000000001E-003   -6.441918069740584E-003
  9.900000000000001E-003   -6.664640558197025E-003
  1.000000000000000E-002   -6.893615914657343E-003
  1.010000000000000E-002   -7.128959011118559E-003
  1.020000000000000E-002   -7.370784023618765E-003
  1.030000000000000E-002   -7.619205418759098E-003
  1.040000000000000E-002   -7.874336716352041E-003
  1.050000000000000E-002   -8.136289788313157E-003
  1.060000000000000E-002   -8.405177627382793E-003
  1.070000000000000E-002   -8.681109559138690E-003
  1.080000000000000E-002   -8.964195940432117E-003
  1.090000000000000E-002   -9.254544341483522E-003
  1.100000000000000E-002   -9.552261103647224E-003
  1.110000000000000E-002   -9.857449861828125E-003
  1.120000000000000E-002   -1.017021417867475E-002
  1.130000000000000E-002   -1.049065281640847E-002
  1.140000000000000E-002   -1.081886421244061E-002
  1.150000000000000E-002   -1.115494308280234E-002
  1.160000000000000E-002   -1.149898170618323E-002
  1.170000000000000E-002   -1.185106904590140E-002
  1.180000000000000E-002   -1.221129156857521E-002
  1.190000000000000E-002   -1.257973158123379E-002
  1.200000000000000E-002   -1.295646726219700E-002
  1.210000000000000E-002   -1.334157373907162E-002
  1.220000000000000E-002   -1.373512188172618E-002
  1.230000000000000E-002   -1.413717966499985E-002
  1.240000000000000E-002   -1.454780893817917E-002
  1.250000000000000E-002   -1.496706776974981E-002
  1.260000000000000E-002   -1.539500893409069E-002
  1.270000000000000E-002   -1.583168143429767E-002
  1.280000000000000E-002   -1.627712842216742E-002
  1.290000000000000E-002   -1.673138616030749E-002
  1.300000000000000E-002   -1.719448826923036E-002
  1.310000000000000E-002   -1.766645894060412E-002
  1.320000000000000E-002   -1.814731742312559E-002
  1.330000000000000E-002   -1.863707679108547E-002
  1.340000000000000E-002   -1.913574376933149E-002
  1.350000000000000E-002   -1.964331824882337E-002
  1.360000000000000E-002   -2.015979061690728E-002
  1.370000000000000E-002   -2.068514537135950E-002
  1.380000000000000E-002   -2.121935960171063E-002
  1.390000000000000E-002   -2.176240105819988E-002
  1.400000000000000E-002   -2.231422821541135E-002
  1.410000000000000E-002   -2.287479330927310E-002
  1.420000000000000E-002   -2.344403609604000E-002
  1.430000000000000E-002   -2.402189193093927E-002
  1.440000000000000E-002   -2.460828391784968E-002
  1.450000000000000E-002   -2.520312425901002E-002
  1.460000000000000E-002   -2.580631862226007E-002
  1.470000000000000E-002   -2.641775979283547E-002
  1.480000000000000E-002   -2.703733213651460E-002
  1.490000000000000E-002   -2.766490782176400E-002
  1.500000000000000E-002   -2.830034955442131E-002
  1.510000000000000E-002   -2.894350750368420E-002
  1.520000000000000E-002   -2.959422103386888E-002
  1.530000000000000E-002   -3.025231949323924E-002
  1.540000000000000E-002   -3.091761649690598E-002
  1.550000000000000E-002   -3.158991991790265E-002
  1.560000000000000E-002   -3.226901848546580E-002
  1.570000000000000E-002   -3.295469419284197E-002
  1.580000000000000E-002   -3.364671392601849E-002
  1.590000000000000E-002   -3.434483439892692E-002
  1.600000000000000E-002   -3.504879926505849E-002
  1.610000000000000E-002   -3.575833582220225E-002
  1.620000000000000E-002   -3.647316100754786E-002
  1.630000000000000E-002   -3.719297841112470E-002
  1.640000000000000E-002   -3.791748068851916E-002
  1.650000000000000E-002   -3.864634429986789E-002
  1.660000000000000E-002   -3.937923316806745E-002
  1.670000000000000E-002   -4.011579761809014E-002
  1.680000000000000E-002   -4.085567450741098E-002
  1.690000000000000E-002   -4.159848937974704E-002
  1.700000000000000E-002   -4.234384785376176E-002
  1.710000000000000E-002   -4.309135070743644E-002
  1.720000000000000E-002   -4.384057572531084E-002
  1.730000000000000E-002   -4.459109235819587E-002
  1.740000000000000E-002   -4.534245725498903E-002
  1.750000000000000E-002   -4.609421071314691E-002
  1.760000000000000E-002   -4.684587944189897E-002
  1.770000000000000E-002   -4.759697707793477E-002
  1.780000000000000E-002   -4.834700284213849E-002
  1.790000000000000E-002   -4.909544025887243E-002
  1.800000000000000E-002   -4.984176371473494E-002
  1.810000000000000E-002   -5.058543609692020E-002
  1.820000000000000E-002   -5.132590304269041E-002
  1.830000000000000E-002   -5.206259692916817E-002
  1.840000000000000E-002   -5.279493756210453E-002
  1.850000000000000E-002   -5.352233696972926E-002
  1.860000000000000E-002   -5.424419208316415E-002
  1.870000000000000E-002   -5.495988959832889E-002