 -4.000000000000000E-002    0.000000000000000E+000
 -3.990000000000000E-002    0.000000000000000E+000
 -3.980000000000000E-002    0.000000000000000E+000
 -3.970000000000000E-002    0.000000000000000E+000
 -3.960000000000000E-002    0.000000000000000E+000
 -3.950000000000000E-002    0.000000000000000E+000
 -3.940000000000000E-002    0.000000000000000E+000
 -3.930000000000000E-002    0.000000000000000E+000
 -3.920000000000000E-002    0.000000000000000E+000
 -3.910000000000000E-002    0.000000000000000E+000
 -3.900000000000000E-002    0.000000000000000E+000
 -3.890000000000000E-002    0.000000000000000E+000
 -3.880000000000000E-002    0.000000000000000E+000
 -3.870000000000000E-002    0.000000000000000E+000
 -3.860000000000000E-002    0.000000000000000E+000
 -3.850000000000000E-002    0.000000000000000E+000
 -3.840000000000000E-002    0.000000000000000E+000
 -3.830000000000000E-002    0.000000000000000E+000
 -3.820000000000000E-002    0.000000000000000E+000
 -3.810000000000000E-002    0.000000000000000E+000
 -3.800000000000000E-002    0.000000000000000E+000
 -3.790000000000000E-002    0.000000000000000E+000
 -3.780000000000000E-002    0.000000000000000E+000
 -3.770000000000000E-002    0.000000000000000E+000
 -3.760000000000000E-002    0.000000000000000E+000
 -3.750000000000000E-002    0.000000000000000E+000
 -3.740000000000000E-002    0.000000000000000E+000
 -3.730000000000000E-002    0.000000000000000E+000
 -3.720000000000000E-002    0.000000000000000E+000
 -3.710000000000000E-002    0.000000000000000E+000
 -3.700000000000000E-002    0.000000000000000E+000
 -3.690000000000000E-002    0.000000000000000E+000
 -3.680000000000000E-002    0.000000000000000E+000
 -3.670000000000000E-002    0.000000000000000E+000
 -3.660000000000000E-002    0.000000000000000E+000
 -3.650000000000000E-002    0.000000000000000E+000
 -3.640000000000000E-002    0.000000000000000E+000
 -3.630000000000000E-002    0.000000000000000E+000
 -3.620000000000000E-002    0.000000000000000E+000
 -3.610000000000000E-002    0.000000000000000E+000
 -3.600000000000000E-002    0.000000000000000E+000
 -3.590000000000000E-002    0.000000000000000E+000
 -3.580000000000000E-002    0.000000000000000E+000
 -3.570000000000000E-002    0.000000000000000E+000
 -3.560000000000000E-002    0.000000000000000E+000
 -3.550000000000000E-002    0.000000000000000E+000
 -3.540000000000000E-002    0.000000000000000E+000
 -3.530000000000000E-002    0.000000000000000E+000
 -3.520000000000000E-002    0.000000000000000E+000
 -3.510000000000000E-002    0.000000000000000E+000
 -3.500000000000000E-002    0.000000000000000E+000
 -3.490000000000000E-002    0.000000000000000E+000
 -3.480000000000000E-002    0.000000000000000E+000
 -3.470000000000000E-002    0.000000000000000E+000
 -3.460000000000000E-002    0.000000000000000E+000
 -3.450000000000000E-002    0.000000000000000E+000
 -3.440000000000000E-002    0.000000000000000E+000
 -3.430000000000000E-002    0.000000000000000E+000
 -3.420000000000000E-002    0.000000000000000E+000
 -3.410000000000000E-002    0.000000000000000E+000
 -3.400000000000000E-002    0.000000000000000E+000
 -3.390000000000000E-002    0.000000000000000E+000
 -3.380000000000000E-002    0.000000000000000E+000
 -3.370000000000000E-002    0.000000000000000E+000
 -3.360000000000000E-002    0.000000000000000E+000
 -3.350000000000000E-002    0.000000000000000E+000
 -3.340000000000000E-002    0.000000000000000E+000
 -3.330000000000000E-002    0.000000000000000E+000
 -3.320000000000000E-002    0.000000000000000E+000
 -3.310000000000000E-002    0.000000000000000E+000
 -3.300000000000000E-002    0.000000000000000E+000
 -3.290000000000000E-002    0.000000000000000E+000
 -3.280000000000000E-002    0.000000000000000E+000
 -3.270000000000000E-002    0.000000000000000E+000
 -3.260000000000000E-002    0.000000000000000E+000
 -3.250000000000000E-002    0.000000000000000E+000
 -3.240000000000000E-002    0.000000000000000E+000
 -3.230000000000000E-002    0.000000000000000E+000
 -3.220000000000000E-002    0.000000000000000E+000
 -3.210000000000000E-002    0.000000000000000E+000
 -3.200000000000000E-002    0.000000000000000E+000
 -3.190000000000000E-002    0.000000000000000E+000
 -3.180000000000000E-002    0.000000000000000E+000
 -3.170000000000000E-002    0.000000000000000E+000
 -3.160000000000000E-002    0.000000000000000E+000
 -3.150000000000000E-002    0.000000000000000E+000
 -3.140000000000000E-002    0.000000000000000E+000
 -3.130000000000000E-002    0.000000000000000E+000
 -3.120000000000000E-002    0.000000000000000E+000
 -3.110000000000000E-002    0.000000000000000E+000
 -3.100000000000000E-002    0.000000000000000E+000
 -3.090000000000000E-002    0.000000000000000E+000
 -3.080000000000000E-002    0.000000000000000E+000
 -3.070000000000000E-002    0.000000000000000E+000
 -3.060000000000000E-002    0.000000000000000E+000
 -3.050000000000000E-002    0.000000000000000E+000
 -3.040000000000000E-002    0.000000000000000E+000
 -3.030000000000000E-002    0.000000000000000E+000
 -3.020000000000000E-002    0.000000000000000E+000
 -3.010000000000000E-002    0.000000000000000E+000
 -3.000000000000000E-002    0.000000000000000E+000
 -2.990000000000000E-002    0.000000000000000E+000
 -2.980000000000000E-002    0.000000000000000E+000
 -2.970000000000000E-002    0.000000000000000E+000
 -2.960000000000000E-002    0.000000000000000E+000
 -2.950000000000000E-002    0.000000000000000E+000
 -2.940000000000000E-002    0.000000000000000E+000
 -2.930000000000000E-002    0.000000000000000E+000
 -2.920000000000000E-002    0.000000000000000E+000
 -2.910000000000000E-002    0.000000000000000E+000
 -2.900000000000000E-002    0.000000000000000E+000
 -2.890000000000000E-002    0.000000000000000E+000
 -2.880000000000000E-002    0.000000000000000E+000
 -2.870000000000000E-002    0.000000000000000E+000
 -2.860000000000000E-002    0.000000000000000E+000
 -2.850000000000000E-002    0.000000000000000E+000
 -2.840000000000000E-002    0.000000000000000E+000
 -2.830000000000000E-002    0.000000000000000E+000
 -2.820000000000000E-002    0.000000000000000E+000
 -2.810000000000000E-002    0.000000000000000E+000
 -2.800000000000000E-002    0.000000000000000E+000
 -2.790000000000000E-002    0.000000000000000E+000
 -2.780000000000000E-002    0.000000000000000E+000
 -2.770000000000000E-002    0.000000000000000E+000
 -2.760000000000000E-002    0.000000000000000E+000
 -2.750000000000000E-002    0.000000000000000E+000
 -2.740000000000000E-002    0.000000000000000E+000
 -2.730000000000000E-002    0.000000000000000E+000
 -2.720000000000000E-002    0.000000000000000E+000
 -2.710000000000000E-002    0.000000000000000E+000
 -2.700000000000000E-002    0.000000000000000E+000
 -2.690000000000000E-002    0.000000000000000E+000
 -2.680000000000000E-002    0.000000000000000E+000
 -2.670000000000000E-002    0.000000000000000E+000
 -2.660000000000000E-002    0.000000000000000E+000
 -2.650000000000000E-002    0.000000000000000E+000
 -2.640000000000000E-002    0.000000000000000E+000
 -2.630000000000000E-002    0.000000000000000E+000
 -2.620000000000000E-002    0.000000000000000E+000
 -2.610000000000000E-002    0.000000000000000E+000
 -2.600000000000000E-002    0.000000000000000E+000
 -2.590000000000000E-002    0.000000000000000E+000
 -2.580000000000000E-002    0.000000000000000E+000
 -2.570000000000000E-002    0.000000000000000E+000
 -2.560000000000000E-002    0.000000000000000E+000
 -2.550000000000000E-002    0.000000000000000E+000
 -2.540000000000000E-002    0.000000000000000E+000
 -2.530000000000000E-002    0.000000000000000E+000
 -2.520000000000000E-002    0.000000000000000E+000
 -2.510000000000000E-002    0.000000000000000E+000
 -2.500000000000000E-002    0.000000000000000E+000
 -2.490000000000000E-002    0.000000000000000E+000
 -2.480000000000000E-002    0.000000000000000E+000
 -2.470000000000000E-002    0.000000000000000E+000
 -2.460000000000000E-002    0.000000000000000E+000
 -2.450000000000000E-002    0.000000000000000E+000
 -2.440000000000000E-002    0.000000000000000E+000
 -2.430000000000000E-002    0.000000000000000E+000
 -2.420000000000000E-002    0.000000000000000E+000
 -2.410000000000000E-002    0.000000000000000E+000
 -2.400000000000000E-002    0.000000000000000E+000
 -2.390000000000000E-002    0.000000000000000E+000
 -2.380000000000000E-002    0.000000000000000E+000
 -2.370000000000000E-002    0.000000000000000E+000
 -2.360000000000000E-002    0.000000000000000E+000
 -2.350000000000000E-002    0.000000000000000E+000
 -2.340000000000000E-002    0.000000000000000E+000
 -2.330000000000000E-002    0.000000000000000E+000
 -2.320000000000000E-002    0.000000000000000E+000
 -2.310000000000000E-002    0.000000000000000E+000
 -2.300000000000000E-002    0.000000000000000E+000
 -2.290000000000000E-002    0.000000000000000E+000
 -2.280000000000000E-002    0.000000000000000E+000
 -2.270000000000000E-002    0.000000000000000E+000
 -2.260000000000000E-002    0.000000000000000E+000
 -2.250000000000000E-002    0.000000000000000E+000
 -2.240000000000000E-002    0.000000000000000E+000
 -2.230000000000000E-002    0.000000000000000E+000
 -2.220000000000000E-002    0.000000000000000E+000
 -2.210000000000000E-002    0.000000000000000E+000
 -2.200000000000000E-002    0.000000000000000E+000
 -2.190000000000000E-002    0.000000000000000E+000
 -2.180000000000000E-002    0.000000000000000E+000
 -2.170000000000000E-002    0.000000000000000E+000
 -2.160000000000000E-002    0.000000000000000E+000
 -2.150000000000000E-002    0.000000000000000E+000
 -2.140000000000000E-002    0.000000000000000E+000
 -2.130000000000000E-002    0.000000000000000E+000
 -2.120000000000000E-002    0.000000000000000E+000
 -2.110000000000000E-002    0.000000000000000E+000
 -2.100000000000000E-002    0.000000000000000E+000
 -2.090000000000000E-002    0.000000000000000E+000
 -2.080000000000000E-002    0.000000000000000E+000
 -2.070000000000000E-002    0.000000000000000E+000
 -2.060000000000000E-002    0.000000000000000E+000
 -2.050000000000000E-002    0.000000000000000E+000
 -2.040000000000000E-002    0.000000000000000E+000
 -2.030000000000000E-002    0.000000000000000E+000
 -2.020000000000000E-002    0.000000000000000E+000
 -2.010000000000000E-002    0.000000000000000E+000
 -2.000000000000000E-002    0.000000000000000E+000
 -1.990000000000000E-002    0.000000000000000E+000
 -1.980000000000000E-002    0.000000000000000E+000
 -1.970000000000000E-002    0.000000000000000E+000
 -1.960000000000000E-002    0.000000000000000E+000
 -1.950000000000000E-002    0.000000000000000E+000
 -1.940000000000000E-002    0.000000000000000E+000
 -1.930000000000000E-002    0.000000000000000E+000
 -1.920000000000000E-002    0.000000000000000E+000
 -1.910000000000000E-002    0.000000000000000E+000
 -1.900000000000000E-002    0.000000000000000E+000
 -1.890000000000000E-002    0.000000000000000E+000
 -1.880000000000000E-002    0.000000000000000E+000
 -1.870000000000000E-002    0.000000000000000E+000
 -1.860000000000000E-002    0.000000000000000E+000
 -1.850000000000000E-002   -2.138211768073757E-048
 -1.840000000000000E-002   -4.276423536147513E-048
 -1.830000000000000E-002   -4.276423536147513E-048
 -1.820000000000000E-002   -4.276423536147513E-048
 -1.810000000000000E-002   -4.276423536147513E-048
 -1.800000000000000E-002   -2.138211768073757E-048
 -1.790000000000000E-002    0.000000000000000E+000
 -1.780000000000000E-002   -2.204949319520211E-048
 -1.770000000000000E-002   -2.271686870966666E-048
 -1.760000000000000E-002   -2.002126543393647E-049
 -1.750000000000000E-002   -1.309622081422836E-047
 -1.740000000000000E-002    2.887946739146372E-047
 -1.730000000000000E-002    7.085515559715581E-047
 -1.720000000000000E-002    1.085544202667004E-046
 -1.710000000000000E-002    1.810010566396438E-046
 -1.700000000000000E-002    2.136102165749690E-046
 -1.690000000000000E-002    2.677349692939246E-046
 -1.680000000000000E-002    3.274585931163824E-046
 -1.670000000000000E-002    3.277650638286787E-046
 -1.660000000000000E-002    2.049105417947091E-046
 -1.650000000000000E-002   -3.437104148307676E-047
 -1.640000000000000E-002   -4.171941498918117E-046
 -1.630000000000000E-002   -7.891403783648427E-046
 -1.620000000000000E-002   -1.324272463190165E-045
 -1.610000000000000E-002   -1.995448723435711E-045
 -1.600000000000000E-002   -2.559634837334973E-045
 -1.590000000000000E-002   -3.062319498421514E-045
 -1.580000000000000E-002   -3.572686813384542E-045
 -1.570000000000000E-002   -3.425699015382386E-045
 -1.560000000000000E-002   -2.433231433447559E-045
 -1.550000000000000E-002   -2.146989897568097E-045
 -1.540000000000000E-002   -1.408631239457017E-045
 -1.530000000000000E-002    5.401371086490287E-046
 -1.520000000000000E-002    3.457523704418727E-045
 -1.510000000000000E-002    7.667906271469547E-045
 -1.500000000000000E-002    1.307322071879124E-044
 -1.490000000000000E-002    1.945414701261774E-044
 -1.480000000000000E-002    2.709839720657223E-044
 -1.470000000000000E-002    3.537651400396279E-044
 -1.460000000000000E-002    4.231729966425224E-044
 -1.450000000000000E-002    4.661032698699827E-044
 -1.440000000000000E-002    4.687654032892729E-044
 -1.430000000000000E-002    4.122978835906596E-044
 -1.420000000000000E-002    2.630450879863840E-044
 -1.410000000000000E-002   -2.681802310655207E-046
 -1.400000000000000E-002   -4.048725554097198E-044
 -1.390000000000000E-002   -9.528181788910881E-044
 -1.380000000000000E-002   -1.648110455076445E-043
 -1.370000000000000E-002   -2.482332154079679E-043
 -1.360000000000000E-002   -3.389191275922692E-043
 -1.350000000000000E-002   -4.288953377005278E-043
 -1.340000000000000E-002   -5.039490102433385E-043
 -1.330000000000000E-002   -5.469472568755153E-043
 -1.320000000000000E-002   -5.338704767294444E-043
 -1.310000000000000E-002   -4.386108806922280E-043
 -1.300000000000000E-002   -2.338514965099549E-043
 -1.290000000000000E-002    1.069536774805888E-043
 -1.280000000000000E-002    6.020520757708029E-043
 -1.270000000000000E-002    1.258852589070397E-042
 -1.260000000000000E-002    2.065414824213782E-042
 -1.250000000000000E-002    2.980663602596854E-042
 -1.240000000000000E-002    3.929008539198586E-042
 -1.230000000000000E-002    4.794203987960365E-042
 -1.220000000000000E-002    5.412945473403886E-042
 -1.210000000000000E-002    5.580277927433903E-042
 -1.200000000000000E-002    5.056314109749340E-042
 -1.190000000000000E-002    3.585797364306643E-042
 -1.180000000000000E-002    9.236820245841140E-043
 -1.170000000000000E-002   -3.123415686125015E-042
 -1.160000000000000E-002   -8.647842632383648E-042
 -1.150000000000000E-002   -1.558030454913914E-041
 -1.140000000000000E-002   -2.362382208851316E-041
 -1.130000000000000E-002   -3.219661196414401E-041
 -1.120000000000000E-002   -4.037701866490518E-041
 -1.110000000000000E-002   -4.687859424236531E-041
 -1.100000000000000E-002   -5.006131153216521E-041
 -1.090000000000000E-002   -4.799790705713252E-041
 -1.080000000000000E-002   -3.860109375680285E-041
 -1.070000000000000E-002   -1.983987948685772E-041
 -1.060000000000000E-002    9.971911386341949E-042
 -1.050000000000000E-002    5.179261802200264E-041
 -1.040000000000000E-002    1.054112901116139E-040
 -1.030000000000000E-002    1.689694817962784E-040
 -1.020000000000000E-002    2.384854126242874E-040
 -1.010000000000000E-002    3.074665295332812E-040
 -1.000000000000000E-002    3.666750808896597E-040
 -9.899999999999999E-003    4.041537792834448E-040
 -9.800000000000000E-003    4.056156869248372E-040
 -9.699999999999999E-003    3.553066806032565E-040
 -9.599999999999999E-003    2.374118672911863E-040
 -9.500000000000000E-003    3.807016700574260E-041
 -9.399999999999999E-003   -2.520144071746984E-040
 -9.299999999999999E-003   -6.344525743195746E-040
 -9.200000000000000E-003   -1.099717961497661E-039
 -9.099999999999999E-003   -1.623678746955352E-039
 -8.999999999999999E-003   -2.164528991196032E-039
 -8.900000000000000E-003   -2.660698236643782E-039
 -8.799999999999999E-003   -3.030384407931576E-039
 -8.699999999999999E-003   -3.173465686602936E-039
 -8.600000000000000E-003   -2.976524090431153E-039
 -8.499999999999999E-003   -2.321631173807270E-039
 -8.399999999999999E-003   -1.099348967197133E-039
 -8.300000000000000E-003    7.739517003178612E-040
 -8.199999999999999E-003    3.334862235177305E-039
 -8.100000000000000E-003    6.548858342778884E-039
 -8.000000000000000E-003    1.028521952255342E-038
 -7.899999999999999E-003    1.429370634758660E-038
 -7.800000000000000E-003    1.818663415230076E-038
 -7.699999999999999E-003    2.143083500905141E-038
 -7.599999999999999E-003    2.335452888629193E-038
 -7.499999999999999E-003    2.317440958374982E-038
 -7.399999999999999E-003    2.004775005510853E-038
 -7.299999999999999E-003    1.315321556230394E-038
 -7.199999999999999E-003    1.801987270565158E-039
 -7.100000000000000E-003   -1.442249582144126E-038
 -6.999999999999999E-003   -3.550197479828152E-038
 -6.899999999999999E-003   -6.080921753900910E-038
 -6.800000000000000E-003   -8.893934365642059E-038
 -6.699999999999999E-003   -1.175699305255173E-037
 -6.599999999999999E-003   -1.433791494140379E-037
 -6.499999999999999E-003   -1.620553887245710E-037
 -6.399999999999999E-003   -1.684338075109169E-037
 -6.299999999999999E-003   -1.567936754358805E-037
 -6.199999999999999E-003   -1.213433452410430E-037
 -6.100000000000000E-003   -5.690704915627433E-038
 -5.999999999999999E-003    4.019204970008566E-038
 -5.899999999999999E-003    1.710850203991333E-037
 -5.800000000000000E-003    3.332123170094373E-037
 -5.699999999999999E-003    5.191847728436688E-037
 -5.599999999999999E-003    7.157943138084014E-037
 -5.499999999999999E-003    9.033556625458747E-037
 -5.399999999999999E-003    1.055589711085362E-036
 -5.299999999999999E-003    1.140272350374171E-036
 -5.199999999999999E-003    1.120866359085050E-036
 -5.099999999999999E-003    9.593108983362385E-037
 -4.999999999999999E-003    6.200701832467398E-037
 -4.899999999999999E-003    7.542429640745970E-038
 -4.799999999999999E-003   -6.881774296588662E-037
 -4.699999999999999E-003   -1.663075061660057E-036
 -4.599999999999999E-003   -2.813274606701843E-036
 -4.499999999999999E-003   -4.068082543859684E-036
 -4.399999999999999E-003   -5.317559786780557E-036
 -4.299999999999999E-003   -6.411027799410727E-036
 -4.199999999999999E-003   -7.159945064791901E-036
 -4.099999999999999E-003   -7.346421777545827E-036
 -3.999999999999999E-003   -6.738415373785819E-036
 -3.899999999999999E-003   -5.112215571916376E-036
 -3.799999999999999E-003   -2.282172299542153E-036
 -3.699999999999999E-003    1.863282851867170E-036
 -3.599999999999999E-003    7.321380573082107E-036
 -3.499999999999999E-003    1.393382213025481E-035
 -3.399999999999999E-003    2.134924410896334E-035
 -3.299999999999999E-003    2.899514170118601E-035
 -3.199999999999999E-003    3.606593183974317E-035
 -3.099999999999999E-003    4.153430608925018E-035
 -2.999999999999999E-003    4.419271859665116E-035
 -2.899999999999999E-003    4.273067248673580E-035
 -2.799999999999999E-003    3.585115659284408E-035
 -2.699999999999999E-003    2.242615184409612E-035
 -2.599999999999999E-003    1.686421357689798E-036
 -2.499999999999999E-003   -2.656480004418763E-035
 -2.399999999999999E-003   -6.173101042525816E-035
 -2.299999999999999E-003   -1.022178424559718E-034
 -2.199999999999999E-003   -1.452738864081656E-034
 -2.099999999999999E-003   -1.869107570127442E-034
 -1.999999999999999E-003   -2.219382614777879E-034
 -1.899999999999999E-003   -2.441490969337267E-034
 -1.799999999999999E-003   -2.466815948530635E-034
 -1.699999999999999E-003   -2.225779735782391E-034
 -1.599999999999999E-003   -1.655388960118971E-034
 -1.499999999999999E-003   -7.085259763269298E-035
 -1.399999999999999E-003    6.355022282148038E-035
 -1.299999999999999E-003    2.359938098333572E-034
 -1.199999999999999E-003    4.400170241375583E-034
 -1.099999999999999E-003    6.635322620659604E-034
 -9.999999999999989E-004    8.883422514162353E-034
 -8.999999999999990E-004    1.090183519212353E-033
 -7.999999999999990E-004    1.239458989689395E-033
 -6.999999999999989E-004    1.302795938603514E-033
 -5.999999999999990E-004    1.245516504582447E-033
 -4.999999999999989E-004    1.035033310289591E-033
 -3.999999999999989E-004    6.450809263486033E-034
 -2.999999999999989E-004    6.057971437716746E-035
 -1.999999999999989E-004   -7.172114323754843E-034
 -9.999999999999892E-005   -1.665728143480254E-033
  1.084202172485504E-018   -2.736922215208981E-033
  1.000000000000011E-004   -3.854568162172761E-033
  2.000000000000011E-004   -4.913803497242871E-033
  3.000000000000011E-004   -5.783624227680710E-033
  4.000000000000011E-004   -6.312965519171499E-033
  5.000000000000011E-004   -6.340776638434021E-033
  6.000000000000011E-004   -5.710209851384197E-033
  7.000000000000011E-004   -4.286607066670534E-033
  8.000000000000011E-004   -1.978498373899831E-033
  9.000000000000012E-004    1.239765994569524E-033
  1.000000000000001E-003    5.305682222564751E-033
  1.100000000000001E-003    1.004902120613598E-032
  1.200000000000001E-003    1.517792345390307E-032
  1.300000000000001E-003    2.027377031394939E-032
  1.400000000000001E-003    2.479792636417674E-032
  1.500000000000001E-003    2.811306338511099E-032
  1.600000000000001E-003    2.952101063433195E-032
  1.700000000000001E-003    2.831787258453695E-032
  1.800000000000001E-003    2.386556035381784E-032
  1.900000000000001E-003    1.567688518320069E-032
  2.000000000000001E-003    3.509170644642504E-033
  2.100000000000001E-003   -1.254099731702166E-032
  2.200000000000001E-003   -3.195142737309866E-032
  2.300000000000001E-003   -5.370770549366516E-032
  2.400000000000001E-003   -7.626872270140998E-032
  2.500000000000001E-003   -9.757684815269183E-032
  2.600000000000001E-003   -1.151240070425289E-031
  2.700000000000001E-003   -1.260822431550963E-031
  2.800000000000001E-003   -1.275031247811851E-031
  2.900000000000001E-003   -1.165841335972348E-031
  3.000000000000001E-003   -9.099322535974780E-032
  3.100000000000001E-003   -4.923376876445151E-032
  3.200000000000001E-003    8.976108223341670E-033
  3.300000000000001E-003    8.234496568824762E-032
  3.400000000000001E-003    1.677122081416432E-031
  3.500000000000001E-003    2.598616769118996E-031
  3.600000000000001E-003    3.514930891719543E-031
  3.700000000000001E-003    4.333957712686188E-031
  3.800000000000001E-003    4.948609289891839E-031
  3.900000000000001E-003    5.243531033581590E-031
  4.000000000000001E-003    5.104419019005636E-031
  4.100000000000001E-003    4.429673466885313E-031
  4.200000000000001E-003    3.143832299089508E-031
  4.300000000000001E-003    1.211889956637391E-031
  4.400000000000001E-003   -1.346697827556120E-031
  4.500000000000001E-003   -4.445813375085526E-031
  4.600000000000002E-003   -7.923961904700474E-031
  4.700000000000001E-003   -1.154079991235718E-030
  4.800000000000001E-003   -1.498060605660377E-030
  4.900000000000002E-003   -1.786408439686750E-030
  5.000000000000001E-003   -1.976945278725830E-030
  5.100000000000001E-003   -2.026306146291329E-030
  5.200000000000001E-003   -1.893887162960166E-030
  5.300000000000002E-003   -1.546513575071193E-030
  5.400000000000001E-003   -9.635392961441113E-031
  5.500000000000001E-003   -1.419865431633137E-031
  5.600000000000002E-003    8.987777632346842E-031
  5.700000000000001E-003    2.113401271608395E-030
  5.800000000000001E-003    3.428556153379147E-030
  5.900000000000002E-003    4.743197771843079E-030
  6.000000000000001E-003    5.931595611374972E-030
  6.100000000000001E-003    6.849510229907633E-030
  6.200000000000002E-003    7.343670951460291E-030
  6.300000000000002E-003    7.264414686032758E-030
  6.400000000000001E-003    6.481006974399633E-030
  6.500000000000001E-003    4.898785293111521E-030
  6.600000000000002E-003    2.476874173042599E-030
  6.700000000000001E-003   -7.551161450287903E-031
  6.800000000000001E-003   -4.683289526558456E-030
  6.900000000000002E-003   -9.100580647964849E-030
  7.000000000000001E-003   -1.370481939927930E-029
  7.100000000000001E-003   -1.810553286338753E-029
  7.200000000000002E-003   -2.184086883708072E-029
  7.300000000000002E-003   -2.440531407580144E-029
  7.400000000000001E-003   -2.528800278613319E-029
  7.500000000000001E-003   -2.402032801886682E-029
  7.600000000000002E-003   -2.023032687294887E-029
  7.700000000000001E-003   -1.370011288834998E-029
  7.800000000000001E-003   -4.421486284600734E-030
  7.900000000000001E-003    7.356126628772247E-030
  8.000000000000002E-003    2.109172590681605E-029
  8.100000000000001E-003    3.593922241485586E-029
  8.200000000000001E-003    5.076019361113869E-029
  8.300000000000002E-003    6.416749949404174E-029
  8.400000000000001E-003    7.460233586664803E-029
  8.500000000000002E-003    8.044460499121163E-029
  8.600000000000002E-003    8.015320025263951E-029
  8.700000000000001E-003    7.242919417847484E-029
  8.800000000000002E-003    5.639107983244631E-029
  8.900000000000002E-003    3.174776601530901E-029
  9.000000000000001E-003   -1.047864059034789E-030
  9.100000000000002E-003   -4.068379005607858E-029
  9.200000000000002E-003   -8.493132736709959E-029
  9.300000000000001E-003   -1.306629396619684E-028
  9.400000000000002E-003   -1.739597472294862E-028
  9.500000000000001E-003   -2.103167231229267E-028
  9.600000000000001E-003   -2.349466807627993E-028
  9.700000000000002E-003   -2.431739141302538E-028
  9.800000000000001E-003   -2.308979424685828E-028
  9.900000000000001E-003   -1.950977822496794E-028
  1.000000000000000E-002   -1.343355037391328E-028
  1.010000000000000E-002   -4.921121300991781E-029
  1.020000000000000E-002    5.728466401983534E-029
  1.030000000000000E-002    1.795761167894998E-028
  1.040000000000000E-002    3.095140017498257E-028
  1.050000000000000E-002    4.366358006089568E-028
  1.060000000000000E-002    5.486977402846943E-028
  1.070000000000000E-002    6.324806232960442E-028
  1.080000000000000E-002    6.748466224927789E-028
  1.090000000000000E-002    6.639934345048877E-028
  1.100000000000000E-002    5.908237886972801E-028
  1.110000000000000E-002    4.503199238907014E-028
  1.120000000000000E-002    2.427923692520860E-028
  1.130000000000000E-002   -2.514314932531836E-029
  1.140000000000000E-002   -3.400053175031335E-028
  1.150000000000000E-002   -6.814381208814095E-028
  1.160000000000000E-002   -1.022856831430798E-027
  1.170000000000000E-002   -1.332810956503688E-027
  1.180000000000000E-002   -1.577065638271040E-027
  1.190000000000000E-002   -1.721333763332678E-027
  1.200000000000000E-002   -1.734514850428334E-027
  1.210000000000000E-002   -1.592219773555582E-027
  1.220000000000000E-002   -1.280291736263048E-027
  1.230000000000000E-002   -7.979800941425248E-028
  1.240000000000000E-002   -1.603950158487844E-028
  1.250000000000000E-002    6.001253769678846E-028
  1.260000000000000E-002    1.434067263065587E-027
  1.270000000000000E-002    2.276458619523051E-027
  1.280000000000000E-002    3.050385304962766E-027
  1.290000000000000E-002    3.672282620821822E-027
  1.300000000000000E-002    4.058793860291333E-027
  1.310000000000000E-002    4.134805588050930E-027
  1.320000000000000E-002    3.842075668671943E-027
  1.330000000000000E-002    3.147705102002159E-027
  1.340000000000000E-002    2.051601682003119E-027
  1.350000000000000E-002    5.920134013337608E-028
  1.360000000000000E-002   -1.151743645992352E-027
  1.370000000000000E-002   -3.060118498027984E-027
  1.380000000000000E-002   -4.978250081074142E-027
  1.390000000000000E-002   -6.725201461581422E-027
  1.400000000000000E-002   -8.107317902166834E-027
  1.410000000000000E-002   -8.935085052472162E-027
  1.420000000000000E-002   -9.042404855815579E-027
  1.430000000000000E-002   -8.306770840645169E-027
  1.440000000000000E-002   -6.668474204477452E-027
  1.450000000000000E-002   -4.146755493513467E-027
  1.460000000000000E-002   -8.507592971908522E-028
  1.470000000000000E-002    3.016687736298167E-027
  1.480000000000000E-002    7.164060335983299E-027
  1.490000000000000E-002    1.122586208067314E-026
  1.500000000000000E-002    1.478722484354688E-026
  1.510000000000000E-002    1.741757622611006E-026
  1.520000000000000E-002    1.871143935343505E-026
  1.530000000000000E-002    1.833346646950827E-026
  1.540000000000000E-002    1.606376711598532E-026
  1.550000000000000E-002    1.183901784654435E-026
  1.560000000000000E-002    5.784412543986330E-027
  1.570000000000000E-002   -1.768338539021779E-027
  1.580000000000000E-002   -1.028115226643488E-026
  1.590000000000000E-002   -1.903087220619576E-026
  1.600000000000000E-002   -2.715309442827410E-026
  1.610000000000000E-002   -3.370781720337219E-026
  1.620000000000000E-002   -3.776380178794263E-026
  1.630000000000000E-002   -3.849611693041116E-026
  1.640000000000000E-002   -3.528904224932235E-026
  1.650000000000000E-002   -2.783462939160552E-026
  1.660000000000000E-002   -1.621602324744473E-026
  1.670000000000000E-002   -9.643836926065292E-028
  1.680000000000000E-002    1.692091458895748E-026
  1.690000000000000E-002    3.599707954623263E-026
  1.700000000000000E-002    5.445272242295517E-026
  1.710000000000000E-002    7.023341103462574E-026
  1.720000000000000E-002    8.121362731327256E-026
  1.730000000000000E-002    8.540511867331508E-026
  1.740000000000000E-002    8.118647056739947E-026
  1.750000000000000E-002    6.753374983185117E-026
  1.760000000000000E-002    4.422868549175754E-026
  1.770000000000000E-002    1.201919894834380E-026
  1.780000000000000E-002   -2.729204944682873E-026
  1.790000000000000E-002   -7.085252639017510E-026
  1.800000000000000E-002   -1.148731464341054E-025
  1.810000000000000E-002   -1.548565490147120E-025
  1.820000000000000E-002   -1.859364890371447E-025
  1.830000000000000E-002   -2.033120895226237E-025
  1.840000000000000E-002   -2.027486436764019E-025
  1.850000000000000E-002   -1.811051639354856E-025
  1.860000000000000E-002   -1.368395264932538E-025
  1.870000000000000E-002   -7.043651042524394E-026