 -4.000000000000000E-002    0.000000000000000E+000
 -3.990000000000000E-002    0.000000000000000E+000
 -3.980000000000000E-002    0.000000000000000E+000
 -3.970000000000000E-002    0.000000000000000E+000
 -3.960000000000000E-002    0.000000000000000E+000
 -3.950000000000000E-002    0.000000000000000E+000
 -3.940000000000000E-002    0.000000000000000E+000
 -3.930000000000000E-002    0.000000000000000E+000
 -3.920000000000000E-002    0.000000000000000E+000
 -3.910000000000000E-002    0.000000000000000E+000
 -3.900000000000000E-002    0.000000000000000E+000
 -3.890000000000000E-002    0.000000000000000E+000
 -3.880000000000000E-002    0.000000000000000E+000
 -3.870000000000000E-002    0.000000000000000E+000
 -3.860000000000000E-002    0.000000000000000E+000
 -3.850000000000000E-002    0.000000000000000E+000
 -3.840000000000000E-002    0.000000000000000E+000
 -3.830000000000000E-002    0.000000000000000E+000
 -3.820000000000000E-002    0.000000000000000E+000
 -3.810000000000000E-002    0.000000000000000E+000
 -3.800000000000000E-002    0.000000000000000E+000
 -3.790000000000000E-002    0.000000000000000E+000
 -3.780000000000000E-002    0.000000000000000E+000
 -3.770000000000000E-002    0.000000000000000E+000
 -3.760000000000000E-002    0.000000000000000E+000
 -3.750000000000000E-002    0.000000000000000E+000
 -3.740000000000000E-002    0.000000000000000E+000
 -3.730000000000000E-002    0.000000000000000E+000
 -3.720000000000000E-002    0.000000000000000E+000
 -3.710000000000000E-002    0.000000000000000E+000
 -3.700000000000000E-002    0.000000000000000E+000
 -3.690000000000000E-002    0.000000000000000E+000
 -3.680000000000000E-002    0.000000000000000E+000
 -3.670000000000000E-002    0.000000000000000E+000
 -3.660000000000000E-002    0.000000000000000E+000
 -3.650000000000000E-002    0.000000000000000E+000
 -3.640000000000000E-002    0.000000000000000E+000
 -3.630000000000000E-002    0.000000000000000E+000
 -3.620000000000000E-002    0.000000000000000E+000
 -3.610000000000000E-002    0.000000000000000E+000
 -3.600000000000000E-002    0.000000000000000E+000
 -3.590000000000000E-002    0.000000000000000E+000
 -3.580000000000000E-002    0.000000000000000E+000
 -3.570000000000000E-002    0.000000000000000E+000
 -3.560000000000000E-002    0.000000000000000E+000
 -3.550000000000000E-002    0.000000000000000E+000
 -3.540000000000000E-002    0.000000000000000E+000
 -3.530000000000000E-002    0.000000000000000E+000
 -3.520000000000000E-002    0.000000000000000E+000
 -3.510000000000000E-002    0.000000000000000E+000
 -3.500000000000000E-002    0.000000000000000E+000
 -3.490000000000000E-002    0.000000000000000E+000
 -3.480000000000000E-002    0.000000000000000E+000
 -3.470000000000000E-002    0.000000000000000E+000
 -3.460000000000000E-002    0.000000000000000E+000
 -3.450000000000000E-002    0.000000000000000E+000
 -3.440000000000000E-002    0.000000000000000E+000
 -3.430000000000000E-002    0.000000000000000E+000
 -3.420000000000000E-002    0.000000000000000E+000
 -3.410000000000000E-002    0.000000000000000E+000
 -3.400000000000000E-002    0.000000000000000E+000
 -3.390000000000000E-002    0.000000000000000E+000
 -3.380000000000000E-002    0.000000000000000E+000
 -3.370000000000000E-002    0.000000000000000E+000
 -3.360000000000000E-002    0.000000000000000E+000
 -3.350000000000000E-002   -2.138211768073757E-048
 -3.340000000000000E-002   -4.276423536147513E-048
 -3.330000000000000E-002   -6.335780588642965E-047
 -3.320000000000000E-002   -1.053334940921217E-046
 -3.310000000000000E-002   -1.473091822978138E-046
 -3.300000000000000E-002   -1.807320234312109E-046
 -3.290000000000000E-002   -1.679027528227683E-046
 -3.280000000000000E-002   -4.753503880268385E-047
 -3.270000000000000E-002    2.834329258501976E-046
 -3.260000000000000E-002    1.157879882762773E-045
 -3.250000000000000E-002    2.571850797789336E-045
 -3.240000000000000E-002    5.019324413323009E-045
 -3.230000000000000E-002    8.956273736375073E-045
 -3.220000000000000E-002    1.524594745962674E-044
 -3.210000000000000E-002    2.320314189315979E-044
 -3.200000000000000E-002    3.301653866958248E-044
 -3.190000000000000E-002    4.339508009011246E-044
 -3.180000000000000E-002    5.114350676508126E-044
 -3.170000000000000E-002    5.103814731751995E-044
 -3.160000000000000E-002    3.262308815600338E-044
 -3.150000000000000E-002   -2.223039604705898E-044
 -3.140000000000000E-002   -1.372073667650639E-043
 -3.130000000000000E-002   -3.449385520713103E-043
 -3.120000000000000E-002   -6.849960070061199E-043
 -3.110000000000000E-002   -1.197971616198282E-042
 -3.100000000000000E-002   -1.913295846144255E-042
 -3.090000000000000E-002   -2.831193048608699E-042
 -3.080000000000000E-002   -3.885090171963754E-042
 -3.070000000000000E-002   -4.900476131087818E-042
 -3.060000000000000E-002   -5.527353926434698E-042
 -3.050000000000000E-002   -5.165408062884802E-042
 -3.040000000000000E-002   -2.886530578492975E-042
 -3.030000000000000E-002    2.624725682638949E-042
 -3.020000000000000E-002    1.308565010869145E-041
 -3.010000000000000E-002    3.052584575337648E-041
 -3.000000000000000E-002    5.703629256047871E-041
 -2.990000000000000E-002    9.425805410446845E-041
 -2.980000000000000E-002    1.425234355686568E-040
 -2.970000000000000E-002    1.995536285981324E-040
 -2.960000000000000E-002    2.586585121002087E-040
 -2.950000000000000E-002    3.064447106343055E-040
 -2.940000000000000E-002    3.202052878605404E-040
 -2.930000000000000E-002    2.653365595567464E-040
 -2.920000000000000E-002    9.347834108650158E-041
 -2.910000000000000E-002   -2.575840431456209E-040
 -2.900000000000000E-002   -8.607257065835679E-040
 -2.890000000000000E-002   -1.791037257292496E-039
 -2.880000000000000E-002   -3.109796856761437E-039
 -2.870000000000000E-002   -4.838450832210850E-039
 -2.860000000000000E-002   -6.920593862089159E-039
 -2.850000000000000E-002   -9.171149808934825E-039
 -2.840000000000000E-002   -1.121425517335731E-038
 -2.830000000000000E-002   -1.241512825447655E-038
 -2.820000000000000E-002   -1.181661832257326E-038
 -2.810000000000000E-002   -8.098243126479555E-039
 -2.800000000000000E-002    4.160117600903876E-040
 -2.790000000000000E-002    1.566603894531546E-038
 -2.780000000000000E-002    3.963736602804915E-038
 -2.770000000000000E-002    7.396982779987788E-038
 -2.760000000000000E-002    1.193502580654620E-037
 -2.750000000000000E-002    1.746616418678468E-037
 -2.740000000000000E-002    2.358931163249110E-037
 -2.730000000000000E-002    2.948684844800563E-037
 -2.720000000000000E-002    3.379282296215760E-037
 -2.710000000000000E-002    3.448024114903637E-037
 -2.700000000000000E-002    2.880329273029736E-037
 -2.690000000000000E-002    1.334328804555844E-037
 -2.680000000000000E-002   -1.578142627487947E-037
 -2.670000000000000E-002   -6.247442416386922E-037
 -2.660000000000000E-002   -1.299238056545576E-036
 -2.650000000000000E-002   -2.195191527963286E-036
 -2.640000000000000E-002   -3.294087902294691E-036
 -2.630000000000000E-002   -4.527429048155309E-036
 -2.620000000000000E-002   -5.757348778366699E-036
 -2.610000000000000E-002   -6.757873185747936E-036
 -2.600000000000000E-002   -7.200644388797666E-036
 -2.590000000000000E-002   -6.650367884325075E-036
 -2.580000000000000E-002   -4.576553205059443E-036
 -2.570000000000000E-002   -3.890051888360653E-037
 -2.560000000000000E-002    6.495430609863137E-036
 -2.550000000000000E-002    1.654859885728591E-035
 -2.540000000000000E-002    2.998595447158454E-035
 -2.530000000000000E-002    4.658252354086698E-035
 -2.520000000000000E-002    6.545933257832310E-035
 -2.510000000000000E-002    8.485959990793091E-035
 -2.500000000000000E-002    1.019458085097482E-034
 -2.490000000000000E-002    1.126615081942995E-034
 -2.480000000000000E-002    1.117136402079272E-034
 -2.470000000000000E-002    9.274029614338524E-035
 -2.460000000000000E-002    4.873199490701275E-035
 -2.450000000000000E-002   -2.723106731037572E-035
 -2.440000000000000E-002   -1.408813950122377E-034
 -2.430000000000000E-002   -2.952948420883578E-034
 -2.420000000000000E-002   -4.890878785857966E-034
 -2.410000000000000E-002   -7.143870676680504E-034
 -2.400000000000000E-002   -9.547571998555458E-034
 -2.390000000000000E-002   -1.183365880200712E-033
 -2.380000000000000E-002   -1.361753083392486E-033
 -2.370000000000000E-002   -1.439653627469312E-033
 -2.360000000000000E-002   -1.356371614858496E-033
 -2.350000000000000E-002   -1.044212282208550E-033
 -2.340000000000000E-002   -4.344170657313642E-034
 -2.330000000000000E-002    5.340934957402991E-034
 -2.320000000000000E-002    1.903102596186726E-033
 -2.310000000000000E-002    3.680882861942908E-033
 -2.300000000000000E-002    5.826105733953261E-033
 -2.290000000000000E-002    8.231126237372309E-033
 -2.280000000000000E-002    1.070648187863321E-032
 -2.270000000000000E-002    1.296903994116162E-032
 -2.260000000000000E-002    1.463675471880677E-032
 -2.250000000000000E-002    1.523339532685001E-032
 -2.240000000000000E-002    1.420675189119903E-032
 -2.230000000000000E-002    1.096362144457845E-032
 -2.220000000000000E-002    4.924229451580366E-033
 -2.210000000000000E-002   -4.402476080066995E-033
 -2.200000000000000E-002   -1.732307518834781E-032
 -2.190000000000000E-002   -3.384639401128192E-032
 -2.180000000000000E-002   -5.355880747905442E-032
 -2.170000000000000E-002   -7.549797439417371E-032
 -2.160000000000000E-002   -9.803890813009481E-032
 -2.150000000000000E-002   -1.188104879080235E-031
 -2.140000000000000E-002   -1.346641724637932E-031
 -2.130000000000000E-002   -1.417194531002834E-031
 -2.120000000000000E-002   -1.355115687788282E-031
 -2.110000000000000E-002   -1.112655418439349E-031
 -2.100000000000000E-002   -6.431563291147419E-032
 -2.090000000000000E-002    9.319792245246224E-033
 -2.080000000000000E-002    1.122117866564408E-031
 -2.070000000000000E-002    2.446659720252364E-031
 -2.060000000000000E-002    4.037862195138535E-031
 -2.050000000000000E-002    5.825323384469040E-031
 -2.040000000000000E-002    7.688776828243620E-031
 -2.030000000000000E-002    9.452026730621678E-031
 -2.020000000000000E-002    1.088086305422547E-030
 -2.010000000000000E-002    1.168674591598919E-030
 -2.000000000000000E-002    1.153806721792716E-030
 -1.990000000000000E-002    1.008061429385815E-030
 -1.980000000000000E-002    6.968408001761007E-031
 -1.970000000000000E-002    1.905321015636161E-031
 -1.960000000000000E-002   -5.303217216037153E-031
 -1.950000000000000E-002   -1.469055604067701E-030
 -1.940000000000000E-002   -2.606504130986028E-030
 -1.930000000000000E-002   -3.894784529643279E-030
 -1.920000000000000E-002   -5.252004957557233E-030
 -1.910000000000000E-002   -6.558833033379942E-030
 -1.900000000000000E-002   -7.657976263861520E-030
 -1.890000000000000E-002   -8.357674488459307E-030
 -1.880000000000000E-002   -8.440225235167110E-030
 -1.870000000000000E-002   -7.676355871682168E-030
 -1.860000000000000E-002   -5.845869301870473E-030
 -1.850000000000000E-002   -2.764432091620941E-030
 -1.840000000000000E-002    1.684353120032746E-030
 -1.830000000000000E-002    7.513329564567092E-030
 -1.820000000000000E-002    1.459533356354121E-029
 -1.810000000000000E-002    2.262958778670748E-029
 -1.800000000000000E-002    3.111551529682209E-029
 -1.790000000000000E-002    3.933919873103922E-029
 -1.780000000000000E-002    4.637800251799377E-029
 -1.770000000000000E-002    5.112866129904545E-029
 -1.760000000000000E-002    5.236325111426687E-029
 -1.750000000000000E-002    4.881586231591894E-029
 -1.740000000000000E-002    3.930039669934663E-029
 -1.730000000000000E-002    2.285674705261059E-029
 -1.720000000000000E-002   -1.081206795675978E-030
 -1.710000000000000E-002   -3.250654378305673E-029
 -1.700000000000000E-002   -7.066429085964933E-029
 -1.690000000000000E-002   -1.138996138847742E-028
 -1.680000000000000E-002   -1.595514289982669E-028
 -1.670000000000000E-002   -2.039156069698656E-028
 -1.660000000000000E-002   -2.423015619275799E-028
 -1.650000000000000E-002   -2.692035810028164E-028
 -1.640000000000000E-002   -2.786026259195200E-028
 -1.630000000000000E-002   -2.644058409652083E-028
 -1.620000000000000E-002   -2.210191441190650E-028
 -1.610000000000000E-002   -1.440342992294353E-028
 -1.600000000000000E-002   -3.099498660156064E-029
 -1.590000000000000E-002    1.178104722935624E-028
 -1.580000000000000E-002    2.985993717960559E-028
 -1.570000000000000E-002    5.034721025498992E-028
 -1.560000000000000E-002    7.200113302116991E-028
 -1.550000000000000E-002    9.312024439212259E-028
 -1.540000000000000E-002    1.115769796211317E-027
 -1.530000000000000E-002    1.249010760214874E-027
 -1.520000000000000E-002    1.304182760262410E-027
 -1.510000000000000E-002    1.254463269890277E-027
 -1.500000000000000E-002    1.075452036902343E-027
 -1.490000000000000E-002    7.481284551656690E-028
 -1.480000000000000E-002    2.621086156961449E-028
 -1.470000000000000E-002   -3.810208573817529E-028
 -1.460000000000000E-002   -1.164582386834590E-027
 -1.450000000000000E-002   -2.054250580017614E-027
 -1.440000000000000E-002   -2.996447351867770E-027
 -1.430000000000000E-002   -3.918098535730213E-027
 -1.420000000000000E-002   -4.728141644637622E-027
 -1.410000000000000E-002   -5.321123170956475E-027
 -1.400000000000000E-002   -5.583117643213474E-027
 -1.390000000000000E-002   -5.400053753453999E-027
 -1.380000000000000E-002   -4.668329033607787E-027
 -1.370000000000000E-002   -3.307356167658009E-027
 -1.360000000000000E-002   -1.273401384898909E-027
 -1.350000000000000E-002    1.426215426472371E-027
 -1.340000000000000E-002    4.719787758307197E-027
 -1.330000000000000E-002    8.460233009095107E-027
 -1.320000000000000E-002    1.241812682685462E-026
 -1.310000000000000E-002    1.628053214751498E-026
 -1.300000000000000E-002    1.965734156506116E-026
 -1.290000000000000E-002    2.209663358531434E-026
 -1.280000000000000E-002    2.311012442883800E-026
 -1.270000000000000E-002    2.220914027462665E-026
 -1.260000000000000E-002    1.895069219630647E-026
 -1.250000000000000E-002    1.299212805412645E-026
 -1.240000000000000E-002    4.151628978356890E-027
 -1.230000000000000E-002   -7.529517817157919E-027
 -1.220000000000000E-002   -2.172826153313302E-026
 -1.210000000000000E-002   -3.779128616778723E-026
 -1.200000000000000E-002   -5.470419439998466E-026
 -1.190000000000000E-002   -7.108618093103980E-026
 -1.180000000000000E-002   -8.521800629454341E-026
 -1.170000000000000E-002   -9.510988184834648E-026
 -1.160000000000000E-002   -9.861425492198394E-026
 -1.150000000000000E-002   -9.358522855139819E-026
 -1.140000000000000E-002   -7.808281582975675E-026
 -1.130000000000000E-002   -5.061518835635012E-026
 -1.120000000000000E-002   -1.040659432095436E-026
 -1.110000000000000E-002    4.232711082597605E-026
 -1.100000000000000E-002    1.061194279093691E-025
 -1.090000000000000E-002    1.780395382523920E-025
 -1.080000000000000E-002    2.535569555663698E-025
 -1.070000000000000E-002    3.265189905324152E-025
 -1.060000000000000E-002    3.892742574932553E-025
 -1.050000000000000E-002    4.329710425327691E-025
 -1.040000000000000E-002    4.480507493989084E-025
 -1.030000000000000E-002    4.249433882737447E-025
 -1.020000000000000E-002    3.549561917153431E-025
 -1.010000000000000E-002    2.313243036643422E-025
 -1.000000000000000E-002    5.037092131956969E-026
 -9.899999999999999E-003   -1.873014922491631E-025
 -9.800000000000000E-003   -4.756899440957424E-025
 -9.699999999999999E-003   -8.024614622734082E-025
 -9.599999999999999E-003   -1.148351316058370E-024
 -9.500000000000000E-003   -1.487031477504688E-024
 -9.399999999999999E-003   -1.785583841931326E-024
 -9.299999999999999E-003   -2.005695454332564E-024
 -9.200000000000000E-003   -2.105656225889227E-024
 -9.099999999999999E-003   -2.043187565514129E-024
 -8.999999999999999E-003   -1.779066995116128E-024
 -8.900000000000000E-003   -1.281426809536047E-024
 -8.799999999999999E-003   -5.305238072109033E-025
 -8.699999999999999E-003    4.763235923271040E-025
 -8.600000000000000E-003    1.720019240678131E-024
 -8.499999999999999E-003    3.155664666133342E-024
 -8.399999999999999E-003    4.709742899772706E-024
 -8.300000000000000E-003    6.279063954364413E-024
 -8.199999999999999E-003    7.731995846321196E-024
 -8.100000000000000E-003    8.912441501329313E-024
 -8.000000000000000E-003    9.646904957749282E-024
 -7.899999999999999E-003    9.754802631869806E-024
 -7.800000000000000E-003    9.061941795565502E-024
 -7.699999999999999E-003    7.416813885333914E-024
 -7.599999999999999E-003    4.709018672256883E-024
 -7.499999999999999E-003    8.888022074337988E-025
 -7.399999999999999E-003   -4.013633199946646E-024
 -7.299999999999999E-003   -9.870699199039390E-024
 -7.199999999999999E-003   -1.644374605099149E-023
 -7.100000000000000E-003   -2.337515991022084E-023
 -6.999999999999999E-003   -3.018824321459183E-023
 -6.899999999999999E-003   -3.629673742095356E-023
 -6.800000000000000E-003   -4.102551086793950E-023
 -6.699999999999999E-003   -4.364337640801970E-023
 -6.599999999999999E-003   -4.340829698991989E-023
 -6.499999999999999E-003   -3.962424700412440E-023
 -6.399999999999999E-003   -3.170802151678343E-023
 -6.299999999999999E-003   -1.926292627091687E-023
 -6.199999999999999E-003   -2.155255807318147E-024
 -6.100000000000000E-003    1.941188009279231E-023
 -5.999999999999999E-003    4.483383745402336E-023
 -5.899999999999999E-003    7.305593364291707E-023
 -5.800000000000000E-003    1.025488047799238E-022
 -5.699999999999999E-003    1.313150772840675E-022
 -5.599999999999999E-003    1.569341755725708E-022
 -5.499999999999999E-003    1.766505218087004E-022
 -5.399999999999999E-003    1.875085445745284E-022
 -5.299999999999999E-003    1.865346040785412E-022
 -5.199999999999999E-003    1.709628984931070E-022
 -5.099999999999999E-003    1.384978990500995E-022
 -4.999999999999999E-003    8.760137282516181E-023
 -4.899999999999999E-003    1.778770684339446E-023
 -4.799999999999999E-003   -7.009350495722514E-023
 -4.699999999999999E-003   -1.736122000846306E-022
 -4.599999999999999E-003   -2.885776181154580E-022
 -4.499999999999999E-003   -4.089512237001882E-022
 -4.399999999999999E-003   -5.268818075960135E-022
 -4.299999999999999E-003   -6.328866175426653E-022
 -4.199999999999999E-003   -7.161988593500627E-022
 -4.099999999999999E-003   -7.652918280357978E-022
 -3.999999999999999E-003   -7.685799364437971E-022
 -3.899999999999999E-003   -7.152822086848125E-022
 -3.799999999999999E-003   -5.964194126357587E-022
 -3.699999999999999E-003   -4.058974028026428E-022
 -3.599999999999999E-003   -1.416143106331586E-022
 -3.499999999999999E-003    1.934878290964192E-022
 -3.399999999999999E-003    5.905198809628222E-022
 -3.299999999999999E-003    1.033991284948687E-021
 -3.199999999999999E-003    1.501509322656878E-021
 -3.099999999999999E-003    1.963930787729631E-021
 -2.999999999999999E-003    2.386055010610218E-021
 -2.899999999999999E-003    2.727919861966241E-021
 -2.799999999999999E-003    2.946735029599022E-021
 -2.699999999999999E-003    2.999442232733968E-021
 -2.599999999999999E-003    2.845844861129398E-021
 -2.499999999999999E-003    2.452193155016687E-021
 -2.399999999999999E-003    1.795050480891850E-021
 -2.299999999999999E-003    8.652171312158847E-022
 -2.199999999999999E-003   -3.285745683366679E-022
 -2.099999999999999E-003   -1.756511042925641E-021
 -1.999999999999999E-003   -3.365444468629215E-021
 -1.899999999999999E-003   -5.077882086653705E-021
 -1.799999999999999E-003   -6.792551046379518E-021
 -1.699999999999999E-003   -8.386820057896513E-021
 -1.599999999999999E-003   -9.721173368756102E-021
 -1.499999999999999E-003   -1.064582637158826E-020
 -1.399999999999999E-003   -1.100943528326073E-020
 -1.299999999999999E-003   -1.066968489209456E-020
 -1.199999999999999E-003   -9.505356000560388E-021
 -1.099999999999999E-003   -7.429297646317416E-021
 -9.999999999999989E-004   -4.401544131588771E-021
 -8.999999999999990E-004   -4.416627964510083E-022
 -7.999999999999990E-004    4.360722186420382E-021
 -6.999999999999989E-004    9.838321233738007E-021
 -5.999999999999990E-004    1.574262217047446E-020
 -4.999999999999989E-004    2.174541729370359E-020
 -3.999999999999989E-004    2.744628808143485E-020
 -2.999999999999989E-004    3.238667967880932E-020
 -1.999999999999989E-004    3.607082267632073E-020
 -9.999999999999892E-005    3.799334058418720E-020
  1.084202172485504E-018    3.767287206472346E-020
  1.000000000000011E-004    3.469045871871731E-020
  2.000000000000011E-004    2.873093948808905E-020
  3.000000000000011E-004    1.962494931087186E-020
  4.000000000000011E-004    7.388733154330380E-021
  5.000000000000011E-004   -7.741461644471573E-021
  6.000000000000011E-004   -2.528385679714838E-020
  7.000000000000011E-004   -4.449787481777080E-020
  8.000000000000011E-004   -6.438644784948048E-020
  9.000000000000012E-004   -8.371656484254775E-020
  1.000000000000001E-003   -1.010600420934185E-019
  1.100000000000001E-003   -1.148554987962671E-019
  1.200000000000001E-003   -1.234910348097907E-019
  1.300000000000001E-003   -1.254057803624419E-019
  1.400000000000001E-003   -1.192067306021959E-019
  1.500000000000001E-003   -1.037955182789307E-019
  1.600000000000001E-003   -7.849814049662027E-020
  1.700000000000001E-003   -4.318935512995099E-020
  1.800000000000001E-003    1.598052235650068E-021
  1.900000000000001E-003    5.458929201188527E-020
  2.000000000000001E-003    1.137193092220025E-019
  2.100000000000001E-003    1.761299421629605E-019
  2.200000000000001E-003    2.382210495097857E-019
  2.300000000000001E-003    2.957615150228235E-019
  2.400000000000001E-003    3.440634145286961E-019
  2.500000000000001E-003    3.782185221772714E-019
  2.600000000000001E-003    3.933918548772252E-019
  2.700000000000001E-003    3.851624812587180E-019
  2.800000000000001E-003    3.498962711595237E-019
  2.900000000000001E-003    2.851307210961594E-019
  3.000000000000001E-003    1.899476795816575E-019
  3.100000000000001E-003    6.530619685774336E-020
  3.200000000000001E-003   -8.569395299532070E-020
  3.300000000000001E-003   -2.576483793848818E-019
  3.400000000000001E-003   -4.428119570697496E-019
  3.500000000000001E-003   -6.312149122640206E-019
  3.600000000000001E-003   -8.109493081150038E-019
  3.700000000000001E-003   -9.686355319991558E-019
  3.800000000000001E-003   -1.090067299187251E-018
  3.900000000000001E-003   -1.161021741119839E-018
  4.000000000000001E-003   -1.168207437138470E-018
  4.100000000000001E-003   -1.100308719804682E-018
  4.200000000000001E-003   -9.490722222327069E-019
  4.300000000000001E-003   -7.103690532926030E-019
  4.400000000000001E-003   -3.851564588914027E-019
  4.500000000000001E-003    1.974210938496337E-020
  4.600000000000002E-003    4.911213248206558E-019
  4.700000000000001E-003    1.009219405589765E-018
  4.800000000000001E-003    1.547953406637963E-018
  4.900000000000002E-003    2.075612729161417E-018
  5.000000000000001E-003    2.556040637722899E-018
  5.100000000000001E-003    2.950300275645263E-018
  5.200000000000001E-003    3.218792906278865E-018
  5.300000000000002E-003    3.323756944276958E-018
  5.400000000000001E-003    3.232043604850910E-018
  5.500000000000001E-003    2.918024996287332E-018
  5.600000000000002E-003    2.366464174674826E-018
  5.700000000000001E-003    1.575149733747774E-018
  5.800000000000001E-003    5.570832922635055E-019
  5.900000000000002E-003   -6.579936707924397E-019
  6.000000000000001E-003   -2.022935274057608E-018
  6.100000000000001E-003   -3.473568146545998E-018
  6.200000000000002E-003   -4.930239482392679E-018
  6.300000000000002E-003   -6.300614741184181E-018
  6.400000000000001E-003   -7.483731051437310E-018
  6.500000000000001E-003   -8.375223792100957E-018
  6.600000000000002E-003   -8.873563825775794E-018
  6.700000000000001E-003   -8.887049176760912E-018
  6.800000000000001E-003   -8.341197633659477E-018
  6.900000000000002E-003   -7.186126062036479E-018
  7.000000000000001E-003   -5.403425529867281E-018
  7.100000000000001E-003   -3.012013833910737E-018
  7.200000000000002E-003   -7.243490734443901E-020
  7.300000000000002E-003    3.310903574728703E-018
  7.400000000000001E-003    6.989992178246092E-018
  7.500000000000001E-003    1.077633371393262E-017
  7.600000000000002E-003    1.444710593709008E-017
  7.700000000000001E-003    1.775442341919738E-017
  7.800000000000001E-003    2.043753304704612E-017
  7.900000000000001E-003    2.223756526829905E-017
  8.000000000000002E-003    2.291427614589489E-017
  8.100000000000001E-003    2.226395351780011E-017
  8.200000000000001E-003    2.013751223661710E-017
  8.300000000000002E-003    1.645764314017659E-017
  8.400000000000001E-003    1.123378016479071E-017
  8.500000000000002E-003    4.573622121550190E-018
  8.600000000000002E-003   -3.310001912218959E-018
  8.700000000000001E-003   -1.209799223163172E-017
  8.800000000000002E-003   -2.137044566489161E-017
  8.900000000000002E-003   -3.061923269887665E-017
  9.000000000000001E-003   -3.926790414722308E-017
  9.100000000000002E-003   -4.669859322279801E-017
  9.200000000000002E-003   -5.228517341068659E-017
  9.300000000000001E-003   -5.543138210539740E-017
  9.400000000000002E-003   -5.561216379585415E-017
  9.500000000000001E-003   -5.241600751290744E-017
  9.600000000000001E-003   -4.558576712760161E-017
  9.700000000000002E-003   -3.505514882257482E-017
  9.800000000000001E-003   -2.097800013389897E-017
  9.900000000000001E-003   -3.747602921190270E-018
  1.000000000000000E-002    1.599650029276254E-017
  1.010000000000000E-002    3.737622817877016E-017
  1.020000000000000E-002    5.929859511665297E-017
  1.030000000000000E-002    8.049575807179376E-017
  1.040000000000000E-002    9.958111755489193E-017
  1.050000000000000E-002    1.151199139637206E-016
  1.060000000000000E-002    1.257117121066790E-016
  1.070000000000000E-002    1.300811352877578E-016
  1.080000000000000E-002    1.271721858408764E-016
  1.090000000000000E-002    1.162406396510455E-016
  1.100000000000000E-002    9.693859865746693E-017
  1.110000000000000E-002    6.938491895944197E-017
  1.120000000000000E-002    3.421540824632609E-017
  1.130000000000000E-002   -7.392744503868546E-018
  1.140000000000000E-002   -5.372693340109014E-017
  1.150000000000000E-002   -1.025788315703147E-016
  1.160000000000000E-002   -1.513193030635624E-016
  1.170000000000000E-002   -1.970080418175145E-016
  1.180000000000000E-002   -2.365353785865761E-016
  1.190000000000000E-002   -2.667911751499214E-016
  1.200000000000000E-002   -2.848535842138947E-016
  1.210000000000000E-002   -2.881883729733661E-016
  1.220000000000000E-002   -2.748477735053603E-016
  1.230000000000000E-002   -2.436566162538590E-016
  1.240000000000000E-002   -1.943728503971898E-016
  1.250000000000000E-002   -1.278097789678436E-016
  1.260000000000000E-002   -4.590818693657294E-017
  1.270000000000000E-002    4.825168556988797E-017
  1.280000000000000E-002    1.505058073747792E-016
  1.290000000000000E-002    2.557334497870360E-016
  1.300000000000000E-002    3.580566877267128E-016
  1.310000000000000E-002    4.511071309086645E-016
  1.320000000000000E-002    5.283518515521235E-016
  1.330000000000000E-002    5.834650419223825E-016
  1.340000000000000E-002    6.107276994008360E-016
  1.350000000000000E-002    6.054345923214210E-016
  1.360000000000000E-002    5.642844727806619E-016
  1.370000000000000E-002    4.857286241244769E-016
  1.380000000000000E-002    3.702521698793977E-016
  1.390000000000000E-002    2.205640790618463E-016
  1.400000000000000E-002    4.167548672247736E-017
  1.410000000000000E-002   -1.591510809078102E-016
  1.420000000000000E-002   -3.725904158227503E-016
  1.430000000000000E-002   -5.875862524750851E-016
  1.440000000000000E-002   -7.918189369928707E-016
  1.450000000000000E-002   -9.722970135149628E-016
  1.460000000000000E-002   -1.116048744338566E-015
  1.470000000000000E-002   -1.210883902046285E-015
  1.480000000000000E-002   -1.246187710292393E-015
  1.490000000000000E-002   -1.213702790734716E-015
  1.500000000000000E-002   -1.108252253291234E-015
  1.510000000000000E-002   -9.283552504614284E-016
  1.520000000000000E-002   -6.766884174614152E-016
  1.530000000000000E-002   -3.603501680846077E-016
  1.540000000000000E-002    9.106507569459993E-018
  1.550000000000000E-002    4.158975368152137E-016
  1.560000000000000E-002    8.405005251252662E-016
  1.570000000000000E-002    1.260412194402188E-015
  1.580000000000000E-002    1.651154690010904E-015
  1.590000000000000E-002    1.987493696457797E-015
  1.600000000000000E-002    2.244819843871547E-015
  1.610000000000000E-002    2.400627283430310E-015
  1.620000000000000E-002    2.436014083211828E-015
  1.630000000000000E-002    2.337118756672628E-015
  1.640000000000000E-002    2.096403033707878E-015
  1.650000000000000E-002    1.713692885202959E-015
  1.660000000000000E-002    1.196895340822486E-015
  1.670000000000000E-002    5.623173437358167E-016
  1.680000000000000E-002   -1.654678096167666E-016
  1.690000000000000E-002   -9.542410538158307E-016
  1.700000000000000E-002   -1.765255294106621E-015
  1.710000000000000E-002   -2.554830795492506E-015
  1.720000000000000E-002   -3.276382698544031E-015
  1.730000000000000E-002   -3.882801981015212E-015
  1.740000000000000E-002   -4.329086538285578E-015
  1.750000000000000E-002   -4.575094696662556E-015
  1.760000000000000E-002   -4.588273391831526E-015
  1.770000000000000E-002   -4.346203930001040E-015
  1.780000000000000E-002   -3.838802093068948E-015
  1.790000000000000E-002   -3.070016242391873E-015
  1.800000000000000E-002   -2.058882151468646E-015
  1.810000000000000E-002   -8.398139085876860E-016
  1.820000000000000E-002    5.379488849408646E-016
  1.830000000000000E-002    2.011786577518339E-015
  1.840000000000000E-002    3.508030371188335E-015
  1.850000000000000E-002    4.945126413898700E-015
  1.860000000000000E-002    6.237526045348959E-015
  1.870000000000000E-002    7.300145819399974E-015