 -4.000000000000000E-002    0.000000000000000E+000
 -3.990000000000000E-002    0.000000000000000E+000
 -3.980000000000000E-002    0.000000000000000E+000
 -3.970000000000000E-002    0.000000000000000E+000
 -3.960000000000000E-002    0.000000000000000E+000
 -3.950000000000000E-002    0.000000000000000E+000
 -3.940000000000000E-002    0.000000000000000E+000
 -3.930000000000000E-002   -9.390785501182564E-026
 -3.920000000000000E-002   -1.306189744837637E-024
 -3.910000000000000E-002   -9.589107363109191E-024
 -3.900000000000000E-002   -4.933234480168370E-023
 -3.890000000000000E-002   -1.992942616504623E-022
 -3.880000000000000E-002   -6.717800927997131E-022
 -3.870000000000000E-002   -1.960641131291135E-021
 -3.860000000000000E-002   -5.076209953737727E-021
 -3.850000000000000E-002   -1.185195342234338E-020
 -3.840000000000000E-002   -2.523238211472785E-020
 -3.830000000000000E-002   -4.932154820488589E-020
 -3.820000000000000E-002   -8.878542344404600E-020
 -3.810000000000000E-002   -1.469828244207248E-019
 -3.800000000000000E-002   -2.220081612919375E-019
 -3.790000000000000E-002   -2.997701985731670E-019
 -3.780000000000000E-002   -3.434542369296036E-019
 -3.770000000000000E-002   -2.793947315796123E-019
 -3.760000000000000E-002    1.931163786254493E-020
 -3.750000000000000E-002    7.481104314276060E-019
 -3.740000000000000E-002    2.179211219858511E-018
 -3.730000000000000E-002    4.653732759105122E-018
 -3.720000000000000E-002    8.546063176105656E-018
 -3.710000000000000E-002    1.418724748234830E-017
 -3.700000000000000E-002    2.173521263685854E-017
 -3.690000000000000E-002    3.098440109327215E-017
 -3.680000000000000E-002    4.111725175509396E-017
 -3.670000000000000E-002    5.041527288115910E-017
 -3.660000000000000E-002    5.596820312143857E-017
 -3.650000000000000E-002    5.344377300684514E-017
 -3.640000000000000E-002    3.700445912209465E-017
 -3.630000000000000E-002   -5.238363699001213E-019
 -3.620000000000000E-002   -6.712034987797752E-017
 -3.610000000000000E-002   -1.705775900323953E-016
 -3.600000000000000E-002   -3.169913460219738E-016
 -3.590000000000000E-002   -5.087447801469985E-016
 -3.580000000000000E-002   -7.420983259279771E-016
 -3.570000000000000E-002   -1.004621372842401E-015
 -3.560000000000000E-002   -1.272832086184914E-015
 -3.550000000000000E-002   -1.510534087943931E-015
 -3.540000000000000E-002   -1.668416621372366E-015
 -3.530000000000000E-002   -1.685493638222224E-015
 -3.520000000000000E-002   -1.492867323264699E-015
 -3.510000000000000E-002   -1.020089106471823E-015
 -3.500000000000000E-002   -2.040550368122663E-016
 -3.490000000000000E-002    1.000071908096100E-015
 -3.480000000000000E-002    2.606926046083017E-015
 -3.470000000000000E-002    4.589514977849264E-015
 -3.460000000000000E-002    6.870220746277818E-015
 -3.450000000000000E-002    9.316351619675528E-015
 -3.440000000000000E-002    1.174223485281903E-014
 -3.430000000000000E-002    1.391934569478443E-014
 -3.420000000000000E-002    1.559501193945974E-014
 -3.410000000000000E-002    1.651889834925429E-014
 -3.400000000000000E-002    1.647484984570086E-014
 -3.390000000000000E-002    1.531395187025715E-014
 -3.380000000000000E-002    1.298319078573348E-014
 -3.370000000000000E-002    9.543108327074131E-015
 -3.360000000000000E-002    5.167805159309241E-015
 -3.350000000000000E-002    1.218227486990441E-016
 -3.340000000000000E-002   -5.289104919621018E-015
 -3.330000000000000E-002   -1.079243697014549E-014
 -3.320000000000000E-002   -1.624225440662206E-014
 -3.310000000000000E-002   -2.172001699803186E-014
 -3.300000000000000E-002   -2.762517354161288E-014
 -3.290000000000000E-002   -3.473386098581643E-014
 -3.280000000000000E-002   -4.420158724566857E-014
 -3.270000000000000E-002   -5.748700278913677E-014
 -3.260000000000000E-002   -7.617921882906642E-014
 -3.250000000000000E-002   -1.017208798615573E-013
 -3.240000000000000E-002   -1.350338603161012E-013
 -3.230000000000000E-002   -1.760721599209013E-013
 -3.220000000000000E-002   -2.233464144183546E-013
 -3.210000000000000E-002   -2.734834199122120E-013
 -3.200000000000000E-002   -3.208995576771085E-013
 -3.190000000000000E-002   -3.576749309268950E-013
 -3.180000000000000E-002   -3.737141020048873E-013
 -3.170000000000000E-002   -3.572637751889548E-013
 -3.160000000000000E-002   -2.958302876070018E-013
 -3.150000000000000E-002   -1.774981294532812E-013
 -3.140000000000000E-002    7.402842475738389E-015
 -3.130000000000000E-002    2.643924352195974E-013
 -3.120000000000000E-002    5.928680221045891E-013
 -3.110000000000000E-002    9.842883798410514E-013
 -3.100000000000000E-002    1.420771922639880E-012
 -3.090000000000000E-002    1.874378625163321E-012
 -3.080000000000000E-002    2.307326279108640E-012
 -3.070000000000000E-002    2.673336515885796E-012
 -3.060000000000000E-002    2.920216154267075E-012
 -3.050000000000000E-002    2.993658994314255E-012
 -3.040000000000000E-002    2.842112585701131E-012
 -3.030000000000000E-002    2.422399474926332E-012
 -3.020000000000000E-002    1.705649001525132E-012
 -3.010000000000000E-002    6.829694213695438E-013
 -3.000000000000000E-002   -6.297677233854956E-013
 -2.990000000000000E-002   -2.188675529241474E-012
 -2.980000000000000E-002   -3.920709609722534E-012
 -2.970000000000000E-002   -5.725079797314795E-012
 -2.960000000000000E-002   -7.477453355264751E-012
 -2.950000000000000E-002   -9.036925582997362E-012
 -2.940000000000000E-002   -1.025544754069084E-011
 -2.930000000000000E-002   -1.098911120498586E-011
 -2.920000000000000E-002   -1.111043357595778E-011
 -2.910000000000000E-002   -1.052058104087328E-011
 -2.900000000000000E-002   -9.160406131947168E-012
 -2.890000000000000E-002   -7.019156767194656E-012
 -2.880000000000000E-002   -4.139888232440720E-012
 -2.870000000000000E-002   -6.208578069380204E-013
 -2.860000000000000E-002    3.387448561623981E-012
 -2.850000000000000E-002    7.689594787010563E-012
 -2.840000000000000E-002    1.205627305209865E-011
 -2.830000000000000E-002    1.623827700916552E-011
 -2.820000000000000E-002    1.998215447448780E-011
 -2.810000000000000E-002    2.304614867243535E-011
 -2.800000000000000E-002    2.521499696401924E-011
 -2.790000000000000E-002    2.631235046582810E-011
 -2.780000000000000E-002    2.620985583999142E-011
 -2.770000000000000E-002    2.483237942605846E-011
 -2.760000000000000E-002    2.215941755591062E-011
 -2.750000000000000E-002    1.822317463220945E-011
 -2.740000000000000E-002    1.310429039062063E-011
 -2.730000000000000E-002    6.926438707997707E-012
 -2.720000000000000E-002   -1.488384789947257E-013
 -2.710000000000000E-002   -7.925897118599126E-012
 -2.700000000000000E-002   -1.617654323762575E-011
 -2.690000000000000E-002   -2.463912612497237E-011
 -2.680000000000000E-002   -3.301568425752911E-011
 -2.670000000000000E-002   -4.096833112184420E-011
 -2.660000000000000E-002   -4.811678116880453E-011
 -2.650000000000000E-002   -5.403930961374971E-011
 -2.640000000000000E-002   -5.827962912093063E-011
 -2.630000000000000E-002   -6.036183789721832E-011
 -2.620000000000000E-002   -5.981498502114897E-011
 -2.610000000000000E-002   -5.620766718566044E-011
 -2.600000000000000E-002   -4.919171492705867E-011
 -2.590000000000000E-002   -3.855240022372389E-011
 -2.580000000000000E-002   -2.426110009595020E-011
 -2.570000000000000E-002   -6.524932840959129E-012
 -2.560000000000000E-002    1.417299050384831E-011
 -2.550000000000000E-002    3.704939503453780E-011
 -2.540000000000000E-002    6.101893086074092E-011
 -2.530000000000000E-002    8.471952240935353E-011
 -2.520000000000000E-002    1.065678378065223E-010
 -2.510000000000000E-002    1.248450659369567E-010
 -2.500000000000000E-002    1.378100158062187E-010
 -2.490000000000000E-002    1.438333147753597E-010
 -2.480000000000000E-002    1.415433855592771E-010
 -2.470000000000000E-002    1.299724032838942E-010
 -2.460000000000000E-002    1.086888852746572E-010
 -2.450000000000000E-002    7.790327039221907E-011
 -2.440000000000000E-002    3.853369449782869E-011
 -2.430000000000000E-002   -7.778221816005577E-012
 -2.420000000000000E-002   -5.870850507405625E-011
 -2.410000000000000E-002   -1.113507549417167E-010
 -2.400000000000000E-002   -1.623719271195690E-010
 -2.390000000000000E-002   -2.082154329646024E-010
 -2.380000000000000E-002   -2.453384167845836E-010
 -2.370000000000000E-002   -2.704659362345105E-010
 -2.360000000000000E-002   -2.808423866915075E-010
 -2.350000000000000E-002   -2.744597463573763E-010
 -2.340000000000000E-002   -2.502433291661816E-010
 -2.330000000000000E-002   -2.081786636216913E-010
 -2.320000000000000E-002   -1.493678103733376E-010
 -2.310000000000000E-002   -7.600923771578558E-011
 -2.300000000000000E-002    8.698229283035306E-012
 -2.290000000000000E-002    1.007203258850598E-010
 -2.280000000000000E-002    1.954083173604118E-010
 -2.270000000000000E-002    2.877585085929222E-010
 -2.260000000000000E-002    3.726903002809552E-010
 -2.250000000000000E-002    4.453215617786826E-010
 -2.240000000000000E-002    5.012219659642216E-010
 -2.230000000000000E-002    5.366276763474223E-010
 -2.220000000000000E-002    5.486062444330738E-010
 -2.210000000000000E-002    5.351656494473602E-010
 -2.200000000000000E-002    4.953083224017893E-010
 -2.190000000000000E-002    4.290356646605007E-010
 -2.180000000000000E-002    3.373141818092461E-010
 -2.170000000000000E-002    2.220158518670555E-010
 -2.160000000000000E-002    8.584707219875327E-011
 -2.150000000000000E-002   -6.772178089230698E-011
 -2.140000000000000E-002   -2.345171988182438E-010
 -2.130000000000000E-002   -4.097100329183570E-010
 -2.120000000000000E-002   -5.878520004801893E-010
 -2.110000000000000E-002   -7.629091457211838E-010
 -2.100000000000000E-002   -9.283057702332450E-010
 -2.090000000000000E-002   -1.076995351226945E-009
 -2.080000000000000E-002   -1.201575967949930E-009
 -2.070000000000000E-002   -1.294466972830353E-009
 -2.060000000000000E-002   -1.348156761617772E-009
 -2.050000000000000E-002   -1.355526877765724E-009
 -2.040000000000000E-002   -1.310246296973481E-009
 -2.030000000000000E-002   -1.207219837533770E-009
 -2.020000000000000E-002   -1.043064974636935E-009
 -2.010000000000000E-002   -8.165812329031038E-010
 -2.000000000000000E-002   -5.291705369999511E-010
 -1.990000000000000E-002   -1.851641996176776E-010
 -1.980000000000000E-002    2.079865514737783E-010
 -1.970000000000000E-002    6.396932511276898E-010
 -1.960000000000000E-002    1.096411774844256E-009
 -1.950000000000000E-002    1.562034291045368E-009
 -1.940000000000000E-002    2.018485153626968E-009
 -1.930000000000000E-002    2.446496678614534E-009
 -1.920000000000000E-002    2.826522863894050E-009
 -1.910000000000000E-002    3.139732558319215E-009
 -1.900000000000000E-002    3.369015453420560E-009
 -1.890000000000000E-002    3.499925284823822E-009
 -1.880000000000000E-002    3.521490294067446E-009
 -1.870000000000000E-002    3.426825423167163E-009
 -1.860000000000000E-002    3.213497089146378E-009
 -1.850000000000000E-002    2.883609882287043E-009
 -1.840000000000000E-002    2.443613392722203E-009
 -1.830000000000000E-002    1.903843791322771E-009
 -1.820000000000000E-002    1.277848799061529E-009
 -1.810000000000000E-002    5.815583029992794E-010
 -1.800000000000000E-002   -1.676167993643980E-010
 -1.790000000000000E-002   -9.516689903637514E-010
 -1.780000000000000E-002   -1.752773371707370E-009
 -1.770000000000000E-002   -2.553881020253796E-009
 -1.760000000000000E-002   -3.339066284290342E-009
 -1.750000000000000E-002   -4.093586956350893E-009
 -1.740000000000000E-002   -4.803652772950539E-009
 -1.730000000000000E-002   -5.455922463356221E-009
 -1.720000000000000E-002   -6.036782929741844E-009
 -1.710000000000000E-002   -6.531495113890802E-009
 -1.700000000000000E-002   -6.923302958123297E-009
 -1.690000000000000E-002   -7.192625510800287E-009
 -1.680000000000000E-002   -7.316446943229831E-009
 -1.670000000000000E-002   -7.268016110274506E-009
 -1.660000000000000E-002   -7.016955267628776E-009
 -1.650000000000000E-002   -6.529839952012887E-009
 -1.640000000000000E-002   -5.771302021306736E-009
 -1.630000000000000E-002   -4.705658873344025E-009
 -1.620000000000000E-002   -3.299043690675511E-009
 -1.610000000000000E-002   -1.521986870030873E-009
 -1.600000000000000E-002    6.476350723751293E-010
 -1.590000000000000E-002    3.221378883753587E-009
 -1.580000000000000E-002    6.196854986325850E-009
 -1.570000000000000E-002    9.554293678140407E-009
 -1.560000000000000E-002    1.325317304475416E-008
 -1.550000000000000E-002    1.722899851894172E-008
 -1.540000000000000E-002    2.139032089870981E-008
 -1.530000000000000E-002    2.561606107211756E-008
 -1.520000000000000E-002    2.975319534053354E-008
 -1.510000000000000E-002    3.361485401875275E-008
 -1.500000000000000E-002    3.697884260635374E-008
 -1.490000000000000E-002    3.958664897323572E-008
 -1.480000000000000E-002    4.114296142675597E-008
 -1.470000000000000E-002    4.131572731624787E-008
 -1.460000000000000E-002    3.973680551503819E-008
 -1.450000000000000E-002    3.600326200884789E-008
 -1.440000000000000E-002    2.967936562726477E-008
 -1.430000000000000E-002    2.029931852723267E-008
 -1.420000000000000E-002    7.370760610685655E-009
 -1.410000000000000E-002   -9.620911455369944E-009
 -1.400000000000000E-002   -3.120750418543931E-008
 -1.390000000000000E-002   -5.793218408960229E-008
 -1.380000000000000E-002   -9.034308710428425E-008
 -1.370000000000000E-002   -1.289863824960739E-007
 -1.360000000000000E-002   -1.743990548568042E-007
 -1.350000000000000E-002   -2.271017044847181E-007
 -1.340000000000000E-002   -2.875913744467294E-007
 -1.330000000000000E-002   -3.563349779001508E-007
 -1.320000000000000E-002   -4.337635763749472E-007
 -1.310000000000000E-002   -5.202676053839798E-007
 -1.300000000000000E-002   -6.161935283930532E-007
 -1.290000000000000E-002   -7.218420654158439E-007
 -1.280000000000000E-002   -8.374682009074637E-007
 -1.270000000000000E-002   -9.632832648477021E-007
 -1.260000000000000E-002   -1.099458783005321E-006
 -1.250000000000000E-002   -1.246132260564927E-006
 -1.240000000000000E-002   -1.403415377295148E-006
 -1.230000000000000E-002   -1.571403225984630E-006
 -1.220000000000000E-002   -1.750185599051200E-006
 -1.210000000000000E-002   -1.939859729545383E-006
 -1.200000000000000E-002   -2.140543780407339E-006
 -1.190000000000000E-002   -2.352390431507381E-006
 -1.180000000000000E-002   -2.575602367762058E-006
 -1.170000000000000E-002   -2.810446094574324E-006
 -1.160000000000000E-002   -3.057266074059375E-006
 -1.150000000000000E-002   -3.316498385185615E-006
 -1.140000000000000E-002   -3.588682604569268E-006
 -1.130000000000000E-002   -3.874472790030106E-006
 -1.120000000000000E-002   -4.174645422304789E-006
 -1.110000000000000E-002   -4.490106895213754E-006
 -1.100000000000000E-002   -4.821898233392437E-006
 -1.090000000000000E-002   -5.171197132261367E-006
 -1.080000000000000E-002   -5.539317774173903E-006
 -1.070000000000000E-002   -5.927707037794137E-006
 -1.060000000000000E-002   -6.337941023908805E-006
 -1.050000000000000E-002   -6.771717065236003E-006
 -1.040000000000000E-002   -7.230845174930785E-006
 -1.030000000000000E-002   -7.717238375839346E-006
 -1.020000000000000E-002   -8.232900400488733E-006
 -1.010000000000000E-002   -8.779916013235550E-006
 -1.000000000000000E-002   -9.360439215610288E-006
 -9.899999999999999E-003   -9.976683299215834E-006
 -9.800000000000000E-003   -1.063091435996080E-005
 -9.699999999999999E-003   -1.132544348535122E-005
 -9.599999999999999E-003   -1.206262352928039E-005
 -9.500000000000000E-003   -1.284485096602262E-005
 -9.399999999999999E-003   -1.367456692550759E-005
 -9.299999999999999E-003   -1.455426414539514E-005
 -9.200000000000000E-003   -1.548649905332047E-005
 -9.099999999999999E-003   -1.647389947407569E-005
 -8.999999999999999E-003   -1.751918285601044E-005
 -8.900000000000000E-003   -1.862517583082158E-005
 -8.799999999999999E-003   -1.979483084915240E-005
 -8.699999999999999E-003   -2.103124383278501E-005
 -8.600000000000000E-003   -2.233767800455751E-005
 -8.499999999999999E-003   -2.371757938378147E-005
 -8.399999999999999E-003   -2.517459650835650E-005
 -8.300000000000000E-003   -2.671259622891680E-005
 -8.199999999999999E-003   -2.833567909151534E-005
 -8.100000000000000E-003   -3.004818905862118E-005
 -8.000000000000000E-003   -3.185473103065700E-005
 -7.899999999999999E-003   -3.376016589622668E-005
 -7.800000000000000E-003   -3.576963363104321E-005
 -7.699999999999999E-003   -3.788854458789469E-005
 -7.599999999999999E-003   -4.012260042805808E-005
 -7.499999999999999E-003   -4.247778106824577E-005
 -7.399999999999999E-003   -4.496036728227517E-005
 -7.299999999999999E-003   -4.757693513446047E-005
 -7.199999999999999E-003   -5.033437190540543E-005
 -7.100000000000000E-003   -5.323987589609296E-005
 -6.999999999999999E-003   -5.630097066320740E-005
 -6.899999999999999E-003   -5.952551141667813E-005
 -6.800000000000000E-003   -6.292170444149552E-005
 -6.699999999999999E-003   -6.649810269655673E-005
 -6.599999999999999E-003   -7.026364037627084E-005
 -6.499999999999999E-003   -7.422762501501033E-005
 -6.399999999999999E-003   -7.839974965943226E-005
 -6.299999999999999E-003   -8.279011105000360E-005
 -6.199999999999999E-003   -8.740920412996540E-005
 -6.100000000000000E-003   -9.226795834968787E-005
 -5.999999999999999E-003   -9.737771324086020E-005
 -5.899999999999999E-003   -1.027502489004560E-004
 -5.800000000000000E-003   -1.083977842108714E-004
 -5.699999999999999E-003   -1.143329864932910E-004
 -5.599999999999999E-003   -1.205690099759717E-004
 -5.499999999999999E-003   -1.271194623093430E-004
 -5.399999999999999E-003   -1.339984881217342E-004
 -5.299999999999999E-003   -1.412207421173808E-004
 -5.199999999999999E-003   -1.488014394056203E-004
 -5.099999999999999E-003   -1.567563773742070E-004
 -4.999999999999999E-003   -1.651020005873192E-004
 -4.899999999999999E-003   -1.738553996895749E-004
 -4.799999999999999E-003   -1.830343851139510E-004
 -4.699999999999999E-003   -1.926575042614312E-004
 -4.599999999999999E-003   -2.027441184072036E-004
 -4.499999999999999E-003   -2.133143960862809E-004
 -4.399999999999999E-003   -2.243893631211194E-004
 -4.299999999999999E-003   -2.359909621950723E-004
 -4.199999999999999E-003   -2.481420817021398E-004
 -4.099999999999999E-003   -2.608664821891856E-004
 -3.999999999999999E-003   -2.741889280784787E-004
 -3.899999999999999E-003   -2.881351475961391E-004
 -3.799999999999999E-003   -3.027318020493453E-004
 -3.699999999999999E-003   -3.180065677345016E-004
 -3.599999999999999E-003   -3.339880460993450E-004
 -3.499999999999999E-003   -3.507058478363092E-004
 -3.399999999999999E-003   -3.681905112488536E-004
 -3.299999999999999E-003   -3.864735528883481E-004
 -3.199999999999999E-003   -4.055874709175976E-004
 -3.099999999999999E-003   -4.255656980476811E-004
 -2.999999999999999E-003   -4.464427230622987E-004
 -2.899999999999999E-003   -4.682539989111378E-004
 -2.799999999999999E-003   -4.910360606530653E-004
 -2.699999999999999E-003   -5.148265229780914E-004
 -2.599999999999999E-003   -5.396640967342490E-004
 -2.499999999999999E-003   -5.655886663837767E-004
 -2.399999999999999E-003   -5.926413350058140E-004
 -2.299999999999999E-003   -6.208645081480619E-004
 -2.199999999999999E-003   -6.503018057578054E-004
 -2.099999999999999E-003   -6.809983006627484E-004
 -1.999999999999999E-003   -7.130004701720472E-004
 -1.899999999999999E-003   -7.463561628456007E-004
 -1.799999999999999E-003   -7.811147666275886E-004
 -1.699999999999999E-003   -8.173272799252204E-004
 -1.599999999999999E-003   -8.550460911963570E-004
 -1.499999999999999E-003   -8.943253769473272E-004
 -1.399999999999999E-003   -9.352207626943208E-004
 -1.299999999999999E-003   -9.777896342819856E-004
 -1.199999999999999E-003   -1.022091017518072E-003
 -1.099999999999999E-003   -1.068185667944227E-003
 -9.999999999999989E-004   -1.116135871447613E-003
 -8.999999999999990E-004   -1.166005815822861E-003
 -7.999999999999990E-004   -1.217861253744873E-003
 -6.999999999999989E-004   -1.271769767658617E-003
 -5.999999999999990E-004   -1.327800631903472E-003
 -4.999999999999989E-004   -1.386024723327045E-003
 -3.999999999999989E-004   -1.446514753751908E-003
 -2.999999999999989E-004   -1.509344985467811E-003
 -1.999999999999989E-004   -1.574591611959957E-003
 -9.999999999999892E-005   -1.642332353740212E-003
  1.084202172485504E-018   -1.712646699944254E-003
  1.000000000000011E-004   -1.785615721422421E-003
  2.000000000000011E-004   -1.861322168020226E-003
  3.000000000000011E-004   -1.939850604480320E-003
  4.000000000000011E-004   -2.021287132274510E-003
  5.000000000000011E-004   -2.105719568255694E-003
  6.000000000000011E-004   -2.193237451205064E-003
  7.000000000000011E-004   -2.283931836319428E-003
  8.000000000000011E-004   -2.377895668247762E-003
  9.000000000000012E-004   -2.475223559946256E-003
  1.000000000000001E-003   -2.576011849354768E-003
  1.100000000000001E-003   -2.680358481720622E-003
  1.200000000000001E-003   -2.788363385325265E-003
  1.300000000000001E-003   -2.900127949023757E-003
  1.400000000000001E-003   -3.015755231673284E-003
  1.500000000000001E-003   -3.135350559320719E-003
  1.600000000000001E-003   -3.259020392727354E-003
  1.700000000000001E-003   -3.386873203341040E-003
  1.800000000000001E-003   -3.519019011682557E-003
  1.900000000000001E-003   -3.655569437203026E-003
  2.000000000000001E-003   -3.796637666297602E-003
  2.100000000000001E-003   -3.942338281196262E-003
  2.200000000000001E-003   -4.092787574777516E-003
  2.300000000000001E-003   -4.248102822328567E-003
  2.400000000000001E-003   -4.408403042843968E-003
  2.500000000000001E-003   -4.573808215269270E-003
  2.600000000000001E-003   -4.744439313699798E-003
  2.700000000000001E-003   -4.920418657187234E-003
  2.800000000000001E-003   -5.101869060291754E-003
  2.900000000000001E-003   -5.288914570472618E-003
  3.000000000000001E-003   -5.481679861195238E-003
  3.100000000000001E-003   -5.680290293568042E-003
  3.200000000000001E-003   -5.884871701492019E-003
  3.300000000000001E-003   -6.095550618956110E-003
  3.400000000000001E-003   -6.312453632845863E-003
  3.500000000000001E-003   -6.535707941349003E-003
  3.600000000000001E-003   -6.765439966240284E-003
  3.700000000000001E-003   -7.001776842018014E-003
  3.800000000000001E-003   -7.244845374870407E-003
  3.900000000000001E-003   -7.494772300042015E-003
  4.000000000000001E-003   -7.751683784766457E-003
  4.100000000000001E-003   -8.015705291962614E-003
  4.200000000000001E-003   -8.286961861143223E-003
  4.300000000000001E-003   -8.565577877786258E-003
  4.400000000000001E-003   -8.851676043337791E-003
  4.500000000000001E-003   -9.145378611419052E-003
  4.600000000000002E-003   -9.446806667736509E-003
  4.700000000000001E-003   -9.756079537257918E-003
  4.800000000000001E-003   -1.007331571228706E-002
  4.900000000000002E-003   -1.039863050321048E-002
  5.000000000000001E-003   -1.073213930866369E-002
  5.100000000000001E-003   -1.107395347566360E-002
  5.200000000000001E-003   -1.142418336129238E-002
  5.300000000000002E-003   -1.178293622882986E-002
  5.400000000000001E-003   -1.215031574790007E-002
  5.500000000000001E-003   -1.252642437942694E-002
  5.600000000000002E-003   -1.291135918613580E-002
  5.700000000000001E-003   -1.330521576396788E-002
  5.800000000000001E-003   -1.370808470014863E-002
  5.900000000000002E-003   -1.412005328696503E-002
  6.000000000000001E-003   -1.454120328027001E-002
  6.100000000000001E-003   -1.497161396188165E-002
  6.200000000000002E-003   -1.541135863545171E-002
  6.300000000000002E-003   -1.586050557445892E-002
  6.400000000000001E-003   -1.631911534906160E-002
  6.500000000000001E-003   -1.678724781873097E-002
  6.600000000000002E-003   -1.726495507125040E-002
  6.700000000000001E-003   -1.775228119474951E-002
  6.800000000000001E-003   -1.824926540248041E-002
  6.900000000000002E-003   -1.875594097305821E-002
  7.000000000000001E-003   -1.927233423221620E-002
  7.100000000000001E-003   -1.979846210910107E-002
  7.200000000000002E-003   -2.033433676625156E-002
  7.300000000000002E-003   -2.087996026811568E-002
  7.400000000000001E-003   -2.143532894895203E-002
  7.500000000000001E-003   -2.200042881106956E-002
  7.600000000000002E-003   -2.257523982554021E-002
  7.700000000000001E-003   -2.315972840070300E-002
  7.800000000000001E-003   -2.375385880208901E-002
  7.900000000000001E-003   -2.435757825860606E-002
  8.000000000000002E-003   -2.497082838094596E-002
  8.100000000000001E-003   -2.559354113843560E-002
  8.200000000000001E-003   -2.622563499575336E-002
  8.300000000000002E-003   -2.686702101464597E-002
  8.400000000000001E-003   -2.751759792541486E-002
  8.500000000000002E-003   -2.817725253408270E-002
  8.600000000000002E-003   -2.884586223459960E-002
  8.700000000000001E-003   -2.952329031927433E-002
  8.800000000000002E-003   -3.020939017046722E-002
  8.900000000000002E-003   -3.090400110499228E-002
  9.000000000000001E-003   -3.160694993906721E-002
  9.100000000000002E-003   -3.231805531166305E-002
  9.200000000000002E-003   -3.303711467760924E-002
  9.300000000000001E-003   -3.376391601851991E-002
  9.400000000000002E-003   -3.449823711596072E-002
  9.500000000000001E-003   -3.523983463352350E-002
  9.600000000000001E-003   -3.598845703287595E-002
  9.700000000000002E-003   -3.674383892912492E-002
  9.800000000000001E-003   -3.750569541862379E-002
  9.900000000000001E-003   -3.827373177512614E-002
  1.000000000000000E-002   -3.904763666486130E-002
  1.010000000000000E-002   -3.982708139773250E-002
  1.020000000000000E-002   -4.061172515290910E-002
  1.030000000000000E-002   -4.140121258951452E-002
  1.040000000000000E-002   -4.219517194202751E-002
  1.050000000000000E-002   -4.299321228139073E-002
  1.060000000000000E-002   -4.379493292101872E-002
  1.070000000000000E-002   -4.459991242890522E-002
  1.080000000000000E-002   -4.540771722815981E-002
  1.090000000000000E-002   -4.621789821909139E-002
  1.100000000000000E-002   -4.702998926268972E-002
  1.110000000000000E-002   -4.784350731491162E-002
  1.120000000000000E-002   -4.865795627925800E-002
  1.130000000000000E-002   -4.947281899499084E-002
  1.140000000000000E-002   -5.028756759813378E-002
  1.150000000000000E-002   -5.110165846092882E-002
  1.160000000000000E-002   -5.191453061242130E-002
  1.170000000000000E-002   -5.272560672664926E-002
  1.180000000000000E-002   -5.353429686206566E-002
  1.190000000000000E-002   -5.433998971670979E-002
  1.200000000000000E-002   -5.514206596255861E-002
  1.210000000000000E-002   -5.593988822862608E-002
  1.220000000000000E-002   -5.673280240071461E-002
  1.230000000000000E-002   -5.752013936930431E-002
  1.240000000000000E-002   -5.830121835295991E-002
  1.250000000000000E-002   -5.907534229666271E-002
  1.260000000000000E-002   -5.984180065806828E-002
  1.270000000000000E-002   -6.059986800772971E-002
  1.280000000000000E-002   -6.134880704556696E-002
  1.290000000000000E-002   -6.208786613120997E-002
  1.300000000000000E-002   -6.281628189688407E-002
  1.310000000000000E-002   -6.353327837348262E-002
  1.320000000000000E-002   -6.423806610155967E-002
  1.330000000000000E-002   -6.492984872144511E-002
  1.340000000000000E-002   -6.560782043233042E-002
  1.350000000000000E-002   -6.627115807198911E-002
  1.360000000000000E-002   -6.691902945621160E-002
  1.370000000000000E-002   -6.755060352439077E-002
  1.380000000000000E-002   -6.816502747600500E-002
  1.390000000000000E-002   -6.876144415239456E-002
  1.400000000000000E-002   -6.933899715625706E-002
  1.410000000000000E-002   -6.989681356797642E-002
  1.420000000000000E-002   -7.043401429964198E-002
  1.430000000000000E-002   -7.094972729389466E-002
  1.440000000000000E-002   -7.144306110270174E-002
  1.450000000000000E-002   -7.191312347666906E-002
  1.460000000000000E-002   -7.235902768623470E-002
  1.470000000000000E-002   -7.277987821102709E-002
  1.480000000000000E-002   -7.317477296576111E-002
  1.490000000000000E-002   -7.354281647720148E-002
  1.500000000000000E-002   -7.388310659957033E-002
  1.510000000000000E-002   -7.419475191552607E-002
  1.520000000000000E-002   -7.447684930572948E-002
  1.530000000000000E-002   -7.472850366770906E-002
  1.540000000000000E-002   -7.494882925019318E-002
  1.550000000000000E-002   -7.513693802510253E-002
  1.560000000000000E-002   -7.529194470341154E-002
  1.570000000000000E-002   -7.541297232010113E-002
  1.580000000000000E-002   -7.549915753746721E-002
  1.590000000000000E-002   -7.554963326216316E-002
  1.600000000000000E-002   -7.556355396818799E-002
  1.610000000000000E-002   -7.554007296333880E-002
  1.620000000000000E-002   -7.547836032270236E-002
  1.630000000000000E-002   -7.537759551257858E-002
  1.640000000000000E-002   -7.523697265807457E-002
  1.650000000000000E-002   -7.505569956445592E-002
  1.660000000000000E-002   -7.483299312797866E-002
  1.670000000000000E-002   -7.456809659356657E-002
  1.680000000000000E-002   -7.426026180737581E-002
  1.690000000000000E-002   -7.390876372150046E-002
  1.700000000000000E-002   -7.351289294918567E-002
  1.710000000000000E-002   -7.307196149130973E-002
  1.720000000000000E-002   -7.258529744685334E-002
  1.730000000000000E-002   -7.205226025479225E-002
  1.740000000000000E-002   -7.147223393859170E-002
  1.750000000000000E-002   -7.084461438268200E-002
  1.760000000000000E-002   -7.016883016065305E-002
  1.770000000000000E-002   -6.944433482128187E-002
  1.780000000000000E-002   -6.867060904764920E-002
  1.790000000000000E-002   -6.784715746122953E-002
  1.800000000000000E-002   -6.697352136052294E-002
  1.810000000000000E-002   -6.604926294475237E-002
  1.820000000000000E-002   -6.507397722413225E-002
  1.830000000000000E-002   -6.404729617938297E-002
  1.840000000000000E-002   -6.296887892016144E-002
  1.850000000000000E-002   -6.183841868516113E-002
  1.860000000000000E-002   -6.065564298425137E-002
  1.870000000000000E-002   -5.942031180220989E-002