 -4.000000000000000E-002    0.000000000000000E+000
 -3.990000000000000E-002    0.000000000000000E+000
 -3.980000000000000E-002    0.000000000000000E+000
 -3.970000000000000E-002    0.000000000000000E+000
 -3.960000000000000E-002    0.000000000000000E+000
 -3.950000000000000E-002    0.000000000000000E+000
 -3.940000000000000E-002    0.000000000000000E+000
 -3.930000000000000E-002    0.000000000000000E+000
 -3.920000000000000E-002    0.000000000000000E+000
 -3.910000000000000E-002    0.000000000000000E+000
 -3.900000000000000E-002    0.000000000000000E+000
 -3.890000000000000E-002    0.000000000000000E+000
 -3.880000000000000E-002    0.000000000000000E+000
 -3.870000000000000E-002    0.000000000000000E+000
 -3.860000000000000E-002    0.000000000000000E+000
 -3.850000000000000E-002    0.000000000000000E+000
 -3.840000000000000E-002    0.000000000000000E+000
 -3.830000000000000E-002    0.000000000000000E+000
 -3.820000000000000E-002    0.000000000000000E+000
 -3.810000000000000E-002    0.000000000000000E+000
 -3.800000000000000E-002    0.000000000000000E+000
 -3.790000000000000E-002    0.000000000000000E+000
 -3.780000000000000E-002    0.000000000000000E+000
 -3.770000000000000E-002    0.000000000000000E+000
 -3.760000000000000E-002    0.000000000000000E+000
 -3.750000000000000E-002    0.000000000000000E+000
 -3.740000000000000E-002    0.000000000000000E+000
 -3.730000000000000E-002    0.000000000000000E+000
 -3.720000000000000E-002    0.000000000000000E+000
 -3.710000000000000E-002    0.000000000000000E+000
 -3.700000000000000E-002    0.000000000000000E+000
 -3.690000000000000E-002    0.000000000000000E+000
 -3.680000000000000E-002    0.000000000000000E+000
 -3.670000000000000E-002    0.000000000000000E+000
 -3.660000000000000E-002    0.000000000000000E+000
 -3.650000000000000E-002    0.000000000000000E+000
 -3.640000000000000E-002    0.000000000000000E+000
 -3.630000000000000E-002    0.000000000000000E+000
 -3.620000000000000E-002    0.000000000000000E+000
 -3.610000000000000E-002    0.000000000000000E+000
 -3.600000000000000E-002    0.000000000000000E+000
 -3.590000000000000E-002    0.000000000000000E+000
 -3.580000000000000E-002    0.000000000000000E+000
 -3.570000000000000E-002    0.000000000000000E+000
 -3.560000000000000E-002    0.000000000000000E+000
 -3.550000000000000E-002    0.000000000000000E+000
 -3.540000000000000E-002    0.000000000000000E+000
 -3.530000000000000E-002    0.000000000000000E+000
 -3.520000000000000E-002    0.000000000000000E+000
 -3.510000000000000E-002    0.000000000000000E+000
 -3.500000000000000E-002    0.000000000000000E+000
 -3.490000000000000E-002    0.000000000000000E+000
 -3.480000000000000E-002    0.000000000000000E+000
 -3.470000000000000E-002    0.000000000000000E+000
 -3.460000000000000E-002    0.000000000000000E+000
 -3.450000000000000E-002    0.000000000000000E+000
 -3.440000000000000E-002    0.000000000000000E+000
 -3.430000000000000E-002    0.000000000000000E+000
 -3.420000000000000E-002    0.000000000000000E+000
 -3.410000000000000E-002    0.000000000000000E+000
 -3.400000000000000E-002    0.000000000000000E+000
 -3.390000000000000E-002    0.000000000000000E+000
 -3.380000000000000E-002    0.000000000000000E+000
 -3.370000000000000E-002    0.000000000000000E+000
 -3.360000000000000E-002    0.000000000000000E+000
 -3.350000000000000E-002    0.000000000000000E+000
 -3.340000000000000E-002    0.000000000000000E+000
 -3.330000000000000E-002    0.000000000000000E+000
 -3.320000000000000E-002    0.000000000000000E+000
 -3.310000000000000E-002    0.000000000000000E+000
 -3.300000000000000E-002    0.000000000000000E+000
 -3.290000000000000E-002    0.000000000000000E+000
 -3.280000000000000E-002    0.000000000000000E+000
 -3.270000000000000E-002    0.000000000000000E+000
 -3.260000000000000E-002    0.000000000000000E+000
 -3.250000000000000E-002    0.000000000000000E+000
 -3.240000000000000E-002    0.000000000000000E+000
 -3.230000000000000E-002    0.000000000000000E+000
 -3.220000000000000E-002    0.000000000000000E+000
 -3.210000000000000E-002    0.000000000000000E+000
 -3.200000000000000E-002    0.000000000000000E+000
 -3.190000000000000E-002    0.000000000000000E+000
 -3.180000000000000E-002    0.000000000000000E+000
 -3.170000000000000E-002    0.000000000000000E+000
 -3.160000000000000E-002    0.000000000000000E+000
 -3.150000000000000E-002    0.000000000000000E+000
 -3.140000000000000E-002    0.000000000000000E+000
 -3.130000000000000E-002    0.000000000000000E+000
 -3.120000000000000E-002    0.000000000000000E+000
 -3.110000000000000E-002    0.000000000000000E+000
 -3.100000000000000E-002    0.000000000000000E+000
 -3.090000000000000E-002    0.000000000000000E+000
 -3.080000000000000E-002    0.000000000000000E+000
 -3.070000000000000E-002    0.000000000000000E+000
 -3.060000000000000E-002    0.000000000000000E+000
 -3.050000000000000E-002    0.000000000000000E+000
 -3.040000000000000E-002    0.000000000000000E+000
 -3.030000000000000E-002    0.000000000000000E+000
 -3.020000000000000E-002    0.000000000000000E+000
 -3.010000000000000E-002    0.000000000000000E+000
 -3.000000000000000E-002    0.000000000000000E+000
 -2.990000000000000E-002    0.000000000000000E+000
 -2.980000000000000E-002    0.000000000000000E+000
 -2.970000000000000E-002    0.000000000000000E+000
 -2.960000000000000E-002    0.000000000000000E+000
 -2.950000000000000E-002    0.000000000000000E+000
 -2.940000000000000E-002    0.000000000000000E+000
 -2.930000000000000E-002    0.000000000000000E+000
 -2.920000000000000E-002    0.000000000000000E+000
 -2.910000000000000E-002    0.000000000000000E+000
 -2.900000000000000E-002    0.000000000000000E+000
 -2.890000000000000E-002    0.000000000000000E+000
 -2.880000000000000E-002    0.000000000000000E+000
 -2.870000000000000E-002    0.000000000000000E+000
 -2.860000000000000E-002    0.000000000000000E+000
 -2.850000000000000E-002    0.000000000000000E+000
 -2.840000000000000E-002    0.000000000000000E+000
 -2.830000000000000E-002    0.000000000000000E+000
 -2.820000000000000E-002    0.000000000000000E+000
 -2.810000000000000E-002    0.000000000000000E+000
 -2.800000000000000E-002    0.000000000000000E+000
 -2.790000000000000E-002    0.000000000000000E+000
 -2.780000000000000E-002    0.000000000000000E+000
 -2.770000000000000E-002    0.000000000000000E+000
 -2.760000000000000E-002    0.000000000000000E+000
 -2.750000000000000E-002    0.000000000000000E+000
 -2.740000000000000E-002    0.000000000000000E+000
 -2.730000000000000E-002    0.000000000000000E+000
 -2.720000000000000E-002    0.000000000000000E+000
 -2.710000000000000E-002    0.000000000000000E+000
 -2.700000000000000E-002    0.000000000000000E+000
 -2.690000000000000E-002    0.000000000000000E+000
 -2.680000000000000E-002    0.000000000000000E+000
 -2.670000000000000E-002    0.000000000000000E+000
 -2.660000000000000E-002    0.000000000000000E+000
 -2.650000000000000E-002    0.000000000000000E+000
 -2.640000000000000E-002    0.000000000000000E+000
 -2.630000000000000E-002    0.000000000000000E+000
 -2.620000000000000E-002    0.000000000000000E+000
 -2.610000000000000E-002    0.000000000000000E+000
 -2.600000000000000E-002    0.000000000000000E+000
 -2.590000000000000E-002    0.000000000000000E+000
 -2.580000000000000E-002    0.000000000000000E+000
 -2.570000000000000E-002    0.000000000000000E+000
 -2.560000000000000E-002    0.000000000000000E+000
 -2.550000000000000E-002    0.000000000000000E+000
 -2.540000000000000E-002    0.000000000000000E+000
 -2.530000000000000E-002    0.000000000000000E+000
 -2.520000000000000E-002    0.000000000000000E+000
 -2.510000000000000E-002    0.000000000000000E+000
 -2.500000000000000E-002    0.000000000000000E+000
 -2.490000000000000E-002    0.000000000000000E+000
 -2.480000000000000E-002    0.000000000000000E+000
 -2.470000000000000E-002    0.000000000000000E+000
 -2.460000000000000E-002    0.000000000000000E+000
 -2.450000000000000E-002    0.000000000000000E+000
 -2.440000000000000E-002    0.000000000000000E+000
 -2.430000000000000E-002    0.000000000000000E+000
 -2.420000000000000E-002    0.000000000000000E+000
 -2.410000000000000E-002    0.000000000000000E+000
 -2.400000000000000E-002    0.000000000000000E+000
 -2.390000000000000E-002    0.000000000000000E+000
 -2.380000000000000E-002    0.000000000000000E+000
 -2.370000000000000E-002    0.000000000000000E+000
 -2.360000000000000E-002    0.000000000000000E+000
 -2.350000000000000E-002    0.000000000000000E+000
 -2.340000000000000E-002    0.000000000000000E+000
 -2.330000000000000E-002    0.000000000000000E+000
 -2.320000000000000E-002    0.000000000000000E+000
 -2.310000000000000E-002    0.000000000000000E+000
 -2.300000000000000E-002    0.000000000000000E+000
 -2.290000000000000E-002    2.138211768073757E-048
 -2.280000000000000E-002    6.414635304221270E-048
 -2.270000000000000E-002    1.282927060844254E-047
 -2.260000000000000E-002    3.427812584062656E-047
 -2.250000000000000E-002    1.062555163507977E-046
 -2.240000000000000E-002    1.847142797166365E-046
 -2.230000000000000E-002    2.696544159381431E-046
 -2.220000000000000E-002    3.632808743348376E-046
 -2.210000000000000E-002    4.654601798038272E-046
 -2.200000000000000E-002    5.235255852990509E-046
 -2.190000000000000E-002    5.494510767217218E-046
 -2.180000000000000E-002    4.819503224020375E-046
 -2.170000000000000E-002    2.378188895752394E-046
 -2.160000000000000E-002   -3.508711035289471E-046
 -2.150000000000000E-002   -1.316407437644972E-045
 -2.140000000000000E-002   -2.236786688076802E-045
 -2.130000000000000E-002   -3.587867999030993E-045
 -2.120000000000000E-002   -5.165879011068362E-045
 -2.110000000000000E-002   -7.144709464867502E-045
 -2.100000000000000E-002   -9.065964732165967E-045
 -2.090000000000000E-002   -1.000604619733564E-044
 -2.080000000000000E-002   -1.148264851472972E-044
 -2.070000000000000E-002   -1.150590440365529E-044
 -2.060000000000000E-002   -9.374053810974056E-045
 -2.050000000000000E-002   -3.891119774066803E-045
 -2.040000000000000E-002    5.119755293248501E-045
 -2.030000000000000E-002    1.816503028570325E-044
 -2.020000000000000E-002    3.607640628785854E-044
 -2.010000000000000E-002    5.877413147784904E-044
 -2.000000000000000E-002    8.613342313726627E-044
 -1.990000000000000E-002    1.147328880594664E-043
 -1.980000000000000E-002    1.427455213229702E-043
 -1.970000000000000E-002    1.645689077555873E-043
 -1.960000000000000E-002    1.741301609466973E-043
 -1.950000000000000E-002    1.623664363697751E-043
 -1.940000000000000E-002    1.187116490766635E-043
 -1.930000000000000E-002    3.311185529170788E-044
 -1.920000000000000E-002   -1.052042006631772E-043
 -1.910000000000000E-002   -3.039426268411683E-043
 -1.900000000000000E-002   -5.660479194850195E-043
 -1.890000000000000E-002   -8.879277068869761E-043
 -1.880000000000000E-002   -1.254772045951908E-042
 -1.870000000000000E-002   -1.638939051136495E-042
 -1.860000000000000E-002   -1.991419731749859E-042
 -1.850000000000000E-002   -2.248169431006875E-042
 -1.840000000000000E-002   -2.321836100946552E-042
 -1.830000000000000E-002   -2.107346140249451E-042
 -1.820000000000000E-002   -1.487404425155963E-042
 -1.810000000000000E-002   -3.410566465189787E-043
 -1.800000000000000E-002    1.440436229872430E-042
 -1.790000000000000E-002    3.933135959990910E-042
 -1.780000000000000E-002    7.153980146940384E-042
 -1.770000000000000E-002    1.102811954406419E-041
 -1.760000000000000E-002    1.535892342466534E-041
 -1.750000000000000E-002    1.979195742715351E-041
 -1.740000000000000E-002    2.378734322372884E-041
 -1.730000000000000E-002    2.660729142676377E-041
 -1.720000000000000E-002    2.731480843927805E-041
 -1.710000000000000E-002    2.480845688398371E-041
 -1.700000000000000E-002    1.788612031029183E-041
 -1.690000000000000E-002    5.350918842644662E-042
 -1.680000000000000E-002   -1.382573416344857E-041
 -1.670000000000000E-002   -4.030448781422681E-041
 -1.660000000000000E-002   -7.413100964990905E-041
 -1.650000000000000E-002   -1.144489875575129E-040
 -1.640000000000000E-002   -1.592170636394778E-040
 -1.630000000000000E-002   -2.049322636404468E-040
 -1.620000000000000E-002   -2.464276566795028E-040
 -1.610000000000000E-002   -2.767742349454153E-040
 -1.600000000000000E-002   -2.873571383797820E-040
 -1.590000000000000E-002   -2.681773047519465E-040
 -1.580000000000000E-002   -2.084366346521917E-040
 -1.570000000000000E-002   -9.745692680950707E-041
 -1.560000000000000E-002    7.404436306629822E-041
 -1.550000000000000E-002    3.123296515563053E-040
 -1.540000000000000E-002    6.186950718222404E-040
 -1.530000000000000E-002    9.873028299656035E-040
 -1.520000000000000E-002    1.402919085147962E-039
 -1.510000000000000E-002    1.838766211576744E-039
 -1.500000000000000E-002    2.254743307980841E-039
 -1.490000000000000E-002    2.596327489825808E-039
 -1.480000000000000E-002    2.794524593756988E-039
 -1.470000000000000E-002    2.767265638051360E-039
 -1.460000000000000E-002    2.422669126247270E-039
 -1.450000000000000E-002    1.664588491064831E-039
 -1.440000000000000E-002    4.008013494257306E-040
 -1.430000000000000E-002   -1.445864981053030E-039
 -1.420000000000000E-002   -3.923341950207002E-039
 -1.410000000000000E-002   -7.033137603731639E-039
 -1.400000000000000E-002   -1.071059255487614E-038
 -1.390000000000000E-002   -1.480338618957319E-038
 -1.380000000000000E-002   -1.904972891925808E-038
 -1.370000000000000E-002   -2.305837603805449E-038
 -1.360000000000000E-002   -2.629341401276524E-038
 -1.350000000000000E-002   -2.806780147597632E-038
 -1.340000000000000E-002   -2.755055126946068E-038
 -1.330000000000000E-002   -2.379336326199943E-038
 -1.320000000000000E-002   -1.578309660048924E-038
 -1.310000000000000E-002   -2.526481163739079E-039
 -1.300000000000000E-002    1.682729343272888E-038
 -1.290000000000000E-002    4.282259322736353E-038
 -1.280000000000000E-002    7.549198198517264E-038
 -1.270000000000000E-002    1.141150362278504E-037
 -1.260000000000000E-002    1.569544943567938E-037
 -1.250000000000000E-002    2.009923393160647E-037
 -1.240000000000000E-002    2.416997091238200E-037
 -1.230000000000000E-002    2.728864692824792E-037
 -1.220000000000000E-002    2.866877429465453E-037
 -1.210000000000000E-002    2.737538598926836E-037
 -1.200000000000000E-002    2.237142204922320E-037
 -1.190000000000000E-002    1.259823804255764E-037
 -1.180000000000000E-002   -2.904489172711391E-038
 -1.170000000000000E-002   -2.483693218956309E-037
 -1.160000000000000E-002   -5.343725743590043E-037
 -1.150000000000000E-002   -8.824769376179206E-037
 -1.140000000000000E-002   -1.278641953601704E-036
 -1.130000000000000E-002   -1.696943672216761E-036
 -1.120000000000000E-002   -2.097579821184028E-036
 -1.110000000000000E-002   -2.425736660311496E-036
 -1.100000000000000E-002   -2.611828309072622E-036
 -1.090000000000000E-002   -2.573662664230038E-036
 -1.080000000000000E-002   -2.221072075802203E-036
 -1.070000000000000E-002   -1.463465194602169E-036
 -1.060000000000000E-002   -2.205734679441775E-037
 -1.050000000000000E-002    1.563615239331478E-036
 -1.040000000000000E-002    3.904145234481368E-036
 -1.030000000000000E-002    6.756517495445168E-036
 -1.020000000000000E-002    9.997757559882406E-036
 -1.010000000000000E-002    1.340927238197544E-035
 -1.000000000000000E-002    1.666428166888157E-035
 -9.899999999999999E-003    1.932312518567630E-035
 -9.800000000000000E-003    2.084011165256730E-035
 -9.699999999999999E-003    2.058559206970639E-035
 -9.599999999999999E-003    1.788655170700251E-035
 -9.500000000000000E-003    1.208808386382841E-035
 -9.399999999999999E-003    2.636537330741913E-036
 -9.299999999999999E-003   -1.081712656551701E-035
 -9.200000000000000E-003   -2.829814890480504E-035
 -9.099999999999999E-003   -4.938081527958481E-035
 -8.999999999999999E-003   -7.306508858691121E-035
 -8.900000000000000E-003   -9.767271650146305E-035
 -8.799999999999999E-003   -1.207820698831022E-034
 -8.699999999999999E-003   -1.392236179873718E-034
 -8.600000000000000E-003   -1.491590412161815E-034
 -8.499999999999999E-003   -1.462659399706404E-034
 -8.399999999999999E-003   -1.260458579188908E-034
 -8.300000000000000E-003   -8.426596134876100E-035
 -8.199999999999999E-003   -1.753311743651639E-035
 -8.100000000000000E-003    7.601629958171015E-035
 -8.000000000000000E-003    1.959466379422629E-034
 -7.899999999999999E-003    3.387311912964025E-034
 -7.800000000000000E-003    4.970190467102923E-034
 -7.699999999999999E-003    6.590642414601027E-034
 -7.599999999999999E-003    8.084389776432210E-034
 -7.499999999999999E-003    9.241646453442128E-034
 -7.399999999999999E-003    9.813947840950318E-034
 -7.299999999999999E-003    9.527697950825908E-034
 -7.199999999999999E-003    8.105312330938384E-034
 -7.100000000000000E-003    5.294283210955125E-034
 -6.999999999999999E-003    9.037508913827977E-035
 -6.899999999999999E-003   -5.152832727151137E-034
 -6.800000000000000E-003   -1.281153164557580E-033
 -6.699999999999999E-003   -2.181208001150277E-033
 -6.599999999999999E-003   -3.165753781415284E-033
 -6.499999999999999E-003   -4.158574708104236E-033
 -6.399999999999999E-003   -5.055982233392887E-033
 -6.299999999999999E-003   -5.728520978070531E-033
 -6.199999999999999E-003   -6.026058497949627E-033
 -6.100000000000000E-003   -5.786862840669141E-033
 -5.999999999999999E-003   -4.851030620664879E-033
 -5.899999999999999E-003   -3.078294070427483E-033
 -5.800000000000000E-003   -3.697504386321690E-034
 -5.699999999999999E-003    3.307509839061138E-033
 -5.599999999999999E-003    7.894563530347508E-033
 -5.499999999999999E-003    1.321598277041469E-032
 -5.399999999999999E-003    1.895937155057642E-032
 -5.299999999999999E-003    2.466271283082844E-032
 -5.199999999999999E-003    2.971346316883623E-032
 -5.099999999999999E-003    3.336337782809046E-032
 -4.999999999999999E-003    3.476264371832773E-032
 -4.899999999999999E-003    3.301601016026713E-032
 -4.799999999999999E-003    2.726214106790190E-032
 -4.699999999999999E-003    1.677528632776413E-032
 -4.599999999999999E-003    1.085747850326300E-033
 -4.499999999999999E-003   -1.988756362647572E-032
 -4.399999999999999E-003   -4.570258663374989E-032
 -4.299999999999999E-003   -7.527114787030076E-032
 -4.199999999999999E-003   -1.067642158778397E-031
 -4.099999999999999E-003   -1.375642998506370E-031
 -3.999999999999999E-003   -1.642849613274587E-031
 -3.899999999999999E-003   -1.828765829373285E-031
 -3.799999999999999E-003   -1.888344495122032E-031
 -3.699999999999999E-003   -1.775195743818287E-031
 -3.599999999999999E-003   -1.445939613924708E-031
 -3.499999999999999E-003   -8.656081662310387E-032
 -3.399999999999999E-003   -1.386090521084746E-033
 -3.299999999999999E-003    1.108377250996502E-031
 -3.199999999999999E-003    2.472413615369020E-031
 -3.099999999999999E-003    4.016129098296584E-031
 -2.999999999999999E-003    5.640005056229861E-031
 -2.899999999999999E-003    7.205755677866628E-031
 -2.799999999999999E-003    8.538491121664970E-031
 -2.699999999999999E-003    9.433256291830407E-031
 -2.599999999999999E-003    9.666592119539843E-031
 -2.499999999999999E-003    9.013440720105240E-031
 -2.399999999999999E-003    7.269272851067912E-031
 -2.299999999999999E-003    4.276734484638333E-031
 -2.199999999999999E-003   -4.453323105468373E-033
 -2.099999999999999E-003   -5.666989356134750E-031
 -1.999999999999999E-003   -1.242599643577443E-030
 -1.899999999999999E-003   -1.999575099752031E-030
 -1.799999999999999E-003   -2.787425626878744E-030
 -1.699999999999999E-003   -3.538144862451817E-030
 -1.599999999999999E-003   -4.167445085191480E-030
 -1.499999999999999E-003   -4.578335101648028E-030
 -1.399999999999999E-003   -4.666982923176958E-030
 -1.299999999999999E-003   -4.330928179399801E-030
 -1.199999999999999E-003   -3.479502519224197E-030
 -1.099999999999999E-003   -2.046050624561880E-030
 -9.999999999999989E-004   -1.253831216520962E-033
 -8.999999999999990E-004    2.633442858104687E-030
 -7.999999999999990E-004    5.773585417019179E-030
 -6.999999999999989E-004    9.262180004476237E-030
 -5.999999999999990E-004    1.286454684721122E-029
 -4.999999999999989E-004    1.626927826426285E-029
 -3.999999999999989E-004    1.909687039991940E-029
 -2.999999999999989E-004    2.091729756050889E-029
 -1.999999999999989E-004    2.127725872547504E-029
 -9.999999999999892E-005    1.973708443570451E-029
  1.084202172485504E-018    1.591635829433718E-029
  1.000000000000011E-004    9.546212081143715E-030
  2.000000000000011E-004    5.250807562716970E-031
  3.000000000000011E-004   -1.102653135413719E-029
  4.000000000000011E-004   -2.471771948606017E-029
  5.000000000000011E-004   -3.985160562548940E-029
  6.000000000000011E-004   -5.540927922006759E-029
  7.000000000000011E-004   -7.005986373704556E-029
  8.000000000000011E-004   -8.220260065939864E-029
  9.000000000000012E-004   -9.004532150771804E-029
  1.000000000000001E-003   -9.172130523467553E-029
  1.100000000000001E-003   -8.544350177793558E-029
  1.200000000000001E-003   -6.969118185566258E-029
  1.300000000000001E-003   -4.341993201280817E-029
  1.400000000000001E-003   -6.281292056193685E-030
  1.500000000000001E-003    4.116602963022963E-029
  1.600000000000001E-003    9.727511955171013E-029
  1.700000000000001E-003    1.591843387877063E-028
  1.800000000000001E-003    2.227708930089557E-028
  1.900000000000001E-003    2.827087057463944E-028
  2.000000000000001E-003    3.326512871462111E-028
  2.100000000000001E-003    3.655536886739520E-028
  2.200000000000001E-003    3.741385536715068E-028
  2.300000000000001E-003    3.514987168726417E-028
  2.400000000000001E-003    2.918148460745667E-028
  2.500000000000001E-003    1.911506521683465E-028
  2.600000000000001E-003    4.827186774064376E-029
  2.700000000000001E-003   -1.345797703911125E-028
  2.800000000000001E-003   -3.510384577256147E-028
  2.900000000000001E-003   -5.901817000699364E-028
  3.000000000000001E-003   -8.364036755735038E-028
  3.100000000000001E-003   -1.069679317241723E-027
  3.200000000000001E-003   -1.266287527246733E-027
  3.300000000000001E-003   -1.400037994687570E-027
  3.400000000000001E-003   -1.444009748628174E-027
  3.500000000000001E-003   -1.372765411188714E-027
  3.600000000000001E-003   -1.164954841712871E-027
  3.700000000000001E-003   -8.061658254997273E-028
  3.800000000000001E-003   -2.918236402735082E-028
  3.900000000000001E-003    3.701052389853092E-028
  4.000000000000001E-003    1.156893455260538E-027
  4.100000000000001E-003    2.029623373398660E-027
  4.200000000000001E-003    2.932857323112853E-027
  4.300000000000001E-003    3.795684180897088E-027
  4.400000000000001E-003    4.534365769594407E-027
  4.500000000000001E-003    5.056705662007452E-027
  4.600000000000002E-003    5.268149159393677E-027
  4.700000000000001E-003    5.079459972166247E-027
  4.800000000000001E-003    4.415654747922163E-027
  4.900000000000002E-003    3.225689383453683E-027
  5.000000000000001E-003    1.492218056125922E-027
  5.100000000000001E-003   -7.594128705338919E-028
  5.200000000000001E-003   -3.453891136474494E-027
  5.300000000000002E-003   -6.461391348993499E-027
  5.400000000000001E-003   -9.596741413322815E-027
  5.500000000000001E-003   -1.262318724540418E-026
  5.600000000000002E-003   -1.526140922430375E-026
  5.700000000000001E-003   -1.720415304730114E-026
  5.800000000000001E-003   -1.813639407203776E-026
  5.900000000000002E-003   -1.776048278804026E-026
  6.000000000000001E-003   -1.582515979492268E-026
  6.100000000000001E-003   -1.215675516839151E-026
  6.200000000000002E-003   -6.690353904711234E-027
  6.300000000000002E-003    5.017581561133973E-028
  6.400000000000001E-003    9.187369044576712E-027
  6.500000000000001E-003    1.896046998804123E-026
  6.600000000000002E-003    2.923923458565607E-026
  6.700000000000001E-003    3.927849937419744E-026
  6.800000000000001E-003    4.819859250684107E-026
  6.900000000000002E-003    5.503141223285870E-026
  7.000000000000001E-003    5.878335059660138E-026
  7.100000000000001E-003    5.851308394496347E-026
  7.200000000000002E-003    5.342066111097743E-026
  7.300000000000002E-003    4.294255430963471E-026
  7.400000000000001E-003    2.684591221610173E-026
  7.500000000000001E-003    5.313826553297665E-027
  7.600000000000002E-003   -2.098732178215311E-026
  7.700000000000001E-003   -5.086758091901940E-026
  7.800000000000001E-003   -8.260887270891028E-026
  7.900000000000001E-003   -1.140035225053661E-025
  8.000000000000002E-003   -1.424408917040128E-025
  8.100000000000001E-003   -1.650440902252328E-025
  8.200000000000001E-003   -1.788549799671034E-025
  8.300000000000002E-003   -1.810610883109169E-025
  8.400000000000001E-003   -1.692535437873937E-025
  8.500000000000002E-003   -1.417002973857819E-025
  8.600000000000002E-003   -9.761484708403744E-026
  8.700000000000001E-003   -3.739735328306717E-026
  8.800000000000002E-003    3.717702721775449E-026
  8.900000000000002E-003    1.228477407390667E-025
  9.000000000000001E-003    2.148598075184474E-025
  9.100000000000002E-003    3.070751963281901E-025
  9.200000000000002E-003    3.922173385404799E-025
  9.300000000000001E-003    4.622522516138735E-025
  9.400000000000002E-003    5.088995859496694E-025
  9.500000000000001E-003    5.242545184404333E-025
  9.600000000000001E-003    5.014890033883547E-025
  9.700000000000002E-003    4.355890941130153E-025
  9.800000000000001E-003    3.240742130477584E-025
  9.900000000000001E-003    1.676365789649214E-025
  1.000000000000000E-002   -2.936496621128590E-026
  1.010000000000000E-002   -2.586215785391914E-025
  1.020000000000000E-002   -5.078602596894938E-025
  1.030000000000000E-002   -7.611453900253293E-025
  1.040000000000000E-002   -9.995240110883049E-025
  1.050000000000000E-002   -1.202019807677292E-024
  1.060000000000000E-002   -1.346952514266407E-024
  1.070000000000000E-002   -1.413530139611486E-024
  1.080000000000000E-002   -1.383629702017822E-024
  1.090000000000000E-002   -1.243653051213636E-024
  1.100000000000000E-002   -9.863220307112244E-025
  1.110000000000000E-002   -6.122585772769090E-025
  1.120000000000000E-002   -1.311893827045066E-025
  1.130000000000000E-002    4.373782655971443E-025
  1.140000000000000E-002    1.064147380798521E-024
  1.150000000000000E-002    1.710788474470468E-024
  1.160000000000000E-002    2.331522969185093E-024
  1.170000000000000E-002    2.875527818649427E-024
  1.180000000000000E-002    3.290095478326752E-024
  1.190000000000000E-002    3.524409427839246E-024
  1.200000000000000E-002    3.533727757118052E-024
  1.210000000000000E-002    3.283702325063311E-024
  1.220000000000000E-002    2.754515640475191E-024
  1.230000000000000E-002    1.944479851606971E-024
  1.240000000000000E-002    8.727456697430376E-025
  1.250000000000000E-002   -4.192196781509636E-025
  1.260000000000000E-002   -1.867667509190168E-024
  1.270000000000000E-002   -3.388316549455383E-024
  1.280000000000000E-002   -4.879913476551749E-024
  1.290000000000000E-002   -6.229561956823129E-024
  1.300000000000000E-002   -7.319643906991845E-024
  1.310000000000000E-002   -8.035993031396090E-024
  1.320000000000000E-002   -8.276858570216961E-024
  1.330000000000000E-002   -7.962054574476506E-024
  1.340000000000000E-002   -7.041622830177826E-024
  1.350000000000000E-002   -5.503276492910842E-024
  1.360000000000000E-002   -3.377913918545647E-024
  1.370000000000000E-002   -7.425486483756804E-025
  1.380000000000000E-002    2.279863185854688E-024
  1.390000000000000E-002    5.524039329854006E-024
  1.400000000000000E-002    8.789535355261935E-024
  1.410000000000000E-002    1.185130417427488E-023
  1.420000000000000E-002    1.447320356705754E-023
  1.430000000000000E-002    1.642375029041193E-023
  1.440000000000000E-002    1.749315179741734E-023
  1.450000000000000E-002    1.751046650907587E-023
  1.460000000000000E-002    1.635961285184231E-023
  1.470000000000000E-002    1.399292795006207E-023
  1.480000000000000E-002    1.044103991862046E-023
  1.490000000000000E-002    5.817993734744115E-024
  1.500000000000000E-002    3.208538342573293E-025
  1.510000000000000E-002   -5.776631248526315E-024
  1.520000000000000E-002   -1.213629787347715E-023
  1.530000000000000E-002   -1.837329787893124E-023
  1.540000000000000E-002   -2.407837199081896E-023
  1.550000000000000E-002   -2.884332538327521E-023
  1.560000000000000E-002   -3.228805218255386E-023
  1.570000000000000E-002   -3.408721455501360E-023
  1.580000000000000E-002   -3.399464181433606E-023
  1.590000000000000E-002   -3.186356298722640E-023
  1.600000000000000E-002   -2.766107326906146E-023
  1.610000000000000E-002   -2.147559294929025E-023
  1.620000000000000E-002   -1.351663042434591E-023
  1.630000000000000E-002   -4.106717202789157E-024
  1.640000000000000E-002    6.333945178193729E-024
  1.650000000000000E-002    1.730902380593689E-023
  1.660000000000000E-002    2.827215420555441E-023
  1.670000000000000E-002    3.865561129922992E-023
  1.680000000000000E-002    4.789938580487585E-023
  1.690000000000000E-002    5.547854200377987E-023
  1.700000000000000E-002    6.092699911077807E-023
  1.710000000000000E-002    6.385634480629103E-023
  1.720000000000000E-002    6.396892717738931E-023
  1.730000000000000E-002    6.106518738528111E-023
  1.740000000000000E-002    5.504599943613733E-023
  1.750000000000000E-002    4.591136555008816E-023
  1.760000000000000E-002    3.375742709446165E-023
  1.770000000000000E-002    1.877390585185023E-023
  1.780000000000000E-002    1.244051637852683E-024
  1.790000000000000E-002   -1.845127459676230E-023
  1.800000000000000E-002   -3.982459292607167E-023
  1.810000000000000E-002   -6.226812093725555E-023
  1.820000000000000E-002   -8.503709144638275E-023
  1.830000000000000E-002   -1.072330422522333E-022
  1.840000000000000E-002   -1.277914548435682E-022
  1.850000000000000E-002   -1.454790987521075E-022
  1.860000000000000E-002   -1.589069757514931E-022
  1.870000000000000E-002   -1.665646292837727E-022