 -4.000000000000000E-002    0.000000000000000E+000
 -3.990000000000000E-002    0.000000000000000E+000
 -3.980000000000000E-002    0.000000000000000E+000
 -3.970000000000000E-002    0.000000000000000E+000
 -3.960000000000000E-002    0.000000000000000E+000
 -3.950000000000000E-002    0.000000000000000E+000
 -3.940000000000000E-002    0.000000000000000E+000
 -3.930000000000000E-002    0.000000000000000E+000
 -3.920000000000000E-002    0.000000000000000E+000
 -3.910000000000000E-002    0.000000000000000E+000
 -3.900000000000000E-002   -7.493785071270067E-032
 -3.890000000000000E-002   -1.299894930196557E-030
 -3.880000000000000E-002   -1.164808060009546E-029
 -3.870000000000000E-002   -7.161579669378985E-029
 -3.860000000000000E-002   -3.384629237978584E-028
 -3.850000000000000E-002   -1.305337081965417E-027
 -3.840000000000000E-002   -4.254738160171827E-027
 -3.830000000000000E-002   -1.196604002416091E-026
 -3.820000000000000E-002   -2.933002756383362E-026
 -3.810000000000000E-002   -6.259271326662546E-026
 -3.800000000000000E-002   -1.141867033043882E-025
 -3.790000000000000E-002   -1.675125156627451E-025
 -3.780000000000000E-002   -1.533343174551026E-025
 -3.770000000000000E-002    1.113182245365822E-025
 -3.760000000000000E-002    1.015932877011413E-024
 -3.750000000000000E-002    3.269220490108694E-024
 -3.740000000000000E-002    7.987389492550170E-024
 -3.730000000000000E-002    1.666158195406345E-023
 -3.720000000000000E-002    3.084135990035271E-023
 -3.710000000000000E-002    5.130811391776887E-023
 -3.700000000000000E-002    7.648983059845034E-023
 -3.690000000000000E-002    9.994309742830734E-023
 -3.680000000000000E-002    1.069676870505784E-022
 -3.670000000000000E-002    7.088425265592182E-023
 -3.660000000000000E-002   -4.978336266433066E-023
 -3.650000000000000E-002   -3.110869616796581E-022
 -3.640000000000000E-002   -7.773768071414570E-022
 -3.630000000000000E-002   -1.505425623865470E-021
 -3.620000000000000E-002   -2.515736972861389E-021
 -3.610000000000000E-002   -3.749562015658245E-021
 -3.600000000000000E-002   -5.013802766590182E-021
 -3.590000000000000E-002   -5.921727967390811E-021
 -3.580000000000000E-002   -5.844930760871965E-021
 -3.570000000000000E-002   -3.899995703437882E-021
 -3.560000000000000E-002    1.000141298153527E-021
 -3.550000000000000E-002    9.998186597370725E-021
 -3.540000000000000E-002    2.402182866290412E-020
 -3.530000000000000E-002    4.338140699891591E-020
 -3.520000000000000E-002    6.725662371576378E-020
 -3.510000000000000E-002    9.313441934418843E-020
 -3.500000000000000E-002    1.163087840363728E-019
 -3.490000000000000E-002    1.295997232830254E-019
 -3.480000000000000E-002    1.234803236271312E-019
 -3.470000000000000E-002    8.680209881400287E-020
 -3.460000000000000E-002    8.265263120571895E-021
 -3.450000000000000E-002   -1.213174910792450E-019
 -3.440000000000000E-002   -3.060685552047088E-019
 -3.430000000000000E-002   -5.417036911808627E-019
 -3.420000000000000E-002   -8.123085359775174E-019
 -3.410000000000000E-002   -1.087919315730183E-018
 -3.400000000000000E-002   -1.323689516365709E-018
 -3.390000000000000E-002   -1.461389319238534E-018
 -3.380000000000000E-002   -1.433780621200286E-018
 -3.370000000000000E-002   -1.172030276380750E-018
 -3.360000000000000E-002   -6.157989068703881E-019
 -3.350000000000000E-002    2.749481519957865E-019
 -3.340000000000000E-002    1.507904856683922E-018
 -3.330000000000000E-002    3.048010951849172E-018
 -3.320000000000000E-002    4.810550371825767E-018
 -3.310000000000000E-002    6.659271763116489E-018
 -3.300000000000000E-002    8.410279282382069E-018
 -3.290000000000000E-002    9.841357509076975E-018
 -3.280000000000000E-002    1.070528342162425E-017
 -3.270000000000000E-002    1.074478255107510E-017
 -3.260000000000000E-002    9.706560579146007E-018
 -3.250000000000000E-002    7.352485138667305E-018
 -3.240000000000000E-002    3.467723814835521E-018
 -3.230000000000000E-002   -2.131744102863095E-018
 -3.220000000000000E-002   -9.586796383628107E-018
 -3.210000000000000E-002   -1.896995920253923E-017
 -3.200000000000000E-002   -3.023819418474243E-017
 -3.190000000000000E-002   -4.315611916762087E-017
 -3.180000000000000E-002   -5.718725932410528E-017
 -3.170000000000000E-002   -7.135999078572747E-017
 -3.160000000000000E-002   -8.412725498933536E-017
 -3.150000000000000E-002   -9.325318909248708E-017
 -3.140000000000000E-002   -9.577268784235815E-017
 -3.130000000000000E-002   -8.807795616058670E-017
 -3.120000000000000E-002   -6.618505034067915E-017
 -3.110000000000000E-002   -2.621986048748248E-017
 -3.100000000000000E-002    3.486537531454689E-017
 -3.090000000000000E-002    1.183765551770129E-016
 -3.080000000000000E-002    2.228484178285198E-016
 -3.070000000000000E-002    3.430435784488509E-016
 -3.060000000000000E-002    4.691726652662779E-016
 -3.050000000000000E-002    5.865594738114486E-016
 -3.040000000000000E-002    6.759753199219525E-016
 -3.030000000000000E-002    7.148245534951730E-016
 -3.020000000000000E-002    6.792760249242806E-016
 -3.010000000000000E-002    5.473033404394608E-016
 -3.000000000000000E-002    3.024339481075632E-016
 -2.990000000000000E-002   -6.216707306063247E-017
 -2.980000000000000E-002   -5.398091353769845E-016
 -2.970000000000000E-002   -1.107221822695574E-015
 -2.960000000000000E-002   -1.722999551703165E-015
 -2.950000000000000E-002   -2.328136412848648E-015
 -2.940000000000000E-002   -2.849055312376224E-015
 -2.930000000000000E-002   -3.203249284594564E-015
 -2.920000000000000E-002   -3.307290583598915E-015
 -2.910000000000000E-002   -3.086576675408136E-015
 -2.900000000000000E-002   -2.485833311022220E-015
 -2.890000000000000E-002   -1.479138354044043E-015
 -2.880000000000000E-002   -7.813770225512046E-017
 -2.870000000000000E-002    1.662784842335825E-015
 -2.860000000000000E-002    3.645328883136071E-015
 -2.850000000000000E-002    5.730575496327704E-015
 -2.840000000000000E-002    7.746684484338884E-015
 -2.830000000000000E-002    9.500341667110059E-015
 -2.820000000000000E-002    1.079082496725701E-014
 -2.810000000000000E-002    1.142526865573142E-014
 -2.800000000000000E-002    1.123367429453054E-014
 -2.790000000000000E-002    1.008246524203701E-014
 -2.780000000000000E-002    7.885851952140696E-015
 -2.770000000000000E-002    4.614901238552296E-015
 -2.760000000000000E-002    3.047741485167126E-016
 -2.750000000000000E-002   -4.938989762012851E-015
 -2.740000000000000E-002   -1.093423007257595E-014
 -2.730000000000000E-002   -1.741548799062296E-014
 -2.720000000000000E-002   -2.402727802411116E-014
 -2.710000000000000E-002   -3.031897830774772E-014
 -2.700000000000000E-002   -3.574439468013612E-014
 -2.690000000000000E-002   -3.967025848504423E-014
 -2.680000000000000E-002   -4.139854222890755E-014
 -2.670000000000000E-002   -4.020717084259673E-014
 -2.660000000000000E-002   -3.541218384535612E-014
 -2.650000000000000E-002   -2.645160560016241E-014
 -2.640000000000000E-002   -1.298731032967780E-014
 -2.630000000000000E-002    4.983472813546778E-015
 -2.620000000000000E-002    2.702000322809983E-014
 -2.610000000000000E-002    5.215015815593979E-014
 -2.600000000000000E-002    7.882177605668053E-014
 -2.590000000000000E-002    1.049118034662435E-013
 -2.580000000000000E-002    1.278082881909578E-013
 -2.570000000000000E-002    1.445734850459788E-013
 -2.560000000000000E-002    1.521868334811968E-013
 -2.550000000000000E-002    1.478551776150554E-013
 -2.540000000000000E-002    1.293656216385434E-013
 -2.530000000000000E-002    9.544599337149116E-014
 -2.520000000000000E-002    4.609007908174507E-014
 -2.510000000000000E-002   -1.719762020989002E-014
 -2.500000000000000E-002   -9.128027368024075E-014
 -2.490000000000000E-002   -1.714236606751372E-013
 -2.480000000000000E-002   -2.515064068168767E-013
 -2.470000000000000E-002   -3.244054433564651E-013
 -2.460000000000000E-002   -3.825359985730689E-013
 -2.450000000000000E-002   -4.185050476914522E-013
 -2.440000000000000E-002   -4.258213710148703E-013
 -2.430000000000000E-002   -3.995938948261053E-013
 -2.420000000000000E-002   -3.371483222646212E-013
 -2.410000000000000E-002   -2.384964975976168E-013
 -2.400000000000000E-002   -1.066073079507774E-013
 -2.390000000000000E-002    5.255442876627936E-014
 -2.380000000000000E-002    2.302300980078424E-013
 -2.370000000000000E-002    4.152988594885317E-013
 -2.360000000000000E-002    5.949057379049980E-013
 -2.350000000000000E-002    7.552398793186791E-013
 -2.340000000000000E-002    8.824083556929578E-013
 -2.330000000000000E-002    9.633513133854761E-013
 -2.320000000000000E-002    9.867476712456577E-013
 -2.310000000000000E-002    9.438704648817189E-013
 -2.300000000000000E-002    8.293582611444271E-013
 -2.290000000000000E-002    6.418767650279610E-013
 -2.280000000000000E-002    3.846449468398234E-013
 -2.270000000000000E-002    6.579690090627164E-014
 -2.260000000000000E-002   -3.014565038934303E-013
 -2.250000000000000E-002   -6.989135150592103E-013
 -2.240000000000000E-002   -1.103769552730738E-012
 -2.230000000000000E-002   -1.489361750019023E-012
 -2.220000000000000E-002   -1.826316313611240E-012
 -2.210000000000000E-002   -2.084120864295747E-012
 -2.200000000000000E-002   -2.233103350111363E-012
 -2.190000000000000E-002   -2.246752870727766E-012
 -2.180000000000000E-002   -2.104252853884445E-012
 -2.170000000000000E-002   -1.793045668882226E-012
 -2.160000000000000E-002   -1.311193295691320E-012
 -2.150000000000000E-002   -6.692689697226373E-013
 -2.140000000000000E-002    1.084857563058984E-013
 -2.130000000000000E-002    9.839829037484765E-013
 -2.120000000000000E-002    1.906267721077548E-012
 -2.110000000000000E-002    2.813745535160302E-012
 -2.100000000000000E-002    3.637633407935350E-012
 -2.090000000000000E-002    4.306487803657588E-012
 -2.080000000000000E-002    4.751541004038401E-012
 -2.070000000000000E-002    4.912467395842668E-012
 -2.060000000000000E-002    4.743130080134482E-012
 -2.050000000000000E-002    4.216814826412487E-012
 -2.040000000000000E-002    3.330464774971382E-012
 -2.030000000000000E-002    2.107474842063398E-012
 -2.020000000000000E-002    5.986937945956471E-013
 -2.010000000000000E-002   -1.118598296705642E-012
 -2.000000000000000E-002   -2.943829467458358E-012
 -1.990000000000000E-002   -4.758327819070526E-012
 -1.980000000000000E-002   -6.432348469960275E-012
 -1.970000000000000E-002   -7.833572161201458E-012
 -1.960000000000000E-002   -8.836578193331400E-012
 -1.950000000000000E-002   -9.332672131474114E-012
 -1.940000000000000E-002   -9.239398578955023E-012
 -1.930000000000000E-002   -8.508983310639208E-012
 -1.920000000000000E-002   -7.134972813999867E-012
 -1.910000000000000E-002   -5.156381488616829E-012
 -1.900000000000000E-002   -2.658759283574900E-012
 -1.890000000000000E-002    2.282254737320858E-013
 -1.880000000000000E-002    3.336866073283093E-012
 -1.870000000000000E-002    6.471039091312743E-012
 -1.860000000000000E-002    9.418909340144386E-012
 -1.850000000000000E-002    1.196792531180654E-011
 -1.840000000000000E-002    1.392100825202350E-011
 -1.830000000000000E-002    1.511256662421676E-011
 -1.820000000000000E-002    1.542286100914466E-011
 -1.810000000000000E-002    1.478926109515450E-011
 -1.800000000000000E-002    1.321312105083934E-011
 -1.790000000000000E-002    1.076136569223388E-011
 -1.780000000000000E-002    7.562393505356162E-012
 -1.770000000000000E-002    3.796499970219923E-012
 -1.760000000000000E-002   -3.183256252679554E-013
 -1.750000000000000E-002   -4.543830762085034E-012
 -1.740000000000000E-002   -8.640302077266867E-012
 -1.730000000000000E-002   -1.238469351318103E-011
 -1.720000000000000E-002   -1.558610245189907E-011
 -1.710000000000000E-002   -1.809691814935765E-011
 -1.700000000000000E-002   -1.981859206365459E-011
 -1.690000000000000E-002   -2.070169203205113E-011
 -1.680000000000000E-002   -2.074073706892150E-011
 -1.670000000000000E-002   -1.996505423510815E-011
 -1.660000000000000E-002   -1.842746514499079E-011
 -1.650000000000000E-002   -1.619286742211840E-011
 -1.640000000000000E-002   -1.332873912540897E-011
 -1.630000000000000E-002   -9.899135316006185E-012
 -1.620000000000000E-002   -5.963088613101092E-012
 -1.610000000000000E-002   -1.577431606729579E-012
 -1.600000000000000E-002    3.196797015144610E-012
 -1.590000000000000E-002    8.285962034146167E-012
 -1.580000000000000E-002    1.359539420683659E-011
 -1.570000000000000E-002    1.900297196185460E-011
 -1.560000000000000E-002    2.435629735227286E-011
 -1.550000000000000E-002    2.947429427929368E-011
 -1.540000000000000E-002    3.415307750316834E-011
 -1.530000000000000E-002    3.817492899280853E-011
 -1.520000000000000E-002    4.131838463196743E-011
 -1.510000000000000E-002    4.336709391633375E-011
 -1.500000000000000E-002    4.411528566432569E-011
 -1.490000000000000E-002    4.336853387959265E-011
 -1.480000000000000E-002    4.093982120129717E-011
 -1.470000000000000E-002    3.664259502633154E-011
 -1.460000000000000E-002    3.028424385386603E-011
 -1.450000000000000E-002    2.166460419935376E-011
 -1.440000000000000E-002    1.058476992951951E-011
 -1.430000000000000E-002   -3.129159698743244E-012
 -1.420000000000000E-002   -1.958439686418941E-011
 -1.410000000000000E-002   -3.876189377598646E-011
 -1.400000000000000E-002   -6.044250237391674E-011
 -1.390000000000000E-002   -8.412670877997158E-011
 -1.380000000000000E-002   -1.089595534109699E-010
 -1.370000000000000E-002   -1.336752159404065E-010
 -1.360000000000000E-002   -1.565765031685774E-010
 -1.350000000000000E-002   -1.755635637869298E-010
 -1.340000000000000E-002   -1.882224185474923E-010
 -1.330000000000000E-002   -1.919776125464610E-010
 -1.320000000000000E-002   -1.843057715509228E-010
 -1.310000000000000E-002   -1.629978529030541E-010
 -1.300000000000000E-002   -1.264492960431442E-010
 -1.290000000000000E-002   -7.395020041559239E-011
 -1.280000000000000E-002   -5.942913974808069E-012
 -1.270000000000000E-002    7.578643590501293E-011
 -1.260000000000000E-002    1.680128154027526E-010
 -1.250000000000000E-002    2.660971775506406E-010
 -1.240000000000000E-002    3.641439653608552E-010
 -1.230000000000000E-002    4.552912596861313E-010
 -1.220000000000000E-002    5.321199864073268E-010
 -1.210000000000000E-002    5.871551008660377E-010
 -1.200000000000000E-002    6.134223583516192E-010
 -1.190000000000000E-002    6.050161858749383E-010
 -1.180000000000000E-002    5.576334951923606E-010
 -1.170000000000000E-002    4.690300378131174E-010
 -1.160000000000000E-002    3.393631500244247E-010
 -1.150000000000000E-002    1.713955560523800E-010
 -1.140000000000000E-002   -2.945485600338324E-011
 -1.130000000000000E-002   -2.552203277319580E-010
 -1.120000000000000E-002   -4.956359211560369E-010
 -1.110000000000000E-002   -7.385241968852755E-010
 -1.100000000000000E-002   -9.702906481913346E-010
 -1.090000000000000E-002   -1.176509985753279E-009
 -1.080000000000000E-002   -1.342581762752950E-009
 -1.070000000000000E-002   -1.454438227576546E-009
 -1.060000000000000E-002   -1.499287899754457E-009
 -1.050000000000000E-002   -1.466378347307358E-009
 -1.040000000000000E-002   -1.347758610627389E-009
 -1.030000000000000E-002   -1.139015025163216E-009
 -1.020000000000000E-002   -8.399449084046496E-010
 -1.010000000000000E-002   -4.551224292852427E-010
 -1.000000000000000E-002    5.698420314017221E-012
 -9.899999999999999E-003    5.274041947136991E-010
 -9.800000000000000E-003    1.089627540105881E-009
 -9.699999999999999E-003    1.667187778297615E-009
 -9.599999999999999E-003    2.230901874985042E-009
 -9.500000000000000E-003    2.748771602155819E-009
 -9.399999999999999E-003    3.187520245730709E-009
 -9.299999999999999E-003    3.514416158364918E-009
 -9.200000000000000E-003    3.699280379476028E-009
 -9.099999999999999E-003    3.716549264816504E-009
 -8.999999999999999E-003    3.547239928423529E-009
 -8.900000000000000E-003    3.180661791030501E-009
 -8.799999999999999E-003    2.615728161085254E-009
 -8.699999999999999E-003    1.861754018605844E-009
 -8.600000000000000E-003    9.386618961576823E-010
 -8.499999999999999E-003   -1.234249448968394E-010
 -8.399999999999999E-003   -1.285158440784546E-009
 -8.300000000000000E-003   -2.499426283635625E-009
 -8.199999999999999E-003   -3.713152729062386E-009
 -8.100000000000000E-003   -4.869267672267658E-009
 -8.000000000000000E-003   -5.908667340174493E-009
 -7.899999999999999E-003   -6.771988894414667E-009
 -7.800000000000000E-003   -7.401057181678059E-009
 -7.699999999999999E-003   -7.739897305615776E-009
 -7.599999999999999E-003   -7.735272897786902E-009
 -7.499999999999999E-003   -7.336753231520737E-009
 -7.399999999999999E-003   -6.496360661961992E-009
 -7.299999999999999E-003   -5.167904087296477E-009
 -7.199999999999999E-003   -3.306102723759292E-009
 -7.100000000000000E-003   -8.656166901544732E-010
 -6.999999999999999E-003    2.199907420021274E-009
 -6.899999999999999E-003    5.938696625685874E-009
 -6.800000000000000E-003    1.040161069982968E-008
 -6.699999999999999E-003    1.564275392264822E-008
 -6.599999999999999E-003    2.172000685081866E-008
 -6.499999999999999E-003    2.869546947235330E-008
 -6.399999999999999E-003    3.663593886882972E-008
 -6.299999999999999E-003    4.561334474013254E-008
 -6.199999999999999E-003    5.570523105277933E-008
 -6.100000000000000E-003    6.699517253363924E-008
 -5.999999999999999E-003    7.957310767825931E-008
 -5.899999999999999E-003    9.353541337167676E-008
 -5.800000000000000E-003    1.089846799759872E-007
 -5.699999999999999E-003    1.260290012713896E-007
 -5.599999999999999E-003    1.447807711125487E-007
 -5.499999999999999E-003    1.653548567983828E-007
 -5.399999999999999E-003    1.878663786319299E-007
 -5.299999999999999E-003    2.124279840321736E-007
 -5.199999999999999E-003    2.391470481065692E-007
 -5.099999999999999E-003    2.681228396588801E-007
 -4.999999999999999E-003    2.994442905047753E-007
 -4.899999999999999E-003    3.331882596879486E-007
 -4.799999999999999E-003    3.694189396971265E-007
 -4.699999999999999E-003    4.081883870623298E-007
 -4.599999999999999E-003    4.495385448504507E-007
 -4.499999999999999E-003    4.935044160571070E-007
 -4.399999999999999E-003    5.401188482034911E-007
 -4.299999999999999E-003    5.894180382381656E-007
 -4.199999999999999E-003    6.414480472074371E-007
 -4.099999999999999E-003    6.962715109146601E-007
 -3.999999999999999E-003    7.539744649690265E-007
 -3.899999999999999E-003    8.146726415586307E-007
 -3.799999999999999E-003    8.785168284325734E-007
 -3.699999999999999E-003    9.456974567045010E-007
 -3.599999999999999E-003    1.016447285900631E-006
 -3.499999999999999E-003    1.091043284601936E-006
 -3.399999999999999E-003    1.169806425115863E-006
 -3.299999999999999E-003    1.253100567787750E-006
 -3.199999999999999E-003    1.341329538603773E-006
 -3.099999999999999E-003    1.434933811020401E-006
 -2.999999999999999E-003    1.534385894401591E-006
 -2.899999999999999E-003    1.640185279346840E-006
 -2.799999999999999E-003    1.752853309428203E-006
 -2.699999999999999E-003    1.872927886371437E-006
 -2.599999999999999E-003    2.000958168453293E-006
 -2.499999999999999E-003    2.137500611126937E-006
 -2.399999999999999E-003    2.283114534257891E-006
 -2.299999999999999E-003    2.438360072553877E-006
 -2.199999999999999E-003    2.603795333137028E-006
 -2.099999999999999E-003    2.779976112840467E-006
 -1.999999999999999E-003    2.967457722421503E-006
 -1.899999999999999E-003    3.166795678956897E-006
 -1.799999999999999E-003    3.378549594860621E-006
 -1.699999999999999E-003    3.603287116906557E-006
 -1.599999999999999E-003    3.841590177817500E-006
 -1.499999999999999E-003    4.094060137684181E-006
 -1.399999999999999E-003    4.361323645608326E-006
 -1.299999999999999E-003    4.644039792693529E-006
 -1.199999999999999E-003    4.942904967181911E-006
 -1.099999999999999E-003    5.258658257371832E-006
 -9.999999999999989E-004    5.592085209131008E-006
 -8.999999999999990E-004    5.944021105746338E-006
 -7.999999999999990E-004    6.315353718256950E-006
 -6.999999999999989E-004    6.707024538754121E-006
 -5.999999999999990E-004    7.120030834887443E-006
 -4.999999999999989E-004    7.555425830997838E-006
 -3.999999999999989E-004    8.014322018998475E-006
 -2.999999999999989E-004    8.497892861823488E-006
 -1.999999999999989E-004    9.007376662748147E-006
 -9.999999999999892E-005    9.544080613167548E-006
  1.084202172485504E-018    1.010938938067017E-005
  1.000000000000011E-004    1.070476687047117E-005
  2.000000000000011E-004    1.133176834885554E-005
  3.000000000000011E-004    1.199204336566919E-005
  4.000000000000011E-004    1.268734469110542E-005
  5.000000000000011E-004    1.341952943961841E-005
  6.000000000000011E-004    1.419056360788350E-005
  7.000000000000011E-004    1.500252083329183E-005
  8.000000000000011E-004    1.585758258841599E-005
  9.000000000000012E-004    1.675803106487488E-005
  1.000000000000001E-003    1.770624440718042E-005
  1.100000000000001E-003    1.870468983034208E-005
  1.200000000000001E-003    1.975591599505479E-005
  1.300000000000001E-003    2.086254930914384E-005
  1.400000000000001E-003    2.202728892645512E-005
  1.500000000000001E-003    2.325290643137089E-005
  1.600000000000001E-003    2.454224861209514E-005
  1.700000000000001E-003    2.589824528319993E-005
  1.800000000000001E-003    2.732391866034644E-005
  1.900000000000001E-003    2.882239563688082E-005
  2.000000000000001E-003    3.039692319786450E-005
  2.100000000000001E-003    3.205088240082867E-005
  2.200000000000001E-003    3.378780889303596E-005
  2.300000000000001E-003    3.561140195356140E-005
  2.400000000000001E-003    3.752553155831043E-005
  2.500000000000001E-003    3.953426012463112E-005
  2.600000000000001E-003    4.164183103887373E-005
  2.700000000000001E-003    4.385268451881976E-005
  2.800000000000001E-003    4.617143864678314E-005
  2.900000000000001E-003    4.860290456166586E-005
  3.000000000000001E-003    5.115207651039438E-005
  3.100000000000001E-003    5.382412427248316E-005
  3.200000000000001E-003    5.662440553112927E-005
  3.300000000000001E-003    5.955845770581868E-005
  3.400000000000001E-003    6.263201798238550E-005
  3.500000000000001E-003    6.585102520302343E-005
  3.600000000000001E-003    6.922163901014606E-005
  3.700000000000001E-003    7.275025965293661E-005
  3.800000000000001E-003    7.644352912220444E-005
  3.900000000000001E-003    8.030838364141080E-005
  4.000000000000001E-003    8.435202925061587E-005
  4.100000000000001E-003    8.858198746738817E-005
  4.200000000000001E-003    9.300609000594481E-005
  4.300000000000001E-003    9.763247601617925E-005
  4.400000000000001E-003    1.024696009800083E-004
  4.500000000000001E-003    1.075262402444262E-004
  4.600000000000002E-003    1.128114628172220E-004
  4.700000000000001E-003    1.183346220884062E-004
  4.800000000000001E-003    1.241053704509962E-004
  4.900000000000002E-003    1.301336263408505E-004
  5.000000000000001E-003    1.364295737194758E-004
  5.100000000000001E-003    1.430036680158786E-004
  5.200000000000001E-003    1.498666465067237E-004
  5.300000000000002E-003    1.570295155698050E-004
  5.400000000000001E-003    1.645035758017781E-004
  5.500000000000001E-003    1.723004517881333E-004
  5.600000000000002E-003    1.804321025512414E-004
  5.700000000000001E-003    1.889108214840283E-004
  5.800000000000001E-003    1.977493227891748E-004
  5.900000000000002E-003    2.069607139062555E-004
  6.000000000000001E-003    2.165585041046715E-004
  6.100000000000001E-003    2.265566602119369E-004
  6.200000000000002E-003    2.369696184825751E-004
  6.300000000000002E-003    2.478122637966341E-004
  6.400000000000001E-003    2.590999952205940E-004
  6.500000000000001E-003    2.708486665490398E-004
  6.600000000000002E-003    2.830746115390541E-004
  6.700000000000001E-003    2.957946700404860E-004
  6.800000000000001E-003    3.090261587089023E-004
  6.900000000000002E-003    3.227868738536417E-004
  7.000000000000001E-003    3.370950852902185E-004
  7.100000000000001E-003    3.519695442467203E-004
  7.200000000000002E-003    3.674294828254937E-004
  7.300000000000002E-003    3.834945983483383E-004
  7.400000000000001E-003    4.001850730537781E-004
  7.500000000000001E-003    4.175215650226431E-004
  7.600000000000002E-003    4.355251725018051E-004
  7.700000000000001E-003    4.542175206778733E-004
  7.800000000000001E-003    4.736206706859718E-004
  7.900000000000001E-003    4.937571757151326E-004
  8.000000000000002E-003    5.146500930673842E-004
  8.100000000000001E-003    5.363229256367802E-004
  8.200000000000001E-003    5.587996823929132E-004
  8.300000000000002E-003    5.821048916577990E-004
  8.400000000000001E-003    6.062635562723823E-004
  8.500000000000002E-003    6.313012207257874E-004
  8.600000000000002E-003    6.572438841892456E-004
  8.700000000000001E-003    6.841181337774744E-004
  8.800000000000002E-003    7.119510236910371E-004
  8.900000000000002E-003    7.407701858120476E-004
  9.000000000000001E-003    7.706037367648068E-004
  9.100000000000002E-003    8.014803486809367E-004
  9.200000000000002E-003    8.334292242922248E-004
  9.300000000000001E-003    8.664801529165548E-004
  9.400000000000002E-003    9.006633707224972E-004
  9.500000000000001E-003    9.360097229042356E-004
  9.600000000000001E-003    9.725504190605757E-004
  9.700000000000002E-003    1.010317267487611E-003
  9.800000000000001E-003    1.049342555771143E-003
  9.900000000000001E-003    1.089658972806353E-003
  1.000000000000000E-002    1.131299578342733E-003
  1.010000000000000E-002    1.174297934975222E-003
  1.020000000000000E-002    1.218687858544341E-003
  1.030000000000000E-002    1.264503683763598E-003
  1.040000000000000E-002    1.311779994158630E-003
  1.050000000000000E-002    1.360551699219243E-003
  1.060000000000000E-002    1.410854000024507E-003
  1.070000000000000E-002    1.462722486370805E-003
  1.080000000000000E-002    1.516193032701623E-003
  1.090000000000000E-002    1.571301709425719E-003
  1.100000000000000E-002    1.628085019585671E-003
  1.110000000000000E-002    1.686579793756332E-003
  1.120000000000000E-002    1.746823108819180E-003
  1.130000000000000E-002    1.808852329331859E-003
  1.140000000000000E-002    1.872705080481330E-003
  1.150000000000000E-002    1.938419193041880E-003
  1.160000000000000E-002    2.006032685236931E-003
  1.170000000000000E-002    2.075583685896287E-003
  1.180000000000000E-002    2.147110480092242E-003
  1.190000000000000E-002    2.220651368666084E-003
  1.200000000000000E-002    2.296244549680250E-003
  1.210000000000000E-002    2.373927880964122E-003
  1.220000000000000E-002    2.453739224547940E-003
  1.230000000000000E-002    2.535716042354306E-003
  1.240000000000000E-002    2.619895775380261E-003
  1.250000000000000E-002    2.706315286339137E-003
  1.260000000000000E-002    2.795011005192278E-003
  1.270000000000000E-002    2.886018727898914E-003
  1.280000000000000E-002    2.979374333582785E-003
  1.290000000000000E-002    3.075112822219643E-003
  1.300000000000000E-002    3.173269110232892E-003
  1.310000000000000E-002    3.273877373841111E-003
  1.320000000000000E-002    3.376971162106510E-003
  1.330000000000000E-002    3.482583891052161E-003
  1.340000000000000E-002    3.590748041125547E-003
  1.350000000000000E-002    3.701495937342567E-003
  1.360000000000000E-002    3.814858680256845E-003
  1.370000000000000E-002    3.930867039188759E-003
  1.380000000000000E-002    4.049550606163578E-003
  1.390000000000000E-002    4.170938090040282E-003
  1.400000000000000E-002    4.295057435407250E-003
  1.410000000000000E-002    4.421934949691776E-003
  1.420000000000000E-002    4.551595884807286E-003
  1.430000000000000E-002    4.684064225137259E-003
  1.440000000000000E-002    4.819361820312172E-003
  1.450000000000000E-002    4.957509879915459E-003
  1.460000000000000E-002    5.098527350341015E-003
  1.470000000000000E-002    5.242432328699134E-003
  1.480000000000000E-002    5.389240454213762E-003
  1.490000000000000E-002    5.538965523076867E-003
  1.500000000000000E-002    5.691620473731860E-003
  1.510000000000000E-002    5.847215402601177E-003
  1.520000000000000E-002    6.005758837753582E-003
  1.530000000000000E-002    6.167257376256126E-003
  1.540000000000000E-002    6.331715595565481E-003
  1.550000000000000E-002    6.499135731307865E-003
  1.560000000000000E-002    6.669518160957632E-003
  1.570000000000000E-002    6.842860289775049E-003
  1.580000000000000E-002    7.019157795641898E-003
  1.590000000000000E-002    7.198403627679473E-003
  1.600000000000000E-002    7.380587807244846E-003
  1.610000000000000E-002    7.565698036589380E-003
  1.620000000000000E-002    7.753719012104287E-003
  1.630000000000000E-002    7.944632628348628E-003
  1.640000000000000E-002    8.138417552664456E-003
  1.650000000000000E-002    8.335049570455090E-003
  1.660000000000000E-002    8.534501122764849E-003
  1.670000000000000E-002    8.736742329882053E-003
  1.680000000000000E-002    8.941739858856726E-003
  1.690000000000000E-002    9.149455646442700E-003
  1.700000000000000E-002    9.359849733540516E-003
  1.710000000000000E-002    9.572878426503902E-003
  1.720000000000000E-002    9.788493859072878E-003
  1.730000000000000E-002    1.000664467288240E-002
  1.740000000000000E-002    1.022727621424751E-002
  1.750000000000000E-002    1.045033036011324E-002
  1.760000000000000E-002    1.067574504551968E-002
  1.770000000000000E-002    1.090345306709258E-002
  1.780000000000000E-002    1.113338496140461E-002
  1.790000000000000E-002    1.136546602193026E-002
  1.800000000000000E-002    1.159961865415387E-002
  1.810000000000000E-002    1.183575948404896E-002
  1.820000000000000E-002    1.207380251131102E-002
  1.830000000000000E-002    1.231365621622250E-002
  1.840000000000000E-002    1.255522689675680E-002
  1.850000000000000E-002    1.279841419854255E-002
  1.860000000000000E-002    1.304311430820859E-002
  1.870000000000000E-002    1.328921898249701E-002