 -4.000000000000000E-002    0.000000000000000E+000
 -3.990000000000000E-002    0.000000000000000E+000
 -3.980000000000000E-002    0.000000000000000E+000
 -3.970000000000000E-002    0.000000000000000E+000
 -3.960000000000000E-002    0.000000000000000E+000
 -3.950000000000000E-002    0.000000000000000E+000
 -3.940000000000000E-002    2.511162859550973E-021
 -3.930000000000000E-002    2.882285424625474E-020
 -3.920000000000000E-002    1.758980242085087E-019
 -3.910000000000000E-002    7.554014949036277E-019
 -3.900000000000000E-002    2.549983222076795E-018
 -3.890000000000000E-002    7.165157808481970E-018
 -3.880000000000000E-002    1.732173077496706E-017
 -3.870000000000000E-002    3.672267509534245E-017
 -3.860000000000000E-002    6.888898063304396E-017
 -3.850000000000000E-002    1.142072862259743E-016
 -3.840000000000000E-002    1.645438416493070E-016
 -3.830000000000000E-002    1.953472827667277E-016
 -3.820000000000000E-002    1.563188379438245E-016
 -3.810000000000000E-002   -3.655972553470335E-017
 -3.800000000000000E-002   -5.028720223196345E-016
 -3.790000000000000E-002   -1.387070676202497E-015
 -3.780000000000000E-002   -2.828356892655258E-015
 -3.770000000000000E-002   -4.905922017079158E-015
 -3.760000000000000E-002   -7.558901173562097E-015
 -3.750000000000000E-002   -1.048806569792409E-014
 -3.740000000000000E-002   -1.305642607714493E-014
 -3.730000000000000E-002   -1.421674132088265E-014
 -3.720000000000000E-002   -1.250264758822984E-014
 -3.710000000000000E-002   -6.123193966756224E-015
 -3.700000000000000E-002    6.805522279312589E-015
 -3.690000000000000E-002    2.787561403160998E-014
 -3.680000000000000E-002    5.786330902017132E-014
 -3.670000000000000E-002    9.611840678342234E-014
 -3.660000000000000E-002    1.399629374985659E-013
 -3.650000000000000E-002    1.842318008603792E-013
 -3.640000000000000E-002    2.211093585027942E-013
 -3.630000000000000E-002    2.404102419049509E-013
 -3.620000000000000E-002    2.304134903394746E-013
 -3.610000000000000E-002    1.792840130219794E-013
 -3.600000000000000E-002    7.701098695539384E-014
 -3.590000000000000E-002   -8.232708748567802E-014
 -3.580000000000000E-002   -2.982739835634958E-013
 -3.570000000000000E-002   -5.620695404801362E-013
 -3.560000000000000E-002   -8.554958632179441E-013
 -3.550000000000000E-002   -1.150858497413704E-012
 -3.540000000000000E-002   -1.412337374560334E-012
 -3.530000000000000E-002   -1.598747934530517E-012
 -3.520000000000000E-002   -1.667519449189128E-012
 -3.510000000000000E-002   -1.579466847135076E-012
 -3.500000000000000E-002   -1.303757553493452E-012
 -3.490000000000000E-002   -8.223938281250162E-013
 -3.480000000000000E-002   -1.335863716617518E-013
 -3.470000000000000E-002    7.464219835872253E-013
 -3.460000000000000E-002    1.783227700944230E-012
 -3.450000000000000E-002    2.925635523544154E-012
 -3.440000000000000E-002    4.108018722003095E-012
 -3.430000000000000E-002    5.252973927590060E-012
 -3.420000000000000E-002    6.273585500699643E-012
 -3.410000000000000E-002    7.074859717686686E-012
 -3.400000000000000E-002    7.554358421908662E-012
 -3.390000000000000E-002    7.602676117846409E-012
 -3.380000000000000E-002    7.105017591074973E-012
 -3.370000000000000E-002    5.945570652611377E-012
 -3.360000000000000E-002    4.016460922586624E-012
 -3.350000000000000E-002    1.232637569988536E-012
 -3.340000000000000E-002   -2.446933224821140E-012
 -3.330000000000000E-002   -6.992895622035596E-012
 -3.320000000000000E-002   -1.227688142491866E-011
 -3.310000000000000E-002   -1.804536282225225E-011
 -3.300000000000000E-002   -2.390208909346129E-011
 -3.290000000000000E-002   -2.930575579304398E-011
 -3.280000000000000E-002   -3.358892001133349E-011
 -3.270000000000000E-002   -3.600216206981695E-011
 -3.260000000000000E-002   -3.578417188962264E-011
 -3.250000000000000E-002   -3.225413614040449E-011
 -3.240000000000000E-002   -2.491807998394913E-011
 -3.230000000000000E-002   -1.357656771569628E-011
 -3.220000000000000E-002    1.581882747025234E-012
 -3.210000000000000E-002    1.991822736225803E-011
 -3.200000000000000E-002    4.032605985435700E-011
 -3.190000000000000E-002    6.127097233656584E-011
 -3.180000000000000E-002    8.088973399799157E-011
 -3.170000000000000E-002    9.714446363006416E-011
 -3.160000000000000E-002    1.080183065732978E-010
 -3.150000000000000E-002    1.117313710547251E-010
 -3.140000000000000E-002    1.069508818669123E-010
 -3.130000000000000E-002    9.296806493102851E-011
 -3.120000000000000E-002    6.981729367329371E-011
 -3.110000000000000E-002    3.832038130845566E-011
 -3.100000000000000E-002    4.900403246533431E-014
 -3.090000000000000E-002   -4.278964537358000E-011
 -3.080000000000000E-002   -8.752758624778691E-011
 -3.070000000000000E-002   -1.312460874377719E-010
 -3.060000000000000E-002   -1.709916770264134E-010
 -3.050000000000000E-002   -2.039701668540824E-010
 -3.040000000000000E-002   -2.276975249005122E-010
 -3.030000000000000E-002   -2.400977042561709E-010
 -3.020000000000000E-002   -2.395511379861659E-010
 -3.010000000000000E-002   -2.249100684802691E-010
 -3.000000000000000E-002   -1.955063849540540E-010
 -2.990000000000000E-002   -1.511800946132815E-010
 -2.980000000000000E-002   -9.235177650737864E-011
 -2.970000000000000E-002   -2.014950651770971E-011
 -2.960000000000000E-002    6.341774146143631E-011
 -2.950000000000000E-002    1.552696105372748E-010
 -2.940000000000000E-002    2.510956160510239E-010
 -2.930000000000000E-002    3.452891749154127E-010
 -2.920000000000000E-002    4.310377397577462E-010
 -2.910000000000000E-002    5.006199188770828E-010
 -2.900000000000000E-002    5.459351579169964E-010
 -2.890000000000000E-002    5.592546771207887E-010
 -2.880000000000000E-002    5.341387580435809E-010
 -2.870000000000000E-002    4.664236395789055E-010
 -2.860000000000000E-002    3.551476403090757E-010
 -2.850000000000000E-002    2.032698378547820E-010
 -2.840000000000000E-002    1.803906014168973E-011
 -2.830000000000000E-002   -1.890984947628184E-010
 -2.820000000000000E-002   -4.031134418997372E-010
 -2.810000000000000E-002   -6.065200281636551E-010
 -2.800000000000000E-002   -7.809318670068070E-010
 -2.790000000000000E-002   -9.088911623983905E-010
 -2.780000000000000E-002   -9.757624348604364E-010
 -2.770000000000000E-002   -9.714554581928090E-010
 -2.760000000000000E-002   -8.917489090612824E-010
 -2.750000000000000E-002   -7.390273419506983E-010
 -2.740000000000000E-002   -5.223183384619940E-010
 -2.730000000000000E-002   -2.566068802000782E-010
 -2.720000000000000E-002    3.849622800145245E-011
 -2.710000000000000E-002    3.405664825641361E-010
 -2.700000000000000E-002    6.264293420853211E-010
 -2.690000000000000E-002    8.742162900983298E-010
 -2.680000000000000E-002    1.065168156784453E-009
 -2.670000000000000E-002    1.184990362073609E-009
 -2.660000000000000E-002    1.224646344822122E-009
 -2.650000000000000E-002    1.180572011593818E-009
 -2.640000000000000E-002    1.054387959059620E-009
 -2.630000000000000E-002    8.522608442634208E-010
 -2.620000000000000E-002    5.841033374469854E-010
 -2.610000000000000E-002    2.628025074980684E-010
 -2.600000000000000E-002   -9.638166159533275E-011
 -2.590000000000000E-002   -4.761803072612944E-010
 -2.580000000000000E-002   -8.574706259600586E-010
 -2.570000000000000E-002   -1.219340901258418E-009
 -2.560000000000000E-002   -1.539251336267337E-009
 -2.550000000000000E-002   -1.793501530032569E-009
 -2.540000000000000E-002   -1.958186489738925E-009
 -2.530000000000000E-002   -2.010747598679163E-009
 -2.520000000000000E-002   -1.932101828111373E-009
 -2.510000000000000E-002   -1.709194136904954E-009
 -2.500000000000000E-002   -1.337681273888799E-009
 -2.490000000000000E-002   -8.243545907518291E-010
 -2.480000000000000E-002   -1.888625253316729E-010
 -2.470000000000000E-002    5.356757533933791E-010
 -2.460000000000000E-002    1.303470838318865E-009
 -2.450000000000000E-002    2.058412495828135E-009
 -2.440000000000000E-002    2.737888825491859E-009
 -2.430000000000000E-002    3.277774482504761E-009
 -2.420000000000000E-002    3.618092383244551E-009
 -2.410000000000000E-002    3.708722549521811E-009
 -2.400000000000000E-002    3.514482634329189E-009
 -2.390000000000000E-002    3.018970188509680E-009
 -2.380000000000000E-002    2.226702422053759E-009
 -2.370000000000000E-002    1.163320099027941E-009
 -2.360000000000000E-002   -1.261084377587269E-010
 -2.350000000000000E-002   -1.580387448496989E-009
 -2.340000000000000E-002   -3.126575640230347E-009
 -2.330000000000000E-002   -4.684798440794489E-009
 -2.320000000000000E-002   -6.172812347553326E-009
 -2.310000000000000E-002   -7.509716075334615E-009
 -2.300000000000000E-002   -8.618389408021905E-009
 -2.290000000000000E-002   -9.426481281501680E-009
 -2.280000000000000E-002   -9.866028664995007E-009
 -2.270000000000000E-002   -9.872022910159030E-009
 -2.260000000000000E-002   -9.380414987844201E-009
 -2.250000000000000E-002   -8.326100416869100E-009
 -2.240000000000000E-002   -6.641383611214301E-009
 -2.230000000000000E-002   -4.255278773335353E-009
 -2.220000000000000E-002   -1.093746615046149E-009
 -2.210000000000000E-002    2.919255060119795E-009
 -2.200000000000000E-002    7.860305915248336E-009
 -2.190000000000000E-002    1.380518125882893E-008
 -2.180000000000000E-002    2.082826873589712E-008
 -2.170000000000000E-002    2.900329236710786E-008
 -2.160000000000000E-002    3.840571881456064E-008
 -2.150000000000000E-002    4.911695851512693E-008
 -2.140000000000000E-002    6.123012416674065E-008
 -2.130000000000000E-002    7.485675899279510E-008
 -2.120000000000000E-002    9.013376580848229E-008
 -2.110000000000000E-002    1.072294796008771E-007
 -2.100000000000000E-002    1.263479232132137E-007
 -2.090000000000000E-002    1.477303474156592E-007
 -2.080000000000000E-002    1.716534380480444E-007
 -2.070000000000000E-002    1.984239773123979E-007
 -2.060000000000000E-002    2.283700640901063E-007
 -2.050000000000000E-002    2.618295266350235E-007
 -2.040000000000000E-002    2.991363366833093E-007
 -2.030000000000000E-002    3.406062254884852E-007
 -2.020000000000000E-002    3.865227824733488E-007
 -2.010000000000000E-002    4.371250009234391E-007
 -2.000000000000000E-002    4.925976111776048E-007
 -1.990000000000000E-002    5.530647078074377E-007
 -1.980000000000000E-002    6.185872084600280E-007
 -1.970000000000000E-002    6.891645784418548E-007
 -1.960000000000000E-002    7.647404667714111E-007
 -1.950000000000000E-002    8.452121254840006E-007
 -1.940000000000000E-002    9.304430469801081E-007
 -1.930000000000000E-002    1.020278379290742E-006
 -1.920000000000000E-002    1.114562935688475E-006
 -1.910000000000000E-002    1.213159924142681E-006
 -1.900000000000000E-002    1.315971506436304E-006
 -1.890000000000000E-002    1.422958418480754E-006
 -1.880000000000000E-002    1.534159453991054E-006
 -1.870000000000000E-002    1.649708513472849E-006
 -1.860000000000000E-002    1.769849165175231E-006
 -1.850000000000000E-002    1.894945040626218E-006
 -1.840000000000000E-002    2.025485861582165E-006
 -1.830000000000000E-002    2.162086585293783E-006
 -1.820000000000000E-002    2.305482239013506E-006
 -1.810000000000000E-002    2.456515284118503E-006
 -1.800000000000000E-002    2.616118373938516E-006
 -1.790000000000000E-002    2.785292515254262E-006
 -1.780000000000000E-002    2.965082617577572E-006
 -1.770000000000000E-002    3.156551298598486E-006
 -1.760000000000000E-002    3.360754095350455E-006
 -1.750000000000000E-002    3.578718504282252E-006
 -1.740000000000000E-002    3.811425814006932E-006
 -1.730000000000000E-002    4.059801816575615E-006
 -1.720000000000000E-002    4.324711403856317E-006
 -1.710000000000000E-002    4.606962998235539E-006
 -1.700000000000000E-002    4.907317867132262E-006
 -1.690000000000000E-002    5.226506597367108E-006
 -1.680000000000000E-002    5.565247232973720E-006
 -1.670000000000000E-002    5.924267882311680E-006
 -1.660000000000000E-002    6.304328598964577E-006
 -1.650000000000000E-002    6.706241842789834E-006
 -1.640000000000000E-002    7.130890751106717E-006
 -1.630000000000000E-002    7.579243944282748E-006
 -1.620000000000000E-002    8.052364263140556E-006
 -1.610000000000000E-002    8.551413409289774E-006
 -1.600000000000000E-002    9.077655970133223E-006
 -1.590000000000000E-002    9.632456308085637E-006
 -1.580000000000000E-002    1.021727712167321E-005
 -1.570000000000000E-002    1.083367410447361E-005
 -1.560000000000000E-002    1.148329413090239E-005
 -1.550000000000000E-002    1.216787316954519E-005
 -1.540000000000000E-002    1.288923708952884E-005
 -1.530000000000000E-002    1.364930329993090E-005
 -1.520000000000000E-002    1.445009267396398E-005
 -1.510000000000000E-002    1.529373094626631E-005
 -1.500000000000000E-002    1.618246173187302E-005
 -1.490000000000000E-002    1.711865972274827E-005
 -1.480000000000000E-002    1.810483367255384E-005
 -1.470000000000000E-002    1.914364135378023E-005
 -1.460000000000000E-002    2.023788762421987E-005
 -1.450000000000000E-002    2.139053190766341E-005
 -1.440000000000000E-002    2.260467655186288E-005
 -1.430000000000000E-002    2.388357018407695E-005
 -1.420000000000000E-002    2.523059024377937E-005
 -1.410000000000000E-002    2.664923367189444E-005
 -1.400000000000000E-002    2.814310463271481E-005
 -1.390000000000000E-002    2.971590353908720E-005
 -1.380000000000000E-002    3.137142076351816E-005
 -1.370000000000000E-002    3.311353869756180E-005
 -1.360000000000000E-002    3.494622646470057E-005
 -1.350000000000000E-002    3.687356123656374E-005
 -1.340000000000000E-002    3.889974100623654E-005
 -1.330000000000000E-002    4.102910604985542E-005
 -1.320000000000000E-002    4.326616970977482E-005
 -1.310000000000000E-002    4.561564311529427E-005
 -1.300000000000000E-002    4.808246009908705E-005
 -1.290000000000000E-002    5.067180832962410E-005
 -1.280000000000000E-002    5.338914180930689E-005
 -1.270000000000000E-002    5.624019704034824E-005
 -1.260000000000000E-002    5.923099546285577E-005
 -1.250000000000000E-002    6.236784840539904E-005
 -1.240000000000000E-002    6.565733667387297E-005
 -1.230000000000000E-002    6.910631039507451E-005
 -1.220000000000000E-002    7.272189038415277E-005
 -1.210000000000000E-002    7.651142862814547E-005
 -1.200000000000000E-002    8.048253062547361E-005
 -1.190000000000000E-002    8.464302105245056E-005
 -1.180000000000000E-002    8.900097393843963E-005
 -1.170000000000000E-002    9.356470163862044E-005
 -1.160000000000000E-002    9.834276832224295E-005
 -1.150000000000000E-002    1.033440227145652E-004
 -1.140000000000000E-002    1.085775980829595E-004
 -1.130000000000000E-002    1.140529607799869E-004
 -1.120000000000000E-002    1.197799139448989E-004
 -1.110000000000000E-002    1.257686247732780E-004
 -1.100000000000000E-002    1.320296588255436E-004
 -1.090000000000000E-002    1.385740013268342E-004
 -1.080000000000000E-002    1.454130791651800E-004
 -1.070000000000000E-002    1.525587584820622E-004
 -1.060000000000000E-002    1.600233785174829E-004
 -1.050000000000000E-002    1.678197593547249E-004
 -1.040000000000000E-002    1.759612278855173E-004
 -1.030000000000000E-002    1.844615753770142E-004
 -1.020000000000000E-002    1.933350975828814E-004
 -1.010000000000000E-002    2.025965753580118E-004
 -1.000000000000000E-002    2.122612670899746E-004
 -9.899999999999999E-003    2.223449091521255E-004
 -9.800000000000000E-003    2.328636958885110E-004
 -9.699999999999999E-003    2.438342573707461E-004
 -9.599999999999999E-003    2.552736557344012E-004
 -9.500000000000000E-003    2.671994162682409E-004
 -9.399999999999999E-003    2.796294991920700E-004
 -9.299999999999999E-003    2.925823153715061E-004
 -9.200000000000000E-003    3.060766971371744E-004
 -9.099999999999999E-003    3.201319563888014E-004
 -8.999999999999999E-003    3.347679225699628E-004
 -8.900000000000000E-003    3.500048946430936E-004
 -8.799999999999999E-003    3.658637418652989E-004
 -8.699999999999999E-003    3.823658418001545E-004
 -8.600000000000000E-003    3.995332001911209E-004
 -8.499999999999999E-003    4.173883865616863E-004
 -8.399999999999999E-003    4.359545738175449E-004
 -8.300000000000000E-003    4.552555758984805E-004
 -8.199999999999999E-003    4.753158671429599E-004
 -8.100000000000000E-003    4.961605069943051E-004
 -8.000000000000000E-003    5.178153299932330E-004
 -7.899999999999999E-003    5.403067928731154E-004
 -7.800000000000000E-003    5.636620852971613E-004
 -7.699999999999999E-003    5.879091024746933E-004
 -7.599999999999999E-003    6.130765263116655E-004
 -7.499999999999999E-003    6.391937232730124E-004
 -7.399999999999999E-003    6.662908202368334E-004
 -7.299999999999999E-003    6.943986871719186E-004
 -7.199999999999999E-003    7.235489059153276E-004
 -7.100000000000000E-003    7.537737470195976E-004
 -6.999999999999999E-003    7.851061529430854E-004
 -6.899999999999999E-003    8.175796154104870E-004
 -6.800000000000000E-003    8.512282649281283E-004
 -6.699999999999999E-003    8.860867680758980E-004
 -6.599999999999999E-003    9.221903175968730E-004
 -6.499999999999999E-003    9.595744325404071E-004
 -6.399999999999999E-003    9.982753210146873E-004
 -6.299999999999999E-003    1.038329634440782E-003
 -6.199999999999999E-003    1.079774493414645E-003
 -6.100000000000000E-003    1.122647658858366E-003
 -5.999999999999999E-003    1.166987342483080E-003
 -5.899999999999999E-003    1.212832355589303E-003
 -5.800000000000000E-003    1.260222388698179E-003
 -5.699999999999999E-003    1.309197567381398E-003
 -5.599999999999999E-003    1.359798880928417E-003
 -5.499999999999999E-003    1.412068006661118E-003
 -5.399999999999999E-003    1.466047156974564E-003
 -5.299999999999999E-003    1.521779393327910E-003
 -5.199999999999999E-003    1.579308174462354E-003
 -5.099999999999999E-003    1.638677809210826E-003
 -4.999999999999999E-003    1.699932957794267E-003
 -4.899999999999999E-003    1.763118663140488E-003
 -4.799999999999999E-003    1.828280332991057E-003
 -4.699999999999999E-003    1.895463752700349E-003
 -4.599999999999999E-003    1.964715078249613E-003
 -4.499999999999999E-003    2.036080160202760E-003
 -4.399999999999999E-003    2.109605600073718E-003
 -4.299999999999999E-003    2.185337700030802E-003
 -4.199999999999999E-003    2.263322981820643E-003
 -4.099999999999999E-003    2.343608156070052E-003
 -3.999999999999999E-003    2.426239774346308E-003
 -3.899999999999999E-003    2.511264661468201E-003
 -3.799999999999999E-003    2.598729676158376E-003
 -3.699999999999999E-003    2.688681722769771E-003
 -3.599999999999999E-003    2.781167890539463E-003
 -3.499999999999999E-003    2.876235228976924E-003
 -3.399999999999999E-003    2.973931105017311E-003
 -3.299999999999999E-003    3.074302514800456E-003
 -3.199999999999999E-003    3.177396571028443E-003
 -3.099999999999999E-003    3.283260154553385E-003
 -2.999999999999999E-003    3.391939868727144E-003
 -2.899999999999999E-003    3.503482217743185E-003
 -2.799999999999999E-003    3.617933149977113E-003
 -2.699999999999999E-003    3.735337881974378E-003
 -2.599999999999999E-003    3.855741080981977E-003
 -2.499999999999999E-003    3.979186879489638E-003
 -2.399999999999999E-003    4.105718243940544E-003
 -2.299999999999999E-003    4.235377662904024E-003
 -2.199999999999999E-003    4.368206479242022E-003
 -2.099999999999999E-003    4.504244975310259E-003
 -1.999999999999999E-003    4.643532689598985E-003
 -1.899999999999999E-003    4.786107460378415E-003
 -1.799999999999999E-003    4.932006685530880E-003
 -1.699999999999999E-003    5.081266264288700E-003
 -1.599999999999999E-003    5.233920640949984E-003
 -1.499999999999999E-003    5.390003124672047E-003
 -1.399999999999999E-003    5.549545281378005E-003
 -1.299999999999999E-003    5.712577998801467E-003
 -1.199999999999999E-003    5.879129737537093E-003
 -1.099999999999999E-003    6.049227967560033E-003
 -9.999999999999989E-004    6.222897898814955E-003
 -8.999999999999990E-004    6.400162985397181E-003
 -7.999999999999990E-004    6.581044570231146E-003
 -6.999999999999989E-004    6.765562032029170E-003
 -5.999999999999990E-004    6.953732879837590E-003
 -4.999999999999989E-004    7.145571317563706E-003
 -3.999999999999989E-004    7.341090455814043E-003
 -2.999999999999989E-004    7.540299364627280E-003
 -1.999999999999989E-004    7.743206095092717E-003
 -9.999999999999892E-005    7.949815038191308E-003
  1.084202172485504E-018    8.160128521922449E-003
  1.000000000000011E-004    8.374144342110135E-003
  2.000000000000011E-004    8.591858618622045E-003
  3.000000000000011E-004    8.813264293768849E-003
  4.000000000000011E-004    9.038351452012743E-003
  5.000000000000011E-004    9.267105801134393E-003
  6.000000000000011E-004    9.499510354828378E-003
  7.000000000000011E-004    9.735544028986565E-003
  8.000000000000011E-004    9.975182471847864E-003
  9.000000000000012E-004    1.021839793529049E-002
  1.000000000000001E-003    1.046515853072741E-002
  1.100000000000001E-003    1.071542888604537E-002
  1.200000000000001E-003    1.096916946349320E-002
  1.300000000000001E-003    1.122633688524183E-002
  1.400000000000001E-003    1.148688266174292E-002
  1.500000000000001E-003    1.175075598587475E-002
  1.600000000000001E-003    1.201789988147486E-002
  1.700000000000001E-003    1.228825359481569E-002
  1.800000000000001E-003    1.256175241780478E-002
  1.900000000000001E-003    1.283832752517548E-002
  2.000000000000001E-003    1.311790391638498E-002
  2.100000000000001E-003    1.340040410517134E-002
  2.200000000000001E-003    1.368574448702833E-002
  2.300000000000001E-003    1.397383743692124E-002
  2.400000000000001E-003    1.426458966451445E-002
  2.500000000000001E-003    1.455790354136079E-002
  2.600000000000001E-003    1.485367739789334E-002
  2.700000000000001E-003    1.515180253497401E-002
  2.800000000000001E-003    1.545216713616935E-002
  2.900000000000001E-003    1.575465250406143E-002
  3.000000000000001E-003    1.605913649790803E-002
  3.100000000000001E-003    1.636549052860912E-002
  3.200000000000001E-003    1.667358144823138E-002
  3.300000000000001E-003    1.698326925837446E-002
  3.400000000000001E-003    1.729441029644431E-002
  3.500000000000001E-003    1.760685439930607E-002
  3.600000000000001E-003    1.792044739124890E-002
  3.700000000000001E-003    1.823502772989622E-002
  3.800000000000001E-003    1.855042958254441E-002
  3.900000000000001E-003    1.886648246675047E-002
  4.000000000000001E-003    1.918300818342396E-002
  4.100000000000001E-003    1.949982606001176E-002
  4.200000000000001E-003    1.981674831376230E-002
  4.300000000000001E-003    2.013358275797555E-002
  4.400000000000001E-003    2.045013198802711E-002
  4.500000000000001E-003    2.076619349048744E-002
  4.600000000000002E-003    2.108155886816907E-002
  4.700000000000001E-003    2.139601583341971E-002
  4.800000000000001E-003    2.170934733990323E-002
  4.900000000000002E-003    2.202133389328830E-002
  5.000000000000001E-003    2.233174747668222E-002
  5.100000000000001E-003    2.264035668733770E-002
  5.200000000000001E-003    2.294692721460662E-002
  5.300000000000002E-003    2.325121980546373E-002
  5.400000000000001E-003    2.355299078901443E-002
  5.500000000000001E-003    2.385199017134275E-002
  5.600000000000002E-003    2.414796772450169E-002
  5.700000000000001E-003    2.444066572997861E-002
  5.800000000000001E-003    2.472982320234463E-002
  5.900000000000002E-003    2.501517641568867E-002
  6.000000000000001E-003    2.529645743857393E-002
  6.100000000000001E-003    2.557339374990282E-002
  6.200000000000002E-003    2.584570994400192E-002
  6.300000000000002E-003    2.611312874484760E-002
  6.400000000000001E-003    2.637536738607786E-002
  6.500000000000001E-003    2.663214349327330E-002
  6.600000000000002E-003    2.688317090164737E-002
  6.700000000000001E-003    2.712815952856551E-002
  6.800000000000001E-003    2.736681917403905E-002
  6.900000000000002E-003    2.759885861680497E-002
  7.000000000000001E-003    2.782398365173628E-002
  7.100000000000001E-003    2.804190157685629E-002
  7.200000000000002E-003    2.825231378020145E-002
  7.300000000000002E-003    2.845492512913640E-002
  7.400000000000001E-003    2.864943796443827E-002
  7.500000000000001E-003    2.883555495315190E-002
  7.600000000000002E-003    2.901297909992873E-002
  7.700000000000001E-003    2.918141325130913E-002
  7.800000000000001E-003    2.934055971618701E-002
  7.900000000000001E-003    2.949012235492337E-002
  8.000000000000002E-003    2.962980673030254E-002
  8.100000000000001E-003    2.975931799117396E-002
  8.200000000000001E-003    2.987836389014347E-002
  8.300000000000002E-003    2.998665269370696E-002
  8.400000000000001E-003    3.008389718481396E-002
  8.500000000000002E-003    3.016980874840443E-002
  8.600000000000002E-003    3.024410312042220E-002
  8.700000000000001E-003    3.030649776261843E-002
  8.800000000000002E-003    3.035671512465822E-002
  8.900000000000002E-003    3.039448162578486E-002
  9.000000000000001E-003    3.041952521436353E-002
  9.100000000000002E-003    3.043157927350321E-002
  9.200000000000002E-003    3.043038225569314E-002
  9.300000000000001E-003    3.041567656062032E-002
  9.400000000000002E-003    3.038720703316957E-002
  9.500000000000001E-003    3.034472832589388E-002
  9.600000000000001E-003    3.028799996082578E-002
  9.700000000000002E-003    3.021678468306196E-002
  9.800000000000001E-003    3.013085404435542E-002
  9.900000000000001E-003    3.002998220062614E-002
  1.000000000000000E-002    2.991395208461213E-002
  1.010000000000000E-002    2.978255540851781E-002
  1.020000000000000E-002    2.963558710073735E-002
  1.030000000000000E-002    2.947285198461210E-002
  1.040000000000000E-002    2.929416143034038E-002
  1.050000000000000E-002    2.909933619506493E-002
  1.060000000000000E-002    2.888820311063304E-002
  1.070000000000000E-002    2.866059998780698E-002
  1.080000000000000E-002    2.841636907557567E-002
  1.090000000000000E-002    2.815536483673680E-002
  1.100000000000000E-002    2.787745082335152E-002
  1.110000000000000E-002    2.758249682962659E-002
  1.120000000000000E-002    2.727038519636303E-002
  1.130000000000000E-002    2.694100365043550E-002
  1.140000000000000E-002    2.659425365955854E-002
  1.150000000000000E-002    2.623004364205816E-002
  1.160000000000000E-002    2.584829310232598E-002
  1.170000000000000E-002    2.544893294601007E-002
  1.180000000000000E-002    2.503190239939957E-002
  1.190000000000000E-002    2.459715163705006E-002
  1.200000000000000E-002    2.414464100792921E-002
  1.210000000000000E-002    2.367434420100135E-002
  1.220000000000000E-002    2.318624012487380E-002
  1.230000000000000E-002    2.268032369660969E-002
  1.240000000000000E-002    2.215659812649283E-002
  1.250000000000000E-002    2.161507696723519E-002
  1.260000000000000E-002    2.105578478175253E-002
  1.270000000000000E-002    2.047875782677922E-002
  1.280000000000000E-002    1.988404125765882E-002
  1.290000000000000E-002    1.927168937228311E-002
  1.300000000000000E-002    1.864177135004629E-002
  1.310000000000000E-002    1.799436294554962E-002
  1.320000000000000E-002    1.732955124276852E-002
  1.330000000000000E-002    1.664743396250267E-002
  1.340000000000000E-002    1.594812055611098E-002
  1.350000000000000E-002    1.523172750395427E-002
  1.360000000000000E-002    1.449838375005733E-002
  1.370000000000000E-002    1.374822775025611E-002
  1.380000000000000E-002    1.298140797073173E-002
  1.390000000000000E-002    1.219808214988446E-002
  1.400000000000000E-002    1.139841728562982E-002
  1.410000000000000E-002    1.058259036872821E-002
  1.420000000000000E-002    9.750786741801519E-003
  1.430000000000000E-002    8.903200407889734E-003
  1.440000000000000E-002    8.040034456234118E-003
  1.450000000000000E-002    7.161500828726113E-003
  1.460000000000000E-002    6.267819156180004E-003
  1.470000000000000E-002    5.359217091863848E-003
  1.480000000000000E-002    4.435929984372925E-003
  1.490000000000000E-002    3.498200211115235E-003
  1.500000000000000E-002    2.546277784123132E-003
  1.510000000000000E-002    1.580419084665523E-003
  1.520000000000000E-002    6.008872178309397E-004
  1.530000000000000E-002   -3.920491528505269E-004
  1.540000000000000E-002   -1.398116430522912E-003
  1.550000000000000E-002   -2.417034674449872E-003
  1.560000000000000E-002   -3.448519960512296E-003
  1.570000000000000E-002   -4.492283269305553E-003
  1.580000000000000E-002   -5.548031376900611E-003
  1.590000000000000E-002   -6.615467955802796E-003
  1.600000000000000E-002   -7.694292693752340E-003
  1.610000000000000E-002   -8.784202364469217E-003
  1.620000000000000E-002   -9.884890592252173E-003
  1.630000000000000E-002   -1.099604882652510E-002
  1.640000000000000E-002   -1.211736737954372E-002
  1.650000000000000E-002   -1.324853336004585E-002
  1.660000000000000E-002   -1.438923327187696E-002
  1.670000000000000E-002   -1.553915290717153E-002
  1.680000000000000E-002   -1.669797756356166E-002
  1.690000000000000E-002   -1.786539303609620E-002
  1.700000000000000E-002   -1.904108508372520E-002
  1.710000000000000E-002   -2.022474067605224E-002
  1.720000000000000E-002   -2.141604683047499E-002
  1.730000000000000E-002   -2.261469139532506E-002
  1.740000000000000E-002   -2.382036519305594E-002
  1.750000000000000E-002   -2.503276129380453E-002
  1.760000000000000E-002   -2.625157515449774E-002
  1.770000000000000E-002   -2.747650251493268E-002
  1.780000000000000E-002   -2.870724402266895E-002
  1.790000000000000E-002   -2.994350615118186E-002
  1.800000000000000E-002   -3.118499510094491E-002
  1.810000000000000E-002   -3.243142360555969E-002
  1.820000000000000E-002   -3.368250671248883E-002
  1.830000000000000E-002   -3.493796642955590E-002
  1.840000000000000E-002   -3.619753166211158E-002
  1.850000000000000E-002   -3.746093022699003E-002
  1.860000000000000E-002   -3.872790185212589E-002
  1.870000000000000E-002   -3.999819103614531E-002