 -4.000000000000000E-002    0.000000000000000E+000
 -3.990000000000000E-002    0.000000000000000E+000
 -3.980000000000000E-002   -1.997747623649813E-010
 -3.970000000000000E-002   -1.026583228064260E-009
 -3.960000000000000E-002   -3.085369234962752E-009
 -3.950000000000000E-002   -7.056324829184878E-009
 -3.940000000000000E-002   -1.356473138058334E-008
 -3.930000000000000E-002   -2.304610152973647E-008
 -3.920000000000000E-002   -3.562755388109857E-008
 -3.910000000000000E-002   -5.104483661459070E-008
 -3.900000000000000E-002   -6.861218847857180E-008
 -3.890000000000000E-002   -8.725836588101853E-008
 -3.880000000000000E-002   -1.056355983309295E-007
 -3.870000000000000E-002   -1.222983242870758E-007
 -3.860000000000000E-002   -1.359365729545356E-007
 -3.850000000000000E-002   -1.456366923349355E-007
 -3.840000000000000E-002   -1.511321733701620E-007
 -3.830000000000000E-002   -1.530016048337510E-007
 -3.820000000000000E-002   -1.527739049733364E-007
 -3.810000000000000E-002   -1.529079655442517E-007
 -3.800000000000000E-002   -1.566333757468494E-007
 -3.790000000000000E-002   -1.676573844306885E-007
 -3.780000000000000E-002   -1.897686574518396E-007
 -3.770000000000000E-002   -2.263842734863958E-007
 -3.760000000000000E-002   -2.801073173143950E-007
 -3.750000000000000E-002   -3.523559241193047E-007
 -3.740000000000000E-002   -4.431303038861677E-007
 -3.730000000000000E-002   -5.509553168170709E-007
 -3.720000000000000E-002   -6.730176798533323E-007
 -3.710000000000000E-002   -8.054882588038642E-007
 -3.700000000000000E-002   -9.439865061601696E-007
 -3.690000000000000E-002   -1.084119633688757E-006
 -3.680000000000000E-002   -1.222028011751765E-006
 -3.670000000000000E-002   -1.354850066098432E-006
 -3.660000000000000E-002   -1.481042751363843E-006
 -3.650000000000000E-002   -1.600514252592362E-006
 -3.640000000000000E-002   -1.714551526142589E-006
 -3.630000000000000E-002   -1.825564900444002E-006
 -3.620000000000000E-002   -1.936690215364849E-006
 -3.610000000000000E-002   -2.051320220888372E-006
 -3.600000000000000E-002   -2.172646759673358E-006
 -3.590000000000000E-002   -2.303275332921268E-006
 -3.580000000000000E-002   -2.444989522522528E-006
 -3.570000000000000E-002   -2.598673877902225E-006
 -3.560000000000000E-002   -2.764420921973397E-006
 -3.550000000000000E-002   -2.941780264476962E-006
 -3.540000000000000E-002   -3.130099830283968E-006
 -3.530000000000000E-002   -3.328891049124759E-006
 -3.520000000000000E-002   -3.538151497146147E-006
 -3.510000000000000E-002   -3.758578350653942E-006
 -3.500000000000000E-002   -3.991637880754664E-006
 -3.490000000000000E-002   -4.239474193021068E-006
 -3.480000000000000E-002   -4.504689617883544E-006
 -3.470000000000000E-002   -4.790008384788174E-006
 -3.460000000000000E-002   -5.097927557124228E-006
 -3.450000000000000E-002   -5.430381211251043E-006
 -3.440000000000000E-002   -5.788510646175309E-006
 -3.430000000000000E-002   -6.172563752835721E-006
 -3.420000000000000E-002   -6.581976737662173E-006
 -3.410000000000000E-002   -7.015579943782139E-006
 -3.400000000000000E-002   -7.471936792635943E-006
 -3.390000000000000E-002   -7.949738389560918E-006
 -3.380000000000000E-002   -8.448185241610812E-006
 -3.370000000000000E-002   -8.967310052778517E-006
 -3.360000000000000E-002   -9.508137525599278E-006
 -3.350000000000000E-002   -1.007273600598734E-005
 -3.340000000000000E-002   -1.066407501316098E-005
 -3.330000000000000E-002   -1.128577338418931E-005
 -3.320000000000000E-002   -1.194172986799691E-005
 -3.310000000000000E-002   -1.263577732439567E-005
 -3.300000000000000E-002   -1.337135179025581E-005
 -3.290000000000000E-002   -1.415128180248626E-005
 -3.280000000000000E-002   -1.497772993255573E-005
 -3.270000000000000E-002   -1.585227461825113E-005
 -3.260000000000000E-002   -1.677612367698301E-005
 -3.250000000000000E-002   -1.775047575724196E-005
 -3.240000000000000E-002   -1.877688458484486E-005
 -3.230000000000000E-002   -1.985758223040575E-005
 -3.220000000000000E-002   -2.099575367700441E-005
 -3.210000000000000E-002   -2.219563380054905E-005
 -3.200000000000000E-002   -2.346249105957436E-005
 -3.190000000000000E-002   -2.480235853601103E-005
 -3.180000000000000E-002   -2.622172807504013E-005
 -3.170000000000000E-002   -2.772711443132393E-005
 -3.160000000000000E-002   -2.932462655882654E-005
 -3.150000000000000E-002   -3.101958476641957E-005
 -3.140000000000000E-002   -3.281629699628490E-005
 -3.130000000000000E-002   -3.471791644075035E-005
 -3.120000000000000E-002   -3.672659131285023E-005
 -3.110000000000000E-002   -3.884369236820734E-005
 -3.100000000000000E-002   -4.107014695480448E-005
 -3.090000000000000E-002   -4.340694332882842E-005
 -3.080000000000000E-002   -4.585553050907420E-005
 -3.070000000000000E-002   -4.841821031865363E-005
 -3.060000000000000E-002   -5.109844736481781E-005
 -3.050000000000000E-002   -5.390088641919641E-005
 -3.040000000000000E-002   -5.683140725637469E-005
 -3.030000000000000E-002   -5.989695743304653E-005
 -3.020000000000000E-002   -6.310522391736128E-005
 -3.010000000000000E-002   -6.646445357416299E-005
 -3.000000000000000E-002   -6.998308762496182E-005
 -2.990000000000000E-002   -7.366960359525948E-005
 -2.980000000000000E-002   -7.753242146292056E-005
 -2.970000000000000E-002   -8.157994459640858E-005
 -2.960000000000000E-002   -8.582058537042530E-005
 -2.950000000000000E-002   -9.026313467480390E-005
 -2.940000000000000E-002   -9.491681892192432E-005
 -2.930000000000000E-002   -9.979174556399919E-005
 -2.920000000000000E-002   -1.048987886068228E-004
 -2.910000000000000E-002   -1.102497361054200E-004
 -2.900000000000000E-002   -1.158573606129595E-004
 -2.890000000000000E-002   -1.217350444993511E-004
 -2.880000000000000E-002   -1.278966482451491E-004
 -2.870000000000000E-002   -1.343560301101181E-004
 -2.860000000000000E-002   -1.411268206329484E-004
 -2.850000000000000E-002   -1.482222577452226E-004
 -2.840000000000000E-002   -1.556549869822616E-004
 -2.830000000000000E-002   -1.634368334742312E-004
 -2.820000000000000E-002   -1.715793453757544E-004
 -2.810000000000000E-002   -1.800937797759500E-004
 -2.800000000000000E-002   -1.889914085322270E-004
 -2.790000000000000E-002   -1.982840710193710E-004
 -2.780000000000000E-002   -2.079845073075613E-004
 -2.770000000000000E-002   -2.181066075474429E-004
 -2.760000000000000E-002   -2.286658939232430E-004
 -2.750000000000000E-002   -2.396791023810703E-004
 -2.740000000000000E-002   -2.511644291959521E-004
 -2.730000000000000E-002   -2.631413876560115E-004
 -2.720000000000000E-002   -2.756304728671101E-004
 -2.710000000000000E-002   -2.886530221590334E-004
 -2.700000000000000E-002   -3.022304829808782E-004
 -2.690000000000000E-002   -3.163849012327153E-004
 -2.680000000000000E-002   -3.311385626037771E-004
 -2.670000000000000E-002   -3.465138240829379E-004
 -2.660000000000000E-002   -3.625333204315713E-004
 -2.650000000000000E-002   -3.792201074470768E-004
 -2.640000000000000E-002   -3.965981716111543E-004
 -2.630000000000000E-002   -4.146922913640946E-004
 -2.620000000000000E-002   -4.335282750858130E-004
 -2.610000000000000E-002   -4.531332788724673E-004
 -2.600000000000000E-002   -4.735354878061708E-004
 -2.590000000000000E-002   -4.947643005571740E-004
 -2.580000000000000E-002   -5.168499247045727E-004
 -2.570000000000000E-002   -5.398230634136377E-004
 -2.560000000000000E-002   -5.637148105142666E-004
 -2.550000000000000E-002   -5.885562200776523E-004
 -2.540000000000000E-002   -6.143787850109655E-004
 -2.530000000000000E-002   -6.412140153500441E-004
 -2.520000000000000E-002   -6.690933081068196E-004
 -2.510000000000000E-002   -6.980477159534036E-004
 -2.500000000000000E-002   -7.281092566238903E-004
 -2.490000000000000E-002   -7.593108981750212E-004
 -2.480000000000000E-002   -7.916867193436393E-004
 -2.470000000000000E-002   -8.252719899425724E-004
 -2.460000000000000E-002   -8.601038279886918E-004
 -2.450000000000000E-002   -8.962208335306016E-004
 -2.440000000000000E-002   -9.336628943701795E-004
 -2.430000000000000E-002   -9.724719850786642E-004
 -2.420000000000000E-002   -1.012690795506277E-003
 -2.410000000000000E-002   -1.054363607650190E-003
 -2.400000000000000E-002   -1.097535452960049E-003
 -2.390000000000000E-002   -1.142251330904748E-003
 -2.380000000000000E-002   -1.188556929293633E-003
 -2.370000000000000E-002   -1.236499002398490E-003
 -2.360000000000000E-002   -1.286123693306411E-003
 -2.350000000000000E-002   -1.337477194368307E-003
 -2.340000000000000E-002   -1.390607803605367E-003
 -2.330000000000000E-002   -1.445563372115122E-003
 -2.320000000000000E-002   -1.502392906661554E-003
 -2.310000000000000E-002   -1.561148153852604E-003
 -2.300000000000000E-002   -1.621880232988638E-003
 -2.290000000000000E-002   -1.684643588507695E-003
 -2.280000000000000E-002   -1.749491198586047E-003
 -2.270000000000000E-002   -1.816479226696394E-003
 -2.260000000000000E-002   -1.885662199901446E-003
 -2.250000000000000E-002   -1.957097089277692E-003
 -2.240000000000000E-002   -2.030840791449343E-003
 -2.230000000000000E-002   -2.106950606940263E-003
 -2.220000000000000E-002   -2.185483827487884E-003
 -2.210000000000000E-002   -2.266497221646389E-003
 -2.200000000000000E-002   -2.350047888621891E-003
 -2.190000000000000E-002   -2.436194036151896E-003
 -2.180000000000000E-002   -2.524994504061477E-003
 -2.170000000000000E-002   -2.616507425307522E-003
 -2.160000000000000E-002   -2.710793862207695E-003
 -2.150000000000000E-002   -2.807912683407413E-003
 -2.140000000000000E-002   -2.907926383492623E-003
 -2.130000000000000E-002   -3.010896391130466E-003
 -2.120000000000000E-002   -3.116885495302146E-003
 -2.110000000000000E-002   -3.225956703930728E-003
 -2.100000000000000E-002   -3.338173999047926E-003
 -2.090000000000000E-002   -3.453600002402575E-003
 -2.080000000000000E-002   -3.572295471396175E-003
 -2.070000000000000E-002   -3.694326442509163E-003
 -2.060000000000000E-002   -3.819754013554669E-003
 -2.050000000000000E-002   -3.948642067318703E-003
 -2.040000000000000E-002   -4.081054122950466E-003
 -2.030000000000000E-002   -4.217051116431883E-003
 -2.020000000000000E-002   -4.356696613864003E-003
 -2.010000000000000E-002   -4.500055894213352E-003
 -2.000000000000000E-002   -4.647190181503122E-003
 -1.990000000000000E-002   -4.798161396751957E-003
 -1.980000000000000E-002   -4.953032032366411E-003
 -1.970000000000000E-002   -5.111868970822465E-003
 -1.960000000000000E-002   -5.274729209080669E-003
 -1.950000000000000E-002   -5.441676050835637E-003
 -1.940000000000000E-002   -5.612770415167178E-003
 -1.930000000000000E-002   -5.788070368880602E-003
 -1.920000000000000E-002   -5.967633614068988E-003
 -1.910000000000000E-002   -6.151515801665234E-003
 -1.900000000000000E-002   -6.339772710243927E-003
 -1.890000000000000E-002   -6.532453961240618E-003
 -1.880000000000000E-002   -6.729612623733653E-003
 -1.870000000000000E-002   -6.931295953224226E-003
 -1.860000000000000E-002   -7.137554277068707E-003
 -1.850000000000000E-002   -7.348432546810660E-003
 -1.840000000000000E-002   -7.563978633416847E-003
 -1.830000000000000E-002   -7.784239793500423E-003
 -1.820000000000000E-002   -8.009254817356586E-003
 -1.810000000000000E-002   -8.239067363994244E-003
 -1.800000000000000E-002   -8.473721545723536E-003
 -1.790000000000000E-002   -8.713250279543712E-003
 -1.780000000000000E-002   -8.957692038340676E-003
 -1.770000000000000E-002   -9.207079266407415E-003
 -1.760000000000000E-002   -9.461439033317316E-003
 -1.750000000000000E-002   -9.720797299887510E-003
 -1.740000000000000E-002   -9.985180323276326E-003
 -1.730000000000000E-002   -1.025460610320247E-002
 -1.720000000000000E-002   -1.052909600408184E-002
 -1.710000000000000E-002   -1.080866598632857E-002
 -1.700000000000000E-002   -1.109332946416066E-002
 -1.690000000000000E-002   -1.138309359119387E-002
 -1.680000000000000E-002   -1.167797107884887E-002
 -1.670000000000000E-002   -1.197795711037747E-002
 -1.660000000000000E-002   -1.228306601266813E-002
 -1.650000000000000E-002   -1.259328463336704E-002
 -1.640000000000000E-002   -1.290860640284582E-002
 -1.630000000000000E-002   -1.322902633150400E-002
 -1.620000000000000E-002   -1.355452614953373E-002
 -1.610000000000000E-002   -1.388508413301386E-002
 -1.600000000000000E-002   -1.422067515715449E-002
 -1.590000000000000E-002   -1.456126786281058E-002
 -1.580000000000000E-002   -1.490683269927273E-002
 -1.570000000000000E-002   -1.525732085406621E-002
 -1.560000000000000E-002   -1.561269764398338E-002
 -1.550000000000000E-002   -1.597290763785350E-002
 -1.540000000000000E-002   -1.633790237908034E-002
 -1.530000000000000E-002   -1.670762279940207E-002
 -1.520000000000000E-002   -1.708200360510260E-002
 -1.510000000000000E-002   -1.746098076809928E-002
 -1.500000000000000E-002   -1.784448873764681E-002
 -1.490000000000000E-002   -1.823244989298338E-002
 -1.480000000000000E-002   -1.862478359336148E-002
 -1.470000000000000E-002   -1.902140406261412E-002
 -1.460000000000000E-002   -1.942221344158308E-002
 -1.450000000000000E-002   -1.982711511979177E-002
 -1.440000000000000E-002   -2.023600828408667E-002
 -1.430000000000000E-002   -2.064877737507706E-002
 -1.420000000000000E-002   -2.106530454084656E-002
 -1.410000000000000E-002   -2.148547562052799E-002
 -1.400000000000000E-002   -2.190914758637341E-002
 -1.390000000000000E-002   -2.233620015855608E-002
 -1.380000000000000E-002   -2.276648673932661E-002
 -1.370000000000000E-002   -2.319986572322436E-002
 -1.360000000000000E-002   -2.363618741702048E-002
 -1.350000000000000E-002   -2.407530086694808E-002
 -1.340000000000000E-002   -2.451703649537382E-002
 -1.330000000000000E-002   -2.496122905576651E-002
 -1.320000000000000E-002   -2.540769532184755E-002
 -1.310000000000000E-002   -2.585626203576225E-002
 -1.300000000000000E-002   -2.630674615588791E-002
 -1.290000000000000E-002   -2.675893993087331E-002
 -1.280000000000000E-002   -2.721265559316736E-002
 -1.270000000000000E-002   -2.766768656973562E-002
 -1.260000000000000E-002   -2.812381587509289E-002
 -1.250000000000000E-002   -2.858083119252205E-002
 -1.240000000000000E-002   -2.903850982792165E-002
 -1.230000000000000E-002   -2.949660872640235E-002
 -1.220000000000000E-002   -2.995491656754682E-002
 -1.210000000000000E-002   -3.041318239500305E-002
 -1.200000000000000E-002   -3.087116412993542E-002
 -1.190000000000000E-002   -3.132861281216734E-002
 -1.180000000000000E-002   -3.178527884517628E-002
 -1.170000000000000E-002   -3.224089479825088E-002
 -1.160000000000000E-002   -3.269519884418207E-002
 -1.150000000000000E-002   -3.314791219200616E-002
 -1.140000000000000E-002   -3.359877003178554E-002
 -1.130000000000000E-002   -3.404747994836965E-002
 -1.120000000000000E-002   -3.449375791062188E-002
 -1.110000000000000E-002   -3.493732476361652E-002
 -1.100000000000000E-002   -3.537787357486904E-002
 -1.090000000000000E-002   -3.581510335819276E-002
 -1.080000000000000E-002   -3.624872105196505E-002
 -1.070000000000000E-002   -3.667841741666816E-002
 -1.060000000000000E-002   -3.710388351285399E-002
 -1.050000000000000E-002   -3.752481068734811E-002
 -1.040000000000000E-002   -3.794089117354536E-002
 -1.030000000000000E-002   -3.835179064961502E-002
 -1.020000000000000E-002   -3.875717654414591E-002
 -1.010000000000000E-002   -3.915673474164751E-002
 -1.000000000000000E-002   -3.955014305012548E-002
 -9.899999999999999E-003   -3.993706167293237E-002
 -9.800000000000000E-003   -4.031716430423458E-002
 -9.699999999999999E-003   -4.069010598931921E-002
 -9.599999999999999E-003   -4.105556027945780E-002
 -9.500000000000000E-003   -4.141318400541656E-002
 -9.399999999999999E-003   -4.176264804769084E-002
 -9.299999999999999E-003   -4.210360268699404E-002
 -9.200000000000000E-003   -4.243572457969449E-002
 -9.099999999999999E-003   -4.275866774738612E-002
 -8.999999999999999E-003   -4.307208699440863E-002
 -8.900000000000000E-003   -4.337565073885171E-002
 -8.799999999999999E-003   -4.366901623500333E-002
 -8.699999999999999E-003   -4.395185318765188E-002
 -8.600000000000000E-003   -4.422382956367876E-002
 -8.499999999999999E-003   -4.448459124403953E-002
 -8.399999999999999E-003   -4.473380689217682E-002
 -8.300000000000000E-003   -4.497114226871655E-002
 -8.199999999999999E-003   -4.519626439979443E-002
 -8.100000000000000E-003   -4.540885174401439E-002
 -8.000000000000000E-003   -4.560858001446565E-002
 -7.899999999999999E-003   -4.579512416818191E-002
 -7.800000000000000E-003   -4.596817844502338E-002
 -7.699999999999999E-003   -4.612740626279745E-002
 -7.599999999999999E-003   -4.627252427621971E-002
 -7.499999999999999E-003   -4.640322059947299E-002
 -7.399999999999999E-003   -4.651919747054574E-002
 -7.299999999999999E-003   -4.662016075393952E-002
 -7.199999999999999E-003   -4.670580608297173E-002
 -7.100000000000000E-003   -4.677586338883337E-002
 -6.999999999999999E-003   -4.683003328232395E-002
 -6.899999999999999E-003   -4.686805907501407E-002
 -6.800000000000000E-003   -4.688966025411118E-002
 -6.699999999999999E-003   -4.689457410408668E-002
 -6.599999999999999E-003   -4.688254656765760E-002
 -6.499999999999999E-003   -4.685333259072855E-002
 -6.399999999999999E-003   -4.680670394303654E-002
 -6.299999999999999E-003   -4.674242152507466E-002
 -6.199999999999999E-003   -4.666026072708776E-002
 -6.100000000000000E-003   -4.656001191129017E-002
 -5.999999999999999E-003   -4.644147222674354E-002
 -5.899999999999999E-003   -4.630444635537369E-002
 -5.800000000000000E-003   -4.614874277013592E-002
 -5.699999999999999E-003   -4.597417369024576E-002
 -5.599999999999999E-003   -4.578057754407582E-002
 -5.499999999999999E-003   -4.556778443007456E-002
 -5.399999999999999E-003   -4.533563836174970E-002
 -5.299999999999999E-003   -4.508399966749459E-002
 -5.199999999999999E-003   -4.481272762424431E-002
 -5.099999999999999E-003   -4.452169853165941E-002
 -4.999999999999999E-003   -4.421079889531222E-002
 -4.899999999999999E-003   -4.387993295554966E-002
 -4.799999999999999E-003   -4.352900475041831E-002
 -4.699999999999999E-003   -4.315794387597417E-002
 -4.599999999999999E-003   -4.276668040322288E-002
 -4.499999999999999E-003   -4.235516680081469E-002
 -4.399999999999999E-003   -4.192335356744460E-002
 -4.299999999999999E-003   -4.147121316115203E-002
 -4.199999999999999E-003   -4.099872503045907E-002
 -4.099999999999999E-003   -4.050587517100336E-002
 -3.999999999999999E-003   -3.999266894847159E-002
 -3.899999999999999E-003   -3.945911497258386E-002
 -3.799999999999999E-003   -3.890523378244051E-002
 -3.699999999999999E-003   -3.833106734616832E-002
 -3.599999999999999E-003   -3.773666131240364E-002
 -3.499999999999999E-003   -3.712207352791853E-002
 -3.399999999999999E-003   -3.648737619628481E-002
 -3.299999999999999E-003   -3.583265736886468E-002
 -3.199999999999999E-003   -3.515801307962017E-002
 -3.099999999999999E-003   -3.446355706652285E-002
 -2.999999999999999E-003   -3.374941126169458E-002
 -2.899999999999999E-003   -3.301570254682896E-002
 -2.799999999999999E-003   -3.226257775339962E-002
 -2.699999999999999E-003   -3.149020036345461E-002
 -2.599999999999999E-003   -3.069873462359480E-002
 -2.499999999999999E-003   -2.988834859706574E-002
 -2.399999999999999E-003   -2.905924398885181E-002
 -2.299999999999999E-003   -2.821161490226223E-002
 -2.199999999999999E-003   -2.734568263555010E-002
 -2.099999999999999E-003   -2.646166623097993E-002
 -1.999999999999999E-003   -2.555980713642608E-002
 -1.899999999999999E-003   -2.464034960441958E-002
 -1.799999999999999E-003   -2.370355492349966E-002
 -1.699999999999999E-003   -2.274970600721028E-002
 -1.599999999999999E-003   -2.177907405259614E-002
 -1.499999999999999E-003   -2.079195242732670E-002
 -1.399999999999999E-003   -1.978865451003191E-002
 -1.299999999999999E-003   -1.876948014306212E-002
 -1.199999999999999E-003   -1.773475804554248E-002
 -1.099999999999999E-003   -1.668482466064128E-002
 -9.999999999999989E-004   -1.562000984488777E-002
 -8.999999999999990E-004   -1.454065984263548E-002
 -7.999999999999990E-004   -1.344714642955123E-002
 -6.999999999999989E-004   -1.233984204581373E-002
 -5.999999999999990E-004   -1.121912578293985E-002
 -4.999999999999989E-004   -1.008535922188708E-002
 -3.999999999999989E-004   -8.938963176951198E-003
 -2.999999999999989E-004   -7.780334629802356E-003
 -1.999999999999989E-004   -6.609893859745405E-003
 -9.999999999999892E-005   -5.428054468720522E-003
  1.084202172485504E-018   -4.235245598853646E-003
  1.000000000000011E-004   -3.031893923392141E-003
  2.000000000000011E-004   -1.818441217168371E-003
  3.000000000000011E-004   -5.953403694464315E-004
  4.000000000000011E-004    6.369822324437044E-004
  5.000000000000011E-004    1.878029578881800E-003
  6.000000000000011E-004    3.127380296391945E-003
  7.000000000000011E-004    4.384526989383110E-003
  8.000000000000011E-004    5.649023735669632E-003
  9.000000000000012E-004    6.920374044091598E-003
  1.000000000000001E-003    8.198096422409221E-003
  1.100000000000001E-003    9.481693004718589E-003
  1.200000000000001E-003    1.077066976161890E-002
  1.300000000000001E-003    1.206454126684557E-002
  1.400000000000001E-003    1.336279129659014E-002
  1.500000000000001E-003    1.466492164048762E-002
  1.600000000000001E-003    1.597039584796033E-002
  1.700000000000001E-003    1.727873516413897E-002
  1.800000000000001E-003    1.858942183581171E-002
  1.900000000000001E-003    1.990192884842015E-002
  2.000000000000001E-003    2.121574210247280E-002
  2.100000000000001E-003    2.253034344237078E-002
  2.200000000000001E-003    2.384522127801878E-002
  2.300000000000001E-003    2.515986203532979E-002
  2.400000000000001E-003    2.647371908147499E-002
  2.500000000000001E-003    2.778627777313095E-002
  2.600000000000001E-003    2.909704300954863E-002
  2.700000000000001E-003    3.040546327775924E-002
  2.800000000000001E-003    3.171099994758898E-002
  2.900000000000001E-003    3.301314281129494E-002
  3.000000000000001E-003    3.431135816672537E-002
  3.100000000000001E-003    3.560512556664260E-002
  3.200000000000001E-003    3.689393494098050E-002
  3.300000000000001E-003    3.817726995157976E-002
  3.400000000000001E-003    3.945458178267547E-002
  3.500000000000001E-003    4.072539942972357E-002
  3.600000000000001E-003    4.198918655712890E-002
  3.700000000000001E-003    4.324546379993241E-002
  3.800000000000001E-003    4.449368825905945E-002
  3.900000000000001E-003    4.573336950599985E-002
  4.000000000000001E-003    4.696399535067188E-002
  4.100000000000001E-003    4.818506702317213E-002
  4.200000000000001E-003    4.939607832100522E-002
  4.300000000000001E-003    5.059654301210161E-002
  4.400000000000001E-003    5.178596119967512E-002
  4.500000000000001E-003    5.296384554927963E-002
  4.600000000000002E-003    5.412971971975147E-002
  4.700000000000001E-003    5.528311306080082E-002
  4.800000000000001E-003    5.642354475614762E-002
  4.900000000000002E-003    5.755056004089747E-002
  5.000000000000001E-003    5.866371262443566E-002
  5.100000000000001E-003    5.976252478863499E-002
  5.200000000000001E-003    6.084657474336705E-002
  5.300000000000002E-003    6.191541246070367E-002
  5.400000000000001E-003    6.296859201202243E-002
  5.500000000000001E-003    6.400568487056738E-002
  5.600000000000002E-003    6.502626409747561E-002
  5.700000000000001E-003    6.602989938932899E-002
  5.800000000000001E-003    6.701618221152068E-002
  5.900000000000002E-003    6.798471984563782E-002
  6.000000000000001E-003    6.893509038124999E-002
  6.100000000000001E-003    6.986688928175588E-002
  6.200000000000002E-003    7.077975769529497E-002
  6.300000000000002E-003    7.167330157661270E-002
  6.400000000000001E-003    7.254715065718551E-002
  6.500000000000001E-003    7.340096817921804E-002
  6.600000000000002E-003    7.423438011623790E-002
  6.700000000000001E-003    7.504704810000010E-002
  6.800000000000001E-003    7.583861606581818E-002
  6.900000000000002E-003    7.660875846309179E-002
  7.000000000000001E-003    7.735715775935123E-002
  7.100000000000001E-003    7.808351145301345E-002
  7.200000000000002E-003    7.878750485341465E-002
  7.300000000000002E-003    7.946882995631432E-002
  7.400000000000001E-003    8.012721108036347E-002
  7.500000000000001E-003    8.076237391971514E-002
  7.600000000000002E-003    8.137404371991630E-002
  7.700000000000001E-003    8.196196408041226E-002
  7.800000000000001E-003    8.252588246549331E-002
  7.900000000000001E-003    8.306554195802612E-002
  8.000000000000002E-003    8.358073180437939E-002
  8.100000000000001E-003    8.407121421052088E-002
  8.200000000000001E-003    8.453677748173360E-002
  8.300000000000002E-003    8.497722632091378E-002
  8.400000000000001E-003    8.539235755766547E-002
  8.500000000000002E-003    8.578199430628528E-002
  8.600000000000002E-003    8.614596792555163E-002
  8.700000000000001E-003    8.648411337116546E-002
  8.800000000000002E-003    8.679629313142515E-002
  8.900000000000002E-003    8.708235096519865E-002
  9.000000000000001E-003    8.734217503757361E-002
  9.100000000000002E-003    8.757563708328447E-002
  9.200000000000002E-003    8.778262810821841E-002
  9.300000000000001E-003    8.796303602275476E-002
  9.400000000000002E-003    8.811678567244849E-002
  9.500000000000001E-003    8.824379007919284E-002
  9.600000000000001E-003    8.834397656529711E-002
  9.700000000000002E-003    8.841729609015125E-002
  9.800000000000001E-003    8.846370851451399E-002
  9.900000000000001E-003    8.848316322814166E-002
  1.000000000000000E-002    8.847564614596880E-002
  1.010000000000000E-002    8.844114759032534E-002
  1.020000000000000E-002    8.837966164430706E-002
  1.030000000000000E-002    8.829120279021860E-002
  1.040000000000000E-002    8.817578641398983E-002
  1.050000000000000E-002    8.803344795640460E-002
  1.060000000000000E-002    8.786422134354492E-002
  1.070000000000000E-002    8.766816728877889E-002
  1.080000000000000E-002    8.744535751611315E-002
  1.090000000000000E-002    8.719585049712043E-002
  1.100000000000000E-002    8.691974599805788E-002
  1.110000000000000E-002    8.661713572041803E-002
  1.120000000000000E-002    8.628814132998031E-002
  1.130000000000000E-002    8.593288239066124E-002
  1.140000000000000E-002    8.555150339988235E-002
  1.150000000000000E-002    8.514414878055607E-002
  1.160000000000000E-002    8.471096762135555E-002
  1.170000000000000E-002    8.425213164968061E-002
  1.180000000000000E-002    8.376781262949541E-002
  1.190000000000000E-002    8.325819723439620E-002
  1.200000000000000E-002    8.272347752944856E-002
  1.210000000000000E-002    8.216386121639176E-002
  1.220000000000000E-002    8.157956667761625E-002
  1.230000000000000E-002    8.097081062971596E-002
  1.240000000000000E-002    8.033783887690280E-002
  1.250000000000000E-002    7.968089880081008E-002
  1.260000000000000E-002    7.900024871419091E-002
  1.270000000000000E-002    7.829615526097515E-002
  1.280000000000000E-002    7.756890402151577E-002
  1.290000000000000E-002    7.681878301093686E-002
  1.300000000000000E-002    7.604609887595153E-002
  1.310000000000000E-002    7.525116088056638E-002
  1.320000000000000E-002    7.443428870882840E-002
  1.330000000000000E-002    7.359580673253885E-002
  1.340000000000000E-002    7.273605522651455E-002
  1.350000000000000E-002    7.185536799755673E-002
  1.360000000000000E-002    7.095410066002431E-002
  1.370000000000000E-002    7.003261586305007E-002
  1.380000000000000E-002    6.909128354263180E-002
  1.390000000000000E-002    6.813047349786874E-002
  1.400000000000000E-002    6.715057526964138E-002
  1.410000000000000E-002    6.615198828468984E-002
  1.420000000000000E-002    6.513511162439001E-002
  1.430000000000000E-002    6.410035976234880E-002
  1.440000000000000E-002    6.304815438353494E-002
  1.450000000000000E-002    6.197892441342277E-002
  1.460000000000000E-002    6.089310320878297E-002
  1.470000000000000E-002    5.979112828597666E-002
  1.480000000000000E-002    5.867344504993639E-002
  1.490000000000000E-002    5.754050446520931E-002
  1.500000000000000E-002    5.639276391522781E-002
  1.510000000000000E-002    5.523067653618539E-002
  1.520000000000000E-002    5.405470706822592E-002
  1.530000000000000E-002    5.286532838901681E-002
  1.540000000000000E-002    5.166301861801092E-002
  1.550000000000000E-002    5.044825956624573E-002
  1.560000000000000E-002    4.922153769773456E-002
  1.570000000000000E-002    4.798334866062478E-002
  1.580000000000000E-002    4.673418859810376E-002
  1.590000000000000E-002    4.547455098137962E-002
  1.600000000000000E-002    4.420494700429609E-002
  1.610000000000000E-002    4.292587403728775E-002
  1.620000000000000E-002    4.163784169558938E-002
  1.630000000000000E-002    4.034136169089880E-002
  1.640000000000000E-002    3.903694495349249E-002
  1.650000000000000E-002    3.772510446041520E-002
  1.660000000000000E-002    3.640635440212955E-002
  1.670000000000000E-002    3.508121540351625E-002
  1.680000000000000E-002    3.375020214846529E-002
  1.690000000000000E-002    3.241382871315249E-002
  1.700000000000000E-002    3.107262060906765E-002
  1.710000000000000E-002    2.972710021214808E-002
  1.720000000000000E-002    2.837779397525147E-002
  1.730000000000000E-002    2.702522475376313E-002
  1.740000000000000E-002    2.566992206922595E-002
  1.750000000000000E-002    2.431240365199205E-002
  1.760000000000000E-002    2.295320158986518E-002
  1.770000000000000E-002    2.159282892688444E-002
  1.780000000000000E-002    2.023181334224680E-002
  1.790000000000000E-002    1.887066278043815E-002
  1.800000000000000E-002    1.750989747405505E-002
  1.810000000000000E-002    1.615003371006765E-002
  1.820000000000000E-002    1.479157690804941E-002
  1.830000000000000E-002    1.343502531392620E-002
  1.840000000000000E-002    1.208088814009010E-002
  1.850000000000000E-002    1.072967802671155E-002
  1.860000000000000E-002    9.381882898321281E-003
  1.870000000000000E-002    8.038007438399924E-003