 -4.000000000000000E-002    0.000000000000000E+000
 -3.990000000000000E-002    0.000000000000000E+000
 -3.980000000000000E-002    0.000000000000000E+000
 -3.970000000000000E-002    0.000000000000000E+000
 -3.960000000000000E-002    0.000000000000000E+000
 -3.950000000000000E-002    0.000000000000000E+000
 -3.940000000000000E-002    0.000000000000000E+000
 -3.930000000000000E-002    0.000000000000000E+000
 -3.920000000000000E-002    0.000000000000000E+000
 -3.910000000000000E-002    0.000000000000000E+000
 -3.900000000000000E-002    0.000000000000000E+000
 -3.890000000000000E-002    0.000000000000000E+000
 -3.880000000000000E-002    0.000000000000000E+000
 -3.870000000000000E-002    0.000000000000000E+000
 -3.860000000000000E-002    0.000000000000000E+000
 -3.850000000000000E-002    0.000000000000000E+000
 -3.840000000000000E-002    0.000000000000000E+000
 -3.830000000000000E-002    0.000000000000000E+000
 -3.820000000000000E-002    0.000000000000000E+000
 -3.810000000000000E-002    0.000000000000000E+000
 -3.800000000000000E-002    0.000000000000000E+000
 -3.790000000000000E-002    0.000000000000000E+000
 -3.780000000000000E-002    0.000000000000000E+000
 -3.770000000000000E-002    0.000000000000000E+000
 -3.760000000000000E-002    0.000000000000000E+000
 -3.750000000000000E-002    0.000000000000000E+000
 -3.740000000000000E-002    0.000000000000000E+000
 -3.730000000000000E-002    0.000000000000000E+000
 -3.720000000000000E-002    0.000000000000000E+000
 -3.710000000000000E-002    0.000000000000000E+000
 -3.700000000000000E-002    0.000000000000000E+000
 -3.690000000000000E-002    0.000000000000000E+000
 -3.680000000000000E-002    0.000000000000000E+000
 -3.670000000000000E-002    0.000000000000000E+000
 -3.660000000000000E-002    0.000000000000000E+000
 -3.650000000000000E-002   -1.647783913663594E-047
 -3.640000000000000E-002    1.461720338014369E-046
 -3.630000000000000E-002    1.142961619327337E-045
 -3.620000000000000E-002    3.920846560248379E-045
 -3.610000000000000E-002    1.245595970688079E-044
 -3.600000000000000E-002    3.314358263746221E-044
 -3.590000000000000E-002    8.180609679418477E-044
 -3.580000000000000E-002    1.856264522318341E-043
 -3.570000000000000E-002    3.867277175238009E-043
 -3.560000000000000E-002    7.355634281729388E-043
 -3.550000000000000E-002    1.252987450220381E-042
 -3.540000000000000E-002    1.819142505035977E-042
 -3.530000000000000E-002    1.926728918999880E-042
 -3.520000000000000E-002    2.011903331694521E-043
 -3.510000000000000E-002   -6.422183281007008E-042
 -3.500000000000000E-002   -2.387057210644025E-041
 -3.490000000000000E-002   -6.223255071483741E-041
 -3.480000000000000E-002   -1.363978685304564E-040
 -3.470000000000000E-002   -2.642179485589409E-040
 -3.460000000000000E-002   -4.587969235053087E-040
 -3.450000000000000E-002   -7.096129116116066E-040
 -3.440000000000000E-002   -9.455246642202813E-040
 -3.430000000000000E-002   -9.730938922285846E-040
 -3.420000000000000E-002   -3.886758552206732E-040
 -3.410000000000000E-002    1.523340367941895E-039
 -3.400000000000000E-002    5.866441377077264E-039
 -3.390000000000000E-002    1.409836985362252E-038
 -3.380000000000000E-002    2.774572544693542E-038
 -3.370000000000000E-002    4.766443962102548E-038
 -3.360000000000000E-002    7.261310757987725E-038
 -3.350000000000000E-002    9.695919736045693E-038
 -3.340000000000000E-002    1.075521556927050E-037
 -3.330000000000000E-002    8.025852854199615E-038
 -3.320000000000000E-002   -2.257654092293540E-038
 -3.310000000000000E-002   -2.514256320101131E-037
 -3.300000000000000E-002   -6.621815542658057E-037
 -3.290000000000000E-002   -1.297858940704694E-036
 -3.280000000000000E-002   -2.155594962542557E-036
 -3.270000000000000E-002   -3.137794936793936E-036
 -3.260000000000000E-002   -3.992276092609604E-036
 -3.250000000000000E-002   -4.256290467948988E-036
 -3.240000000000000E-002   -3.232811583880660E-036
 -3.230000000000000E-002   -4.154886378108303E-038
 -3.220000000000000E-002    6.204361918177874E-036
 -3.210000000000000E-002    1.605192645117687E-035
 -3.200000000000000E-002    2.918298679240635E-035
 -3.190000000000000E-002    4.377587721587589E-035
 -3.180000000000000E-002    5.594020725264277E-035
 -3.170000000000000E-002    5.956556337963314E-035
 -3.160000000000000E-002    4.707552340069744E-035
 -3.150000000000000E-002    1.164946430104963E-035
 -3.140000000000000E-002   -4.864960695589776E-035
 -3.130000000000000E-002   -1.248624502976084E-034
 -3.120000000000000E-002   -1.901844146757629E-034
 -3.110000000000000E-002   -1.944723264857169E-034
 -3.100000000000000E-002   -6.443671268811827E-035
 -3.090000000000000E-002    2.844375624041058E-034
 -3.080000000000000E-002    9.172130681716708E-034
 -3.070000000000000E-002    1.824090017399570E-033
 -3.060000000000000E-002    2.838896947629480E-033
 -3.050000000000000E-002    3.539740370293527E-033
 -3.040000000000000E-002    3.155522093332438E-033
 -3.030000000000000E-002    5.225933199991403E-034
 -3.020000000000000E-002   -5.841813704028099E-033
 -3.010000000000000E-002   -1.746537739022836E-032
 -3.000000000000000E-002   -3.536006912167596E-032
 -2.990000000000000E-002   -5.911754689331090E-032
 -2.980000000000000E-002   -8.567576771854445E-032
 -2.970000000000000E-002   -1.079006486136253E-031
 -2.960000000000000E-002   -1.133125436893539E-031
 -2.950000000000000E-002   -8.351330609408860E-032
 -2.940000000000000E-002    4.908188093229746E-033
 -2.930000000000000E-002    1.770696890042409E-031
 -2.920000000000000E-002    4.532056122551008E-031
 -2.910000000000000E-002    8.382564564493399E-031
 -2.900000000000000E-002    1.307866842074294E-030
 -2.890000000000000E-002    1.792275576644377E-030
 -2.880000000000000E-002    2.161283645306575E-030
 -2.870000000000000E-002    2.215446187125708E-030
 -2.860000000000000E-002    1.690447513251321E-030
 -2.850000000000000E-002    2.826712548756456E-031
 -2.840000000000000E-002   -2.296519387209068E-030
 -2.830000000000000E-002   -6.233171830402085E-030
 -2.820000000000000E-002   -1.149116750983064E-029
 -2.810000000000000E-002   -1.767137978684508E-029
 -2.800000000000000E-002   -2.387243180131140E-029
 -2.790000000000000E-002   -2.858939870619771E-029
 -2.780000000000000E-002   -2.969874076703777E-029
 -2.770000000000000E-002   -2.458432405170213E-029
 -2.760000000000000E-002   -1.045576713234148E-029
 -2.750000000000000E-002    1.510776473701142E-029
 -2.740000000000000E-002    5.339116245499051E-029
 -2.730000000000000E-002    1.036111988804495E-028
 -2.720000000000000E-002    1.619432754548552E-028
 -2.710000000000000E-002    2.207041341830510E-028
 -2.700000000000000E-002    2.679486405456828E-028
 -2.690000000000000E-002    2.877700670554243E-028
 -2.680000000000000E-002    2.615722343028499E-028
 -2.670000000000000E-002    1.704921331573272E-028
 -2.660000000000000E-002   -1.016384292395247E-030
 -2.650000000000000E-002   -2.606676737957360E-028
 -2.640000000000000E-002   -6.034136424786156E-028
 -2.630000000000000E-002   -1.006897644696277E-027
 -2.620000000000000E-002   -1.428311440714131E-027
 -2.610000000000000E-002   -1.803750867804751E-027
 -2.600000000000000E-002   -2.051040296444828E-027
 -2.590000000000000E-002   -2.076619963049185E-027
 -2.580000000000000E-002   -1.786484795018397E-027
 -2.570000000000000E-002   -1.100388149933478E-027
 -2.560000000000000E-002    3.227709132265286E-029
 -2.550000000000000E-002    1.617137373439895E-027
 -2.540000000000000E-002    3.602520534908527E-027
 -2.530000000000000E-002    5.872340078604307E-027
 -2.520000000000000E-002    8.245459259308047E-027
 -2.510000000000000E-002    1.048135700837907E-026
 -2.500000000000000E-002    1.229025343529613E-026
 -2.490000000000000E-002    1.334447092980365E-026
 -2.480000000000000E-002    1.328736177478050E-026
 -2.470000000000000E-002    1.173725537304936E-026
 -2.460000000000000E-002    8.287054504495942E-027
 -2.450000000000000E-002    2.505197293340619E-027
 -2.440000000000000E-002   -6.049893690122832E-027
 -2.430000000000000E-002   -1.778371312971956E-026
 -2.420000000000000E-002   -3.296635579827561E-026
 -2.410000000000000E-002   -5.156047316444393E-026
 -2.400000000000000E-002   -7.296734216414317E-026
 -2.390000000000000E-002   -9.570219704913873E-026
 -2.380000000000000E-002   -1.170402251043566E-025
 -2.370000000000000E-002   -1.327117063076044E-025
 -2.360000000000000E-002   -1.367624264003528E-025
 -2.350000000000000E-002   -1.217233786590601E-025
 -2.340000000000000E-002   -7.924000184741774E-026
 -2.330000000000000E-002   -1.282625489917628E-027
 -2.320000000000000E-002    1.180138426978630E-025
 -2.310000000000000E-002    2.799551129692794E-025
 -2.300000000000000E-002    4.785768192625771E-025
 -2.290000000000000E-002    6.980448604212672E-025
 -2.280000000000000E-002    9.107727449443668E-025
 -2.270000000000000E-002    1.076984802144255E-024
 -2.260000000000000E-002    1.146473199202671E-024
 -2.250000000000000E-002    1.063160319131313E-024
 -2.240000000000000E-002    7.727595573131259E-025
 -2.230000000000000E-002    2.333177377598687E-025
 -2.220000000000000E-002   -5.722372571164114E-025
 -2.210000000000000E-002   -1.623148051099204E-024
 -2.200000000000000E-002   -2.849750993063470E-024
 -2.190000000000000E-002   -4.126994661151678E-024
 -2.180000000000000E-002   -5.275340519416166E-024
 -2.170000000000000E-002   -6.071366883285791E-024
 -2.160000000000000E-002   -6.269345406037686E-024
 -2.150000000000000E-002   -5.633419661989653E-024
 -2.140000000000000E-002   -3.977975849527818E-024
 -2.130000000000000E-002   -1.211628483229160E-024
 -2.120000000000000E-002    2.621647223221171E-024
 -2.110000000000000E-002    7.311864006005053E-024
 -2.100000000000000E-002    1.247048865177824E-023
 -2.090000000000000E-002    1.754223781716101E-023
 -2.080000000000000E-002    2.184447343468811E-023
 -2.070000000000000E-002    2.463330343201636E-023
 -2.060000000000000E-002    2.519063383414921E-023
 -2.050000000000000E-002    2.292179032047218E-023
 -2.040000000000000E-002    1.744989507359851E-023
 -2.030000000000000E-002    8.692027377748470E-024
 -2.020000000000000E-002   -3.096049719505879E-024
 -2.010000000000000E-002   -1.731494814165546E-023
 -2.000000000000000E-002   -3.305734757354579E-023
 -1.990000000000000E-002   -4.917649589907402E-023
 -1.980000000000000E-002   -6.437158192195612E-023
 -1.970000000000000E-002   -7.726919860808464E-023
 -1.960000000000000E-002   -8.648028784260945E-023
 -1.950000000000000E-002   -9.061904587462524E-023
 -1.940000000000000E-002   -8.828398854714513E-023
 -1.930000000000000E-002   -7.801998565251762E-023
 -1.920000000000000E-002   -5.830001292128692E-023
 -1.910000000000000E-002   -2.758087955450674E-023
 -1.900000000000000E-002    1.550780731724626E-023
 -1.890000000000000E-002    7.179354570587902E-023
 -1.880000000000000E-002    1.409932640053962E-022
 -1.870000000000000E-002    2.209827868464078E-022
 -1.860000000000000E-002    3.070038556940283E-022
 -1.850000000000000E-002    3.909781770690990E-022
 -1.840000000000000E-002    4.611551427479181E-022
 -1.830000000000000E-002    5.023452612441563E-022
 -1.820000000000000E-002    4.969684509172780E-022
 -1.810000000000000E-002    4.270611027966517E-022
 -1.800000000000000E-002    2.772357653767735E-022
 -1.790000000000000E-002    3.838226859592697E-023
 -1.780000000000000E-002   -2.883332929873812E-022
 -1.770000000000000E-002   -6.878362637101313E-022
 -1.760000000000000E-002   -1.128698456664690E-021
 -1.750000000000000E-002   -1.562739759246812E-021
 -1.740000000000000E-002   -1.927413500860749E-021
 -1.730000000000000E-002   -2.151403124030372E-021
 -1.720000000000000E-002   -2.163374478067349E-021
 -1.710000000000000E-002   -1.903213734542658E-021
 -1.700000000000000E-002   -1.334428780679827E-021
 -1.690000000000000E-002   -4.558217415366680E-022
 -1.680000000000000E-002    6.898111474423402E-022
 -1.670000000000000E-002    2.012204167729784E-021
 -1.660000000000000E-002    3.377188540978715E-021
 -1.650000000000000E-002    4.618235648692647E-021
 -1.640000000000000E-002    5.555626528312497E-021
 -1.630000000000000E-002    6.021395199383117E-021
 -1.620000000000000E-002    5.886707692362966E-021
 -1.610000000000000E-002    5.087191737485922E-021
 -1.600000000000000E-002    3.641215086256167E-021
 -1.590000000000000E-002    1.656502712213727E-021
 -1.580000000000000E-002   -6.781247209013117E-022
 -1.570000000000000E-002   -3.116745448006109E-021
 -1.560000000000000E-002   -5.393885546232258E-021
 -1.550000000000000E-002   -7.270215047841005E-021
 -1.540000000000000E-002   -8.578187654697172E-021
 -1.530000000000000E-002   -9.257783831069625E-021
 -1.520000000000000E-002   -9.372600286676231E-021
 -1.510000000000000E-002   -9.098784336540518E-021
 -1.500000000000000E-002   -8.683679492456054E-021
 -1.490000000000000E-002   -8.377175519275171E-021
 -1.480000000000000E-002   -8.345652350108898E-021
 -1.470000000000000E-002   -8.584855753262776E-021
 -1.460000000000000E-002   -8.852470365448115E-021
 -1.450000000000000E-002   -8.642205663389585E-021
 -1.440000000000000E-002   -7.217753458266282E-021
 -1.430000000000000E-002   -3.716731261878619E-021
 -1.420000000000000E-002    2.677798357844660E-021
 -1.410000000000000E-002    1.251580723655747E-020
 -1.400000000000000E-002    2.584166533834243E-020
 -1.390000000000000E-002    4.198361515034311E-020
 -1.380000000000000E-002    5.942268854747731E-020
 -1.370000000000000E-002    7.578961277264649E-020
 -1.360000000000000E-002    8.802510476571381E-020
 -1.350000000000000E-002    9.271569908233307E-020
 -1.340000000000000E-002    8.658629927723342E-020
 -1.330000000000000E-002    6.709654659751824E-020
 -1.320000000000000E-002    3.305661850963139E-020
 -1.310000000000000E-002   -1.484373000783896E-020
 -1.300000000000000E-002   -7.370515048693183E-020
 -1.290000000000000E-002   -1.383861673897965E-019
 -1.280000000000000E-002   -2.018312369945274E-019
 -1.270000000000000E-002   -2.557686672265836E-019
 -1.260000000000000E-002   -2.917225612990390E-019
 -1.250000000000000E-002   -3.022160832313838E-019
 -1.240000000000000E-002   -2.819891737508653E-019
 -1.230000000000000E-002   -2.290228839406971E-019
 -1.220000000000000E-002   -1.451676813342675E-019
 -1.210000000000000E-002   -3.621635529208972E-020
 -1.200000000000000E-002    8.865486322807182E-020
 -1.190000000000000E-002    2.180438205777886E-019
 -1.180000000000000E-002    3.399243416787542E-019
 -1.170000000000000E-002    4.434294290015643E-019
 -1.160000000000000E-002    5.204794536560380E-019
 -1.150000000000000E-002    5.669041754174835E-019
 -1.140000000000000E-002    5.827621605551374E-019
 -1.130000000000000E-002    5.716893405049248E-019
 -1.120000000000000E-002    5.392946327130003E-019
 -1.110000000000000E-002    4.908382050601339E-019
 -1.100000000000000E-002    4.286377063831124E-019
 -1.090000000000000E-002    3.498029767155400E-019
 -1.080000000000000E-002    2.449585165329345E-019
 -1.070000000000000E-002    9.854373264094778E-020
 -1.060000000000000E-002   -1.089292766794173E-019
 -1.050000000000000E-002   -3.966169328549255E-019
 -1.040000000000000E-002   -7.774603692572349E-019
 -1.030000000000000E-002   -1.251489905618379E-018
 -1.020000000000000E-002   -1.799502303961000E-018
 -1.010000000000000E-002   -2.378513934948092E-018
 -1.000000000000000E-002   -2.920388046169332E-018
 -9.899999999999999E-003   -3.334762213247736E-018
 -9.800000000000000E-003   -3.516862242959494E-018
 -9.699999999999999E-003   -3.360037281091528E-018
 -9.599999999999999E-003   -2.771976466734550E-018
 -9.500000000000000E-003   -1.692724618777312E-018
 -9.399999999999999E-003   -1.119429090593117E-019
 -9.299999999999999E-003    1.917481162595792E-018
 -9.200000000000000E-003    4.272271919500214E-018
 -9.099999999999999E-003    6.760268610044147E-018
 -8.999999999999999E-003    9.131773560952966E-018
 -8.900000000000000E-003    1.110055888893868E-017
 -8.799999999999999E-003    1.237283572273016E-017
 -8.699999999999999E-003    1.268108538743722E-017
 -8.600000000000000E-003    1.181862405080736E-017
 -8.499999999999999E-003    9.670281601313792E-018
 -8.399999999999999E-003    6.234848812168209E-018
 -8.300000000000000E-003    1.635905723201707E-018
 -8.199999999999999E-003   -3.880741296239658E-018
 -8.100000000000000E-003   -9.962845748964618E-018
 -8.000000000000000E-003   -1.617851869724607E-017
 -7.899999999999999E-003   -2.205020132295565E-017
 -7.800000000000000E-003   -2.709095091769313E-017
 -7.699999999999999E-003   -3.083817491218437E-017
 -7.599999999999999E-003   -3.288083897421587E-017
 -7.499999999999999E-003   -3.287807687921979E-017
 -7.399999999999999E-003   -3.056945405905946E-017
 -7.299999999999999E-003   -2.577962729450200E-017
 -7.199999999999999E-003   -1.842207348309947E-017
 -7.100000000000000E-003   -8.507455843517121E-018
 -6.999999999999999E-003    3.838365027531216E-018
 -6.899999999999999E-003    1.834385214086826E-017
 -6.800000000000000E-003    3.454964879944484E-017
 -6.699999999999999E-003    5.176012618999120E-017
 -6.599999999999999E-003    6.899868383619906E-017
 -6.499999999999999E-003    8.498067709425615E-017
 -6.399999999999999E-003    9.811979306733002E-017
 -6.299999999999999E-003    1.065828745751225E-016
 -6.199999999999999E-003    1.084041896279138E-016
 -6.100000000000000E-003    1.016629010835766E-016
 -5.999999999999999E-003    8.471770840575747E-017
 -5.899999999999999E-003    5.648134687997984E-017
 -5.800000000000000E-003    1.670680664847319E-017
 -5.699999999999999E-003   -3.375174073643808E-017
 -5.599999999999999E-003   -9.274523389072349E-017
 -5.499999999999999E-003   -1.567445624250942E-016
 -5.399999999999999E-003   -2.208987366014728E-016
 -5.299999999999999E-003   -2.792584072581014E-016
 -5.199999999999999E-003   -3.251691078282375E-016
 -5.099999999999999E-003   -3.518178017630964E-016
 -4.999999999999999E-003   -3.528951339222016E-016
 -4.899999999999999E-003   -3.233169902107816E-016
 -4.799999999999999E-003   -2.599348709649292E-016
 -4.699999999999999E-003   -1.621588709193658E-016
 -4.599999999999999E-003   -3.241819881551572E-017
 -4.499999999999999E-003    1.236038826394571E-016
 -4.399999999999999E-003    2.970066218687774E-016
 -4.299999999999999E-003    4.760011129809473E-016
 -4.199999999999999E-003    6.465278117185125E-016
 -4.099999999999999E-003    7.931316255036012E-016
 -3.999999999999999E-003    9.000417359817309E-016
 -3.899999999999999E-003    9.523857288158907E-016
 -3.799999999999999E-003    9.374585143066038E-016
 -3.699999999999999E-003    8.459604830100408E-016
 -3.599999999999999E-003    6.731238313991420E-016
 -3.499999999999999E-003    4.196491864905120E-016
 -3.399999999999999E-003    9.238288705662522E-017
 -3.299999999999999E-003   -2.953262417813700E-016
 -3.199999999999999E-003   -7.236462666081179E-016
 -3.099999999999999E-003   -1.166703288424360E-015
 -2.999999999999999E-003   -1.593483179531354E-015
 -2.899999999999999E-003   -1.969218052417373E-015
 -2.799999999999999E-003   -2.257261575634698E-015
 -2.699999999999999E-003   -2.421427540145666E-015
 -2.599999999999999E-003   -2.428727259651099E-015
 -2.499999999999999E-003   -2.252389206680825E-015
 -2.399999999999999E-003   -1.874992213448255E-015
 -2.299999999999999E-003   -1.291483478178720E-015
 -2.199999999999999E-003   -5.118065348408709E-016
 -2.099999999999999E-003    4.371691697381987E-016
 -1.999999999999999E-003    1.510732058140114E-015
 -1.899999999999999E-003    2.646714382082781E-015
 -1.799999999999999E-003    3.767406728462188E-015
 -1.699999999999999E-003    4.783125844568118E-015
 -1.599999999999999E-003    5.597427421803938E-015
 -1.499999999999999E-003    6.113797228579569E-015
 -1.399999999999999E-003    6.243485645829615E-015
 -1.299999999999999E-003    5.913993686225801E-015
 -1.199999999999999E-003    5.077572912702991E-015
 -1.099999999999999E-003    3.719012166233798E-015
 -9.999999999999989E-004    1.861937862995237E-015
 -8.999999999999990E-004   -4.271214303718440E-016
 -7.999999999999990E-004   -3.037565148027079E-015
 -6.999999999999989E-004   -5.816945643439216E-015
 -5.999999999999990E-004   -8.576870742215003E-015
 -4.999999999999989E-004   -1.110260545584830E-014
 -3.999999999999989E-004   -1.316609549717273E-014
 -2.999999999999989E-004   -1.454184112600157E-014
 -1.999999999999989E-004   -1.502473834010864E-014
 -9.999999999999892E-005   -1.444878342748229E-014
  1.084202172485504E-018   -1.270528348693991E-014
  1.000000000000011E-004   -9.759123514699607E-015
  2.000000000000011E-004   -5.661580124225088E-015
  3.000000000000011E-004   -5.582525218793490E-016
  4.000000000000011E-004    5.309155327083962E-015
  5.000000000000011E-004    1.160815391306661E-014
  6.000000000000011E-004    1.792842887929877E-014
  7.000000000000011E-004    2.380247609560536E-014
  8.000000000000011E-004    2.873333648203570E-014
  9.000000000000012E-004    3.222823967513171E-014
  1.000000000000001E-003    3.383633399175927E-014
  1.100000000000001E-003    3.318810419088453E-014
  1.200000000000001E-003    3.003363051661008E-014
  1.300000000000001E-003    2.427657835274619E-014
  1.400000000000001E-003    1.600075210389265E-014
  1.500000000000001E-003    5.486257767377099E-015
  1.600000000000001E-003   -6.787241419875335E-015
  1.700000000000001E-003   -2.015187650020775E-014
  1.800000000000001E-003   -3.377835251864887E-014
  1.900000000000001E-003   -4.671779878318104E-014
  2.000000000000001E-003   -5.795717022685412E-014
  2.100000000000001E-003   -6.648548210276276E-014
  2.200000000000001E-003   -7.136705716554711E-014
  2.300000000000001E-003   -7.181720529602159E-014
  2.400000000000001E-003   -6.727506169131975E-014
  2.500000000000001E-003   -5.746816281006932E-014
  2.600000000000001E-003   -4.246339051450104E-014
  2.700000000000001E-003   -2.269950647644408E-014
  2.800000000000001E-003    1.002736772504525E-015
  2.900000000000001E-003    2.745576250853202E-014
  3.000000000000001E-003    5.514701381517128E-014
  3.100000000000001E-003    8.230741389850612E-014
  3.200000000000001E-003    1.070045607662778E-013
  3.300000000000001E-003    1.272571483065613E-013
  3.400000000000001E-003    1.411653049345424E-013
  3.500000000000001E-003    1.470499688067672E-013
  3.600000000000001E-003    1.435930484607001E-013
  3.700000000000001E-003    1.299689682397755E-013
  3.800000000000001E-003    1.059576377212006E-013
  3.900000000000001E-003    7.202858733394413E-014
  4.000000000000001E-003    2.938694177018139E-014
  4.100000000000001E-003   -2.002694029072993E-014
  4.200000000000001E-003   -7.359000664668099E-014
  4.300000000000001E-003   -1.281039530668420E-013
  4.400000000000001E-003   -1.799564067221338E-013
  4.500000000000001E-003   -2.253305194904118E-013
  4.600000000000002E-003   -2.604528230388972E-013
  4.700000000000001E-003   -2.818650312595307E-013
  4.800000000000001E-003   -2.867017239317434E-013
  4.900000000000002E-003   -2.729530801481422E-013
  5.000000000000001E-003   -2.396909817730088E-013
  5.100000000000001E-003   -1.872372703622583E-013
  5.200000000000001E-003   -1.172559759393130E-013
  5.300000000000002E-003   -3.275543853687057E-014
  5.400000000000001E-003    6.200679497818470E-014
  5.500000000000001E-003    1.617168111446726E-013
  5.600000000000002E-003    2.602868169235922E-013
  5.700000000000001E-003    3.512119256572111E-013
  5.800000000000001E-003    4.279791178218567E-013
  5.900000000000002E-003    4.845008906076748E-013
  6.000000000000001E-003    5.155438898379711E-013
  6.100000000000001E-003    5.171217878175135E-013
  6.200000000000002E-003    4.868243126511356E-013
  6.300000000000002E-003    4.240584162812563E-013
  6.400000000000001E-003    3.301842310592403E-013
  6.500000000000001E-003    2.085348384798434E-013
  6.600000000000002E-003    6.431816229911239E-014
  6.700000000000001E-003   -9.559494006163853E-014
  6.800000000000001E-003   -2.629842015510777E-013
  6.900000000000002E-003   -4.286786735877165E-013
  7.000000000000001E-003   -5.830199057165279E-013
  7.100000000000001E-003   -7.163661781183242E-013
  7.200000000000002E-003   -8.196144515053903E-013
  7.300000000000002E-003   -8.847150794194730E-013
  7.400000000000001E-003   -9.051560761274697E-013
  7.500000000000001E-003   -8.763943835860683E-013
  7.600000000000002E-003   -7.962122770235023E-013
  7.700000000000001E-003   -6.649804101939961E-013
  7.800000000000001E-003   -4.858086040534098E-013
  7.900000000000001E-003   -2.645709984553735E-013
  8.000000000000002E-003   -9.794897016512951E-015
  8.100000000000001E-003    2.675915767762394E-013
  8.200000000000001E-003    5.546511709012564E-013
  8.300000000000002E-003    8.369582566856753E-013
  8.400000000000001E-003    1.099231000582331E-012
  8.500000000000002E-003    1.326047275525540E-012
  8.600000000000002E-003    1.502611472805127E-012
  8.700000000000001E-003    1.615533333139029E-012
  8.800000000000002E-003    1.653576136855337E-012
  8.900000000000002E-003    1.608337331502687E-012
  9.000000000000001E-003    1.474824415865826E-012
  9.100000000000002E-003    1.251899351186161E-012
  9.200000000000002E-003    9.425743475322456E-013
  9.300000000000001E-003    5.541508032080177E-013
  9.400000000000002E-003    9.820271430718277E-014
  9.500000000000001E-003   -4.095866745691596E-013
  9.600000000000001E-003   -9.497255055305381E-013
  9.700000000000002E-003   -1.499341579386697E-012
  9.800000000000001E-003   -2.032734842164898E-012
  9.900000000000001E-003   -2.522058844421949E-012
  1.000000000000000E-002   -2.938146436244082E-012
  1.010000000000000E-002   -3.251498036096371E-012
  1.020000000000000E-002   -3.433457943485600E-012
  1.030000000000000E-002   -3.457596480620290E-012
  1.040000000000000E-002   -3.301299655834523E-012
  1.050000000000000E-002   -2.947548814025089E-012
  1.060000000000000E-002   -2.386832884523793E-012
  1.070000000000000E-002   -1.619101343989632E-012
  1.080000000000000E-002   -6.556198874182883E-013
  1.090000000000000E-002    4.794471847748241E-013
  1.100000000000000E-002    1.747931580424955E-012
  1.110000000000000E-002    3.097256698726443E-012
  1.120000000000000E-002    4.460945013693792E-012
  1.130000000000000E-002    5.760220718673449E-012
  1.140000000000000E-002    6.906836093482805E-012
  1.150000000000000E-002    7.807159497853911E-012
  1.160000000000000E-002    8.367470921108786E-012
  1.170000000000000E-002    8.500283165383608E-012
  1.180000000000000E-002    8.131392774584071E-012
  1.190000000000000E-002    7.207242648432919E-012
  1.200000000000000E-002    5.702090244692239E-012
  1.210000000000000E-002    3.624388025805931E-012
  1.220000000000000E-002    1.021770914988613E-012
  1.230000000000000E-002   -2.015953853621638E-012
  1.240000000000000E-002   -5.356350764429687E-012
  1.250000000000000E-002   -8.826858238718026E-012
  1.260000000000000E-002   -1.222051107479441E-011
  1.270000000000000E-002   -1.530494217441343E-011
  1.280000000000000E-002   -1.783450307254376E-011
  1.290000000000000E-002   -1.956508415528680E-011
  1.300000000000000E-002   -2.027096146296354E-011
  1.310000000000000E-002   -1.976278867361667E-011
  1.320000000000000E-002   -1.790562491117504E-011
  1.330000000000000E-002   -1.463575587724333E-011
  1.340000000000000E-002   -9.974969226409757E-012
  1.350000000000000E-002   -4.040957404212042E-012
  1.360000000000000E-002    2.947407298612039E-012
  1.370000000000000E-002    1.067099728335426E-011
  1.380000000000000E-002    1.871832239309882E-011
  1.390000000000000E-002    2.660081948293724E-011
  1.400000000000000E-002    3.377546794418709E-011
  1.410000000000000E-002    3.967419059186801E-011
  1.420000000000000E-002    4.373890897972618E-011
  1.430000000000000E-002    4.546058526131976E-011
  1.440000000000000E-002    4.442010084362387E-011
  1.450000000000000E-002    4.032835345325635E-011
  1.460000000000000E-002    3.306269872410339E-011
  1.470000000000000E-002    2.269670903446572E-011
  1.480000000000000E-002    9.520320638219551E-012
  1.490000000000000E-002   -5.952278826160571E-012
  1.500000000000000E-002   -2.298912435117353E-011
  1.510000000000000E-002   -4.066265163429444E-011
  1.520000000000000E-002   -5.788798757448031E-011
  1.530000000000000E-002   -7.347662581148323E-011
  1.540000000000000E-002   -8.620362831272131E-011
  1.550000000000000E-002   -9.488527500866186E-011
  1.560000000000000E-002   -9.846296442995259E-011
  1.570000000000000E-002   -9.608834504680792E-011
  1.580000000000000E-002   -8.720388092248341E-011
  1.590000000000000E-002   -7.161283258104382E-011
  1.600000000000000E-002   -4.953277449503688E-011
  1.610000000000000E-002   -2.162714862590780E-011
  1.620000000000000E-002    1.098945513972844E-011
  1.630000000000000E-002    4.677541382385002E-011
  1.640000000000000E-002    8.381681822529522E-011
  1.650000000000000E-002    1.199122222931157E-010
  1.660000000000000E-002    1.526845639566148E-010
  1.670000000000000E-002    1.797153728970706E-010
  1.680000000000000E-002    1.986944581691736E-010
  1.690000000000000E-002    2.075765769332854E-010
  1.700000000000000E-002    2.047355121085436E-010
  1.710000000000000E-002    1.891051895372857E-010
  1.720000000000000E-002    1.602977966364967E-010
  1.730000000000000E-002    1.186892899246995E-010
  1.740000000000000E-002    6.546438039494350E-011
  1.750000000000000E-002    2.614846355960436E-012
  1.760000000000000E-002   -6.711198869138454E-011
  1.770000000000000E-002   -1.403150582315458E-010
  1.780000000000000E-002   -2.130887717951270E-010
  1.790000000000000E-002   -2.812134202773380E-010
  1.800000000000000E-002   -3.403776583448374E-010
  1.810000000000000E-002   -3.864212882110406E-010
  1.820000000000000E-002   -4.155844585683034E-010
  1.830000000000000E-002   -4.247483863505259E-010
  1.840000000000000E-002   -4.116525518253918E-010
  1.850000000000000E-002   -3.750735339687745E-010
  1.860000000000000E-002   -3.149533487821331E-010
  1.870000000000000E-002   -2.324668751175794E-010