 -4.000000000000000E-002    0.000000000000000E+000
 -3.990000000000000E-002    0.000000000000000E+000
 -3.980000000000000E-002    0.000000000000000E+000
 -3.970000000000000E-002    0.000000000000000E+000
 -3.960000000000000E-002    0.000000000000000E+000
 -3.950000000000000E-002    0.000000000000000E+000
 -3.940000000000000E-002    0.000000000000000E+000
 -3.930000000000000E-002    0.000000000000000E+000
 -3.920000000000000E-002    0.000000000000000E+000
 -3.910000000000000E-002    0.000000000000000E+000
 -3.900000000000000E-002    0.000000000000000E+000
 -3.890000000000000E-002    0.000000000000000E+000
 -3.880000000000000E-002    0.000000000000000E+000
 -3.870000000000000E-002    5.919785376550345E-041
 -3.860000000000000E-002    1.400137459378455E-039
 -3.850000000000000E-002    1.681794928234872E-038
 -3.840000000000000E-002    1.364805017556090E-037
 -3.830000000000000E-002    8.393291143875021E-037
 -3.820000000000000E-002    4.156127401991165E-036
 -3.810000000000000E-002    1.716887319470719E-035
 -3.800000000000000E-002    6.038879054141115E-035
 -3.790000000000000E-002    1.823950116287915E-034
 -3.780000000000000E-002    4.704595543544512E-034
 -3.770000000000000E-002    1.004064526649645E-033
 -3.760000000000000E-002    1.583551208408722E-033
 -3.750000000000000E-002    8.170461838925720E-034
 -3.740000000000000E-002   -6.299247741180439E-033
 -3.730000000000000E-002   -3.381848409223701E-032
 -3.720000000000000E-002   -1.154415948914894E-031
 -3.710000000000000E-002   -3.223762320479904E-031
 -3.700000000000000E-002   -7.884354679478122E-031
 -3.690000000000000E-002   -1.735815893577448E-030
 -3.680000000000000E-002   -3.480961067193991E-030
 -3.670000000000000E-002   -6.375619479702715E-030
 -3.660000000000000E-002   -1.060364481780702E-029
 -3.650000000000000E-002   -1.571613010154319E-029
 -3.640000000000000E-002   -1.976537328496241E-029
 -3.630000000000000E-002   -1.792880942443213E-029
 -3.620000000000000E-002   -6.534624360512203E-031
 -3.610000000000000E-002    4.833209005170506E-029
 -3.600000000000000E-002    1.532399202013714E-028
 -3.590000000000000E-002    3.449893616088482E-028
 -3.580000000000000E-002    6.549059669699983E-028
 -3.570000000000000E-002    1.099985293775895E-027
 -3.560000000000000E-002    1.656306779693630E-027
 -3.550000000000000E-002    2.218631384839744E-027
 -3.540000000000000E-002    2.548087057047997E-027
 -3.530000000000000E-002    2.216920270586639E-027
 -3.520000000000000E-002    5.697571950742358E-028
 -3.510000000000000E-002   -3.266388434280193E-027
 -3.500000000000000E-002   -1.027895489260046E-026
 -3.490000000000000E-002   -2.132288142809736E-026
 -3.480000000000000E-002   -3.668658338847364E-026
 -3.470000000000000E-002   -5.545722190828025E-026
 -3.460000000000000E-002   -7.473133788072905E-026
 -3.450000000000000E-002   -8.880921801450366E-026
 -3.440000000000000E-002   -8.862929904556831E-026
 -3.430000000000000E-002   -6.182066104815537E-026
 -3.420000000000000E-002    6.161943538539288E-027
 -3.410000000000000E-002    1.293608069290690E-025
 -3.400000000000000E-002    3.167966513435221E-025
 -3.390000000000000E-002    5.661827972574801E-025
 -3.380000000000000E-002    8.565572228962562E-025
 -3.370000000000000E-002    1.141328903480573E-024
 -3.360000000000000E-002    1.344116683309620E-024
 -3.350000000000000E-002    1.360474959220870E-024
 -3.340000000000000E-002    1.068807581974322E-024
 -3.330000000000000E-002    3.530785108091060E-025
 -3.320000000000000E-002   -8.620267425197405E-025
 -3.310000000000000E-002   -2.566237079051608E-024
 -3.300000000000000E-002   -4.616566462820489E-024
 -3.290000000000000E-002   -6.700678125920497E-024
 -3.280000000000000E-002   -8.328209579712219E-024
 -3.270000000000000E-002   -8.869789874263127E-024
 -3.260000000000000E-002   -7.661132509399448E-024
 -3.250000000000000E-002   -4.180596088088467E-024
 -3.240000000000000E-002    1.708369583809039E-024
 -3.230000000000000E-002    9.483060544286707E-024
 -3.220000000000000E-002    1.771825526735132E-023
 -3.210000000000000E-002    2.396522905833900E-023
 -3.200000000000000E-002    2.486361243887140E-023
 -3.190000000000000E-002    1.659581849269402E-023
 -3.180000000000000E-002   -4.238326949441064E-024
 -3.170000000000000E-002   -3.932085477632629E-023
 -3.160000000000000E-002   -8.699614342477335E-023
 -3.150000000000000E-002   -1.405871230081835E-022
 -3.140000000000000E-002   -1.870617006598634E-022
 -3.130000000000000E-002   -2.066022280398846E-022
 -3.120000000000000E-002   -1.737010674021666E-022
 -3.110000000000000E-002   -6.035554622118905E-023
 -3.100000000000000E-002    1.582807065135116E-022
 -3.090000000000000E-002    4.958437751262135E-022
 -3.080000000000000E-002    9.449551896144193E-022
 -3.070000000000000E-002    1.467054194723886E-021
 -3.060000000000000E-002    1.984007288707647E-021
 -3.050000000000000E-002    2.374258293908849E-021
 -3.040000000000000E-002    2.476557034078280E-021
 -3.030000000000000E-002    2.104040408625551E-021
 -3.020000000000000E-002    1.070454747661856E-021
 -3.010000000000000E-002   -7.714705325829624E-022
 -3.000000000000000E-002   -3.481989377266560E-021
 -2.990000000000000E-002   -6.982139854950676E-021
 -2.980000000000000E-002   -1.100588321098231E-020
 -2.970000000000000E-002   -1.506759181235908E-020
 -2.960000000000000E-002   -1.845705246643513E-020
 -2.950000000000000E-002   -2.027343934347196E-020
 -2.940000000000000E-002   -1.950648477590473E-020
 -2.930000000000000E-002   -1.516723028258063E-020
 -2.920000000000000E-002   -6.462588280835629E-021
 -2.910000000000000E-002    7.001729504261077E-021
 -2.900000000000000E-002    2.501512795260147E-020
 -2.890000000000000E-002    4.658605374828068E-020
 -2.880000000000000E-002    6.983355677310457E-020
 -2.870000000000000E-002    9.198305063879227E-020
 -2.860000000000000E-002    1.094951727699614E-019
 -2.850000000000000E-002    1.183424410544025E-019
 -2.840000000000000E-002    1.144285671888340E-019
 -2.830000000000000E-002    9.412219018852948E-020
 -2.820000000000000E-002    5.485433602289287E-020
 -2.810000000000000E-002   -4.289330916846274E-021
 -2.800000000000000E-002   -8.206004434151711E-020
 -2.790000000000000E-002   -1.746979676841851E-019
 -2.780000000000000E-002   -2.758075071792216E-019
 -2.770000000000000E-002   -3.764938604812028E-019
 -2.760000000000000E-002   -4.657666594553850E-019
 -2.750000000000000E-002   -5.311850803948863E-019
 -2.740000000000000E-002   -5.596935053472951E-019
 -2.730000000000000E-002   -5.385848684284936E-019
 -2.720000000000000E-002   -4.565354143068074E-019
 -2.710000000000000E-002   -3.046777953438067E-019
 -2.700000000000000E-002   -7.771306731238007E-020
 -2.690000000000000E-002    2.249032203468769E-019
 -2.680000000000000E-002    5.976500007062742E-019
 -2.670000000000000E-002    1.027470238928249E-018
 -2.660000000000000E-002    1.492171781039540E-018
 -2.650000000000000E-002    1.958847055632671E-018
 -2.640000000000000E-002    2.382622809281156E-018
 -2.630000000000000E-002    2.706230905297498E-018
 -2.620000000000000E-002    2.861050921553518E-018
 -2.610000000000000E-002    2.770362523158689E-018
 -2.600000000000000E-002    2.355488141828393E-018
 -2.590000000000000E-002    1.545273989215805E-018
 -2.580000000000000E-002    2.888994494573441E-019
 -2.570000000000000E-002   -1.428656495008920E-018
 -2.560000000000000E-002   -3.569970123597335E-018
 -2.550000000000000E-002   -6.029690774817985E-018
 -2.540000000000000E-002   -8.623295431893947E-018
 -2.530000000000000E-002   -1.108357964926763E-017
 -2.520000000000000E-002   -1.306835066981365E-017
 -2.510000000000000E-002   -1.418205303577543E-017
 -2.500000000000000E-002   -1.401263719539575E-017
 -2.490000000000000E-002   -1.218287821849576E-017
 -2.480000000000000E-002   -8.412688028694827E-018
 -2.470000000000000E-002   -2.586175981743697E-018
 -2.460000000000000E-002    5.185348937928573E-018
 -2.450000000000000E-002    1.451503668384796E-017
 -2.440000000000000E-002    2.471792193703525E-017
 -2.430000000000000E-002    3.482397217312923E-017
 -2.420000000000000E-002    4.363358262650161E-017
 -2.410000000000000E-002    4.981741177032107E-017
 -2.400000000000000E-002    5.205604711640269E-017
 -2.390000000000000E-002    4.920819958464737E-017
 -2.380000000000000E-002    4.048934061291174E-017
 -2.370000000000000E-002    2.563783750660944E-017
 -2.360000000000000E-002    5.043259538095466E-018
 -2.350000000000000E-002   -2.018728647100895E-017
 -2.340000000000000E-002   -4.824355875056319E-017
 -2.330000000000000E-002   -7.671715372146446E-017
 -2.320000000000000E-002   -1.027948635168225E-016
 -2.310000000000000E-002   -1.235249106808688E-016
 -2.300000000000000E-002   -1.361280320018969E-016
 -2.290000000000000E-002   -1.383155904168877E-016
 -2.280000000000000E-002   -1.285725052426373E-016
 -2.270000000000000E-002   -1.063645962663304E-016
 -2.260000000000000E-002   -7.223888216321481E-017
 -2.250000000000000E-002   -2.780063533493414E-017
 -2.240000000000000E-002    2.442958788442764E-017
 -2.230000000000000E-002    8.125508375158941E-017
 -2.220000000000000E-002    1.390969524513648E-016
 -2.210000000000000E-002    1.942899227369073E-016
 -2.200000000000000E-002    2.433267860296138E-016
 -2.190000000000000E-002    2.830072558241828E-016
 -2.180000000000000E-002    3.104698691554415E-016
 -2.170000000000000E-002    3.231144116608117E-016
 -2.160000000000000E-002    3.184561496020077E-016
 -2.150000000000000E-002    2.939822550617244E-016
 -2.140000000000000E-002    2.470998918099314E-016
 -2.130000000000000E-002    1.752666368598979E-016
 -2.120000000000000E-002    7.637297494048439E-017
 -2.110000000000000E-002   -5.059644518417678E-017
 -2.100000000000000E-002   -2.046585454156773E-016
 -2.090000000000000E-002   -3.817928326266571E-016
 -2.080000000000000E-002   -5.739465269335710E-016
 -2.070000000000000E-002   -7.683160754456610E-016
 -2.060000000000000E-002   -9.471582565744154E-016
 -2.050000000000000E-002   -1.088363196907836E-015
 -2.040000000000000E-002   -1.166945954452428E-015
 -2.030000000000000E-002   -1.157494783752938E-015
 -2.020000000000000E-002   -1.037453699911350E-015
 -2.010000000000000E-002   -7.909430229691597E-016
 -2.000000000000000E-002   -4.126565067523037E-016
 -1.990000000000000E-002    8.874695456567342E-017
 -1.980000000000000E-002    6.883906671189349E-016
 -1.970000000000000E-002    1.344653279558807E-015
 -1.960000000000000E-002    2.000805918370546E-015
 -1.950000000000000E-002    2.589003441782268E-015
 -1.940000000000000E-002    3.036492738615091E-015
 -1.930000000000000E-002    3.273547315534349E-015
 -1.920000000000000E-002    3.242294704445140E-015
 -1.910000000000000E-002    2.905346084327949E-015
 -1.900000000000000E-002    2.253005852878225E-015
 -1.890000000000000E-002    1.307882725434443E-015
 -1.880000000000000E-002    1.259553548998754E-016
 -1.870000000000000E-002   -1.206444040979535E-015
 -1.860000000000000E-002   -2.579731374091173E-015
 -1.850000000000000E-002   -3.871645601271804E-015
 -1.840000000000000E-002   -4.960133085375920E-015
 -1.830000000000000E-002   -5.736911538235923E-015
 -1.820000000000000E-002   -6.119868257151838E-015
 -1.810000000000000E-002   -6.062484449584439E-015
 -1.800000000000000E-002   -5.558819313008857E-015
 -1.790000000000000E-002   -4.643189297059671E-015
 -1.780000000000000E-002   -3.384488976886578E-015
 -1.770000000000000E-002   -1.875958938371007E-015
 -1.760000000000000E-002   -2.220206910789999E-016
 -1.750000000000000E-002    1.475620453931065E-015
 -1.740000000000000E-002    3.130152975934224E-015
 -1.730000000000000E-002    4.677841328708127E-015
 -1.720000000000000E-002    6.080541544555869E-015
 -1.710000000000000E-002    7.321832780063543E-015
 -1.700000000000000E-002    8.397261934547587E-015
 -1.690000000000000E-002    9.300421824933028E-015
 -1.680000000000000E-002    1.000765124359706E-014
 -1.670000000000000E-002    1.046477212508532E-014
 -1.660000000000000E-002    1.057940036308456E-014
 -1.650000000000000E-002    1.022179244117243E-014
 -1.640000000000000E-002    9.235998513000989E-015
 -1.630000000000000E-002    7.461430215721204E-015
 -1.620000000000000E-002    4.762995311335755E-015
 -1.610000000000000E-002    1.066044667996821E-015
 -1.600000000000000E-002   -3.609055711229136E-015
 -1.590000000000000E-002   -9.118817135817868E-015
 -1.580000000000000E-002   -1.518090066842572E-014
 -1.570000000000000E-002   -2.137558351915708E-014
 -1.560000000000000E-002   -2.716720898746870E-014
 -1.550000000000000E-002   -3.194565622489472E-014
 -1.540000000000000E-002   -3.508477323254377E-014
 -1.530000000000000E-002   -3.601184996646801E-014
 -1.520000000000000E-002   -3.427988321832344E-014
 -1.510000000000000E-002   -2.963313779897281E-014
 -1.500000000000000E-002   -2.205665323177326E-014
 -1.490000000000000E-002   -1.180184511601832E-014
 -1.480000000000000E-002    6.167744315751059E-016
 -1.470000000000000E-002    1.445500992498652E-014
 -1.460000000000000E-002    2.879949143385408E-014
 -1.450000000000000E-002    4.264838304081130E-014
 -1.440000000000000E-002    5.500215147222322E-014
 -1.430000000000000E-002    6.495267206317499E-014
 -1.420000000000000E-002    7.175900560956216E-014
 -1.410000000000000E-002    7.489987207808467E-014
 -1.400000000000000E-002    7.409667215228420E-014
 -1.390000000000000E-002    6.930524994257704E-014
 -1.380000000000000E-002    6.067992681343757E-014
 -1.370000000000000E-002    4.851794218862767E-014
 -1.360000000000000E-002    3.319605248635464E-014
 -1.350000000000000E-002    1.511289609896465E-014
 -1.340000000000000E-002   -5.349809371209171E-015
 -1.330000000000000E-002   -2.783682973805478E-014
 -1.320000000000000E-002   -5.199404125813322E-014
 -1.310000000000000E-002   -7.740869818265831E-014
 -1.300000000000000E-002   -1.035225592749718E-013
 -1.290000000000000E-002   -1.295316071795975E-013
 -1.280000000000000E-002   -1.542909426311288E-013
 -1.270000000000000E-002   -1.762461660223448E-013
 -1.260000000000000E-002   -1.934127973716637E-013
 -1.250000000000000E-002   -2.034217069345243E-013
 -1.240000000000000E-002   -2.036427268783454E-013
 -1.230000000000000E-002   -1.913899062382763E-013
 -1.220000000000000E-002   -1.642015580154083E-013
 -1.210000000000000E-002   -1.201771410112321E-013
 -1.200000000000000E-002   -5.834316722437110E-014
 -1.190000000000000E-002    2.098921586676286E-014
 -1.180000000000000E-002    1.159170204071651E-013
 -1.170000000000000E-002    2.227337919582194E-013
 -1.160000000000000E-002    3.358548791602602E-013
 -1.150000000000000E-002    4.479145688508082E-013
 -1.140000000000000E-002    5.500576142211240E-013
 -1.130000000000000E-002    6.324305605494346E-013
 -1.120000000000000E-002    6.848602619203625E-013
 -1.110000000000000E-002    6.976842527786167E-013
 -1.100000000000000E-002    6.626783796389608E-013
 -1.090000000000000E-002    5.740076621079448E-013
 -1.080000000000000E-002    4.291140899542076E-013
 -1.070000000000000E-002    2.294484922315018E-013
 -1.060000000000000E-002   -1.904289366587369E-014
 -1.050000000000000E-002   -3.057542889281836E-013
 -1.040000000000000E-002   -6.156329517645622E-013
 -1.030000000000000E-002   -9.297908665619761E-013
 -1.020000000000000E-002   -1.226502115067730E-012
 -1.010000000000000E-002   -1.482533275955270E-012
 -1.000000000000000E-002   -1.674717300013788E-012
 -9.899999999999999E-003   -1.781652644748361E-012
 -9.800000000000000E-003   -1.785392691318610E-012
 -9.699999999999999E-003   -1.672985950518142E-012
 -9.599999999999999E-003   -1.437742983840089E-012
 -9.500000000000000E-003   -1.080131340498527E-012
 -9.399999999999999E-003   -6.082383500817696E-013
 -9.299999999999999E-003   -3.778951827441614E-014
 -9.200000000000000E-003    6.082560874959562E-013
 -9.099999999999999E-003    1.300465797521781E-012
 -8.999999999999999E-003    2.003978205825399E-012
 -8.900000000000000E-003    2.679746011349889E-012
 -8.799999999999999E-003    3.285923407279879E-012
 -8.699999999999999E-003    3.779368584949876E-012
 -8.600000000000000E-003    4.117274466017510E-012
 -8.499999999999999E-003    4.258986029578570E-012
 -8.399999999999999E-003    4.168071442206697E-012
 -8.300000000000000E-003    3.814723561190357E-012
 -8.199999999999999E-003    3.178521751854735E-012
 -8.100000000000000E-003    2.251513320983598E-012
 -8.000000000000000E-003    1.041467698758946E-012
 -7.899999999999999E-003   -4.249658175941042E-013
 -7.800000000000000E-003   -2.099588187578934E-012
 -7.699999999999999E-003   -3.910962009559328E-012
 -7.599999999999999E-003   -5.764233781868985E-012
 -7.499999999999999E-003   -7.542983368427691E-012
 -7.399999999999999E-003   -9.113499755764112E-012
 -7.299999999999999E-003   -1.033168108445157E-011
 -7.199999999999999E-003   -1.105248487734628E-011
 -7.100000000000000E-003   -1.114151270764651E-011
 -6.999999999999999E-003   -1.048798935846019E-011
 -6.899999999999999E-003   -9.018065882594939E-012
 -6.800000000000000E-003   -6.707165601607872E-012
 -6.699999999999999E-003   -3.589976027191578E-012
 -6.599999999999999E-003    2.332410031719756E-013
 -6.499999999999999E-003    4.595144979839824E-012
 -6.399999999999999E-003    9.265344434632209E-012
 -6.299999999999999E-003    1.396019753272727E-011
 -6.199999999999999E-003    1.835803852670360E-011
 -6.100000000000000E-003    2.211894350641590E-011
 -5.999999999999999E-003    2.490762553152036E-011
 -5.899999999999999E-003    2.641772017660131E-011
 -5.800000000000000E-003    2.639554547761707E-011
 -5.699999999999999E-003    2.466147993400707E-011
 -5.599999999999999E-003    2.112733946799365E-011
 -5.499999999999999E-003    1.580855639910234E-011
 -5.399999999999999E-003    8.830483302222994E-012
 -5.299999999999999E-003    4.286447205388421E-013
 -5.199999999999999E-003   -9.056729687571412E-012
 -5.099999999999999E-003   -1.919127712395268E-011
 -4.999999999999999E-003   -2.946137106452066E-011
 -4.899999999999999E-003   -3.929256382434773E-011
 -4.799999999999999E-003   -4.807100496146063E-011
 -4.699999999999999E-003   -5.516757765716073E-011
 -4.599999999999999E-003   -5.996473634332836E-011
 -4.499999999999999E-003   -6.188618566906073E-011
 -4.399999999999999E-003   -6.042952334101161E-011
 -4.299999999999999E-003   -5.520165661068508E-011
 -4.199999999999999E-003   -4.595622443418670E-011
 -4.099999999999999E-003   -3.263150603236933E-011
 -3.999999999999999E-003   -1.538632279148539E-011
 -3.899999999999999E-003    5.369423090775398E-012
 -3.799999999999999E-003    2.895363601441889E-011
 -3.699999999999999E-003    5.440465891063511E-011
 -3.599999999999999E-003    8.049185980618265E-011
 -3.499999999999999E-003    1.057474292298189E-010
 -3.399999999999999E-003    1.285213384483735E-010
 -3.299999999999999E-003    1.470592849613676E-010
 -3.199999999999999E-003    1.596013624815794E-010
 -3.099999999999999E-003    1.644966395139879E-010
 -2.999999999999999E-003    1.603266804574857E-010
 -2.899999999999999E-003    1.460295371255183E-010
 -2.799999999999999E-003    1.210145201346547E-010
 -2.699999999999999E-003    8.525833374887829E-011
 -2.599999999999999E-003    3.937393878925953E-011
 -2.499999999999999E-003   -1.535471709468215E-011
 -2.399999999999999E-003   -7.697644186978602E-011
 -2.299999999999999E-003   -1.429162905609751E-010
 -2.199999999999999E-003   -2.100576804373913E-010
 -2.099999999999999E-003   -2.748588754561794E-010
 -1.999999999999999E-003   -3.334980079047002E-010
 -1.899999999999999E-003   -3.820393865340998E-010
 -1.799999999999999E-003   -4.166135853161055E-010
 -1.699999999999999E-003   -4.336039575420521E-010
 -1.599999999999999E-003   -4.298334572446121E-010
 -1.499999999999999E-003   -4.027461187951649E-010
 -1.399999999999999E-003   -3.505791128628814E-010
 -1.299999999999999E-003   -2.725212431072279E-010
 -1.199999999999999E-003   -1.688538873571037E-010
 -1.099999999999999E-003   -4.106956396313871E-011
 -9.999999999999989E-004    1.080382621219047E-010
 -8.999999999999990E-004    2.743216585435205E-010
 -7.999999999999990E-004    4.522705659796936E-010
 -6.999999999999989E-004    6.350607529718800E-010
 -5.999999999999990E-004    8.146669695150161E-010
 -4.999999999999989E-004    9.820494327717698E-010
 -3.999999999999989E-004    1.127417631132308E-009
 -2.999999999999989E-004    1.240571352225746E-009
 -1.999999999999989E-004    1.311312557152244E-009
 -9.999999999999892E-005    1.329914778403905E-009
  1.084202172485504E-018    1.287631202620829E-009
  1.000000000000011E-004    1.177217117526322E-009
  2.000000000000011E-004    9.934383253210041E-010
  3.000000000000011E-004    7.335373653392381E-010
  4.000000000000011E-004    3.976290753021703E-010
  5.000000000000011E-004   -1.099717002540108E-011
  6.000000000000011E-004   -4.856861632252739E-010
  7.000000000000011E-004   -1.016347009778370E-009
  8.000000000000011E-004   -1.589506341024705E-009
  9.000000000000012E-004   -2.188481168608744E-009
  1.000000000000001E-003   -2.793660439549482E-009
  1.100000000000001E-003   -3.382883749062238E-009
  1.200000000000001E-003   -3.931903241260754E-009
  1.300000000000001E-003   -4.414918580987178E-009
  1.400000000000001E-003   -4.805179073249071E-009
  1.500000000000001E-003   -5.075650853471215E-009
  1.600000000000001E-003   -5.199754017870216E-009
  1.700000000000001E-003   -5.152177622402137E-009
  1.800000000000001E-003   -4.909781020501460E-009
  1.900000000000001E-003   -4.452590631633104E-009
  2.000000000000001E-003   -3.764893587730473E-009
  2.100000000000001E-003   -2.836422083139168E-009
  2.200000000000001E-003   -1.663610481960259E-009
  2.300000000000001E-003   -2.509003918122788E-010
  2.400000000000001E-003    1.387952253252303E-009
  2.500000000000001E-003    3.228613588352038E-009
  2.600000000000001E-003    5.235011352643487E-009
  2.700000000000001E-003    7.358333037821484E-009
  2.800000000000001E-003    9.536244696721147E-009
  2.900000000000001E-003    1.169237013696064E-008
  3.000000000000001E-003    1.373607660029915E-008
  3.100000000000001E-003    1.556259014212539E-008
  3.200000000000001E-003    1.705345062753209E-008
  3.300000000000001E-003    1.807730473105128E-008
  3.400000000000001E-003    1.849101324035435E-008
  3.500000000000001E-003    1.814106170363948E-008
  3.600000000000001E-003    1.686523540477717E-008
  3.700000000000001E-003    1.449452120976667E-008
  3.800000000000001E-003    1.085519405680272E-008
  3.900000000000001E-003    5.771069806671953E-009
  4.000000000000001E-003   -9.341654305106761E-010
  4.100000000000001E-003   -9.434540341541231E-009
  4.200000000000001E-003   -1.989939183138595E-008
  4.300000000000001E-003   -3.249101905546189E-008
  4.400000000000001E-003   -4.736248196403101E-008
  4.500000000000001E-003   -6.465561006364497E-008
  4.600000000000002E-003   -8.449936764725905E-008
  4.700000000000001E-003   -1.070085962774440E-007
  4.800000000000001E-003   -1.322833452452678E-007
  4.900000000000002E-003   -1.604087914561231E-007
  5.000000000000001E-003   -1.914558654047565E-007
  5.100000000000001E-003   -2.254826643575599E-007
  5.200000000000001E-003   -2.625366210970015E-007
  5.300000000000002E-003   -3.026574163043191E-007
  5.400000000000001E-003   -3.458805571400274E-007
  5.500000000000001E-003   -3.922415553530838E-007
  5.600000000000002E-003   -4.417805108320268E-007
  5.700000000000001E-003   -4.945470221021176E-007
  5.800000000000001E-003   -5.506049569375766E-007
  5.900000000000002E-003   -6.100373668394083E-007
  6.000000000000001E-003   -6.729507729459301E-007
  6.100000000000001E-003   -7.394789675879918E-007
  6.200000000000002E-003   -8.097864466153820E-007
  6.300000000000002E-003   -8.840707919296061E-007
  6.400000000000001E-003   -9.625641864308058E-007
  6.500000000000001E-003   -1.045534200954742E-006
  6.600000000000002E-003   -1.133284058003288E-006
  6.700000000000001E-003   -1.226151352662542E-006
  6.800000000000001E-003   -1.324506936033796E-006
  6.900000000000002E-003   -1.428752899443624E-006
  7.000000000000001E-003   -1.539320003793668E-006
  7.100000000000001E-003   -1.656665056248990E-006
  7.200000000000002E-003   -1.781268089858680E-006
  7.300000000000002E-003   -1.913629843884649E-006
  7.400000000000001E-003   -2.054269168122681E-006
  7.500000000000001E-003   -2.203720716998000E-006
  7.600000000000002E-003   -2.362533622263237E-006
  7.700000000000001E-003   -2.531270090236213E-006
  7.800000000000001E-003   -2.710505734292831E-006
  7.900000000000001E-003   -2.900829454594370E-006
  8.000000000000002E-003   -3.102845675915929E-006
  8.100000000000001E-003   -3.317175922745940E-006
  8.200000000000001E-003   -3.544462862565828E-006
  8.300000000000002E-003   -3.785373898570368E-006
  8.400000000000001E-003   -4.040606041916750E-006
  8.500000000000002E-003   -4.310890764269055E-006
  8.600000000000002E-003   -4.597000813225506E-006
  8.700000000000001E-003   -4.899755172220516E-006
  8.800000000000002E-003   -5.220024947441361E-006
  8.900000000000002E-003   -5.558738792228668E-006
  9.000000000000001E-003   -5.916887236380960E-006
  9.100000000000002E-003   -6.295528075681715E-006
  9.200000000000002E-003   -6.695787974256079E-006
  9.300000000000001E-003   -7.118865850028855E-006
  9.400000000000002E-003   -7.566033900353551E-006
  9.500000000000001E-003   -8.038637865839158E-006
  9.600000000000001E-003   -8.538096547533660E-006
  9.700000000000002E-003   -9.065902602019985E-006
  9.800000000000001E-003   -9.623618330235320E-006
  9.900000000000001E-003   -1.021287717772306E-005
  1.000000000000000E-002   -1.083538148640441E-005
  1.010000000000000E-002   -1.149290108218355E-005
  1.020000000000000E-002   -1.218727572562053E-005
  1.030000000000000E-002   -1.292041528792912E-005
  1.040000000000000E-002   -1.369430209545959E-005
  1.050000000000000E-002   -1.451099176750598E-005
  1.060000000000000E-002   -1.537262385920832E-005
  1.070000000000000E-002   -1.628142343751768E-005
  1.080000000000000E-002   -1.723970954160383E-005
  1.090000000000000E-002   -1.824990242220269E-005
  1.100000000000000E-002   -1.931453334612098E-005
  1.110000000000000E-002   -2.043625444046980E-005
  1.120000000000000E-002   -2.161784609508434E-005
  1.130000000000000E-002   -2.286222838644959E-005
  1.140000000000000E-002   -2.417247281173848E-005
  1.150000000000000E-002   -2.555180477173692E-005
  1.160000000000000E-002   -2.700361419648806E-005
  1.170000000000000E-002   -2.853146563424345E-005
  1.180000000000000E-002   -3.013909967942094E-005
  1.190000000000000E-002   -3.183044003417220E-005
  1.200000000000000E-002   -3.360959535654124E-005
  1.210000000000000E-002   -3.548086521563166E-005
  1.220000000000000E-002   -3.744874021016413E-005
  1.230000000000000E-002   -3.951790405690086E-005
  1.240000000000000E-002   -4.169323085323186E-005
  1.250000000000000E-002   -4.397979354258560E-005
  1.260000000000000E-002   -4.638286013582964E-005
  1.270000000000000E-002   -4.890789507730135E-005
  1.280000000000000E-002   -5.156056475845132E-005
  1.290000000000000E-002   -5.434674486103046E-005
  1.300000000000000E-002   -5.727252073396322E-005
  1.310000000000000E-002   -6.034419609927217E-005
  1.320000000000000E-002   -6.356830126872988E-005
  1.330000000000000E-002   -6.695160734326470E-005
  1.340000000000000E-002   -7.050113075830571E-005
  1.350000000000000E-002   -7.422415247579779E-005
  1.360000000000000E-002   -7.812822772000456E-005
  1.370000000000000E-002   -8.222120867279112E-005
  1.380000000000000E-002   -8.651124336409323E-005
  1.390000000000000E-002   -9.100680400364405E-005
  1.400000000000000E-002   -9.571669900058439E-005
  1.410000000000000E-002   -1.006500866083927E-004
  1.420000000000000E-002   -1.058164863686539E-004
  1.430000000000000E-002   -1.112257898143946E-004
  1.440000000000000E-002   -1.168882887517178E-004
  1.450000000000000E-002   -1.228146620151008E-004
  1.460000000000000E-002   -1.290159893239303E-004
  1.470000000000000E-002   -1.355037828222186E-004
  1.480000000000000E-002   -1.422899691380597E-004
  1.490000000000000E-002   -1.493869021518893E-004
  1.500000000000000E-002   -1.568073852354946E-004
  1.510000000000000E-002   -1.645646359754836E-004
  1.520000000000000E-002   -1.726723309230697E-004
  1.530000000000000E-002   -1.811446064328150E-004
  1.540000000000000E-002   -1.899960380871188E-004
  1.550000000000000E-002   -1.992416573938402E-004
  1.560000000000000E-002   -2.088969572702302E-004
  1.570000000000000E-002   -2.189779286008901E-004
  1.580000000000000E-002   -2.295010001875947E-004
  1.590000000000000E-002   -2.404831220883511E-004
  1.600000000000000E-002   -2.519417286497337E-004
  1.610000000000000E-002   -2.638948131789272E-004
  1.620000000000000E-002   -2.763608828274414E-004
  1.630000000000000E-002   -2.893589969985964E-004
  1.640000000000000E-002   -3.029088371149907E-004
  1.650000000000000E-002   -3.170306170797364E-004
  1.660000000000000E-002   -3.317452295748426E-004
  1.670000000000000E-002   -3.470741862040516E-004
  1.680000000000000E-002   -3.630396353866639E-004
  1.690000000000000E-002   -3.796644430948452E-004
  1.700000000000000E-002   -3.969721383411325E-004
  1.710000000000000E-002   -4.149869345012513E-004
  1.720000000000000E-002   -4.337337997930155E-004
  1.730000000000000E-002   -4.532383842904485E-004
  1.740000000000000E-002   -4.735270090189412E-004
  1.750000000000000E-002   -4.946268153916483E-004
  1.760000000000000E-002   -5.165655174116125E-004
  1.770000000000000E-002   -5.393716357001747E-004
  1.780000000000000E-002   -5.630743964950458E-004
  1.790000000000000E-002   -5.877037289442234E-004
  1.800000000000000E-002   -6.132902121246109E-004
  1.810000000000000E-002   -6.398652652519284E-004
  1.820000000000000E-002   -6.674609423208537E-004
  1.830000000000000E-002   -6.961100422554333E-004
  1.840000000000000E-002   -7.258461027263651E-004
  1.850000000000000E-002   -7.567034561530529E-004
  1.860000000000000E-002   -7.887171301496259E-004
  1.870000000000000E-002   -8.219229533519092E-004