 -4.000000000000000E-002    0.000000000000000E+000
 -3.990000000000000E-002    0.000000000000000E+000
 -3.980000000000000E-002    0.000000000000000E+000
 -3.970000000000000E-002    0.000000000000000E+000
 -3.960000000000000E-002    0.000000000000000E+000
 -3.950000000000000E-002    0.000000000000000E+000
 -3.940000000000000E-002    0.000000000000000E+000
 -3.930000000000000E-002    0.000000000000000E+000
 -3.920000000000000E-002    0.000000000000000E+000
 -3.910000000000000E-002    0.000000000000000E+000
 -3.900000000000000E-002    0.000000000000000E+000
 -3.890000000000000E-002    0.000000000000000E+000
 -3.880000000000000E-002    0.000000000000000E+000
 -3.870000000000000E-002    0.000000000000000E+000
 -3.860000000000000E-002    0.000000000000000E+000
 -3.850000000000000E-002    0.000000000000000E+000
 -3.840000000000000E-002    0.000000000000000E+000
 -3.830000000000000E-002    0.000000000000000E+000
 -3.820000000000000E-002    0.000000000000000E+000
 -3.810000000000000E-002    0.000000000000000E+000
 -3.800000000000000E-002    0.000000000000000E+000
 -3.790000000000000E-002    0.000000000000000E+000
 -3.780000000000000E-002    0.000000000000000E+000
 -3.770000000000000E-002    0.000000000000000E+000
 -3.760000000000000E-002    0.000000000000000E+000
 -3.750000000000000E-002    0.000000000000000E+000
 -3.740000000000000E-002    0.000000000000000E+000
 -3.730000000000000E-002    0.000000000000000E+000
 -3.720000000000000E-002    0.000000000000000E+000
 -3.710000000000000E-002    0.000000000000000E+000
 -3.700000000000000E-002    0.000000000000000E+000
 -3.690000000000000E-002    0.000000000000000E+000
 -3.680000000000000E-002    0.000000000000000E+000
 -3.670000000000000E-002    0.000000000000000E+000
 -3.660000000000000E-002    0.000000000000000E+000
 -3.650000000000000E-002    0.000000000000000E+000
 -3.640000000000000E-002    0.000000000000000E+000
 -3.630000000000000E-002    0.000000000000000E+000
 -3.620000000000000E-002    0.000000000000000E+000
 -3.610000000000000E-002    0.000000000000000E+000
 -3.600000000000000E-002    0.000000000000000E+000
 -3.590000000000000E-002    0.000000000000000E+000
 -3.580000000000000E-002    0.000000000000000E+000
 -3.570000000000000E-002    0.000000000000000E+000
 -3.560000000000000E-002    0.000000000000000E+000
 -3.550000000000000E-002    0.000000000000000E+000
 -3.540000000000000E-002    0.000000000000000E+000
 -3.530000000000000E-002    0.000000000000000E+000
 -3.520000000000000E-002    0.000000000000000E+000
 -3.510000000000000E-002    0.000000000000000E+000
 -3.500000000000000E-002    0.000000000000000E+000
 -3.490000000000000E-002    0.000000000000000E+000
 -3.480000000000000E-002    0.000000000000000E+000
 -3.470000000000000E-002    0.000000000000000E+000
 -3.460000000000000E-002    0.000000000000000E+000
 -3.450000000000000E-002    0.000000000000000E+000
 -3.440000000000000E-002    0.000000000000000E+000
 -3.430000000000000E-002    0.000000000000000E+000
 -3.420000000000000E-002    0.000000000000000E+000
 -3.410000000000000E-002    0.000000000000000E+000
 -3.400000000000000E-002    0.000000000000000E+000
 -3.390000000000000E-002    0.000000000000000E+000
 -3.380000000000000E-002    0.000000000000000E+000
 -3.370000000000000E-002    0.000000000000000E+000
 -3.360000000000000E-002    0.000000000000000E+000
 -3.350000000000000E-002    0.000000000000000E+000
 -3.340000000000000E-002    0.000000000000000E+000
 -3.330000000000000E-002    0.000000000000000E+000
 -3.320000000000000E-002    0.000000000000000E+000
 -3.310000000000000E-002    0.000000000000000E+000
 -3.300000000000000E-002    0.000000000000000E+000
 -3.290000000000000E-002    0.000000000000000E+000
 -3.280000000000000E-002   -1.924390591266381E-047
 -3.270000000000000E-002   -1.092490128261009E-046
 -3.260000000000000E-002   -1.992541197395381E-046
 -3.250000000000000E-002   -2.315275089149838E-046
 -3.240000000000000E-002   -2.443567795234263E-046
 -3.230000000000000E-002   -2.736638892685048E-046
 -3.220000000000000E-002    5.599392618381379E-047
 -3.210000000000000E-002    5.391209124939561E-046
 -3.200000000000000E-002    1.199543874917812E-045
 -3.190000000000000E-002    2.356978596716605E-045
 -3.180000000000000E-002    4.439100991673033E-045
 -3.170000000000000E-002    7.330568795952433E-045
 -3.160000000000000E-002    9.319814157230238E-045
 -3.150000000000000E-002    9.948551598998343E-045
 -3.140000000000000E-002    6.981987060937862E-045
 -3.130000000000000E-002   -1.971279880165039E-045
 -3.120000000000000E-002   -2.063658195551165E-044
 -3.110000000000000E-002   -5.063765969687273E-044
 -3.100000000000000E-002   -9.100349926908974E-044
 -3.090000000000000E-002   -1.355010059110555E-043
 -3.080000000000000E-002   -1.693030488351118E-043
 -3.070000000000000E-002   -1.641538010708604E-043
 -3.060000000000000E-002   -8.467981778298340E-044
 -3.050000000000000E-002    1.016424938155837E-043
 -3.040000000000000E-002    4.013553206973518E-043
 -3.030000000000000E-002    7.574684421358109E-043
 -3.020000000000000E-002    9.918382788776870E-043
 -3.010000000000000E-002    7.518819373784959E-043
 -3.000000000000000E-002   -5.183730877421204E-043
 -2.990000000000000E-002   -3.535693950505078E-042
 -2.980000000000000E-002   -8.971561633228498E-042
 -2.970000000000000E-002   -1.701205124163114E-041
 -2.960000000000000E-002   -2.659300866438155E-041
 -2.950000000000000E-002   -3.428919394032492E-041
 -2.940000000000000E-002   -3.298602902194885E-041
 -2.930000000000000E-002   -1.069520865277236E-041
 -2.920000000000000E-002    4.977078055258810E-041
 -2.910000000000000E-002    1.691113934224827E-040
 -2.900000000000000E-002    3.662994477736572E-040
 -2.890000000000000E-002    6.480859138546204E-040
 -2.880000000000000E-002    9.918870278472119E-040
 -2.870000000000000E-002    1.322017992365458E-039
 -2.860000000000000E-002    1.481798851231773E-039
 -2.850000000000000E-002    1.208305993416580E-039
 -2.840000000000000E-002    1.222719151144256E-040
 -2.830000000000000E-002   -2.247838500672188E-039
 -2.820000000000000E-002   -6.382850936761146E-039
 -2.810000000000000E-002   -1.260433556415619E-038
 -2.800000000000000E-002   -2.079963224342727E-038
 -2.790000000000000E-002   -3.003800277674661E-038
 -2.780000000000000E-002   -3.811105062737597E-038
 -2.770000000000000E-002   -4.108577857629331E-038
 -2.760000000000000E-002   -3.303167554046894E-038
 -2.750000000000000E-002   -6.164203691018682E-039
 -2.740000000000000E-002    4.828360416197885E-038
 -2.730000000000000E-002    1.381241305899526E-037
 -2.720000000000000E-002    2.669360149996614E-037
 -2.710000000000000E-002    4.293609259113678E-037
 -2.700000000000000E-002    6.052661036838401E-037
 -2.690000000000000E-002    7.536299495937910E-037
 -2.680000000000000E-002    8.077470408656671E-037
 -2.670000000000000E-002    6.741611420663845E-037
 -2.660000000000000E-002    2.384398845719506E-037
 -2.650000000000000E-002   -6.187819608267044E-037
 -2.640000000000000E-002   -1.992500679755826E-036
 -2.630000000000000E-002   -3.909366599465301E-036
 -2.620000000000000E-002   -6.270645946607014E-036
 -2.610000000000000E-002   -8.788352522740590E-036
 -2.600000000000000E-002   -1.092674603747587E-035
 -2.590000000000000E-002   -1.186795123578916E-035
 -2.580000000000000E-002   -1.052628773886972E-035
 -2.570000000000000E-002   -5.638959625397667E-036
 -2.560000000000000E-002    4.041315910063899E-036
 -2.550000000000000E-002    1.943590196089040E-035
 -2.540000000000000E-002    4.071550879159489E-035
 -2.530000000000000E-002    6.679406537463981E-035
 -2.520000000000000E-002    9.481203491892575E-035
 -2.510000000000000E-002    1.197217702593250E-034
 -2.500000000000000E-002    1.341252341762176E-034
 -2.490000000000000E-002    1.285367176035733E-034
 -2.480000000000000E-002    9.223815826957652E-035
 -2.470000000000000E-002    1.484947602556530E-035
 -2.460000000000000E-002   -1.113569700055577E-034
 -2.450000000000000E-002   -2.885105519517872E-034
 -2.440000000000000E-002   -5.098580839982524E-034
 -2.430000000000000E-002   -7.566303019874172E-034
 -2.420000000000000E-002   -9.957212283284630E-034
 -2.410000000000000E-002   -1.178953455702895E-033
 -2.400000000000000E-002   -1.244698215612053E-033
 -2.390000000000000E-002   -1.122471574842172E-033
 -2.380000000000000E-002   -7.408184821491609E-034
 -2.370000000000000E-002   -3.835189158258325E-035
 -2.360000000000000E-002    1.022711873859878E-033
 -2.350000000000000E-002    2.441685221677720E-033
 -2.340000000000000E-002    4.164751186516725E-033
 -2.330000000000000E-002    6.072208354541161E-033
 -2.320000000000000E-002    7.969186017631252E-033
 -2.310000000000000E-002    9.581052164820261E-033
 -2.300000000000000E-002    1.055434064220087E-032
 -2.290000000000000E-002    1.046385348536896E-032
 -2.280000000000000E-002    8.827026988184658E-033
 -2.270000000000000E-002    5.127976075575929E-033
 -2.260000000000000E-002   -1.144014640701669E-033
 -2.250000000000000E-002   -1.043372279512107E-032
 -2.240000000000000E-002   -2.302615745925189E-032
 -2.230000000000000E-002   -3.890755639323737E-032
 -2.220000000000000E-002   -5.757163443061334E-032
 -2.210000000000000E-002   -7.777003037756962E-032
 -2.200000000000000E-002   -9.722290339192203E-032
 -2.190000000000000E-002   -1.123314773822794E-031
 -2.180000000000000E-002   -1.179683168690173E-031
 -2.170000000000000E-002   -1.074580652397339E-031
 -2.160000000000000E-002   -7.289314169231163E-032
 -2.150000000000000E-002   -5.943313155221639E-033
 -2.140000000000000E-002    1.007004055223682E-031
 -2.130000000000000E-002    2.511727262365300E-031
 -2.120000000000000E-002    4.436222524026285E-031
 -2.110000000000000E-002    6.669769235999445E-031
 -2.100000000000000E-002    8.977605314984609E-031
 -2.090000000000000E-002    1.097689929219423E-030
 -2.080000000000000E-002    1.213009738482738E-030
 -2.070000000000000E-002    1.176650538876567E-030
 -2.060000000000000E-002    9.142481458734729E-031
 -2.050000000000000E-002    3.547596887157517E-031
 -2.040000000000000E-002   -5.541935197002730E-031
 -2.030000000000000E-002   -1.827048582463598E-030
 -2.020000000000000E-002   -3.419058257983048E-030
 -2.010000000000000E-002   -5.206349518635696E-030
 -2.000000000000000E-002   -6.971737782923626E-030
 -1.990000000000000E-002   -8.401537525243238E-030
 -1.980000000000000E-002   -9.098688195404103E-030
 -1.970000000000000E-002   -8.616543819207539E-030
 -1.960000000000000E-002   -6.515511170932642E-030
 -1.950000000000000E-002   -2.441303832297373E-030
 -1.940000000000000E-002    3.780837008578507E-030
 -1.930000000000000E-002    1.204651656433105E-029
 -1.920000000000000E-002    2.188234093491981E-029
 -1.910000000000000E-002    3.238438528752991E-029
 -1.900000000000000E-002    4.220459733470467E-029
 -1.890000000000000E-002    4.960267315923981E-029
 -1.880000000000000E-002    5.257524609625612E-029
 -1.870000000000000E-002    4.906505718496498E-029
 -1.860000000000000E-002    3.724083037508327E-029
 -1.850000000000000E-002    1.582560830745705E-029
 -1.840000000000000E-002   -1.556068985240137E-029
 -1.830000000000000E-002   -5.608752741182367E-029
 -1.820000000000000E-002   -1.034751560307395E-028
 -1.810000000000000E-002   -1.538743891903364E-028
 -1.800000000000000E-002   -2.018983757781716E-028
 -1.790000000000000E-002   -2.408256630849673E-028
 -1.780000000000000E-002   -2.629779681514739E-028
 -1.770000000000000E-002   -2.602622557005710E-028
 -1.760000000000000E-002   -2.248595735814450E-028
 -1.750000000000000E-002   -1.500435720813374E-028
 -1.740000000000000E-002   -3.112018051024144E-029
 -1.730000000000000E-002    1.335092788822257E-028
 -1.720000000000000E-002    3.411550281358757E-028
 -1.710000000000000E-002    5.835234192514290E-028
 -1.700000000000000E-002    8.453332567169230E-028
 -1.690000000000000E-002    1.103004184714755E-027
 -1.680000000000000E-002    1.323684364314589E-027
 -1.670000000000000E-002    1.465040170539877E-027
 -1.660000000000000E-002    1.476380174759291E-027
 -1.650000000000000E-002    1.301783321603419E-027
 -1.640000000000000E-002    8.858850597937240E-028
 -1.630000000000000E-002    1.827760252357631E-028
 -1.620000000000000E-002   -8.319605038048371E-028
 -1.610000000000000E-002   -2.146731228537471E-027
 -1.600000000000000E-002   -3.698496065185503E-027
 -1.590000000000000E-002   -5.358994926300516E-027
 -1.580000000000000E-002   -6.926175273220826E-027
 -1.570000000000000E-002   -8.125007220235566E-027
 -1.560000000000000E-002   -8.621922197484152E-027
 -1.550000000000000E-002   -8.056273349252999E-027
 -1.540000000000000E-002   -6.090331363809270E-027
 -1.530000000000000E-002   -2.476272929862950E-027
 -1.520000000000000E-002    2.865334555571801E-027
 -1.510000000000000E-002    9.765532273297696E-027
 -1.500000000000000E-002    1.773966687245751E-026
 -1.490000000000000E-002    2.595004431915899E-026
 -1.480000000000000E-002    3.321657900577765E-026
 -1.470000000000000E-002    3.809105687041688E-026
 -1.460000000000000E-002    3.900424927326893E-026
 -1.450000000000000E-002    3.448481415736929E-026
 -1.440000000000000E-002    2.343526293485489E-026
 -1.430000000000000E-002    5.434846238845701E-027
 -1.420000000000000E-002   -1.897541452600530E-026
 -1.410000000000000E-002   -4.808132493392463E-026
 -1.400000000000000E-002   -7.891739011217886E-026
 -1.390000000000000E-002   -1.073754673386168E-025
 -1.380000000000000E-002   -1.285360246797731E-025
 -1.370000000000000E-002   -1.372281776486853E-025
 -1.360000000000000E-002   -1.287855751781168E-025
 -1.350000000000000E-002   -9.992154486827730E-026
 -1.340000000000000E-002   -4.960522565872903E-026
 -1.330000000000000E-002    2.021004868873092E-026
 -1.320000000000000E-002    1.041664573709342E-025
 -1.310000000000000E-002    1.935345471227290E-025
 -1.300000000000000E-002    2.767991773845509E-025
 -1.290000000000000E-002    3.408241759004699E-025
 -1.280000000000000E-002    3.725256430799930E-025
 -1.270000000000000E-002    3.608795441100231E-025
 -1.260000000000000E-002    2.989941821933557E-025
 -1.250000000000000E-002    1.859132485939286E-025
 -1.240000000000000E-002    2.779879748814251E-026
 -1.230000000000000E-002   -1.618118658138514E-025
 -1.220000000000000E-002   -3.628693413557001E-025
 -1.210000000000000E-002   -5.508219663311237E-025
 -1.200000000000000E-002   -6.995959046856226E-025
 -1.190000000000000E-002   -7.851666290096103E-025
 -1.180000000000000E-002   -7.891795509897652E-025
 -1.170000000000000E-002   -7.019995014371277E-025
 -1.160000000000000E-002   -5.246004858063561E-025
 -1.150000000000000E-002   -2.688726562475393E-025
 -1.140000000000000E-002    4.380121218923424E-026
 -1.130000000000000E-002    3.854916289330187E-025
 -1.120000000000000E-002    7.256218988389731E-025
 -1.110000000000000E-002    1.034966236791476E-024
 -1.100000000000000E-002    1.288769930546916E-024
 -1.090000000000000E-002    1.468120796669963E-024
 -1.080000000000000E-002    1.559067787170351E-024
 -1.070000000000000E-002    1.549581067872612E-024
 -1.060000000000000E-002    1.425179729721205E-024
 -1.050000000000000E-002    1.164775408168426E-024
 -1.040000000000000E-002    7.387819857481294E-025
 -1.030000000000000E-002    1.116378927779483E-025
 -1.020000000000000E-002   -7.496000623782560E-025
 -1.010000000000000E-002   -1.860059460691448E-024
 -1.000000000000000E-002   -3.196435146571562E-024
 -9.899999999999999E-003   -4.674200452652573E-024
 -9.800000000000000E-003   -6.127935510868806E-024
 -9.699999999999999E-003   -7.301568421118908E-024
 -9.599999999999999E-003   -7.855753937500548E-024
 -9.500000000000000E-003   -7.398501056768370E-024
 -9.399999999999999E-003   -5.542208806444622E-024
 -9.299999999999999E-003   -1.985568741478464E-024
 -9.200000000000000E-003    3.387306538533715E-024
 -9.099999999999999E-003    1.040465390344783E-023
 -8.999999999999999E-003    1.852164134699468E-023
 -8.900000000000000E-003    2.677519100220196E-023
 -8.799999999999999E-003    3.380237005211646E-023
 -8.699999999999999E-003    3.794086618535776E-023
 -8.600000000000000E-003    3.742006508287684E-023
 -8.499999999999999E-003    3.063665522970097E-023
 -8.399999999999999E-003    1.649085510895296E-023
 -8.300000000000000E-003   -5.258996111327062E-024
 -8.199999999999999E-003   -3.368124476707570E-023
 -8.100000000000000E-003   -6.646212617062028E-023
 -8.000000000000000E-003   -9.986951937467934E-023
 -7.899999999999999E-003   -1.289427009884086E-022
 -7.800000000000000E-003   -1.479358079758332E-022
 -7.699999999999999E-003   -1.510061404104996E-022
 -7.599999999999999E-003   -1.330946421890144E-022
 -7.499999999999999E-003   -9.090134556953495E-023
 -7.399999999999999E-003   -2.382117102642963E-023
 -7.299999999999999E-003    6.531681807760690E-023
 -7.199999999999999E-003    1.698640775241887E-022
 -7.100000000000000E-003    2.794523709639284E-022
 -6.999999999999999E-003    3.806569213617505E-022
 -6.899999999999999E-003    4.582261632367662E-022
 -6.800000000000000E-003    4.967928087492102E-022
 -6.699999999999999E-003    4.828937087395823E-022
 -6.599999999999999E-003    4.070521548570319E-022
 -6.499999999999999E-003    2.656357062339384E-022
 -6.399999999999999E-003    6.220150885683119E-023
 -6.299999999999999E-003   -1.919106024557898E-022
 -6.199999999999999E-003   -4.778860073927344E-022
 -6.100000000000000E-003   -7.706665988429487E-022
 -5.999999999999999E-003   -1.040990966635019E-021
 -5.899999999999999E-003   -1.258001188837833E-021
 -5.800000000000000E-003   -1.392085716042072E-021
 -5.699999999999999E-003   -1.417597408468906E-021
 -5.599999999999999E-003   -1.315126282848533E-021
 -5.499999999999999E-003   -1.073115760426484E-021
 -5.399999999999999E-003   -6.887722892658483E-022
 -5.299999999999999E-003   -1.683930557007094E-022
 -5.199999999999999E-003    4.726077617496634E-022
 -5.099999999999999E-003    1.209616240503117E-021
 -4.999999999999999E-003    2.008346695416460E-021
 -4.899999999999999E-003    2.823806533139003E-021
 -4.799999999999999E-003    3.598803767457519E-021
 -4.699999999999999E-003    4.262463126743950E-021
 -4.599999999999999E-003    4.729594224759416E-021
 -4.499999999999999E-003    4.902050923653156E-021
 -4.399999999999999E-003    4.673327000930456E-021
 -4.299999999999999E-003    3.937474911628288E-021
 -4.199999999999999E-003    2.602940231796845E-021
 -4.099999999999999E-003    6.110758480357164E-022
 -3.999999999999999E-003   -2.041990439377932E-021
 -3.899999999999999E-003   -5.282672351915584E-021
 -3.799999999999999E-003   -8.940097578083617E-021
 -3.699999999999999E-003   -1.273360332556227E-020
 -3.599999999999999E-003   -1.627225934816501E-020
 -3.499999999999999E-003   -1.907056432741847E-020
 -3.399999999999999E-003   -2.058304387711938E-020
 -3.299999999999999E-003   -2.025818065432362E-020
 -3.199999999999999E-003   -1.760915366201630E-020
 -3.099999999999999E-003   -1.229559672998368E-020
 -2.999999999999999E-003   -4.207416105103890E-021
 -2.899999999999999E-003    6.460703138641245E-021
 -2.799999999999999E-003    1.915671951760210E-020
 -2.699999999999999E-003    3.295274934551868E-020
 -2.599999999999999E-003    4.657051287074770E-020
 -2.499999999999999E-003    5.845633430825018E-020
 -2.399999999999999E-003    6.690562493863465E-020
 -2.299999999999999E-003    7.023005484794292E-020
 -2.199999999999999E-003    6.695401035111643E-020
 -2.099999999999999E-003    5.602108979993765E-020
 -1.999999999999999E-003    3.698745378291046E-020
 -1.899999999999999E-003    1.017767977908011E-020
 -1.799999999999999E-003   -2.321964673160590E-020
 -1.699999999999999E-003   -6.113443620093503E-020
 -1.599999999999999E-003   -1.006861509570705E-019
 -1.499999999999999E-003   -1.383448620234758E-019
 -1.399999999999999E-003   -1.701741279103386E-019
 -1.299999999999999E-003   -1.921388557878881E-019
 -1.199999999999999E-003   -2.004545673897541E-019
 -1.099999999999999E-003   -1.919505264572789E-019
 -9.999999999999989E-004   -1.644186252728421E-019
 -8.999999999999990E-004   -1.169219015763691E-019
 -7.999999999999990E-004   -5.004095556178863E-020
 -6.999999999999989E-004    3.395848296282323E-020
 -5.999999999999990E-004    1.310489617238623E-019
 -4.999999999999989E-004    2.354648920685980E-019
 -3.999999999999989E-004    3.398347743005152E-019
 -2.999999999999989E-004    4.354316340664776E-019
 -1.999999999999989E-004    5.125534524824494E-019
 -9.999999999999892E-005    5.610464152894198E-019
  1.084202172485504E-018    5.709809793818554E-019
  1.000000000000011E-004    5.334822992753733E-019
  2.000000000000011E-004    4.417006853942045E-019
  3.000000000000011E-004    2.918823844085769E-019
  4.000000000000011E-004    8.447032072508347E-020
  5.000000000000011E-004   -1.748711325015386E-019
  6.000000000000011E-004   -4.744457057400904E-019
  7.000000000000011E-004   -7.960918333995627E-019
  8.000000000000011E-004   -1.115295935810267E-018
  9.000000000000012E-004   -1.402006978010934E-018
  1.000000000000001E-003   -1.622261612499166E-018
  1.100000000000001E-003   -1.740657332481943E-018
  1.200000000000001E-003   -1.723611578844535E-018
  1.300000000000001E-003   -1.543226909118949E-018
  1.400000000000001E-003   -1.181463129829319E-018
  1.500000000000001E-003   -6.342038970523828E-019
  1.600000000000001E-003    8.527105800754224E-020
  1.700000000000001E-003    9.439342296429215E-019
  1.800000000000001E-003    1.888277433412310E-018
  1.900000000000001E-003    2.845602160822049E-018
  2.000000000000001E-003    3.727579318698315E-018
  2.100000000000001E-003    4.436107047734825E-018
  2.200000000000001E-003    4.871242354092442E-018
  2.300000000000001E-003    4.940719237175798E-018
  2.400000000000001E-003    4.570316204155612E-018
  2.500000000000001E-003    3.714148789384300E-018
  2.600000000000001E-003    2.363834477778664E-018
  2.700000000000001E-003    5.554706614893113E-019
  2.800000000000001E-003   -1.626554301072362E-018
  2.900000000000001E-003   -4.049697777029298E-018
  3.000000000000001E-003   -6.537838394318882E-018
  3.100000000000001E-003   -8.880429962324883E-018
  3.200000000000001E-003   -1.084597798466646E-017
  3.300000000000001E-003   -1.219918775170881E-017
  3.400000000000001E-003   -1.272077183938675E-017
  3.500000000000001E-003   -1.222859523663178E-017
  3.600000000000001E-003   -1.059862126912864E-017
  3.700000000000001E-003   -7.783981547260700E-018
  3.800000000000001E-003   -3.830473074565324E-018
  3.900000000000001E-003    1.113154877858609E-018
  4.000000000000001E-003    6.791582136241231E-018
  4.100000000000001E-003    1.284717156425821E-017
  4.200000000000001E-003    1.883293365876129E-017
  4.300000000000001E-003    2.423458533134043E-017
  4.400000000000001E-003    2.850151062004855E-017
  4.500000000000001E-003    3.108578843799387E-017
  4.600000000000002E-003    3.148768133618401E-017
  4.700000000000001E-003    2.930517292391242E-017
  4.800000000000001E-003    2.428431272487691E-017
  4.900000000000002E-003    1.636636479220980E-017
  5.000000000000001E-003    5.727177025781072E-018
  5.100000000000001E-003   -7.196155542722441E-018
  5.200000000000001E-003   -2.169620287742621E-017
  5.300000000000002E-003   -3.680795670513128E-017
  5.400000000000001E-003   -5.134661019177281E-017
  5.500000000000001E-003   -6.397180773125058E-017
  5.600000000000002E-003   -7.327759276958854E-017
  5.700000000000001E-003   -7.790460915334840E-017
  5.800000000000001E-003   -7.666830829958571E-017
  5.900000000000002E-003   -6.869414191003435E-017
  6.000000000000001E-003   -5.354832148062438E-017
  6.100000000000001E-003   -3.135114276680124E-017
  6.200000000000002E-003   -2.859257900571544E-018
  6.300000000000002E-003    3.049609174116782E-017
  6.400000000000001E-003    6.662572560702594E-017
  6.500000000000001E-003    1.028614471860603E-016
  6.600000000000002E-003    1.360998301133783E-016
  6.700000000000001E-003    1.630077942168961E-016
  6.800000000000001E-003    1.802806074389108E-016
  6.900000000000002E-003    1.849366935916969E-016
  7.000000000000001E-003    1.746282342845820E-016
  7.100000000000001E-003    1.479417354854093E-016
  7.200000000000002E-003    1.046607804474519E-016
  7.300000000000002E-003    4.596205920781116E-017
  7.400000000000001E-003   -2.548153762691225E-017
  7.500000000000001E-003   -1.055127145089138E-016
  7.600000000000002E-003   -1.886311266744980E-016
  7.700000000000001E-003   -2.682697488594992E-016
  7.800000000000001E-003   -3.372011482640810E-016
  7.900000000000001E-003   -3.880565288971572E-016
  8.000000000000002E-003   -4.139292570020983E-016
  8.100000000000001E-003   -4.090233138070226E-016
  8.200000000000001E-003   -3.692987196272266E-016
  8.300000000000002E-003   -2.930594644404810E-016
  8.400000000000001E-003   -1.814269523604208E-016
  8.500000000000002E-003   -3.864411493905978E-017
  8.600000000000002E-003    1.278386769309088E-016
  8.700000000000001E-003    3.075333521216001E-016
  8.800000000000002E-003    4.873613238415775E-016
  8.900000000000002E-003    6.523795434005005E-016
  9.000000000000001E-003    7.867647455229755E-016
  9.100000000000002E-003    8.750099292240257E-016
  9.200000000000002E-003    9.032637124024900E-016
  9.300000000000001E-003    8.607207577565573E-016
  9.400000000000002E-003    7.409537339340745E-016
  9.500000000000001E-003    5.430673821974027E-016
  9.600000000000001E-003    2.725520075052744E-016
  9.700000000000002E-003   -5.827807824797534E-017
  9.800000000000001E-003   -4.303568742148641E-016
  9.900000000000001E-003   -8.185160332455818E-016
  1.000000000000000E-002   -1.192737796481713E-015
  1.010000000000000E-002   -1.519990704830536E-015
  1.020000000000000E-002   -1.766575262075316E-015
  1.030000000000000E-002   -1.900852158237555E-015
  1.040000000000000E-002   -1.896176515581682E-015
  1.050000000000000E-002   -1.733819663092022E-015
  1.060000000000000E-002   -1.405629260535212E-015
  1.070000000000000E-002   -9.161681379803086E-016
  1.080000000000000E-002   -2.840805672089919E-016
  1.090000000000000E-002    4.575362135627613E-016
  1.100000000000000E-002    1.261922210345184E-015
  1.110000000000000E-002    2.070699040952294E-015
  1.120000000000000E-002    2.817168900868576E-015
  1.130000000000000E-002    3.430760547883874E-015
  1.140000000000000E-002    3.842408457827142E-015
  1.150000000000000E-002    3.990536556421340E-015
  1.160000000000000E-002    3.827231517279929E-015
  1.170000000000000E-002    3.324105715186268E-015
  1.180000000000000E-002    2.477321712614051E-015
  1.190000000000000E-002    1.311236801057615E-015
  1.200000000000000E-002   -1.198271178513003E-016
  1.210000000000000E-002   -1.732091642726500E-015
  1.220000000000000E-002   -3.415376096993442E-015
  1.230000000000000E-002   -5.038786148328597E-015
  1.240000000000000E-002   -6.458912210478698E-015
  1.250000000000000E-002   -7.530187260614024E-015
  1.260000000000000E-002   -8.116813976774219E-015
  1.270000000000000E-002   -8.105465974897312E-015
  1.280000000000000E-002   -7.417788389042628E-015
  1.290000000000000E-002   -6.021614567468584E-015
  1.300000000000000E-002   -3.939770086384094E-015
  1.310000000000000E-002   -1.255409822029530E-015
  1.320000000000000E-002    1.887028614523142E-015
  1.330000000000000E-002    5.285901544218008E-015
  1.340000000000000E-002    8.691776312644427E-015
  1.350000000000000E-002    1.182207982928888E-014
  1.360000000000000E-002    1.438041462841273E-014
  1.370000000000000E-002    1.607950754278294E-014
  1.380000000000000E-002    1.666632371810549E-014
  1.390000000000000E-002    1.594751243560608E-014
  1.400000000000000E-002    1.381310748003034E-014
  1.410000000000000E-002    1.025627200338746E-014
  1.420000000000000E-002    5.386981025644045E-015
  1.430000000000000E-002   -5.622514947653475E-016
  1.440000000000000E-002   -7.240043537723770E-015
  1.450000000000000E-002   -1.419006064394710E-014
  1.460000000000000E-002   -2.087527970133659E-014
  1.470000000000000E-002   -2.671187840589414E-014
  1.480000000000000E-002   -3.111115194304621E-014
  1.490000000000000E-002   -3.352703336456674E-014
  1.500000000000000E-002   -3.350603742483430E-014
  1.510000000000000E-002   -3.073587430653389E-014
  1.520000000000000E-002   -2.508866970296098E-014
  1.530000000000000E-002   -1.665461721154665E-014
  1.540000000000000E-002   -5.762183899476927E-015
  1.550000000000000E-002    7.018407212005094E-015
  1.560000000000000E-002    2.089078545275105E-014
  1.570000000000000E-002    3.486825485112231E-014
  1.580000000000000E-002    4.782948729990995E-014
  1.590000000000000E-002    5.859208760361684E-014
  1.600000000000000E-002    6.600039405710316E-014
  1.610000000000000E-002    6.902224915978731E-014
  1.620000000000000E-002    6.684805193478673E-014
  1.630000000000000E-002    5.898441430839192E-014
  1.640000000000000E-002    4.533420936760793E-014
  1.650000000000000E-002    2.625473492520529E-014
  1.660000000000000E-002    2.586555342903859E-015
  1.670000000000000E-002   -2.435305980277037E-014
  1.680000000000000E-002   -5.281607095976831E-014
  1.690000000000000E-002   -8.071021860996091E-014
  1.700000000000000E-002   -1.057242778182640E-013
  1.710000000000000E-002   -1.254867041467898E-013
  1.720000000000000E-002   -1.377489402924620E-013
  1.730000000000000E-002   -1.405815514510916E-013
  1.740000000000000E-002   -1.325688316161221E-013
  1.750000000000000E-002   -1.129858778922580E-013
  1.760000000000000E-002   -8.194163146122103E-014
  1.770000000000000E-002   -4.047223061622092E-014
  1.780000000000000E-002    9.428900722025402E-015
  1.790000000000000E-002    6.485412081049449E-014
  1.800000000000000E-002    1.221029847845564E-013
  1.810000000000000E-002    1.768813822386940E-013
  1.820000000000000E-002    2.245713998204240E-013
  1.830000000000000E-002    2.605585387623321E-013
  1.840000000000000E-002    2.805966323401316E-013
  1.850000000000000E-002    2.811857990369612E-013
  1.860000000000000E-002    2.599348305508683E-013
  1.870000000000000E-002    2.158776961575498E-013