 -4.000000000000000E-002    0.000000000000000E+000
 -3.990000000000000E-002    0.000000000000000E+000
 -3.980000000000000E-002    0.000000000000000E+000
 -3.970000000000000E-002    0.000000000000000E+000
 -3.960000000000000E-002    0.000000000000000E+000
 -3.950000000000000E-002    0.000000000000000E+000
 -3.940000000000000E-002    0.000000000000000E+000
 -3.930000000000000E-002    0.000000000000000E+000
 -3.920000000000000E-002    0.000000000000000E+000
 -3.910000000000000E-002    0.000000000000000E+000
 -3.900000000000000E-002    0.000000000000000E+000
 -3.890000000000000E-002   -3.505813067480292E-036
 -3.880000000000000E-002   -7.652061532841881E-035
 -3.870000000000000E-002   -8.664986418547871E-034
 -3.860000000000000E-002   -6.771249786284643E-033
 -3.850000000000000E-002   -4.098987244400790E-032
 -3.840000000000000E-002   -2.046064814141127E-031
 -3.830000000000000E-002   -8.755284387261166E-031
 -3.820000000000000E-002   -3.297155421740640E-030
 -3.810000000000000E-002   -1.113464855369186E-029
 -3.800000000000000E-002   -3.419169307379623E-029
 -3.790000000000000E-002   -9.648396149476178E-029
 -3.780000000000000E-002   -2.522335526866473E-028
 -3.770000000000000E-002   -6.147106552188679E-028
 -3.760000000000000E-002   -1.403135530383359E-027
 -3.750000000000000E-002   -3.009852586494071E-027
 -3.740000000000000E-002   -6.079951760891801E-027
 -3.730000000000000E-002   -1.157308645147992E-026
 -3.720000000000000E-002   -2.073624817583760E-026
 -3.710000000000000E-002   -3.485181955233829E-026
 -3.700000000000000E-002   -5.453789983731882E-026
 -3.690000000000000E-002   -7.827997424274868E-026
 -3.680000000000000E-002   -9.979669705110120E-026
 -3.670000000000000E-002   -1.038478515760286E-025
 -3.660000000000000E-002   -6.027227412328306E-026
 -3.650000000000000E-002    8.348026730190257E-026
 -3.640000000000000E-002    4.101529436186181E-025
 -3.630000000000000E-002    1.038209054363913E-024
 -3.620000000000000E-002    2.120476579008139E-024
 -3.610000000000000E-002    3.828917480211814E-024
 -3.600000000000000E-002    6.316185847822375E-024
 -3.590000000000000E-002    9.643132571062561E-024
 -3.580000000000000E-002    1.366193490591577E-023
 -3.570000000000000E-002    1.784863536194415E-023
 -3.560000000000000E-002    2.108827308748177E-023
 -3.550000000000000E-002    2.143194261820869E-023
 -3.540000000000000E-002    1.586881053616843E-023
 -3.530000000000000E-002    1.864157393460148E-025
 -3.520000000000000E-002   -3.097348062683279E-023
 -3.510000000000000E-002   -8.372495174733198E-023
 -3.500000000000000E-002   -1.640561937383293E-022
 -3.490000000000000E-002   -2.763038344292822E-022
 -3.480000000000000E-002   -4.208759432949806E-022
 -3.470000000000000E-002   -5.912144690509226E-022
 -3.460000000000000E-002   -7.701493161129374E-022
 -3.450000000000000E-002   -9.260226992646889E-022
 -3.440000000000000E-002   -1.009242790735952E-021
 -3.430000000000000E-002   -9.502299950991330E-022
 -3.420000000000000E-002   -6.599990936272979E-022
 -3.410000000000000E-002   -3.480612194998022E-023
 -3.400000000000000E-002    1.033702087760033E-021
 -3.390000000000000E-002    2.641655421093696E-021
 -3.380000000000000E-002    4.848864307217335E-021
 -3.370000000000000E-002    7.647871657464041E-021
 -3.360000000000000E-002    1.092794109408148E-020
 -3.350000000000000E-002    1.443745131119025E-020
 -3.340000000000000E-002    1.775001031907736E-020
 -3.330000000000000E-002    2.024132549574356E-020
 -3.320000000000000E-002    2.108518396214052E-020
 -3.310000000000000E-002    1.927743341696663E-020
 -3.300000000000000E-002    1.369622125173435E-020
 -3.290000000000000E-002    3.204760609011897E-021
 -3.280000000000000E-002   -1.320071911425703E-020
 -3.270000000000000E-002   -3.620028272380069E-020
 -3.260000000000000E-002   -6.592554707229048E-020
 -3.250000000000000E-002   -1.017166043547965E-019
 -3.240000000000000E-002   -1.418831582012401E-019
 -3.230000000000000E-002   -1.834983748573416E-019
 -3.220000000000000E-002   -2.222581553905860E-019
 -3.210000000000000E-002   -2.524401673253664E-019
 -3.200000000000000E-002   -2.669959316958099E-019
 -3.190000000000000E-002   -2.578050863298565E-019
 -3.180000000000000E-002   -2.161148180146089E-019
 -3.170000000000000E-002   -1.331787110386898E-019
 -3.160000000000000E-002   -1.100596033060228E-021
 -3.150000000000000E-002    1.861212503751181E-019
 -3.140000000000000E-002    4.313645652791497E-019
 -3.130000000000000E-002    7.329953978646946E-019
 -3.120000000000000E-002    1.083365901567036E-018
 -3.110000000000000E-002    1.467264735886985E-018
 -3.100000000000000E-002    1.860421317754882E-018
 -3.090000000000000E-002    2.228212813093289E-018
 -3.080000000000000E-002    2.524785789618241E-018
 -3.070000000000000E-002    2.692878637669198E-018
 -3.060000000000000E-002    2.664710423326120E-018
 -3.050000000000000E-002    2.364368501457686E-018
 -3.040000000000000E-002    1.712165898246993E-018
 -3.030000000000000E-002    6.314168621788130E-019
 -3.020000000000000E-002   -9.420335023340226E-019
 -3.010000000000000E-002   -3.047413712575950E-018
 -3.000000000000000E-002   -5.684021050794273E-018
 -2.990000000000000E-002   -8.794367383207603E-018
 -2.980000000000000E-002   -1.224686451270077E-017
 -2.970000000000000E-002   -1.582013577703252E-017
 -2.960000000000000E-002   -1.919172857405464E-017
 -2.950000000000000E-002   -2.193456210421873E-017
 -2.940000000000000E-002   -2.352473627453712E-017
 -2.930000000000000E-002   -2.336419718600795E-017
 -2.920000000000000E-002   -2.082107006797255E-017
 -2.910000000000000E-002   -1.528912354637469E-017
 -2.900000000000000E-002   -6.265780261590209E-018
 -2.890000000000000E-002    6.554571871072865E-018
 -2.880000000000000E-002    2.317834416421111E-017
 -2.870000000000000E-002    4.321124226978018E-017
 -2.860000000000000E-002    6.577012224095908E-017
 -2.850000000000000E-002    8.942308193432395E-017
 -2.840000000000000E-002    1.121735551173464E-016
 -2.830000000000000E-002    1.315032134225890E-016
 -2.820000000000000E-002    1.444854530121098E-016
 -2.810000000000000E-002    1.479756891336650E-016
 -2.800000000000000E-002    1.388770389481766E-016
 -2.790000000000000E-002    1.144705712490173E-016
 -2.780000000000000E-002    7.278894406618161E-017
 -2.770000000000000E-002    1.300220831940516E-017
 -2.760000000000000E-002   -6.422375727245305E-017
 -2.750000000000000E-002   -1.564411009585774E-016
 -2.740000000000000E-002   -2.592518190447945E-016
 -2.730000000000000E-002   -3.662985634516041E-016
 -2.720000000000000E-002   -4.694451071484238E-016
 -2.710000000000000E-002   -5.591609694921456E-016
 -2.700000000000000E-002   -6.251045288111482E-016
 -2.690000000000000E-002   -6.568759572525222E-016
 -2.680000000000000E-002   -6.448889248199243E-016
 -2.670000000000000E-002   -5.812907501313084E-016
 -2.660000000000000E-002   -4.608479141281034E-016
 -2.650000000000000E-002   -2.817098166022480E-016
 -2.640000000000000E-002   -4.597073127190942E-017
 -2.630000000000000E-002    2.400328817495884E-016
 -2.620000000000000E-002    5.657244524407439E-016
 -2.610000000000000E-002    9.165908895421873E-016
 -2.600000000000000E-002    1.274753284832619E-015
 -2.590000000000000E-002    1.619739667017620E-015
 -2.580000000000000E-002    1.929370568858154E-015
 -2.570000000000000E-002    2.180663725832777E-015
 -2.560000000000000E-002    2.350672782112257E-015
 -2.550000000000000E-002    2.417205884341165E-015
 -2.540000000000000E-002    2.359416485884439E-015
 -2.530000000000000E-002    2.158315425318699E-015
 -2.520000000000000E-002    1.797310444972128E-015
 -2.510000000000000E-002    1.262926446129665E-015
 -2.500000000000000E-002    5.458814236975956E-016
 -2.490000000000000E-002   -3.573198691540573E-016
 -2.480000000000000E-002   -1.442168439348817E-015
 -2.470000000000000E-002   -2.693306471391703E-015
 -2.460000000000000E-002   -4.081197030317494E-015
 -2.450000000000000E-002   -5.558621432251633E-015
 -2.440000000000000E-002   -7.057493234482460E-015
 -2.430000000000000E-002   -8.486639371298296E-015
 -2.420000000000000E-002   -9.731298011091780E-015
 -2.410000000000000E-002   -1.065510645322988E-014
 -2.400000000000000E-002   -1.110525725191571E-014
 -2.390000000000000E-002   -1.092128283050218E-014
 -2.380000000000000E-002   -9.947587155094691E-015
 -2.370000000000000E-002   -8.049386645029838E-015
 -2.360000000000000E-002   -5.131195603131053E-015
 -2.350000000000000E-002   -1.156448610570420E-015
 -2.340000000000000E-002    3.833631838977005E-015
 -2.330000000000000E-002    9.704189458838471E-015
 -2.320000000000000E-002    1.621631455313851E-014
 -2.310000000000000E-002    2.302438102101368E-014
 -2.300000000000000E-002    2.968303557291188E-014
 -2.290000000000000E-002    3.566506314424533E-014
 -2.280000000000000E-002    4.039035568147521E-014
 -2.270000000000000E-002    4.326507369357556E-014
 -2.260000000000000E-002    4.372883530459604E-014
 -2.250000000000000E-002    4.130659436958957E-014
 -2.240000000000000E-002    3.566092075294550E-014
 -2.230000000000000E-002    2.663975297881791E-014
 -2.220000000000000E-002    1.431459970952285E-014
 -2.210000000000000E-002   -9.954151466908957E-016
 -2.200000000000000E-002   -1.871734044073544E-014
 -2.190000000000000E-002   -3.803813657763798E-014
 -2.180000000000000E-002   -5.793869888066393E-014
 -2.170000000000000E-002   -7.724645070725727E-014
 -2.160000000000000E-002   -9.470279276774776E-014
 -2.150000000000000E-002   -1.090401223470628E-013
 -2.140000000000000E-002   -1.190619543459368E-013
 -2.130000000000000E-002   -1.237193439042007E-013
 -2.120000000000000E-002   -1.221772201026552E-013
 -2.110000000000000E-002   -1.138656366669982E-013
 -2.100000000000000E-002   -9.851272452407163E-014
 -2.090000000000000E-002   -7.615870672180332E-014
 -2.080000000000000E-002   -4.715285416822017E-014
 -2.070000000000000E-002   -1.213748528780981E-014
 -2.060000000000000E-002    2.797521982043636E-014
 -2.050000000000000E-002    7.202713626842019E-014
 -2.040000000000000E-002    1.186329994356923E-013
 -2.030000000000000E-002    1.661900796267339E-013
 -2.020000000000000E-002    2.128775903989857E-013
 -2.010000000000000E-002    2.566484959688590E-013
 -2.000000000000000E-002    2.952205830466749E-013
 -1.990000000000000E-002    3.260771507518705E-013
 -1.980000000000000E-002    3.464904243555316E-013
 -1.970000000000000E-002    3.535820229699087E-013
 -1.960000000000000E-002    3.444331171291361E-013
 -1.950000000000000E-002    3.162536376040585E-013
 -1.940000000000000E-002    2.666133317303691E-013
 -1.930000000000000E-002    1.937293087072823E-013
 -1.920000000000000E-002    9.679513015378293E-014
 -1.910000000000000E-002   -2.367391908714417E-014
 -1.900000000000000E-002   -1.655130130072920E-013
 -1.890000000000000E-002   -3.246384510265730E-013
 -1.880000000000000E-002   -4.948805443103133E-013
 -1.870000000000000E-002   -6.679609738531212E-013
 -1.860000000000000E-002   -8.336503599388728E-013
 -1.850000000000000E-002   -9.801294855401010E-013
 -1.840000000000000E-002   -1.094561432694804E-012
 -1.830000000000000E-002   -1.163861336185352E-012
 -1.820000000000000E-002   -1.175629532277718E-012
 -1.810000000000000E-002   -1.119191904538157E-012
 -1.800000000000000E-002   -9.866732686324833E-013
 -1.790000000000000E-002   -7.740171731541299E-013
 -1.780000000000000E-002   -4.818586366543822E-013
 -1.770000000000000E-002   -1.161589702176707E-013
 -1.760000000000000E-002    3.114756926979860E-013
 -1.750000000000000E-002    7.838520063724380E-013
 -1.740000000000000E-002    1.278655258289398E-012
 -1.730000000000000E-002    1.769323238421377E-012
 -1.720000000000000E-002    2.226296003987482E-012
 -1.710000000000000E-002    2.618574857132734E-012
 -1.700000000000000E-002    2.915499232490297E-012
 -1.690000000000000E-002    3.088628048962520E-012
 -1.680000000000000E-002    3.113603618804736E-012
 -1.670000000000000E-002    2.971876839018543E-012
 -1.660000000000000E-002    2.652183676618324E-012
 -1.650000000000000E-002    2.151682550731390E-012
 -1.640000000000000E-002    1.476693154128287E-012
 -1.630000000000000E-002    6.430015072210196E-013
 -1.620000000000000E-002   -3.242668105684918E-013
 -1.610000000000000E-002   -1.391185447381879E-012
 -1.600000000000000E-002   -2.515930708288047E-012
 -1.590000000000000E-002   -3.650003527808451E-012
 -1.580000000000000E-002   -4.739713671678472E-012
 -1.570000000000000E-002   -5.727887723594259E-012
 -1.560000000000000E-002   -6.555770807323861E-012
 -1.550000000000000E-002   -7.165111616395749E-012
 -1.540000000000000E-002   -7.500434833261340E-012
 -1.530000000000000E-002   -7.511509542443909E-012
 -1.520000000000000E-002   -7.156016263420587E-012
 -1.510000000000000E-002   -6.402399743844145E-012
 -1.500000000000000E-002   -5.232853615251575E-012
 -1.490000000000000E-002   -3.646337229172903E-012
 -1.480000000000000E-002   -1.661469427679336E-012
 -1.470000000000000E-002    6.809232439361551E-013
 -1.460000000000000E-002    3.315875246836745E-012
 -1.450000000000000E-002    6.153279909236366E-012
 -1.440000000000000E-002    9.078142405127901E-012
 -1.430000000000000E-002    1.195239909032732E-011
 -1.420000000000000E-002    1.461854861589806E-011
 -1.410000000000000E-002    1.690524861402083E-011
 -1.400000000000000E-002    1.863489786873845E-011
 -1.390000000000000E-002    1.963305080112588E-011
 -1.380000000000000E-002    1.973933373220387E-011
 -1.370000000000000E-002    1.881934273914812E-011
 -1.360000000000000E-002    1.677682694455166E-011
 -1.350000000000000E-002    1.356533606058458E-011
 -1.340000000000000E-002    9.198403888809562E-012
 -1.330000000000000E-002    3.757341782959014E-012
 -1.320000000000000E-002   -2.604248668758534E-012
 -1.310000000000000E-002   -9.659970986947072E-012
 -1.300000000000000E-002   -1.711469823047801E-011
 -1.290000000000000E-002   -2.461345177299339E-011
 -1.280000000000000E-002   -3.175504136171881E-011
 -1.270000000000000E-002   -3.811006677665050E-011
 -1.260000000000000E-002   -4.324254399897466E-011
 -1.250000000000000E-002   -4.673412943654993E-011
 -1.240000000000000E-002   -4.820962473288523E-011
 -1.230000000000000E-002   -4.736234115085501E-011
 -1.220000000000000E-002   -4.397775656265792E-011
 -1.210000000000000E-002   -3.795398969532854E-011
 -1.200000000000000E-002   -2.931770182465849E-011
 -1.190000000000000E-002   -1.823424966379881E-011
 -1.180000000000000E-002   -5.011246421681704E-012
 -1.170000000000000E-002    9.905012201596388E-012
 -1.160000000000000E-002    2.594044131371764E-011
 -1.150000000000000E-002    4.241114036160558E-011
 -1.140000000000000E-002    5.854793178242289E-011
 -1.130000000000000E-002    7.352660065383122E-011
 -1.120000000000000E-002    8.650274703310832E-011
 -1.110000000000000E-002    9.664991483412067E-011
 -1.100000000000000E-002    1.031996308088333E-010
 -1.090000000000000E-002    1.054817778481695E-010
 -1.080000000000000E-002    1.029637357988451E-010
 -1.070000000000000E-002    9.528672065828745E-011
 -1.060000000000000E-002    8.229773096316397E-011
 -1.050000000000000E-002    6.407548924315595E-011
 -1.040000000000000E-002    4.094892350752362E-011
 -1.030000000000000E-002    1.350669104171177E-011
 -1.020000000000000E-002   -1.740357820414399E-011
 -1.010000000000000E-002   -5.068746422394154E-011
 -1.000000000000000E-002   -8.502823746063941E-011
 -9.899999999999999E-003   -1.189241461175576E-010
 -9.800000000000000E-003   -1.507385128757825E-010
 -9.699999999999999E-003   -1.787620003598732E-010
 -9.599999999999999E-003   -2.012857103828044E-010
 -9.500000000000000E-003   -2.166830374886700E-010
 -9.399999999999999E-003   -2.234972505406091E-010
 -9.299999999999999E-003   -2.205310059584256E-010
 -9.200000000000000E-003   -2.069333933742707E-010
 -9.099999999999999E-003   -1.822795117408849E-010
 -8.999999999999999E-003   -1.466370639056180E-010
 -8.900000000000000E-003   -1.006150316084551E-010
 -8.799999999999999E-003   -4.538925997129659E-011
 -8.699999999999999E-003    1.729894359168303E-011
 -8.600000000000000E-003    8.517432735667965E-011
 -8.499999999999999E-003    1.554906753667591E-010
 -8.399999999999999E-003    2.251250433073441E-010
 -8.300000000000000E-003    2.907008980767775E-010
 -8.199999999999999E-003    3.487361719768458E-010
 -8.100000000000000E-003    3.958099979916247E-010
 -8.000000000000000E-003    4.287404488277648E-010
 -7.899999999999999E-003    4.447643596887609E-010
 -7.800000000000000E-003    4.417093370335874E-010
 -7.699999999999999E-003    4.181480071372165E-010
 -7.599999999999999E-003    3.735248493199847E-010
 -7.499999999999999E-003    3.082469383211982E-010
 -7.399999999999999E-003    2.237315593305400E-010
 -7.299999999999999E-003    1.224057516324744E-010
 -7.199999999999999E-003    7.655103791300600E-012
 -7.100000000000000E-003   -1.162780734007965E-010
 -6.999999999999999E-003   -2.444442659201568E-010
 -6.899999999999999E-003   -3.713786008791768E-010
 -6.800000000000000E-003   -4.913270668273960E-010
 -6.699999999999999E-003   -5.984975194847512E-010
 -6.599999999999999E-003   -6.873237202777206E-010
 -6.499999999999999E-003   -7.527308499298609E-010
 -6.399999999999999E-003   -7.903894342403157E-010
 -6.299999999999999E-003   -7.969457964481580E-010
 -6.199999999999999E-003   -7.702178229437970E-010
 -6.100000000000000E-003   -7.093458873398470E-010
 -5.999999999999999E-003   -6.148912479284495E-010
 -5.899999999999999E-003   -4.888759407844027E-010
 -5.800000000000000E-003   -3.347605591546727E-010
 -5.699999999999999E-003   -1.573589845580165E-010
 -5.599999999999999E-003    3.730785930434400E-011
 -5.499999999999999E-003    2.422155744701193E-010
 -5.399999999999999E-003    4.495904045193437E-010
 -5.299999999999999E-003    6.512048014063329E-010
 -5.199999999999999E-003    8.387038199186296E-010
 -5.099999999999999E-003    1.003949465865404E-009
 -4.999999999999999E-003    1.139369585990867E-009
 -4.899999999999999E-003    1.238295606756500E-009
 -4.799999999999999E-003    1.295274701806925E-009
 -4.699999999999999E-003    1.306340798812705E-009
 -4.599999999999999E-003    1.269231139921134E-009
 -4.499999999999999E-003    1.183534468152241E-009
 -4.399999999999999E-003    1.050762635065424E-009
 -4.299999999999999E-003    8.743366994930153E-010
 -4.199999999999999E-003    6.594853300734797E-010
 -4.099999999999999E-003    4.130557942687551E-010
 -3.999999999999999E-003    1.432434718808667E-010
 -3.899999999999999E-003   -1.407499636232646E-010
 -3.799999999999999E-003   -4.291152318449159E-010
 -3.699999999999999E-003   -7.118717573988274E-010
 -3.599999999999999E-003   -9.793190441923213E-010
 -3.499999999999999E-003   -1.222479477084384E-009
 -3.399999999999999E-003   -1.433506345278380E-009
 -3.299999999999999E-003   -1.606033260828566E-009
 -3.199999999999999E-003   -1.735441687552451E-009
 -3.099999999999999E-003   -1.819028951286521E-009
 -2.999999999999999E-003   -1.856063829149691E-009
 -2.899999999999999E-003   -1.847722177920949E-009
 -2.799999999999999E-003   -1.796905471975326E-009
 -2.699999999999999E-003   -1.707950511135024E-009
 -2.599999999999999E-003   -1.586246391812025E-009
 -2.499999999999999E-003   -1.437784422530398E-009
 -2.399999999999999E-003   -1.268669664749329E-009
 -2.299999999999999E-003   -1.084627843155136E-009
 -2.199999999999999E-003   -8.905454127973117E-010
 -2.099999999999999E-003   -6.900770687236222E-010
 -1.999999999999999E-003   -4.853556122515217E-010
 -1.899999999999999E-003   -2.768317835635079E-010
 -1.799999999999999E-003   -6.326665684653758E-011
 -1.699999999999999E-003    1.581115780328656E-010
 -1.599999999999999E-003    3.912829625270733E-010
 -1.499999999999999E-003    6.409516806369479E-010
 -1.399999999999999E-003    9.119207559734491E-010
 -1.299999999999999E-003    1.208356742985581E-009
 -1.199999999999999E-003    1.532979520729619E-009
 -1.099999999999999E-003    1.886227772122558E-009
 -9.999999999999989E-004    2.265447310747111E-009
 -8.999999999999990E-004    2.664163459985559E-009
 -7.999999999999990E-004    3.071487592577382E-009
 -6.999999999999989E-004    3.471717055030457E-009
 -5.999999999999990E-004    3.844177741221762E-009
 -4.999999999999989E-004    4.163353842651499E-009
 -3.999999999999989E-004    4.399339998314805E-009
 -2.999999999999989E-004    4.518643580331810E-009
 -1.999999999999989E-004    4.485349348752580E-009
 -9.999999999999892E-005    4.262647760991627E-009
  1.084202172485504E-018    3.814716593434943E-009
  1.000000000000011E-004    3.108924883850735E-009
  2.000000000000011E-004    2.118323696506797E-009
  3.000000000000011E-004    8.243633825593688E-010
  4.000000000000011E-004   -7.802269931251698E-010
  5.000000000000011E-004   -2.688480860116612E-009
  6.000000000000011E-004   -4.876243063807868E-009
  7.000000000000011E-004   -7.299326653876132E-009
  8.000000000000011E-004   -9.890883352377976E-009
  9.000000000000012E-004   -1.255908547486332E-008
  1.000000000000001E-003   -1.518522891351629E-008
  1.100000000000001E-003   -1.762235586680753E-008
  1.200000000000001E-003   -1.969447707926913E-008
  1.300000000000001E-003   -2.119647481471797E-008
  1.400000000000001E-003   -2.189473823777937E-008
  1.500000000000001E-003   -2.152856199965368E-008
  1.600000000000001E-003   -1.981231923303186E-008
  1.700000000000001E-003   -1.643839235525684E-008
  1.800000000000001E-003   -1.108079904852581E-008
  1.900000000000001E-003   -3.399467515588188E-009
  2.000000000000001E-003    6.954973960286038E-009
  2.100000000000001E-003    2.033600564631112E-008
  2.200000000000001E-003    3.709576325446538E-008
  2.300000000000001E-003    5.757951465271993E-008
  2.400000000000001E-003    8.212021033599116E-008
  2.500000000000001E-003    1.110332972195660E-007
  2.600000000000001E-003    1.446119953170613E-007
  2.700000000000001E-003    1.831232425224989E-007
  2.800000000000001E-003    2.268042347927427E-007
  2.900000000000001E-003    2.758601695009034E-007
  3.000000000000001E-003    3.304627238263872E-007
  3.100000000000001E-003    3.907499173739708E-007
  3.200000000000001E-003    4.568268106311953E-007
  3.300000000000001E-003    5.287678294095685E-007
  3.400000000000001E-003    6.066198213315072E-007
  3.500000000000001E-003    6.904066188626130E-007
  3.600000000000001E-003    7.801342648986855E-007
  3.700000000000001E-003    8.757977655824174E-007
  3.800000000000001E-003    9.773878893947061E-007
  3.900000000000001E-003    1.084899406371898E-006
  4.000000000000001E-003    1.198339125299884E-006
  4.100000000000001E-003    1.317734868106561E-006
  4.200000000000001E-003    1.443144034455935E-006
  4.300000000000001E-003    1.574662298967118E-006
  4.400000000000001E-003    1.712432156387254E-006
  4.500000000000001E-003    1.856650286588529E-006
  4.600000000000002E-003    2.007575043408249E-006
  4.700000000000001E-003    2.165532928236350E-006
  4.800000000000001E-003    2.330923289339434E-006
  4.900000000000002E-003    2.504222696219882E-006
  5.000000000000001E-003    2.685987883485744E-006
  5.100000000000001E-003    2.876857069981252E-006
  5.200000000000001E-003    3.077550592836206E-006
  5.300000000000002E-003    3.288868858821028E-006
  5.400000000000001E-003    3.511691023402931E-006
  5.500000000000001E-003    3.746971247854687E-006
  5.600000000000002E-003    3.995733493981059E-006
  5.700000000000001E-003    4.259067086774318E-006
  5.800000000000001E-003    4.538120675426890E-006
  5.900000000000002E-003    4.834094995585572E-006
  6.000000000000001E-003    5.148237454130594E-006
  6.100000000000001E-003    5.481835593827715E-006
  6.200000000000002E-003    5.836211662300334E-006
  6.300000000000002E-003    6.212716937443134E-006
  6.400000000000001E-003    6.612727640533433E-006
  6.500000000000001E-003    7.037643309913426E-006
  6.600000000000002E-003    7.488884145884664E-006
  6.700000000000001E-003    7.967892035400394E-006
  6.800000000000001E-003    8.476130863048645E-006
  6.900000000000002E-003    9.015090898313556E-006
  7.000000000000001E-003    9.586294138700582E-006
  7.100000000000001E-003    1.019130045782468E-005
  7.200000000000002E-003    1.083171736610304E-005
  7.300000000000002E-003    1.150920715228117E-005
  7.400000000000001E-003    1.222549955404749E-005
  7.500000000000001E-003    1.298240382690350E-005
  7.600000000000002E-003    1.378181976614866E-005
  7.700000000000001E-003    1.462574927819152E-005
  7.800000000000001E-003    1.551631332526315E-005
  7.900000000000001E-003    1.645576080952129E-005
  8.000000000000002E-003    1.744648192156129E-005
  8.100000000000001E-003    1.849101657089549E-005
  8.200000000000001E-003    1.959206919342041E-005
  8.300000000000002E-003    2.075251399074632E-005
  8.400000000000001E-003    2.197540212663748E-005
  8.500000000000002E-003    2.326397007462357E-005
  8.600000000000002E-003    2.462164070650812E-005
  8.700000000000001E-003    2.605202945787909E-005
  8.800000000000002E-003    2.755894236900718E-005
  8.900000000000002E-003    2.914637941673120E-005
  9.000000000000001E-003    3.081853258871726E-005
  9.100000000000002E-003    3.257978211062248E-005
  9.200000000000002E-003    3.443469885392811E-005
  9.300000000000001E-003    3.638804079180927E-005
  9.400000000000002E-003    3.844474889005603E-005
  9.500000000000001E-003    4.060994969262802E-005
  9.600000000000001E-003    4.288895449943923E-005
  9.700000000000002E-003    4.528726358900777E-005
  9.800000000000001E-003    4.781056791956632E-005
  9.900000000000001E-003    5.046475675690875E-005
  1.000000000000000E-002    5.325592197069965E-005
  1.010000000000000E-002    5.619037640376767E-005
  1.020000000000000E-002    5.927464983756524E-005
  1.030000000000000E-002    6.251552512544045E-005
  1.040000000000000E-002    6.592003554274083E-005
  1.050000000000000E-002    6.949549691932058E-005
  1.060000000000000E-002    7.324950773406419E-005
  1.070000000000000E-002    7.718999660083255E-005
  1.080000000000000E-002    8.132521833200585E-005
  1.090000000000000E-002    8.566378760256458E-005
  1.100000000000000E-002    9.021468866023524E-005
  1.110000000000000E-002    9.498730328886964E-005
  1.120000000000000E-002    9.999141899563223E-005
  1.130000000000000E-002    1.052372618772649E-004
  1.140000000000000E-002    1.107354947966295E-004
  1.150000000000000E-002    1.164972352414576E-004
  1.160000000000000E-002    1.225340526194174E-004
  1.170000000000000E-002    1.288580131770790E-004
  1.180000000000000E-002    1.354816394700604E-004
  1.190000000000000E-002    1.424179719816837E-004
  1.200000000000000E-002    1.496805030834591E-004
  1.210000000000000E-002    1.572832462548624E-004
  1.220000000000000E-002    1.652406969054501E-004
  1.230000000000000E-002    1.735678643076146E-004
  1.240000000000000E-002    1.822802268266662E-004
  1.250000000000000E-002    1.913938013863505E-004
  1.260000000000000E-002    2.009250927967424E-004
  1.270000000000000E-002    2.108911480974324E-004
  1.280000000000000E-002    2.213094755462984E-004
  1.290000000000000E-002    2.321981956134728E-004
  1.300000000000000E-002    2.435758984997118E-004
  1.310000000000000E-002    2.554617937040151E-004
  1.320000000000000E-002    2.678755963887005E-004
  1.330000000000000E-002    2.808376752383192E-004
  1.340000000000000E-002    2.943689560371424E-004
  1.350000000000000E-002    3.084910217414441E-004
  1.360000000000000E-002    3.232261156472393E-004
  1.370000000000000E-002    3.385971546569196E-004
  1.380000000000000E-002    3.546277494838817E-004
  1.390000000000000E-002    3.713422680853199E-004
  1.400000000000000E-002    3.887658035060900E-004
  1.410000000000000E-002    4.069242496964959E-004
  1.420000000000000E-002    4.258443106872952E-004
  1.430000000000000E-002    4.455534902800556E-004
  1.440000000000000E-002    4.660802224223584E-004
  1.450000000000000E-002    4.874537277987066E-004
  1.460000000000000E-002    5.097041914576288E-004
  1.470000000000000E-002    5.328626529508438E-004
  1.480000000000000E-002    5.569611260939229E-004
  1.490000000000000E-002    5.820325070358598E-004
  1.500000000000000E-002    6.081106326058724E-004
  1.510000000000000E-002    6.352302454682953E-004
  1.520000000000000E-002    6.634271143846698E-004
  1.530000000000000E-002    6.927378905884156E-004
  1.540000000000000E-002    7.232001231190397E-004
  1.550000000000000E-002    7.548523181814919E-004
  1.560000000000000E-002    7.877339183600206E-004
  1.570000000000000E-002    8.218851402618007E-004
  1.580000000000000E-002    8.573472687543737E-004
  1.590000000000000E-002    8.941622803285425E-004
  1.600000000000000E-002    9.323731565430094E-004
  1.610000000000000E-002    9.720237444953203E-004
  1.620000000000000E-002    1.013158682290463E-003
  1.630000000000000E-002    1.055823586690412E-003
  1.640000000000000E-002    1.100064687315352E-003
  1.650000000000000E-002    1.145929318376852E-003
  1.660000000000000E-002    1.193465626540283E-003
  1.670000000000000E-002    1.242722557797910E-003
  1.680000000000000E-002    1.293749997736125E-003
  1.690000000000000E-002    1.346598787644784E-003
  1.700000000000000E-002    1.401320596501875E-003
  1.710000000000000E-002    1.457967982453222E-003
  1.720000000000000E-002    1.516594681089374E-003
  1.730000000000000E-002    1.577255117023869E-003
  1.740000000000000E-002    1.640004728918763E-003
  1.750000000000000E-002    1.704899927403241E-003
  1.760000000000000E-002    1.771998123428414E-003
  1.770000000000000E-002    1.841357622635125E-003
  1.780000000000000E-002    1.913037553723994E-003
  1.790000000000000E-002    1.987098223693951E-003
  1.800000000000000E-002    2.063600569470625E-003
  1.810000000000000E-002    2.142606521712555E-003
  1.820000000000000E-002    2.224178600772682E-003
  1.830000000000000E-002    2.308380239315166E-003
  1.840000000000000E-002    2.395275326031041E-003
  1.850000000000000E-002    2.484928797553383E-003
  1.860000000000000E-002    2.577405884552902E-003
  1.870000000000000E-002    2.672772476950189E-003