 -4.000000000000000E-002    0.000000000000000E+000
 -3.990000000000000E-002    0.000000000000000E+000
 -3.980000000000000E-002    0.000000000000000E+000
 -3.970000000000000E-002    0.000000000000000E+000
 -3.960000000000000E-002    0.000000000000000E+000
 -3.950000000000000E-002    0.000000000000000E+000
 -3.940000000000000E-002    0.000000000000000E+000
 -3.930000000000000E-002    0.000000000000000E+000
 -3.920000000000000E-002    0.000000000000000E+000
 -3.910000000000000E-002    0.000000000000000E+000
 -3.900000000000000E-002    0.000000000000000E+000
 -3.890000000000000E-002    0.000000000000000E+000
 -3.880000000000000E-002    0.000000000000000E+000
 -3.870000000000000E-002    0.000000000000000E+000
 -3.860000000000000E-002    0.000000000000000E+000
 -3.850000000000000E-002    0.000000000000000E+000
 -3.840000000000000E-002    0.000000000000000E+000
 -3.830000000000000E-002    0.000000000000000E+000
 -3.820000000000000E-002    0.000000000000000E+000
 -3.810000000000000E-002    0.000000000000000E+000
 -3.800000000000000E-002    0.000000000000000E+000
 -3.790000000000000E-002    0.000000000000000E+000
 -3.780000000000000E-002    0.000000000000000E+000
 -3.770000000000000E-002    0.000000000000000E+000
 -3.760000000000000E-002    0.000000000000000E+000
 -3.750000000000000E-002    0.000000000000000E+000
 -3.740000000000000E-002    0.000000000000000E+000
 -3.730000000000000E-002    0.000000000000000E+000
 -3.720000000000000E-002    0.000000000000000E+000
 -3.710000000000000E-002    0.000000000000000E+000
 -3.700000000000000E-002    0.000000000000000E+000
 -3.690000000000000E-002    0.000000000000000E+000
 -3.680000000000000E-002    0.000000000000000E+000
 -3.670000000000000E-002    0.000000000000000E+000
 -3.660000000000000E-002    0.000000000000000E+000
 -3.650000000000000E-002    0.000000000000000E+000
 -3.640000000000000E-002    0.000000000000000E+000
 -3.630000000000000E-002    0.000000000000000E+000
 -3.620000000000000E-002    0.000000000000000E+000
 -3.610000000000000E-002    0.000000000000000E+000
 -3.600000000000000E-002    0.000000000000000E+000
 -3.590000000000000E-002    0.000000000000000E+000
 -3.580000000000000E-002    0.000000000000000E+000
 -3.570000000000000E-002    0.000000000000000E+000
 -3.560000000000000E-002    0.000000000000000E+000
 -3.550000000000000E-002    0.000000000000000E+000
 -3.540000000000000E-002    0.000000000000000E+000
 -3.530000000000000E-002    0.000000000000000E+000
 -3.520000000000000E-002    0.000000000000000E+000
 -3.510000000000000E-002    1.503421992796275E-047
 -3.500000000000000E-002    1.136589114651414E-046
 -3.490000000000000E-002    3.225881131899898E-046
 -3.480000000000000E-002    7.671605552181406E-046
 -3.470000000000000E-002    1.685157689620970E-045
 -3.460000000000000E-002    3.601146212594876E-045
 -3.450000000000000E-002    7.081962675792671E-045
 -3.440000000000000E-002    1.320967967531877E-044
 -3.430000000000000E-002    2.319860369325743E-044
 -3.420000000000000E-002    3.910902698279266E-044
 -3.410000000000000E-002    6.060786805908038E-044
 -3.400000000000000E-002    8.778597468230846E-044
 -3.390000000000000E-002    1.158033442810452E-043
 -3.380000000000000E-002    1.289623785121095E-043
 -3.370000000000000E-002    9.610111555626455E-044
 -3.360000000000000E-002   -4.423533048047877E-044
 -3.350000000000000E-002   -3.939291549776596E-043
 -3.340000000000000E-002   -1.113690009246065E-042
 -3.330000000000000E-002   -2.430659019540381E-042
 -3.320000000000000E-002   -4.637683414360491E-042
 -3.310000000000000E-002   -8.056553632393732E-042
 -3.300000000000000E-002   -1.294601124568262E-041
 -3.290000000000000E-002   -1.931969657983279E-041
 -3.280000000000000E-002   -2.663922004360814E-041
 -3.270000000000000E-002   -3.334992201356804E-041
 -3.260000000000000E-002   -3.626041329852803E-041
 -3.250000000000000E-002   -2.980590501444939E-041
 -3.240000000000000E-002   -5.339830185979198E-042
 -3.230000000000000E-002    4.926434916049408E-041
 -3.220000000000000E-002    1.492718277992521E-040
 -3.210000000000000E-002    3.113685303602414E-040
 -3.200000000000000E-002    5.498270406819914E-040
 -3.190000000000000E-002    8.698087473777681E-040
 -3.180000000000000E-002    1.257366963270841E-039
 -3.170000000000000E-002    1.666429905283056E-039
 -3.160000000000000E-002    2.004383577147061E-039
 -3.150000000000000E-002    2.119814082483749E-039
 -3.140000000000000E-002    1.798516899358894E-039
 -3.130000000000000E-002    7.764865437080446E-040
 -3.120000000000000E-002   -1.219491239354773E-039
 -3.110000000000000E-002   -4.393335810751694E-039
 -3.100000000000000E-002   -8.757358764120315E-039
 -3.090000000000000E-002   -1.397118796912157E-038
 -3.080000000000000E-002   -1.916649972408005E-038
 -3.070000000000000E-002   -2.281145066234980E-038
 -3.060000000000000E-002   -2.270640389132076E-038
 -3.050000000000000E-002   -1.624309636742156E-038
 -3.040000000000000E-002   -1.091484171000496E-039
 -3.030000000000000E-002    2.351721912401656E-038
 -3.020000000000000E-002    5.479287033611389E-038
 -3.010000000000000E-002    8.369358271200590E-038
 -3.000000000000000E-002    9.181566367288299E-038
 -2.990000000000000E-002    4.854849595416206E-038
 -2.980000000000000E-002   -9.027405501503064E-038
 -2.970000000000000E-002   -3.803421053931729E-037
 -2.960000000000000E-002   -8.809315917719412E-037
 -2.950000000000000E-002   -1.638095083122313E-036
 -2.940000000000000E-002   -2.656083087526089E-036
 -2.930000000000000E-002   -3.855046234074007E-036
 -2.920000000000000E-002   -5.015362078381551E-036
 -2.910000000000000E-002   -5.712966777570501E-036
 -2.900000000000000E-002   -5.256128515522426E-036
 -2.890000000000000E-002   -2.642131269966235E-036
 -2.880000000000000E-002    3.438299598009175E-036
 -2.870000000000000E-002    1.451164496913205E-035
 -2.860000000000000E-002    3.210317126241594E-035
 -2.850000000000000E-002    5.734407268863238E-035
 -2.840000000000000E-002    9.036756945583741E-035
 -2.830000000000000E-002    1.294811672248619E-034
 -2.820000000000000E-002    1.701449894660455E-034
 -2.810000000000000E-002    2.038516548399237E-034
 -2.800000000000000E-002    2.170905922162148E-034
 -2.790000000000000E-002    1.906843091762760E-034
 -2.780000000000000E-002    9.989491771592930E-035
 -2.770000000000000E-002   -8.420556183780824E-035
 -2.760000000000000E-002   -3.915542340133006E-034
 -2.750000000000000E-002   -8.475845153765608E-034
 -2.740000000000000E-002   -1.465008075438597E-033
 -2.730000000000000E-002   -2.232821863117029E-033
 -2.720000000000000E-002   -3.102967379423579E-033
 -2.710000000000000E-002   -3.975761562534004E-033
 -2.700000000000000E-002   -4.686100683177009E-033
 -2.690000000000000E-002   -4.993413263900560E-033
 -2.680000000000000E-002   -4.579329067188988E-033
 -2.670000000000000E-002   -3.057831892914831E-033
 -2.660000000000000E-002   -3.054871024511900E-036
 -2.650000000000000E-002    5.000384622810926E-033
 -2.640000000000000E-002    1.228085100890922E-032
 -2.630000000000000E-002    2.197568215118914E-032
 -2.620000000000000E-002    3.390220963228503E-032
 -2.610000000000000E-002    4.741144096748224E-032
 -2.600000000000000E-002    6.123836392628774E-032
 -2.590000000000000E-002    7.337003614786116E-032
 -2.580000000000000E-002    8.095984193032211E-032
 -2.570000000000000E-002    8.032286213521155E-032
 -2.560000000000000E-002    6.705159101683473E-032
 -2.550000000000000E-002    3.629249318899493E-032
 -2.540000000000000E-002   -1.678009732946904E-032
 -2.530000000000000E-002   -9.626612760350288E-032
 -2.520000000000000E-002   -2.046090075949804E-031
 -2.510000000000000E-002   -3.414484661842030E-031
 -2.500000000000000E-002   -5.023083278314144E-031
 -2.490000000000000E-002   -6.772129291915296E-031
 -2.480000000000000E-002   -8.493750219701878E-031
 -2.470000000000000E-002   -9.941527770922080E-031
 -2.460000000000000E-002   -1.078527117018262E-030
 -2.450000000000000E-002   -1.061400290976585E-030
 -2.440000000000000E-002   -8.950539103555831E-031
 -2.430000000000000E-002   -5.281184345879347E-031
 -2.420000000000000E-002    8.961366220796098E-032
 -2.410000000000000E-002    1.000271494008740E-030
 -2.400000000000000E-002    2.228759944616162E-030
 -2.390000000000000E-002    3.771484771149876E-030
 -2.380000000000000E-002    5.583360078165383E-030
 -2.370000000000000E-002    7.563944164619404E-030
 -2.360000000000000E-002    9.544060892352421E-030
 -2.350000000000000E-002    1.127488297163606E-029
 -2.340000000000000E-002    1.242208680565787E-029
 -2.330000000000000E-002    1.256827302091641E-029
 -2.320000000000000E-002    1.122729788261483E-029
 -2.310000000000000E-002    7.874268146431964E-030
 -2.300000000000000E-002    1.994612139794561E-030
 -2.290000000000000E-002   -6.845381931167468E-030
 -2.280000000000000E-002   -1.890603453412781E-029
 -2.270000000000000E-002   -3.416203101023013E-029
 -2.260000000000000E-002   -5.217657413564416E-029
 -2.250000000000000E-002   -7.197274525684421E-029
 -2.240000000000000E-002   -9.191804091246396E-029
 -2.230000000000000E-002   -1.096436382469741E-028
 -2.220000000000000E-002   -1.220240991455065E-028
 -2.210000000000000E-002   -1.252466057196423E-028
 -2.200000000000000E-002   -1.149983664376395E-028
 -2.190000000000000E-002   -8.679725309131409E-029
 -2.180000000000000E-002   -3.648113860052996E-029
 -2.170000000000000E-002    3.914327157711786E-029
 -2.160000000000000E-002    1.415127368772234E-028
 -2.150000000000000E-002    2.694277616557223E-028
 -2.140000000000000E-002    4.181584200778779E-028
 -2.130000000000000E-002    5.786437124330427E-028
 -2.120000000000000E-002    7.369222499445486E-028
 -2.110000000000000E-002    8.739504631019096E-028
 -2.100000000000000E-002    9.659728871638102E-028
 -2.090000000000000E-002    9.855965867674621E-028
 -2.080000000000000E-002    9.036848178984299E-028
 -2.070000000000000E-002    6.921238285479074E-028
 -2.060000000000000E-002    3.274234020897228E-028
 -2.050000000000000E-002   -2.049999840280433E-028
 -2.040000000000000E-002   -9.061440961379527E-028
 -2.030000000000000E-002   -1.758769223722930E-027
 -2.020000000000000E-002   -2.723325916238798E-027
 -2.010000000000000E-002   -3.735109957295630E-027
 -2.000000000000000E-002   -4.703347895098911E-027
 -1.990000000000000E-002   -5.512890182795777E-027
 -1.980000000000000E-002   -6.029077938209921E-027
 -1.970000000000000E-002   -6.106157244025538E-027
 -1.960000000000000E-002   -5.599300291721517E-027
 -1.950000000000000E-002   -4.379912999952169E-027
 -1.940000000000000E-002   -2.353453918036410E-027
 -1.930000000000000E-002    5.214746937700937E-028
 -1.920000000000000E-002    4.214460270833617E-027
 -1.910000000000000E-002    8.607082776449400E-027
 -1.900000000000000E-002    1.348146403678060E-026
 -1.890000000000000E-002    1.851584356756125E-026
 -1.880000000000000E-002    2.328923503634473E-026
 -1.870000000000000E-002    2.729673471840149E-026
 -1.860000000000000E-002    2.997626526300150E-026
 -1.850000000000000E-002    3.074657721074889E-026
 -1.840000000000000E-002    2.905513767958524E-026
 -1.830000000000000E-002    2.443336279838923E-026
 -1.820000000000000E-002    1.655544023913058E-026
 -1.810000000000000E-002    5.296061277055081E-027
 -1.800000000000000E-002   -9.218272491386742E-027
 -1.790000000000000E-002   -2.656991053563407E-026
 -1.780000000000000E-002   -4.602787991084459E-026
 -1.770000000000000E-002   -6.654723433180062E-026
 -1.760000000000000E-002   -8.679286592872946E-026
 -1.750000000000000E-002   -1.051889486434385E-025
 -1.740000000000000E-002   -1.199931238605465E-025
 -1.730000000000000E-002   -1.293923396867862E-025
 -1.720000000000000E-002   -1.316154275507839E-025
 -1.710000000000000E-002   -1.250559102571185E-025
 -1.700000000000000E-002   -1.083975066600701E-025
 -1.690000000000000E-002   -8.073471957198579E-026
 -1.680000000000000E-002   -4.168115893974352E-026
 -1.670000000000000E-002    8.540265897302935E-027
 -1.660000000000000E-002    6.902954613880024E-026
 -1.650000000000000E-002    1.381669144766482E-025
 -1.640000000000000E-002    2.135952247966334E-025
 -1.630000000000000E-002    2.922271379442549E-025
 -1.620000000000000E-002    3.702749316232914E-025
 -1.610000000000000E-002    4.433018337524807E-025
 -1.600000000000000E-002    5.062946049455591E-025
 -1.590000000000000E-002    5.537591669343102E-025
 -1.580000000000000E-002    5.798435768080030E-025
 -1.570000000000000E-002    5.784956320660209E-025
 -1.560000000000000E-002    5.436642663212479E-025
 -1.550000000000000E-002    4.695548814551766E-025
 -1.540000000000000E-002    3.509490860711403E-025
 -1.530000000000000E-002    1.835949182655461E-025
 -1.520000000000000E-002   -3.532865208022545E-026
 -1.510000000000000E-002   -3.066778279316425E-025
 -1.500000000000000E-002   -6.287530827965504E-025
 -1.490000000000000E-002   -9.966718878345639E-025
 -1.480000000000000E-002   -1.401736192243699E-024
 -1.470000000000000E-002   -1.830832775109542E-024
 -1.460000000000000E-002   -2.265911372271338E-024
 -1.450000000000000E-002   -2.683590744930545E-024
 -1.440000000000000E-002   -3.054948823621101E-024
 -1.430000000000000E-002   -3.345550268638349E-024
 -1.420000000000000E-002   -3.515778187194024E-024
 -1.410000000000000E-002   -3.521532034096924E-024
 -1.400000000000000E-002   -3.315373362869928E-024
 -1.390000000000000E-002   -2.848204703981152E-024
 -1.380000000000000E-002   -2.071591084805694E-024
 -1.370000000000000E-002   -9.408347601574315E-025
 -1.360000000000000E-002    5.810648290163385E-025
 -1.350000000000000E-002    2.518458757757133E-024
 -1.340000000000000E-002    4.877013546381307E-024
 -1.330000000000000E-002    7.636590048562994E-024
 -1.320000000000000E-002    1.074314544619822E-023
 -1.310000000000000E-002    1.409993643175210E-023
 -1.300000000000000E-002    1.755857049436985E-023
 -1.290000000000000E-002    2.091069034698538E-023
 -1.280000000000000E-002    2.388147786830123E-023
 -1.270000000000000E-002    2.612644561270762E-023
 -1.260000000000000E-002    2.723335971802693E-023
 -1.250000000000000E-002    2.673132354535249E-023
 -1.240000000000000E-002    2.410910101687949E-023
 -1.230000000000000E-002    1.884473493943113E-023
 -1.220000000000000E-002    1.044784296526157E-023
 -1.210000000000000E-002   -1.484640461608685E-024
 -1.200000000000000E-002   -1.719988377338735E-023
 -1.190000000000000E-002   -3.670984191785243E-023
 -1.180000000000000E-002   -5.970540737472250E-023
 -1.170000000000000E-002   -8.547039091024636E-023
 -1.160000000000000E-002   -1.128040487032656E-022
 -1.150000000000000E-002   -1.399629861010081E-022
 -1.140000000000000E-002   -1.646349593298352E-022
 -1.130000000000000E-002   -1.839582640143936E-022
 -1.120000000000000E-002   -1.945997618950993E-022
 -1.110000000000000E-002   -1.929032879897315E-022
 -1.100000000000000E-002   -1.751167899839026E-022
 -1.090000000000000E-002   -1.377007174792069E-022
 -1.080000000000000E-002   -7.771366796090751E-023
 -1.070000000000000E-002    6.738003825160065E-024
 -1.060000000000000E-002    1.160104722375404E-022
 -1.050000000000000E-002    2.484264424131625E-022
 -1.040000000000000E-002    3.998180280972061E-022
 -1.030000000000000E-002    5.631621699316401E-022
 -1.020000000000000E-002    7.283690057991899E-022
 -1.010000000000000E-002    8.822851007381073E-022
 -1.000000000000000E-002    1.008971006568431E-021
 -9.899999999999999E-003    1.090302671969377E-021
 -9.800000000000000E-003    1.106928992341138E-021
 -9.699999999999999E-003    1.039595306417838E-021
 -9.599999999999999E-003    8.708097823721231E-022
 -9.500000000000000E-003    5.867956455884780E-022
 -9.399999999999999E-003    1.796296173313999E-022
 -9.299999999999999E-003   -3.505703115219997E-022
 -9.200000000000000E-003   -9.935856696111974E-022
 -9.099999999999999E-003   -1.727372970584663E-021
 -8.999999999999999E-003   -2.516901727912323E-021
 -8.900000000000000E-003   -3.313785512150816E-021
 -8.799999999999999E-003   -4.056926010156557E-021
 -8.699999999999999E-003   -4.674351100911166E-021
 -8.600000000000000E-003   -5.086368749898411E-021
 -8.499999999999999E-003   -5.210087215774969E-021
 -8.399999999999999E-003   -4.965234889401486E-021
 -8.300000000000000E-003   -4.281109690027404E-021
 -8.199999999999999E-003   -3.104352476025720E-021
 -8.100000000000000E-003   -1.407115240230613E-021
 -8.000000000000000E-003    8.049355208064120E-022
 -7.899999999999999E-003    3.485425127844039E-021
 -7.800000000000000E-003    6.541630034117558E-021
 -7.699999999999999E-003    9.831132428362633E-021
 -7.599999999999999E-003    1.316152048933827E-020
 -7.499999999999999E-003    1.629378685077763E-020
 -7.399999999999999E-003    1.894995809325363E-020
 -7.299999999999999E-003    2.082524081241673E-020
 -7.199999999999999E-003    2.160477079010692E-020
 -7.100000000000000E-003    2.098464015798273E-020
 -6.999999999999999E-003    1.869658241664969E-020
 -6.899999999999999E-003    1.453529362151557E-020
 -6.800000000000000E-003    8.386940139051400E-021
 -6.699999999999999E-003    2.570610489560797E-022
 -6.599999999999999E-003   -9.704243457524327E-021
 -6.499999999999999E-003   -2.118220003407679E-020
 -6.399999999999999E-003   -3.368480830646209E-020
 -6.299999999999999E-003   -4.654031300290448E-020
 -6.199999999999999E-003   -5.890692806065539E-020
 -6.100000000000000E-003   -6.979674297120844E-020
 -5.999999999999999E-003   -7.811508000064790E-020
 -5.899999999999999E-003   -8.271570088426498E-020
 -5.800000000000000E-003   -8.247140808023539E-020
 -5.699999999999999E-003   -7.635821589397527E-020
 -5.599999999999999E-003   -6.355005479034403E-020
 -5.499999999999999E-003   -4.351945398687716E-020
 -5.399999999999999E-003   -1.613841617995693E-020
 -5.299999999999999E-003    1.822782052378786E-020
 -5.199999999999999E-003    5.864219863612428E-020
 -5.099999999999999E-003    1.035414773695940E-019
 -4.999999999999999E-003    1.507150873081651E-019
 -4.899999999999999E-003    1.973257979310563E-019
 -4.799999999999999E-003    2.399798605030222E-019
 -4.699999999999999E-003    2.748517463271800E-019
 -4.599999999999999E-003    2.978664310694343E-019
 -4.499999999999999E-003    3.049379576789281E-019
 -4.399999999999999E-003    2.922588141440603E-019
 -4.299999999999999E-003    2.566297059924300E-019
 -4.199999999999999E-003    1.958141082836208E-019
 -4.099999999999999E-003    1.088967265370744E-019
 -3.999999999999999E-003   -3.379726874795831E-021
 -3.899999999999999E-003   -1.383282222351621E-019
 -3.799999999999999E-003   -2.911139067257519E-019
 -3.699999999999999E-003   -4.546643684643130E-019
 -3.599999999999999E-003   -6.197237972283609E-019
 -3.499999999999999E-003   -7.750763719153262E-019
 -3.399999999999999E-003   -9.079556106484119E-019
 -3.299999999999999E-003   -1.004647216424980E-018
 -3.199999999999999E-003   -1.051279242066168E-018
 -3.099999999999999E-003   -1.034777782856229E-018
 -2.999999999999999E-003   -9.439509547524721E-019
 -2.899999999999999E-003   -7.706472093657761E-019
 -2.799999999999999E-003   -5.109161167301043E-019
 -2.699999999999999E-003   -1.660897735422763E-019
 -2.599999999999999E-003    2.563097557838422E-019
 -2.499999999999999E-003    7.419348609004450E-019
 -2.399999999999999E-003    1.269343627231909E-018
 -2.299999999999999E-003    1.810185099736402E-018
 -2.199999999999999E-003    2.329907213838933E-018
 -2.099999999999999E-003    2.789030375572546E-018
 -1.999999999999999E-003    3.144999121095614E-018
 -1.899999999999999E-003    3.354577967398090E-018
 -1.799999999999999E-003    3.376724307490783E-018
 -1.699999999999999E-003    3.175812933584642E-018
 -1.599999999999999E-003    2.725053156148650E-018
 -1.499999999999999E-003    2.009887941743031E-018
 -1.399999999999999E-003    1.031140168523501E-018
 -1.299999999999999E-003   -1.923591725869255E-019
 -1.199999999999999E-003   -1.621922871504019E-018
 -1.099999999999999E-003   -3.198203294808130E-018
 -9.999999999999989E-004   -4.841656499708032E-018
 -8.999999999999990E-004   -6.454457603863702E-018
 -7.999999999999990E-004   -7.923969541735417E-018
 -6.999999999999989E-004   -9.127796141751997E-018
 -5.999999999999990E-004   -9.940326173871856E-018
 -4.999999999999989E-004   -1.024058674719521E-017
 -3.999999999999989E-004   -9.921083370964559E-018
 -2.999999999999989E-004   -8.897195818017482E-018
 -1.999999999999989E-004   -7.116604519822811E-018
 -9.999999999999892E-005   -4.568112244000102E-018
  1.084202172485504E-018   -1.289194267440058E-018
  1.000000000000011E-004    2.628437632102476E-018
  2.000000000000011E-004    7.035944189228849E-018
  3.000000000000011E-004    1.172775463220232E-017
  4.000000000000011E-004    1.644576855816454E-017
  5.000000000000011E-004    2.088768525472670E-017
  6.000000000000011E-004    2.471958644711992E-017
  7.000000000000011E-004    2.759263073728819E-017
  8.000000000000011E-004    2.916342501022061E-017
  9.000000000000012E-004    2.911733456834085E-017
  1.000000000000001E-003    2.719365734095524E-017
  1.100000000000001E-003    2.321133752366365E-017
  1.200000000000001E-003    1.709359416026950E-017
  1.300000000000001E-003    8.889674201637354E-018
  1.400000000000001E-003   -1.208150284076459E-018
  1.500000000000001E-003   -1.285424530162459E-017
  1.600000000000001E-003   -2.554764913441959E-017
  1.700000000000001E-003   -3.863998259838837E-017
  1.800000000000001E-003   -5.135431259264313E-017
  1.900000000000001E-003   -6.281535623122876E-017
  2.000000000000001E-003   -7.209095925369304E-017
  2.100000000000001E-003   -7.824380819563814E-017
  2.200000000000001E-003   -8.039165439711299E-017
  2.300000000000001E-003   -7.777321085698790E-017
  2.400000000000001E-003   -6.981650288224382E-017
  2.500000000000001E-003   -5.620524448351309E-017
  2.600000000000001E-003   -3.693877230039966E-017
  2.700000000000001E-003   -1.238038629482852E-017
  2.800000000000001E-003    1.671078955137512E-017
  2.900000000000001E-003    4.916912632012809E-017
  3.000000000000001E-003    8.343687039938617E-017
  3.100000000000001E-003    1.176063189671502E-016
  3.200000000000001E-003    1.494914089520492E-016
  3.300000000000001E-003    1.767280903612153E-016
  3.400000000000001E-003    1.969010250692747E-016
  3.500000000000001E-003    2.076923957690271E-016
  3.600000000000001E-003    2.070458716631133E-016
  3.700000000000001E-003    1.933372888345195E-016
  3.800000000000001E-003    1.655414151655700E-016
  3.900000000000001E-003    1.233837266036162E-016
  4.000000000000001E-003    6.746459607071775E-017
  4.100000000000001E-003   -6.558258708830331E-019
  4.200000000000001E-003   -7.842324392540986E-017
  4.300000000000001E-003   -1.623142843547235E-016
  4.400000000000001E-003   -2.479279036715330E-016
  4.500000000000001E-003   -3.301457524183229E-016
  4.600000000000002E-003   -4.033604211358085E-016
  4.700000000000001E-003   -4.617659523178093E-016
  4.800000000000001E-003   -4.996997694372592E-016
  4.900000000000002E-003   -5.120207115753095E-016
  5.000000000000001E-003   -4.945034886277859E-016
  5.100000000000001E-003   -4.442264204556495E-016
  5.200000000000001E-003   -3.599265880172824E-016
  5.300000000000002E-003   -2.422953769370622E-016
  5.400000000000001E-003   -9.418839619822615E-017
  5.500000000000001E-003    7.927470972207478E-017
  5.600000000000002E-003    2.707400428102114E-016
  5.700000000000001E-003    4.707938098414035E-016
  5.800000000000001E-003    6.682874841137806E-016
  5.900000000000002E-003    8.508114949815740E-016
  6.000000000000001E-003    1.005306614374648E-015
  6.100000000000001E-003    1.118790497364442E-015
  6.200000000000002E-003    1.179168904922343E-015
  6.300000000000002E-003    1.176089555141188E-015
  6.400000000000001E-003    1.101792930075819E-015
  6.500000000000001E-003    9.519051963536782E-016
  6.600000000000002E-003    7.261176565727137E-016
  6.700000000000001E-003    4.286980171178864E-016
  6.800000000000001E-003    6.878138719043575E-017
  6.900000000000002E-003   -3.396018208363471E-016
  7.000000000000001E-003   -7.777952061144629E-016
  7.100000000000001E-003   -1.223097681449807E-015
  7.200000000000002E-003   -1.649663305262504E-015
  7.300000000000002E-003   -2.029694606073289E-015
  7.400000000000001E-003   -2.334896126813938E-015
  7.500000000000001E-003   -2.538128676816465E-015
  7.600000000000002E-003   -2.615182586489488E-015
  7.700000000000001E-003   -2.546580895430313E-015
  7.800000000000001E-003   -2.319304496605888E-015
  7.900000000000001E-003   -1.928323065733843E-015
  8.000000000000002E-003   -1.377819244350868E-015
  8.100000000000001E-003   -6.819949451235913E-016
  8.200000000000001E-003    1.346356409552500E-016
  8.300000000000002E-003    1.037544878443430E-015
  8.400000000000001E-003    1.983128757458574E-015
  8.500000000000002E-003    2.920296829647625E-015
  8.600000000000002E-003    3.792699644085976E-015
  8.700000000000001E-003    4.541514510938643E-015
  8.800000000000002E-003    5.108700876507920E-015
  8.900000000000002E-003    5.440562437538955E-015
  9.000000000000001E-003    5.491445289648972E-015
  9.100000000000002E-003    5.227355145669963E-015
  9.200000000000002E-003    4.629267216129699E-015
  9.300000000000001E-003    3.695890956559640E-015
  9.400000000000002E-003    2.445664757210651E-015
  9.500000000000001E-003    9.177721902540009E-016
  9.600000000000001E-003   -8.279811550204645E-016
  9.700000000000002E-003   -2.712552776374915E-015
  9.800000000000001E-003   -4.640350560070831E-015
  9.900000000000001E-003   -6.503197040354675E-015
  1.000000000000000E-002   -8.185468577712514E-015
  1.010000000000000E-002   -9.570208124470908E-015
  1.020000000000000E-002   -1.054594443111058E-014
  1.030000000000000E-002   -1.101387429306244E-014
  1.040000000000000E-002   -1.089500414033391E-014
  1.050000000000000E-002   -1.013682232280888E-014
  1.060000000000000E-002   -8.719036338550430E-015
  1.070000000000000E-002   -6.657954499087975E-015
  1.080000000000000E-002   -4.009100156514900E-015
  1.090000000000000E-002   -8.677445584308848E-016
  1.100000000000000E-002    2.632884139138604E-015
  1.110000000000000E-002    6.325805610086274E-015
  1.120000000000000E-002    1.001690165814946E-014
  1.130000000000000E-002    1.349374386597598E-014
  1.140000000000000E-002    1.653631600976870E-014
  1.150000000000000E-002    1.892916612503868E-014
  1.160000000000000E-002    2.047438337812185E-014
  1.170000000000000E-002    2.100470365063303E-014
  1.180000000000000E-002    2.039599370322148E-014
  1.190000000000000E-002    1.857829388895381E-014
  1.200000000000000E-002    1.554468217449899E-014
  1.210000000000000E-002    1.135722799241614E-014
  1.220000000000000E-002    6.149456692324245E-015
  1.230000000000000E-002    1.248835145874675E-016
  1.240000000000000E-002   -6.448613126420502E-015
  1.250000000000000E-002   -1.324860553371672E-014
  1.260000000000000E-002   -1.991187495388836E-014
  1.270000000000000E-002   -2.605165356196342E-014
  1.280000000000000E-002   -3.127764010052354E-014
  1.290000000000000E-002   -3.521787689610095E-014
  1.300000000000000E-002   -3.754131691643153E-014
  1.310000000000000E-002   -3.797995461796662E-014
  1.320000000000000E-002   -3.634917483263212E-014
  1.330000000000000E-002   -3.256499427138383E-014
  1.340000000000000E-002   -2.665704583140818E-014
  1.350000000000000E-002   -1.877618641508554E-014
  1.360000000000000E-002   -9.195896205696095E-015
  1.370000000000000E-002    1.693086832140574E-015
  1.380000000000000E-002    1.339514537484011E-014
  1.390000000000000E-002    2.532902791672869E-014
  1.400000000000000E-002    3.685343035019208E-014
  1.410000000000000E-002    4.729793673184664E-014
  1.420000000000000E-002    5.599807794211139E-014
  1.430000000000000E-002    6.233283624396652E-014
  1.440000000000000E-002    6.576268827110039E-014
  1.450000000000000E-002    6.586612599505122E-014
  1.460000000000000E-002    6.237245685213746E-014
  1.470000000000000E-002    5.518880145798138E-014
  1.480000000000000E-002    4.441926923034153E-014
  1.490000000000000E-002    3.037463583639277E-014
  1.500000000000000E-002    1.357122297218094E-014
  1.510000000000000E-002   -5.281800952287939E-015
  1.520000000000000E-002   -2.530692208682046E-014
  1.530000000000000E-002   -4.549417633191184E-014
  1.540000000000000E-002   -6.474716732772911E-014
  1.550000000000000E-002   -8.193757050657403E-014
  1.560000000000000E-002   -9.596566202947343E-014
  1.570000000000000E-002   -1.058237459676312E-013
  1.580000000000000E-002   -1.106593711317927E-013
  1.590000000000000E-002   -1.098345419391278E-013
  1.600000000000000E-002   -1.029772584553488E-013
  1.610000000000000E-002   -9.002191807620593E-014
  1.620000000000000E-002   -7.123545491682879E-014
  1.630000000000000E-002   -4.722656771713138E-014
  1.640000000000000E-002   -1.893635292977214E-014
  1.650000000000000E-002    1.239051334166117E-014
  1.660000000000000E-002    4.525382526436504E-014
  1.670000000000000E-002    7.796362431048772E-014
  1.680000000000000E-002    1.087214584640666E-013
  1.690000000000000E-002    1.357131148608428E-013
  1.700000000000000E-002    1.572087587320001E-013
  1.710000000000000E-002    1.716650430126177E-013
  1.720000000000000E-002    1.778232760698785E-013
  1.730000000000000E-002    1.747982996170276E-013
  1.740000000000000E-002    1.621519118931962E-013
  1.750000000000000E-002    1.399459714030787E-013
  1.760000000000000E-002    1.087707802620073E-013
  1.770000000000000E-002    6.974566234012040E-014
  1.780000000000000E-002    2.448997824629812E-014
  1.790000000000000E-002   -2.493549706561035E-014
  1.800000000000000E-002   -7.611531519922065E-014
  1.810000000000000E-002   -1.263910726873734E-013
  1.820000000000000E-002   -1.729929194007092E-013
  1.830000000000000E-002   -2.131852336148481E-013
  1.840000000000000E-002   -2.444183825491824E-013
  1.850000000000000E-002   -2.644791270034375E-013
  1.860000000000000E-002   -2.716309396750901E-013
  1.870000000000000E-002   -2.647359051683260E-013