 -4.000000000000000E-002    0.000000000000000E+000
 -3.990000000000000E-002    0.000000000000000E+000
 -3.980000000000000E-002    0.000000000000000E+000
 -3.970000000000000E-002   -1.024430995267154E-015
 -3.960000000000000E-002   -6.398212947894367E-015
 -3.950000000000000E-002   -2.282973048083829E-014
 -3.940000000000000E-002   -6.137803164184568E-014
 -3.930000000000000E-002   -1.387561023856412E-013
 -3.920000000000000E-002   -2.794280828786578E-013
 -3.910000000000000E-002   -5.185392348481956E-013
 -3.900000000000000E-002   -9.049758449612360E-013
 -3.890000000000000E-002   -1.503024809597675E-012
 -3.880000000000000E-002   -2.390465633164285E-012
 -3.870000000000000E-002   -3.650768808910165E-012
 -3.860000000000000E-002   -5.357578809056713E-012
 -3.850000000000000E-002   -7.550845110313356E-012
 -3.840000000000000E-002   -1.020576292057519E-011
 -3.830000000000000E-002   -1.319781456151150E-011
 -3.820000000000000E-002   -1.626919222320638E-011
 -3.810000000000000E-002   -1.900349673408562E-011
 -3.800000000000000E-002   -2.081615445125081E-011
 -3.790000000000000E-002   -2.096748794447361E-011
 -3.780000000000000E-002   -1.860332611704712E-011
 -3.770000000000000E-002   -1.282498131486512E-011
 -3.760000000000000E-002   -2.786186660744997E-012
 -3.750000000000000E-002    1.218994766935764E-011
 -3.740000000000000E-002    3.248531270763961E-011
 -3.730000000000000E-002    5.806711939324806E-011
 -3.720000000000000E-002    8.839099370374975E-011
 -3.710000000000000E-002    1.223430522951565E-010
 -3.700000000000000E-002    1.582351631795200E-010
 -3.690000000000000E-002    1.938626284942975E-010
 -3.680000000000000E-002    2.266271026248164E-010
 -3.670000000000000E-002    2.537198387480838E-010
 -3.660000000000000E-002    2.723525600218261E-010
 -3.650000000000000E-002    2.800158605835728E-010
 -3.640000000000000E-002    2.747398780739291E-010
 -3.630000000000000E-002    2.553286946800409E-010
 -3.620000000000000E-002    2.215405280646385E-010
 -3.610000000000000E-002    1.741894935567283E-010
 -3.600000000000000E-002    1.151508406205678E-010
 -3.590000000000000E-002    4.726138178925553E-011
 -3.580000000000000E-002   -2.588259708148084E-011
 -3.570000000000000E-002   -1.002168787052622E-010
 -3.560000000000000E-002   -1.715663429956112E-010
 -3.550000000000000E-002   -2.360361877955203E-010
 -3.540000000000000E-002   -2.903998651803412E-010
 -3.530000000000000E-002   -3.324456570804492E-010
 -3.520000000000000E-002   -3.612459041123602E-010
 -3.510000000000000E-002   -3.773186999790516E-010
 -3.500000000000000E-002   -3.826612926829768E-010
 -3.490000000000000E-002   -3.806450859396212E-010
 -3.480000000000000E-002   -3.757747493026097E-010
 -3.470000000000000E-002   -3.733253890198914E-010
 -3.460000000000000E-002   -3.788830820465575E-010
 -3.450000000000000E-002   -3.978212581082985E-010
 -3.440000000000000E-002   -4.347536884287153E-010
 -3.430000000000000E-002   -4.930045901973879E-010
 -3.420000000000000E-002   -5.741377684710751E-010
 -3.410000000000000E-002   -6.775849584316786E-010
 -3.400000000000000E-002   -8.004048398242162E-010
 -3.390000000000000E-002   -9.371989805617163E-010
 -3.380000000000000E-002   -1.080200747806372E-009
 -3.370000000000000E-002   -1.219545597957856E-009
 -3.360000000000000E-002   -1.343714592203854E-009
 -3.350000000000000E-002   -1.440137690695626E-009
 -3.340000000000000E-002   -1.495926558825922E-009
 -3.330000000000000E-002   -1.498697341597038E-009
 -3.320000000000000E-002   -1.437432961511898E-009
 -3.310000000000000E-002   -1.303325821315675E-009
 -3.300000000000000E-002   -1.090532809844967E-009
 -3.290000000000000E-002   -7.967783050768897E-010
 -3.280000000000000E-002   -4.237361745384353E-010
 -3.270000000000000E-002    2.286198097824022E-011
 -3.260000000000000E-002    5.334323917924694E-010
 -3.250000000000000E-002    1.095078309529809E-009
 -3.240000000000000E-002    1.692445871684271E-009
 -3.230000000000000E-002    2.308858806187544E-009
 -3.220000000000000E-002    2.927646601153832E-009
 -3.210000000000000E-002    3.533562791189674E-009
 -3.200000000000000E-002    4.114149988118870E-009
 -3.190000000000000E-002    4.660900956947732E-009
 -3.180000000000000E-002    5.170052519797763E-009
 -3.170000000000000E-002    5.642871208432278E-009
 -3.160000000000000E-002    6.085302261072720E-009
 -3.150000000000000E-002    6.506915511687484E-009
 -3.140000000000000E-002    6.919124165026784E-009
 -3.130000000000000E-002    7.332731479015702E-009
 -3.120000000000000E-002    7.754936347290192E-009
 -3.110000000000000E-002    8.185988009129376E-009
 -3.100000000000000E-002    8.615759171365967E-009
 -3.090000000000000E-002    9.020549819584775E-009
 -3.080000000000000E-002    9.360457343594808E-009
 -3.070000000000000E-002    9.577666240983186E-009
 -3.060000000000000E-002    9.595960625477174E-009
 -3.050000000000000E-002    9.321751218872452E-009
 -3.040000000000000E-002    8.646787808693246E-009
 -3.030000000000000E-002    7.452675747733961E-009
 -3.020000000000000E-002    5.617188346218754E-009
 -3.010000000000000E-002    3.022231481454323E-009
 -3.000000000000000E-002   -4.367151063867502E-010
 -2.990000000000000E-002   -4.840049798673615E-009
 -2.980000000000000E-002   -1.023278669472907E-008
 -2.970000000000000E-002   -1.661304143903856E-008
 -2.960000000000000E-002   -2.392075493072908E-008
 -2.950000000000000E-002   -3.202719356920889E-008
 -2.940000000000000E-002   -4.072574000780205E-008
 -2.930000000000000E-002   -4.972435521219054E-008
 -2.920000000000000E-002   -5.864023043958233E-008
 -2.910000000000000E-002   -6.699686325513966E-008
 -2.900000000000000E-002   -7.422393977300546E-008
 -2.890000000000000E-002   -7.966001210992770E-008
 -2.880000000000000E-002   -8.255821291028055E-008
 -2.870000000000000E-002   -8.209478482787443E-008
 -2.860000000000000E-002   -7.738054406295221E-008
 -2.850000000000000E-002   -6.747454887871908E-008
 -2.840000000000000E-002   -5.140018084477833E-008
 -2.830000000000000E-002   -2.816267939559352E-008
 -2.820000000000000E-002    3.232304547530747E-009
 -2.810000000000000E-002    4.375943002731622E-008
 -2.800000000000000E-002    9.435524879833676E-008
 -2.790000000000000E-002    1.559005133085435E-007
 -2.780000000000000E-002    2.292044178376394E-007
 -2.770000000000000E-002    3.149916570633081E-007
 -2.760000000000000E-002    4.138924577259639E-007
 -2.750000000000000E-002    5.264369664321539E-007
 -2.740000000000000E-002    6.530530153637638E-007
 -2.730000000000000E-002    7.940690117120687E-007
 -2.720000000000000E-002    9.497206250557170E-007
 -2.710000000000000E-002    1.120162019685052E-006
 -2.700000000000000E-002    1.305480163175046E-006
 -2.690000000000000E-002    1.505712423704146E-006
 -2.680000000000000E-002    1.720865874265703E-006
 -2.670000000000000E-002    1.950938467099904E-006
 -2.660000000000000E-002    2.195939756323048E-006
 -2.650000000000000E-002    2.455911411777437E-006
 -2.640000000000000E-002    2.730946229416354E-006
 -2.630000000000000E-002    3.021205126150714E-006
 -2.620000000000000E-002    3.326932162263245E-006
 -2.610000000000000E-002    3.648465873576745E-006
 -2.600000000000000E-002    3.986249903825183E-006
 -2.590000000000000E-002    4.340840251689414E-006
 -2.580000000000000E-002    4.712910635772828E-006
 -2.570000000000000E-002    5.103258781215698E-006
 -2.560000000000000E-002    5.512809486170061E-006
 -2.550000000000000E-002    5.942619957025570E-006
 -2.540000000000000E-002    6.393885254384237E-006
 -2.530000000000000E-002    6.867944066069815E-006
 -2.520000000000000E-002    7.366287119547494E-006
 -2.510000000000000E-002    7.890563986351140E-006
 -2.500000000000000E-002    8.442592975179194E-006
 -2.490000000000000E-002    9.024369927109853E-006
 -2.480000000000000E-002    9.638076144148929E-006
 -2.470000000000000E-002    1.028608242487693E-005
 -2.460000000000000E-002    1.097095489147849E-005
 -2.450000000000000E-002    1.169545121579071E-005
 -2.440000000000000E-002    1.246251851128770E-005
 -2.430000000000000E-002    1.327528451278892E-005
 -2.420000000000000E-002    1.413703976688728E-005
 -2.410000000000000E-002    1.505122185877031E-005
 -2.400000000000000E-002    1.602139219680410E-005
 -2.390000000000000E-002    1.705121352644964E-005
 -2.380000000000000E-002    1.814441989196359E-005
 -2.370000000000000E-002    1.930479380227511E-005
 -2.360000000000000E-002    2.053614534991801E-005
 -2.350000000000000E-002    2.184228948826199E-005
 -2.340000000000000E-002    2.322703681390446E-005
 -2.330000000000000E-002    2.469418695836512E-005
 -2.320000000000000E-002    2.624753705999315E-005
 -2.310000000000000E-002    2.789089067596464E-005
 -2.300000000000000E-002    2.962808380885461E-005
 -2.290000000000000E-002    3.146302001678132E-005
 -2.280000000000000E-002    3.339971646578748E-005
 -2.270000000000000E-002    3.544234932822822E-005
 -2.260000000000000E-002    3.759531174649550E-005
 -2.250000000000000E-002    3.986327628364430E-005
 -2.240000000000000E-002    4.225125393785691E-005
 -2.230000000000000E-002    4.476465084172965E-005
 -2.220000000000000E-002    4.740933480565184E-005
 -2.210000000000000E-002    5.019166287507762E-005
 -2.200000000000000E-002    5.311854189150456E-005
 -2.190000000000000E-002    5.619744845778792E-005
 -2.180000000000000E-002    5.943644478413227E-005
 -2.170000000000000E-002    6.284419528271382E-005
 -2.160000000000000E-002    6.642995268803334E-005
 -2.150000000000000E-002    7.020355585754945E-005
 -2.140000000000000E-002    7.417538976238997E-005
 -2.130000000000000E-002    7.835637731969312E-005
 -2.120000000000000E-002    8.275792891540817E-005
 -2.110000000000000E-002    8.739191477380514E-005
 -2.100000000000000E-002    9.227063414779933E-005
 -2.090000000000000E-002    9.740677050850301E-005
 -2.080000000000000E-002    1.028134011141770E-004
 -2.070000000000000E-002    1.085039349511846E-004
 -2.060000000000000E-002    1.144921430534401E-004
 -2.050000000000000E-002    1.207921361654027E-004
 -2.040000000000000E-002    1.274184032684526E-004
 -2.030000000000000E-002    1.343858098681143E-004
 -2.020000000000000E-002    1.417096420191089E-004
 -2.010000000000000E-002    1.494056558601722E-004
 -2.000000000000000E-002    1.574901106113925E-004
 -1.990000000000000E-002    1.659798349122526E-004
 -1.980000000000000E-002    1.748922617877488E-004
 -1.970000000000000E-002    1.842455232025573E-004
 -1.960000000000000E-002    1.940584589915532E-004
 -1.950000000000000E-002    2.043507147807984E-004
 -1.940000000000000E-002    2.151427914865028E-004
 -1.930000000000000E-002    2.264560534394062E-004
 -1.920000000000000E-002    2.383128366920735E-004
 -1.910000000000000E-002    2.507364464856484E-004
 -1.900000000000000E-002    2.637511989816923E-004
 -1.890000000000000E-002    2.773824831093778E-004
 -1.880000000000000E-002    2.916567501118092E-004
 -1.870000000000000E-002    3.066015559407907E-004
 -1.860000000000000E-002    3.222455660417701E-004
 -1.850000000000000E-002    3.386186367036537E-004
 -1.840000000000000E-002    3.557516794599552E-004
 -1.830000000000000E-002    3.736768979408895E-004
 -1.820000000000000E-002    3.924275616066356E-004
 -1.810000000000000E-002    4.120382019060389E-004
 -1.800000000000000E-002    4.325445388047962E-004
 -1.790000000000000E-002    4.539834610542481E-004
 -1.780000000000000E-002    4.763931202563036E-004
 -1.770000000000000E-002    4.998128684980693E-004
 -1.760000000000000E-002    5.242833137435959E-004
 -1.750000000000000E-002    5.498463025997228E-004
 -1.740000000000000E-002    5.765449486775254E-004
 -1.730000000000000E-002    6.044236509557212E-004
 -1.720000000000000E-002    6.335281396468422E-004
 -1.710000000000000E-002    6.639054259389428E-004
 -1.700000000000000E-002    6.956038076208974E-004
 -1.690000000000000E-002    7.286730591349010E-004
 -1.680000000000000E-002    7.631642573548356E-004
 -1.670000000000000E-002    7.991299360102491E-004
 -1.660000000000000E-002    8.366240802756029E-004
 -1.650000000000000E-002    8.757021913127980E-004
 -1.640000000000000E-002    9.164212458315058E-004
 -1.630000000000000E-002    9.588398250265775E-004
 -1.620000000000000E-002    1.003018093414344E-003
 -1.610000000000000E-002    1.049017826942792E-003
 -1.600000000000000E-002    1.096902594705250E-003
 -1.590000000000000E-002    1.146737674189541E-003
 -1.580000000000000E-002    1.198589989512658E-003
 -1.570000000000000E-002    1.252528427321419E-003
 -1.560000000000000E-002    1.308623526369257E-003
 -1.550000000000000E-002    1.366947850781868E-003
 -1.540000000000000E-002    1.427575621180896E-003
 -1.530000000000000E-002    1.490582983761574E-003
 -1.520000000000000E-002    1.556047962766367E-003
 -1.510000000000000E-002    1.624050291025141E-003
 -1.500000000000000E-002    1.694671669496620E-003
 -1.490000000000000E-002    1.767995518177296E-003
 -1.480000000000000E-002    1.844106946068779E-003
 -1.470000000000000E-002    1.923092805368788E-003
 -1.460000000000000E-002    2.005041709900963E-003
 -1.450000000000000E-002    2.090043946142914E-003
 -1.440000000000000E-002    2.178191376211504E-003
 -1.430000000000000E-002    2.269577441572604E-003
 -1.420000000000000E-002    2.364297179419897E-003
 -1.410000000000000E-002    2.462447291572618E-003
 -1.400000000000000E-002    2.564125872054541E-003
 -1.390000000000000E-002    2.669432918929807E-003
 -1.380000000000000E-002    2.778469467734709E-003
 -1.370000000000000E-002    2.891338230411111E-003
 -1.360000000000000E-002    3.008143734602081E-003
 -1.350000000000000E-002    3.128991507903785E-003
 -1.340000000000000E-002    3.253988747731442E-003
 -1.330000000000000E-002    3.383244018123242E-003
 -1.320000000000000E-002    3.516867220689887E-003
 -1.310000000000000E-002    3.654969423477491E-003
 -1.300000000000000E-002    3.797663185059202E-003
 -1.290000000000000E-002    3.945061914160841E-003
 -1.280000000000000E-002    4.097280105408360E-003
 -1.270000000000000E-002    4.254433245613169E-003
 -1.260000000000000E-002    4.416637708939909E-003
 -1.250000000000000E-002    4.584010566049151E-003
 -1.240000000000000E-002    4.756669545677069E-003
 -1.230000000000000E-002    4.934732716853361E-003
 -1.220000000000000E-002    5.118318847357100E-003
 -1.210000000000000E-002    5.307546835757533E-003
 -1.200000000000000E-002    5.502535694759781E-003
 -1.190000000000000E-002    5.703404235342447E-003
 -1.180000000000000E-002    5.910272110372426E-003
 -1.170000000000000E-002    6.123257842855414E-003
 -1.160000000000000E-002    6.342479798852141E-003
 -1.150000000000000E-002    6.568055697085701E-003
 -1.140000000000000E-002    6.800103065723947E-003
 -1.130000000000000E-002    7.038737984855529E-003
 -1.120000000000000E-002    7.284075135741375E-003
 -1.110000000000000E-002    7.536229096504825E-003
 -1.100000000000000E-002    7.795311153985663E-003
 -1.090000000000000E-002    8.061432168583710E-003
 -1.080000000000000E-002    8.334700896458816E-003
 -1.070000000000000E-002    8.615223100842928E-003
 -1.060000000000000E-002    8.903103170511295E-003
 -1.050000000000000E-002    9.198441906164919E-003
 -1.040000000000000E-002    9.501337758623713E-003
 -1.030000000000000E-002    9.811886105643477E-003
 -1.020000000000000E-002    1.013017827333666E-002
 -1.010000000000000E-002    1.045630312110704E-002
 -1.000000000000000E-002    1.079034451334109E-002
 -9.899999999999999E-003    1.113238203861271E-002
 -9.800000000000000E-003    1.148249227767602E-002
 -9.699999999999999E-003    1.184074428677546E-002
 -9.599999999999999E-003    1.220720570080661E-002
 -9.500000000000000E-003    1.258193540462899E-002
 -9.399999999999999E-003    1.296498847305400E-002
 -9.299999999999999E-003    1.335641409284837E-002
 -9.200000000000000E-003    1.375625296230979E-002
 -9.099999999999999E-003    1.416454065194672E-002
 -8.999999999999999E-003    1.458130608187890E-002
 -8.900000000000000E-003    1.500656804666427E-002
 -8.799999999999999E-003    1.544034142013483E-002
 -8.699999999999999E-003    1.588262947616362E-002
 -8.600000000000000E-003    1.633342983099978E-002
 -8.499999999999999E-003    1.679272840838639E-002
 -8.399999999999999E-003    1.726050394077958E-002
 -8.300000000000000E-003    1.773672446866761E-002
 -8.199999999999999E-003    1.822134836497919E-002
 -8.100000000000000E-003    1.871432436433037E-002
 -8.000000000000000E-003    1.921558788770435E-002
 -7.899999999999999E-003    1.972506540639132E-002
 -7.800000000000000E-003    2.024266984518337E-002
 -7.699999999999999E-003    2.076830359681028E-002
 -7.599999999999999E-003    2.130185635449998E-002
 -7.499999999999999E-003    2.184320414317552E-002
 -7.399999999999999E-003    2.239220879407205E-002
 -7.299999999999999E-003    2.294872000320866E-002
 -7.199999999999999E-003    2.351257134494912E-002
 -7.100000000000000E-003    2.408358392571236E-002
 -6.999999999999999E-003    2.466156183553596E-002
 -6.899999999999999E-003    2.524629507157151E-002
 -6.800000000000000E-003    2.583755701454719E-002
 -6.699999999999999E-003    2.643510483161824E-002
 -6.599999999999999E-003    2.703868039235117E-002
 -6.499999999999999E-003    2.764800812357877E-002
 -6.399999999999999E-003    2.826279460787310E-002
 -6.299999999999999E-003    2.888272888317683E-002
 -6.199999999999999E-003    2.950748237222992E-002
 -6.100000000000000E-003    3.013670900316337E-002
 -5.999999999999999E-003    3.077004384443997E-002
 -5.899999999999999E-003    3.140710037563670E-002
 -5.800000000000000E-003    3.204747748453512E-002
 -5.699999999999999E-003    3.269075093533166E-002
 -5.599999999999999E-003    3.333647750587684E-002
 -5.499999999999999E-003    3.398419359973207E-002
 -5.399999999999999E-003    3.463341467085309E-002
 -5.299999999999999E-003    3.528363500413285E-002
 -5.199999999999999E-003    3.593432993513607E-002
 -5.099999999999999E-003    3.658494656387182E-002
 -4.999999999999999E-003    3.723491968836639E-002
 -4.899999999999999E-003    3.788365735356391E-002
 -4.799999999999999E-003    3.853054484510755E-002
 -4.699999999999999E-003    3.917494999651300E-002
 -4.599999999999999E-003    3.981621065448796E-002
 -4.499999999999999E-003    4.045364887387428E-002
 -4.399999999999999E-003    4.108656243199670E-002
 -4.299999999999999E-003    4.171422842178364E-002
 -4.199999999999999E-003    4.233590164559770E-002
 -4.099999999999999E-003    4.295081103009230E-002
 -3.999999999999999E-003    4.355816504383928E-002
 -3.899999999999999E-003    4.415715137788537E-002
 -3.799999999999999E-003    4.474693230173945E-002
 -3.699999999999999E-003    4.532665223996531E-002
 -3.599999999999999E-003    4.589543110091282E-002
 -3.499999999999999E-003    4.645236954385740E-002
 -3.399999999999999E-003    4.699654288623926E-002
 -3.299999999999999E-003    4.752700686380423E-002
 -3.199999999999999E-003    4.804279792892422E-002
 -3.099999999999999E-003    4.854293167470067E-002
 -2.999999999999999E-003    4.902640331950439E-002
 -2.899999999999999E-003    4.949218402427922E-002
 -2.799999999999999E-003    4.993923172074291E-002
 -2.699999999999999E-003    5.036648465794251E-002
 -2.599999999999999E-003    5.077286335025714E-002
 -2.499999999999999E-003    5.115726392200549E-002
 -2.399999999999999E-003    5.151857476294328E-002
 -2.299999999999999E-003    5.185566547559897E-002
 -2.199999999999999E-003    5.216738864347687E-002
 -2.099999999999999E-003    5.245257906640739E-002
 -1.999999999999999E-003    5.271006340992557E-002
 -1.899999999999999E-003    5.293865015118675E-002
 -1.799999999999999E-003    5.313713755837157E-002
 -1.699999999999999E-003    5.330431020647237E-002
 -1.599999999999999E-003    5.343894595615618E-002
 -1.499999999999999E-003    5.353980937307706E-002
 -1.399999999999999E-003    5.360565951854976E-002
 -1.299999999999999E-003    5.363524226999485E-002
 -1.199999999999999E-003    5.362730055162343E-002
 -1.099999999999999E-003    5.358057358892377E-002
 -9.999999999999989E-004    5.349379526361115E-002
 -8.999999999999990E-004    5.336569472069842E-002
 -7.999999999999990E-004    5.319499950390066E-002
 -6.999999999999989E-004    5.298044155932293E-002
 -5.999999999999990E-004    5.272074747179317E-002
 -4.999999999999989E-004    5.241465279241585E-002
 -3.999999999999989E-004    5.206089449584685E-002
 -2.999999999999989E-004    5.165821755491341E-002
 -1.999999999999989E-004    5.120537138836683E-002
 -9.999999999999892E-005    5.070111532358126E-002
  1.084202172485504E-018    5.014421484733078E-002
  1.000000000000011E-004    4.953345431813132E-002
  2.000000000000011E-004    4.886762444550504E-002
  3.000000000000011E-004    4.814553550414682E-002
  4.000000000000011E-004    4.736601170775100E-002
  5.000000000000011E-004    4.652790279642156E-002
  6.000000000000011E-004    4.563006931335118E-002
  7.000000000000011E-004    4.467140079793076E-002
  8.000000000000011E-004    4.365080706498953E-002
  9.000000000000012E-004    4.256722638976612E-002
  1.000000000000001E-003    4.141962502282447E-002
  1.100000000000001E-003    4.020699554916606E-002
  1.200000000000001E-003    3.892836688146888E-002
  1.300000000000001E-003    3.758279642211352E-002
  1.400000000000001E-003    3.616938198157887E-002
  1.500000000000001E-003    3.468725486375825E-002
  1.600000000000001E-003    3.313558752262792E-002
  1.700000000000001E-003    3.151359294082526E-002
  1.800000000000001E-003    2.982052671734170E-002
  1.900000000000001E-003    2.805568921385217E-002
  2.000000000000001E-003    2.621843002199108E-002
  2.100000000000001E-003    2.430814710785174E-002
  2.200000000000001E-003    2.232428413290867E-002
  2.300000000000001E-003    2.026634175066748E-002
  2.400000000000001E-003    1.813387466533667E-002
  2.500000000000001E-003    1.592649107517610E-002
  2.600000000000001E-003    1.364385939323420E-002
  2.700000000000001E-003    1.128570755119740E-002
  2.800000000000001E-003    8.851825347157911E-003
  2.900000000000001E-003    6.342063400851497E-003
  3.000000000000001E-003    3.756340467443824E-003
  3.100000000000001E-003    1.094638194904210E-003
  3.200000000000001E-003   -1.642988657861876E-003
  3.300000000000001E-003   -4.456416892505552E-003
  3.400000000000001E-003   -7.345454528319211E-003
  3.500000000000001E-003   -1.030983431968005E-002
  3.600000000000001E-003   -1.334921406760975E-002
  3.700000000000001E-003   -1.646317846239334E-002
  3.800000000000001E-003   -1.965123339860551E-002
  3.900000000000001E-003   -2.291280692987662E-002
  4.000000000000001E-003   -2.624725003287292E-002
  4.100000000000001E-003   -2.965383083535705E-002
  4.200000000000001E-003   -3.313173679756994E-002
  4.300000000000001E-003   -3.668007414615500E-002
  4.400000000000001E-003   -4.029786432556070E-002
  4.500000000000001E-003   -4.398404338128967E-002
  4.600000000000002E-003   -4.773746960652830E-002
  4.700000000000001E-003   -5.155690849220191E-002
  4.800000000000001E-003   -5.544104516022661E-002
  4.900000000000002E-003   -5.938847654180394E-002
  5.000000000000001E-003   -6.339771217734136E-002
  5.100000000000001E-003   -6.746717291937095E-002
  5.200000000000001E-003   -7.159519288379730E-002
  5.300000000000002E-003   -7.578002552716175E-002
  5.400000000000001E-003   -8.001983125501221E-002
  5.500000000000001E-003   -8.431268259144772E-002
  5.600000000000002E-003   -8.865656570590041E-002
  5.700000000000001E-003   -9.304939170242724E-002
  5.800000000000001E-003   -9.748896551861089E-002
  5.900000000000002E-003   -0.101973026198309     
  6.000000000000001E-003   -0.106499216381282     
  6.100000000000001E-003   -0.111065097592889     
  6.200000000000002E-003   -0.115668156349188     
  6.300000000000002E-003   -0.120305794660402     
  6.400000000000001E-003   -0.124975325353995     
  6.500000000000001E-003   -0.129673993198604     
  6.600000000000002E-003   -0.134398957103825     
  6.700000000000001E-003   -0.139147301977868     
  6.800000000000001E-003   -0.143916046088182     
  6.900000000000002E-003   -0.148702128661902     
  7.000000000000001E-003   -0.153502410136298     
  7.100000000000001E-003   -0.158313692480850     
  7.200000000000002E-003   -0.163132714558610     
  7.300000000000002E-003   -0.167956130643820     
  7.400000000000001E-003   -0.172780568456470     
  7.500000000000001E-003   -0.177602561415492     
  7.600000000000002E-003   -0.182418587934132     
  7.700000000000001E-003   -0.187225093863070     
  7.800000000000001E-003   -0.192018464591548     
  7.900000000000001E-003   -0.196795026798598     
  8.000000000000002E-003   -0.201551080717216     
  8.100000000000001E-003   -0.206282855199388     
  8.200000000000001E-003   -0.210986568009133     
  8.300000000000002E-003   -0.215658383445887     
  8.400000000000001E-003   -0.220294449984942     
  8.500000000000002E-003   -0.224890856593829     
  8.600000000000002E-003   -0.229443704675631     
  8.700000000000001E-003   -0.233949029376602     
  8.800000000000002E-003   -0.238402895151536     
  8.900000000000002E-003   -0.242801308599974     
  9.000000000000001E-003   -0.247140296182494     
  9.100000000000002E-003   -0.251415858928301     
  9.200000000000002E-003   -0.255623992566753     
  9.300000000000001E-003   -0.259760702923236     
  9.400000000000002E-003   -0.263821990535943     
  9.500000000000001E-003   -0.267803873973607     
  9.600000000000001E-003   -0.271702381826834     
  9.700000000000002E-003   -0.275513575516070     
  9.800000000000001E-003   -0.279233504808164     
  9.900000000000001E-003   -0.282858256875482     
  1.000000000000000E-002   -0.286383986155024     
  1.010000000000000E-002   -0.289806826698042     
  1.020000000000000E-002   -0.293122990675649     
  1.030000000000000E-002   -0.296328705567159     
  1.040000000000000E-002   -0.299420252134893     
  1.050000000000000E-002   -0.302393991804949     
  1.060000000000000E-002   -0.305246286414947     
  1.070000000000000E-002   -0.307973610146117     
  1.080000000000000E-002   -0.310572468966916     
  1.090000000000000E-002   -0.313039463482984     
  1.100000000000000E-002   -0.315371262715831     
  1.110000000000000E-002   -0.317564566181910     
  1.120000000000000E-002   -0.319616216550613     
  1.130000000000000E-002   -0.321523106362518     
  1.140000000000000E-002   -0.323282245177460     
  1.150000000000000E-002   -0.324890680494275     
  1.160000000000000E-002   -0.326345626995840     
  1.170000000000000E-002   -0.327644326090842     
  1.180000000000000E-002   -0.328784190882485     
  1.190000000000000E-002   -0.329762714531663     
  1.200000000000000E-002   -0.330577482669787     
  1.210000000000000E-002   -0.331226248204560     
  1.220000000000000E-002   -0.331706812297613     
  1.230000000000000E-002   -0.332017126894904     
  1.240000000000000E-002   -0.332155311411534     
  1.250000000000000E-002   -0.332119550681353     
  1.260000000000000E-002   -0.331908200605419     
  1.270000000000000E-002   -0.331519700630965     
  1.280000000000000E-002   -0.330952687230872     
  1.290000000000000E-002   -0.330205907207232     
  1.300000000000000E-002   -0.329278243921314     
  1.310000000000000E-002   -0.328168695485989     
  1.320000000000000E-002   -0.326876458627803     
  1.330000000000000E-002   -0.325400856051363     
  1.340000000000000E-002   -0.323741337626836     
  1.350000000000000E-002   -0.321897518234864     
  1.360000000000000E-002   -0.319869173787734     
  1.370000000000000E-002   -0.317656231328075     
  1.380000000000000E-002   -0.315258780462910     
  1.390000000000000E-002   -0.312677009741590     
  1.400000000000000E-002   -0.309911318236954     
  1.410000000000000E-002   -0.306962251325527     
  1.420000000000000E-002   -0.303830499495378     
  1.430000000000000E-002   -0.300516907649870     
  1.440000000000000E-002   -0.297022467108246     
  1.450000000000000E-002   -0.293348350899662     
  1.460000000000000E-002   -0.289495886888320     
  1.470000000000000E-002   -0.285466522645776     
  1.480000000000000E-002   -0.281261884376896     
  1.490000000000000E-002   -0.276883762702454     
  1.500000000000000E-002   -0.272334075723977     
  1.510000000000000E-002   -0.267614893439128     
  1.520000000000000E-002   -0.262728464955869     
  1.530000000000000E-002   -0.257677158271037     
  1.540000000000000E-002   -0.252463514543366     
  1.550000000000000E-002   -0.247090202363523     
  1.560000000000000E-002   -0.241560027376085     
  1.570000000000000E-002   -0.235875940765237     
  1.580000000000000E-002   -0.230041057597538     
  1.590000000000000E-002   -0.224058574740144     
  1.600000000000000E-002   -0.217931855717344     
  1.610000000000000E-002   -0.211664379877046     
  1.620000000000000E-002   -0.205259781191811     
  1.630000000000000E-002   -0.198721772595468     
  1.640000000000000E-002   -0.192054224790357     
  1.650000000000000E-002   -0.185261100306289     
  1.660000000000000E-002   -0.178346482697868     
  1.670000000000000E-002   -0.171314568041974     
  1.680000000000000E-002   -0.164169646758306     
  1.690000000000000E-002   -0.156916125475560     
  1.700000000000000E-002   -0.149558484983230     
  1.710000000000000E-002   -0.142101328278845     
  1.720000000000000E-002   -0.134549324464223     
  1.730000000000000E-002   -0.126907228068885     
  1.740000000000000E-002   -0.119179880421979     
  1.750000000000000E-002   -0.111372191957222     
  1.760000000000000E-002   -0.103489137476170     
  1.770000000000000E-002   -9.553576755206153E-002
  1.780000000000000E-002   -8.751718905612278E-002
  1.790000000000000E-002   -7.943856212255193E-002
  1.800000000000000E-002   -7.130509135746131E-002
  1.810000000000000E-002   -6.312203946488014E-002
  1.820000000000000E-002   -5.489468150810042E-002
  1.830000000000000E-002   -4.662835577290344E-002
  1.840000000000000E-002   -3.832841590216598E-002
  1.850000000000000E-002   -3.000023525964065E-002
  1.860000000000000E-002   -2.164921742657350E-002
  1.870000000000000E-002   -1.328077454533407E-002