# vtk DataFile Version 3.1
material model VTK file
ASCII
DATASET UNSTRUCTURED_GRID
POINTS         2700 float
      0.000000E+00      0.000000E+00      0.000000E+00
      0.400000E+01      0.000000E+00      0.000000E+00
      0.000000E+00      0.000000E+00      0.400000E+01
      0.400000E+01      0.000000E+00      0.400000E+01
      0.400000E+01      0.000000E+00      0.000000E+00
      0.800000E+01      0.000000E+00      0.000000E+00
      0.400000E+01      0.000000E+00      0.400000E+01
      0.800000E+01      0.000000E+00      0.400000E+01
      0.800000E+01      0.000000E+00      0.000000E+00
      0.120000E+02      0.000000E+00      0.000000E+00
      0.800000E+01      0.000000E+00      0.400000E+01
      0.120000E+02      0.000000E+00      0.400000E+01
      0.120000E+02      0.000000E+00      0.000000E+00
      0.160000E+02      0.000000E+00      0.000000E+00
      0.120000E+02      0.000000E+00      0.400000E+01
      0.160000E+02      0.000000E+00      0.400000E+01
      0.160000E+02      0.000000E+00      0.000000E+00
      0.200000E+02      0.000000E+00      0.000000E+00
      0.160000E+02      0.000000E+00      0.400000E+01
      0.200000E+02      0.000000E+00      0.400000E+01
      0.200000E+02      0.000000E+00      0.000000E+00
      0.240000E+02      0.000000E+00      0.000000E+00
      0.200000E+02      0.000000E+00      0.400000E+01
      0.240000E+02      0.000000E+00      0.400000E+01
      0.240000E+02      0.000000E+00      0.000000E+00
      0.280000E+02      0.000000E+00      0.000000E+00
      0.240000E+02      0.000000E+00      0.400000E+01
      0.280000E+02      0.000000E+00      0.400000E+01
      0.280000E+02      0.000000E+00      0.000000E+00
      0.320000E+02      0.000000E+00      0.000000E+00
      0.280000E+02      0.000000E+00      0.400000E+01
      0.320000E+02      0.000000E+00      0.400000E+01
      0.320000E+02      0.000000E+00      0.000000E+00
      0.360000E+02      0.000000E+00      0.000000E+00
      0.320000E+02      0.000000E+00      0.400000E+01
      0.360000E+02      0.000000E+00      0.400000E+01
      0.360000E+02      0.000000E+00      0.000000E+00
      0.400000E+02      0.000000E+00      0.000000E+00
      0.360000E+02      0.000000E+00      0.400000E+01
      0.400000E+02      0.000000E+00      0.400000E+01
      0.400000E+02      0.000000E+00      0.000000E+00
      0.440000E+02      0.000000E+00      0.000000E+00
      0.400000E+02      0.000000E+00      0.400000E+01
      0.440000E+02      0.000000E+00      0.400000E+01
      0.440000E+02      0.000000E+00      0.000000E+00
      0.480000E+02      0.000000E+00      0.000000E+00
      0.440000E+02      0.000000E+00      0.400000E+01
      0.480000E+02      0.000000E+00      0.400000E+01
      0.480000E+02      0.000000E+00      0.000000E+00
      0.520000E+02      0.000000E+00      0.000000E+00
      0.480000E+02      0.000000E+00      0.400000E+01
      0.520000E+02      0.000000E+00      0.400000E+01
      0.520000E+02      0.000000E+00      0.000000E+00
      0.560000E+02      0.000000E+00      0.000000E+00
      0.520000E+02      0.000000E+00      0.400000E+01
      0.560000E+02      0.000000E+00      0.400000E+01
      0.560000E+02      0.000000E+00      0.000000E+00
      0.600000E+02      0.000000E+00      0.000000E+00
      0.560000E+02      0.000000E+00      0.400000E+01
      0.600000E+02      0.000000E+00      0.400000E+01
      0.600000E+02      0.000000E+00      0.000000E+00
      0.640000E+02      0.000000E+00      0.000000E+00
      0.600000E+02      0.000000E+00      0.400000E+01
      0.640000E+02      0.000000E+00      0.400000E+01
      0.640000E+02      0.000000E+00      0.000000E+00
      0.680000E+02      0.000000E+00      0.000000E+00
      0.640000E+02      0.000000E+00      0.400000E+01
      0.680000E+02      0.000000E+00      0.400000E+01
      0.680000E+02      0.000000E+00      0.000000E+00
      0.720000E+02      0.000000E+00      0.000000E+00
      0.680000E+02      0.000000E+00      0.400000E+01
      0.720000E+02      0.000000E+00      0.400000E+01
      0.720000E+02      0.000000E+00      0.000000E+00
      0.760000E+02      0.000000E+00      0.000000E+00
      0.720000E+02      0.000000E+00      0.400000E+01
      0.760000E+02      0.000000E+00      0.400000E+01
      0.760000E+02      0.000000E+00      0.000000E+00
      0.800000E+02      0.000000E+00      0.000000E+00
      0.760000E+02      0.000000E+00      0.400000E+01
      0.800000E+02      0.000000E+00      0.400000E+01
      0.800000E+02      0.000000E+00      0.000000E+00
      0.840000E+02      0.000000E+00      0.000000E+00
      0.800000E+02      0.000000E+00      0.400000E+01
      0.840000E+02      0.000000E+00      0.400000E+01
      0.840000E+02      0.000000E+00      0.000000E+00
      0.880000E+02      0.000000E+00      0.000000E+00
      0.840000E+02      0.000000E+00      0.400000E+01
      0.880000E+02      0.000000E+00      0.400000E+01
      0.880000E+02      0.000000E+00      0.000000E+00
      0.920000E+02      0.000000E+00      0.000000E+00
      0.880000E+02      0.000000E+00      0.400000E+01
      0.920000E+02      0.000000E+00      0.400000E+01
      0.920000E+02      0.000000E+00      0.000000E+00
      0.960000E+02      0.000000E+00      0.000000E+00
      0.920000E+02      0.000000E+00      0.400000E+01
      0.960000E+02      0.000000E+00      0.400000E+01
      0.960000E+02      0.000000E+00      0.000000E+00
      0.100000E+03      0.000000E+00      0.000000E+00
      0.960000E+02      0.000000E+00      0.400000E+01
      0.100000E+03      0.000000E+00      0.400000E+01
      0.100000E+03      0.000000E+00      0.000000E+00
      0.104000E+03      0.000000E+00      0.000000E+00
      0.100000E+03      0.000000E+00      0.400000E+01
      0.104000E+03      0.000000E+00      0.400000E+01
      0.104000E+03      0.000000E+00      0.000000E+00
      0.108000E+03      0.000000E+00      0.000000E+00
      0.104000E+03      0.000000E+00      0.400000E+01
      0.108000E+03      0.000000E+00      0.400000E+01
      0.108000E+03      0.000000E+00      0.000000E+00
      0.112000E+03      0.000000E+00      0.000000E+00
      0.108000E+03      0.000000E+00      0.400000E+01
      0.112000E+03      0.000000E+00      0.400000E+01
      0.112000E+03      0.000000E+00      0.000000E+00
      0.116000E+03      0.000000E+00      0.000000E+00
      0.112000E+03      0.000000E+00      0.400000E+01
      0.116000E+03      0.000000E+00      0.400000E+01
      0.116000E+03      0.000000E+00      0.000000E+00
      0.120000E+03      0.000000E+00      0.000000E+00
      0.116000E+03      0.000000E+00      0.400000E+01
      0.120000E+03      0.000000E+00      0.400000E+01
      0.120000E+03      0.000000E+00      0.000000E+00
      0.124000E+03      0.000000E+00      0.000000E+00
      0.120000E+03      0.000000E+00      0.400000E+01
      0.124000E+03      0.000000E+00      0.400000E+01
      0.124000E+03      0.000000E+00      0.000000E+00
      0.128000E+03      0.000000E+00      0.000000E+00
      0.124000E+03      0.000000E+00      0.400000E+01
      0.128000E+03      0.000000E+00      0.400000E+01
      0.128000E+03      0.000000E+00      0.000000E+00
      0.132000E+03      0.000000E+00      0.000000E+00
      0.128000E+03      0.000000E+00      0.400000E+01
      0.132000E+03      0.000000E+00      0.400000E+01
      0.132000E+03      0.000000E+00      0.000000E+00
      0.136000E+03      0.000000E+00      0.000000E+00
      0.132000E+03      0.000000E+00      0.400000E+01
      0.136000E+03      0.000000E+00      0.400000E+01
      0.136000E+03      0.000000E+00      0.000000E+00
      0.140000E+03      0.000000E+00      0.000000E+00
      0.136000E+03      0.000000E+00      0.400000E+01
      0.140000E+03      0.000000E+00      0.400000E+01
      0.140000E+03      0.000000E+00      0.000000E+00
      0.144000E+03      0.000000E+00      0.000000E+00
      0.140000E+03      0.000000E+00      0.400000E+01
      0.144000E+03      0.000000E+00      0.400000E+01
      0.144000E+03      0.000000E+00      0.000000E+00
      0.148000E+03      0.000000E+00      0.000000E+00
      0.144000E+03      0.000000E+00      0.400000E+01
      0.148000E+03      0.000000E+00      0.400000E+01
      0.148000E+03      0.000000E+00      0.000000E+00
      0.152000E+03      0.000000E+00      0.000000E+00
      0.148000E+03      0.000000E+00      0.400000E+01
      0.152000E+03      0.000000E+00      0.400000E+01
      0.152000E+03      0.000000E+00      0.000000E+00
      0.156000E+03      0.000000E+00      0.000000E+00
      0.152000E+03      0.000000E+00      0.400000E+01
      0.156000E+03      0.000000E+00      0.400000E+01
      0.156000E+03      0.000000E+00      0.000000E+00
      0.160000E+03      0.000000E+00      0.000000E+00
      0.156000E+03      0.000000E+00      0.400000E+01
      0.160000E+03      0.000000E+00      0.400000E+01
      0.160000E+03      0.000000E+00      0.000000E+00
      0.164000E+03      0.000000E+00      0.000000E+00
      0.160000E+03      0.000000E+00      0.400000E+01
      0.164000E+03      0.000000E+00      0.400000E+01
      0.164000E+03      0.000000E+00      0.000000E+00
      0.168000E+03      0.000000E+00      0.000000E+00
      0.164000E+03      0.000000E+00      0.400000E+01
      0.168000E+03      0.000000E+00      0.400000E+01
      0.168000E+03      0.000000E+00      0.000000E+00
      0.172000E+03      0.000000E+00      0.000000E+00
      0.168000E+03      0.000000E+00      0.400000E+01
      0.172000E+03      0.000000E+00      0.400000E+01
      0.172000E+03      0.000000E+00      0.000000E+00
      0.176000E+03      0.000000E+00      0.000000E+00
      0.172000E+03      0.000000E+00      0.400000E+01
      0.176000E+03      0.000000E+00      0.400000E+01
      0.176000E+03      0.000000E+00      0.000000E+00
      0.180000E+03      0.000000E+00      0.000000E+00
      0.176000E+03      0.000000E+00      0.400000E+01
[...]
POINT_DATA             2700
SCALARS gll_data float
LOOKUP_TABLE default
   2042.12609863281     
   2042.12414550781     
   2010.97070312500     
   2010.96923828125     
   2042.12414550781     
   2042.71215820312     
   2010.96923828125     
   2011.19384765625     
   2042.71215820312     
   2032.46533203125     
   2011.19384765625     
   2001.77136230469     
   2032.46533203125     
   2033.37402343750     
   2001.77136230469     
   2001.64331054688     
   2033.37402343750     
   2001.81909179688     
   2001.64331054688     
   2002.03088378906     
   2001.81909179688     
   2001.57971191406     
   2002.03088378906     
   2002.45666503906     
   2001.57971191406     
   2001.57519531250     
   2002.45666503906     
   2002.45849609375     
   2001.57519531250     
   2010.55139160156     
   2002.45849609375     
   2001.24829101562     
   2010.55139160156     
   2033.42260742188     
   2001.24829101562     
   2001.58386230469     
   2033.42260742188     
   2033.95385742188     
   2001.58386230469     
   2002.82128906250     
   2033.95385742188     
   2042.32971191406     
   2002.82128906250     
   2011.07153320312     
   2042.32971191406     
   2041.35668945312     
   2011.07153320312     
   2012.36718750000     
   2041.35668945312     
   2040.32153320312     
   2012.36718750000     
   2032.09252929688     
   2040.32153320312     
   2040.30847167969     
   2032.09252929688     
   2031.85144042969     
   2040.30847167969     
   2040.18847656250     
   2031.85144042969     
   2040.30078125000     
   2040.18847656250     
   2040.18640136719     
   2040.30078125000     
   2040.49841308594     
   2040.18640136719     
   2040.18530273438     
   2040.49841308594     
   2040.29431152344     
   2040.18530273438     
   2040.18664550781     
   2040.29431152344     
   2040.18579101562     
   2040.18664550781     
   2040.18664550781     
   2040.18579101562     
   2040.18591308594     
   2040.18664550781     
   2040.18664550781     
   2040.18591308594     
   2040.18664550781     
   2040.18664550781     
   2040.18664550781     
   2040.18664550781     
   2040.18664550781     
   2040.18664550781     
   2040.18664550781     
   2040.18664550781     
   2040.18664550781     
   2040.18664550781     
   2040.18664550781     
   2040.18664550781     
   2040.18664550781     
   2040.18664550781     
   2040.18664550781     
   2040.18664550781     
   2040.18664550781     
   2040.18664550781     
   2040.18664550781     
   2040.18664550781     
   2040.18664550781     
   2040.18664550781     
   2040.18664550781     
   2040.18664550781     
   2040.18664550781     
   2040.18664550781     
   2040.18664550781     
   2040.18664550781     
   2040.18664550781     
   2040.18664550781     
   2040.18664550781     
   2040.18664550781     
   2040.18664550781     
   2040.18664550781     
   2040.18664550781     
   2040.18664550781     
   2040.18652343750     
   2040.18664550781     
   2040.18664550781     
   2040.18652343750     
   2040.18457031250     
   2040.18664550781     
   2040.18664550781     
   2040.18457031250     
   2040.18603515625     
   2040.18664550781     
   2040.18664550781     
   2040.18603515625     
   2040.18115234375     
   2040.18664550781     
   2040.18566894531     
   2040.18115234375     
   2040.27429199219     
   2040.18566894531     
   2040.18505859375     
   2040.27429199219     
   2040.31311035156     
   2040.18505859375     
   2040.18505859375     
   2040.31311035156     
   2040.31213378906     
   2040.18505859375     
   2040.18505859375     
   2040.31213378906     
   2040.31213378906     
   2040.18505859375     
   2040.18505859375     
   2040.31213378906     
   2040.31213378906     
   2040.18505859375     
   2040.18505859375     
   2040.31213378906     
   2040.31213378906     
   2040.18505859375     
   2040.18505859375     
   2040.31213378906     
   2040.31201171875     
   2040.18505859375     
   2040.18457031250     
   2040.31201171875     
   2040.34191894531     
   2040.18457031250     
   2040.18395996094     
   2040.34191894531     
   2040.66601562500     
   2040.18395996094     
   2040.18078613281     
   2040.66601562500     
   2041.07873535156     
   2040.18078613281     
   2040.18090820312     
   2041.07873535156     
   2041.07275390625     
   2040.18090820312     
   2040.18090820312     
   2041.07275390625     
   2041.07275390625     
   2040.18090820312     
   2040.18090820312     
   2041.07275390625     
   2041.07275390625     
   2010.97070312500     
   2010.96923828125     
   1992.62243652344     
   1992.62304687500     
   2010.96923828125     
   2011.19384765625     
   1992.62304687500     
   1992.66003417969     
   2011.19384765625     
   2001.77136230469     
   1992.66003417969     
   1983.89135742188     
   2001.77136230469     
   2001.64331054688     
   1983.89135742188     
   1971.72558593750     
   2001.64331054688     
   2002.03088378906     
   1971.72558593750     
   1972.02038574219     
   2002.03088378906     
   2002.45666503906     
   1972.02038574219     
   1971.98339843750     
   2002.45666503906     
   2002.45849609375     
   1971.98339843750     
   1971.98522949219     
   2002.45849609375     
   2001.24829101562     
   1971.98522949219     
   1971.97021484375     
   2001.24829101562     
   2001.58386230469     
   1971.97021484375     
   1972.09155273438     
   2001.58386230469     
   2002.82128906250     
   1972.09155273438     
   1992.89916992188     
   2002.82128906250     
   2011.07153320312     
   1992.89916992188     
   1992.93005371094     
   2011.07153320312     
   2012.36718750000     
   1992.93005371094     
   2001.36572265625     
   2012.36718750000     
   2032.09252929688     
   2001.36572265625     
   2001.64819335938     
   2032.09252929688     
   2031.85144042969     
   2001.64819335938     
   2001.23669433594     
   2031.85144042969     
   2040.30078125000     
   2001.23669433594     
   2009.63562011719     
   2040.30078125000     
   2040.49841308594     
   2009.63562011719     
   2012.12524414062     
   2040.49841308594     
   2040.29431152344     
   2012.12524414062     
   2032.47424316406     
   2040.29431152344     
   2040.18579101562     
   2032.47424316406     
   2040.56616210938     
   2040.18579101562     
   2040.18591308594     
   2040.56616210938     
   2040.25781250000     
   2040.18591308594     
   2040.18664550781     
   2040.25781250000     
   2040.18469238281     
   2040.18664550781     
   2040.18664550781     
   2040.18469238281     
   2040.18664550781     
   2040.18664550781     
   2040.18664550781     
   2040.18664550781     
   2040.18664550781     
   2040.18664550781     
   2040.18664550781     
   2040.18664550781     
   2040.18664550781     
   2040.18664550781     
   2040.18664550781     
   2040.18664550781     
   2040.18664550781     
   2040.18664550781     
   2040.18664550781     
   2040.18664550781     
   2040.18664550781     
   2040.18664550781     
   2040.18664550781     
   2040.18664550781     
   2040.18664550781     
   2040.18664550781     
   2040.18664550781     
   2040.18664550781     
   2040.18627929688     
   2040.18664550781     
   2040.18664550781     
   2040.18627929688     
   2040.18518066406     
   2040.18664550781     
   2040.18652343750     
   2040.18518066406     
   2040.18945312500     
   2040.18652343750     
   2040.18457031250     
   2040.18945312500     
   2040.34838867188     
   2040.18457031250     
   2040.18603515625     
   2040.34838867188     
   2040.71496582031     
   2040.18603515625     
   2040.18115234375     
   2040.71496582031     
   2041.26196289062     
   2040.18115234375     
   2040.27429199219     
   2041.26196289062     
   2033.64318847656     
   2040.27429199219     
   2040.31311035156     
   2033.64318847656     
   2032.07666015625     
   2040.31311035156     
   2040.31213378906     
   2032.07666015625     
   2032.08508300781     
   2040.31213378906     
   2040.31213378906     
   2032.08508300781     
   2032.08557128906     
   2040.31213378906     
   2040.31213378906     
   2032.08557128906     
   2032.08557128906     
   2040.31213378906     
   2040.31213378906     
   2032.08557128906     
   2032.08544921875     
   2040.31213378906     
   2040.31201171875     
   2032.08544921875     
   2032.08337402344     
   2040.31201171875     
   2040.34191894531     
   2032.08337402344     
   2031.74487304688     
   2040.34191894531     
   2040.66601562500     
   2031.74487304688     
   2013.05322265625     
   2040.66601562500     
   2041.07873535156     
   2013.05322265625     
   2010.06079101562     
   2041.07873535156     
   2041.07275390625     
   2010.06079101562     
   2010.05981445312     
   2041.07275390625     
   2041.07275390625     
   2010.05981445312     
   2010.05981445312     
   2041.07275390625     
   2041.07275390625     
   2010.05981445312     
   2010.05981445312     
   1992.62243652344     
   1992.62304687500     
   1963.51818847656     
   1963.53356933594     
   1992.62304687500     
   1992.66003417969     
   1963.53356933594     
   1963.51403808594     
   1992.66003417969     
   1983.89135742188     
   1963.51403808594     
   1963.63232421875     
   1983.89135742188     
   1971.72558593750     
   1963.63232421875     
   1964.07836914062     
   1971.72558593750     
   1972.02038574219     
   1964.07836914062     
   1964.30249023438     
   1972.02038574219     
   1971.98339843750     
   1964.30249023438     
   1964.30529785156     
   1971.98339843750     
   1971.98522949219     
   1964.30529785156     
   1964.30810546875     
   1971.98522949219     
   1971.97021484375     
   1964.30810546875     
   1964.29846191406     
   1971.97021484375     
   1972.09155273438     
   1964.29846191406     
   1964.19543457031     
   1972.09155273438     
   1992.89916992188     
   1964.19543457031     
   1963.53710937500     
   1992.89916992188     
   1992.93005371094     
   1963.53710937500     
   1963.48461914062     
   1992.93005371094     
   2001.36572265625     
   1963.48461914062     
   1962.81774902344     
   2001.36572265625     
   2001.64819335938     
   1962.81774902344     
   1964.64746093750     
   2001.64819335938     
   2001.23669433594     
   1964.64746093750     
   1972.08544921875     
   2001.23669433594     
   2009.63562011719     
   1972.08544921875     
   1973.65209960938     
   2009.63562011719     
   2012.12524414062     
   1973.65209960938     
   1992.93884277344     
   2012.12524414062     
   2032.47424316406     
   1992.93884277344     
   2001.18298339844     
   2032.47424316406     
   2040.56616210938     
   2001.18298339844     
   2003.46191406250     
   2040.56616210938     
   2040.25781250000     
   2003.46191406250     
   2016.29235839844     
   2040.25781250000     
   2040.18469238281     
   2016.29235839844     
   2038.56115722656     
   2040.18469238281     
   2040.18664550781     
   2038.56115722656     
   2040.31286621094     
   2040.18664550781     
   2040.18664550781     
   2040.31286621094     
   2040.18103027344     
   2040.18664550781     
   2040.18664550781     
   2040.18103027344     
   2040.18237304688     
   2040.18664550781     
   2040.18664550781     
   2040.18237304688     
   2040.18249511719     
   2040.18664550781     
   2040.18664550781     
   2040.18249511719     
   2040.18835449219     
   2040.18664550781     
   2040.18664550781     
   2040.18835449219     
   2040.30688476562     
   2040.18664550781     
   2040.18627929688     
   2040.30688476562     
   2040.29248046875     
   2040.18627929688     
   2040.18518066406     
   2040.29248046875     
   2039.30395507812     
   2040.18518066406     
   2040.18945312500     
   2039.30395507812     
   2030.41796875000     
   2040.18945312500     
   2040.34838867188     
   2030.41796875000     
   2010.14270019531     
   2040.34838867188     
   2040.71496582031     
   2010.14270019531     
   2000.33300781250     
   2040.71496582031     
   2041.26196289062     
   2000.33300781250     
   2001.15649414062     
   2041.26196289062     
   2033.64318847656     
   2001.15649414062     
   2001.55200195312     
   2033.64318847656     
   2032.07666015625     
   2001.55200195312     
   2001.57812500000     
   2032.07666015625     
   2032.08508300781     
   2001.57812500000     
   2001.50402832031     
   2032.08508300781     
   2032.08557128906     
   2001.50402832031     
   2001.44689941406     
   2032.08557128906     
   2032.08557128906     
   2001.44689941406     
   2001.44775390625     
   2032.08557128906     
   2032.08544921875     
   2001.44775390625     
   2001.45178222656     
   2032.08544921875     
   2032.08337402344     
   2001.45178222656     
   2001.46496582031     
   2032.08337402344     
   2031.74487304688     
   2001.46496582031     
   2001.48535156250     
   2031.74487304688     
   2013.05322265625     
   2001.48535156250     
   2001.57641601562     
   2013.05322265625     
   2010.06079101562     
   2001.57641601562     
   2001.58581542969     
   2010.06079101562     
   2010.05981445312     
   2001.58581542969     
   2001.58569335938     
   2010.05981445312     
   2010.05981445312     
   2001.58569335938     
   2001.58569335938     
   2010.05981445312     
   2010.05981445312     
   2001.58569335938     
   2001.58569335938     
   1963.51818847656     
   1963.53356933594     
   1965.01843261719     
   1966.20581054688     
   1963.53356933594     
   1963.51403808594     
   1966.20581054688     
   1968.17834472656     
   1963.51403808594     
   1963.63232421875     
   1968.17834472656     
   1965.50842285156     
   1963.63232421875     
   1964.07836914062     
   1965.50842285156     
   1931.15893554688     
   1964.07836914062     
   1964.30249023438     
   1931.15893554688     
   1922.69067382812     
   1964.30249023438     
   1964.30529785156     
   1922.69067382812     
   1922.25939941406     
   1964.30529785156     
   1964.30810546875     
   1922.25939941406     
   1922.04321289062     
   1964.30810546875     
   1964.29846191406     
   1922.04321289062     
   1922.73693847656     
   1964.29846191406     
   1964.19543457031     
   1922.73693847656     
   1921.26098632812     
   1964.19543457031     
   1963.53710937500     
   1921.26098632812     
   1965.51623535156     
   1963.53710937500     
   1963.48461914062     
   1965.51623535156     
   1967.63806152344     
   1963.48461914062     
   1962.81774902344     
   1967.63806152344     
   1965.22827148438     
   1962.81774902344     
   1964.64746093750     
   1965.22827148438     
   1964.29968261719     
   1964.64746093750     
   1972.08544921875     
   1964.29968261719     
   1963.94787597656     
   1972.08544921875     
   1973.65209960938     
   1963.94787597656     
   1963.47705078125     
   1973.65209960938     
   1992.93884277344     
   1963.47705078125     
   1962.53955078125     
   1992.93884277344     
   2001.18298339844     
   1962.53955078125     
   1971.28295898438     
   2001.18298339844     
   2003.46191406250     
   1971.28295898438     
   1990.43627929688     
   2003.46191406250     
   2016.29235839844     
   1990.43627929688     
   2001.53186035156     
   2016.29235839844     
   2038.56115722656     
   2001.53186035156     
   2009.05053710938     
   2038.56115722656     
   2040.31286621094     
   2009.05053710938     
   2031.94763183594     
   2040.31286621094     
   2040.18103027344     
   2031.94763183594     
   2041.33728027344     
   2040.18103027344     
   2040.18237304688     
   2041.33728027344     
   2041.07177734375     
   2040.18237304688     
   2040.18249511719     
   2041.07177734375     
   2041.06713867188     
   2040.18249511719     
   2040.18835449219     
   2041.06713867188     
   2040.84814453125     
   2040.18835449219     
   2040.30688476562     
   2040.84814453125     
   2031.86987304688     
   2040.30688476562     
   2040.29248046875     
   2031.86987304688     
   2020.14721679688     
   2040.29248046875     
   2039.30395507812     
   2020.14721679688     
   2008.44982910156     
   2039.30395507812     
   2030.41796875000     
   2008.44982910156     
   2001.05480957031     
   2030.41796875000     
   2010.14270019531     
   2001.05480957031     
   2001.62316894531     
   2010.14270019531     
   2000.33300781250     
   2001.62316894531     
   2002.43847656250     
   2000.33300781250     
   2001.15649414062     
   2002.43847656250     
   1997.11535644531     
   2001.15649414062     
   2001.55200195312     
   1997.11535644531     
   1994.10021972656     
   2001.55200195312     
   2001.57812500000     
   1994.10021972656     
   1993.65100097656     
   2001.57812500000     
   2001.50402832031     
   1993.65100097656     
   1996.80102539062     
   2001.50402832031     
   2001.44689941406     
   1996.80102539062     
   2002.51770019531     
   2001.44689941406     
   2001.44775390625     
   2002.51770019531     
   2002.47290039062     
   2001.44775390625     
   2001.45178222656     
   2002.47290039062     
   2002.18579101562     
   2001.45178222656     
   2001.46496582031     
   2002.18579101562     
   2001.14025878906     
   2001.46496582031     
   2001.48535156250     
   2001.14025878906     
   2000.93286132812     
   2001.48535156250     
   2001.57641601562     
   2000.93286132812     
   2002.55541992188     
   2001.57641601562     
   2001.58581542969     
   2002.55541992188     
   2002.45690917969     
   2001.58581542969     
   2001.58569335938     
   2002.45690917969     
   2002.46105957031     
   2001.58569335938     
   2001.58569335938     
   2002.46105957031     
   2002.46118164062     
   2001.58569335938     
   2001.58569335938     
   2002.46118164062     
   2002.46118164062     
   1965.01843261719     
   1966.20581054688     
   1908.91467285156     
   1801.15368652344     
   1966.20581054688     
   1968.17834472656     
   1801.15368652344     
   1795.92248535156     
   1968.17834472656     
   1965.50842285156     
   1795.92248535156     
   1790.73425292969     
   1965.50842285156     
   1931.15893554688     
   1790.73425292969     
   1743.69482421875     
   1931.15893554688     
   1922.69067382812     
   1743.69482421875     
   1732.19079589844     
   1922.69067382812     
   1922.25939941406     
   1732.19079589844     
   1734.19616699219     
   1922.25939941406     
   1922.04321289062     
   1734.19616699219     
   1734.09936523438     
   1922.04321289062     
   1922.73693847656     
   1734.09936523438     
   1731.45654296875     
   1922.73693847656     
   1921.26098632812     
   1731.45654296875     
   1730.23461914062     
   1921.26098632812     
   1965.51623535156     
   1730.23461914062     
   1790.87695312500     
   1965.51623535156     
   1967.63806152344     
   1790.87695312500     
   1795.98596191406     
   1967.63806152344     
   1965.22827148438     
   1795.98596191406     
   1905.68774414062     
   1965.22827148438     
   1964.29968261719     
   1905.68774414062     
   1922.39392089844     
   1964.29968261719     
   1963.94787597656     
   1922.39392089844     
   1952.61828613281     
   1963.94787597656     
   1963.47705078125     
   1952.61828613281     
   1968.32775878906     
   1963.47705078125     
   1962.53955078125     
   1968.32775878906     
   1968.50598144531     
   1962.53955078125     
   1971.28295898438     
   1968.50598144531     
   1963.95190429688     
   1971.28295898438     
   1990.43627929688     
   1963.95190429688     
   1962.91845703125     
   1990.43627929688     
   2001.53186035156     
   1962.91845703125     
   1985.59606933594     
   2001.53186035156     