# vtk DataFile Version 3.1
material model VTK file
ASCII
DATASET UNSTRUCTURED_GRID
POINTS         2700 float
      0.000000E+00      0.000000E+00      0.000000E+00
      0.400000E+01      0.000000E+00      0.000000E+00
      0.000000E+00      0.000000E+00      0.400000E+01
      0.400000E+01      0.000000E+00      0.400000E+01
      0.400000E+01      0.000000E+00      0.000000E+00
      0.800000E+01      0.000000E+00      0.000000E+00
      0.400000E+01      0.000000E+00      0.400000E+01
      0.800000E+01      0.000000E+00      0.400000E+01
      0.800000E+01      0.000000E+00      0.000000E+00
      0.120000E+02      0.000000E+00      0.000000E+00
      0.800000E+01      0.000000E+00      0.400000E+01
      0.120000E+02      0.000000E+00      0.400000E+01
      0.120000E+02      0.000000E+00      0.000000E+00
      0.160000E+02      0.000000E+00      0.000000E+00
      0.120000E+02      0.000000E+00      0.400000E+01
      0.160000E+02      0.000000E+00      0.400000E+01
      0.160000E+02      0.000000E+00      0.000000E+00
      0.200000E+02      0.000000E+00      0.000000E+00
      0.160000E+02      0.000000E+00      0.400000E+01
      0.200000E+02      0.000000E+00      0.400000E+01
      0.200000E+02      0.000000E+00      0.000000E+00
      0.240000E+02      0.000000E+00      0.000000E+00
      0.200000E+02      0.000000E+00      0.400000E+01
      0.240000E+02      0.000000E+00      0.400000E+01
      0.240000E+02      0.000000E+00      0.000000E+00
      0.280000E+02      0.000000E+00      0.000000E+00
      0.240000E+02      0.000000E+00      0.400000E+01
      0.280000E+02      0.000000E+00      0.400000E+01
      0.280000E+02      0.000000E+00      0.000000E+00
      0.320000E+02      0.000000E+00      0.000000E+00
      0.280000E+02      0.000000E+00      0.400000E+01
      0.320000E+02      0.000000E+00      0.400000E+01
      0.320000E+02      0.000000E+00      0.000000E+00
      0.360000E+02      0.000000E+00      0.000000E+00
      0.320000E+02      0.000000E+00      0.400000E+01
      0.360000E+02      0.000000E+00      0.400000E+01
      0.360000E+02      0.000000E+00      0.000000E+00
      0.400000E+02      0.000000E+00      0.000000E+00
      0.360000E+02      0.000000E+00      0.400000E+01
      0.400000E+02      0.000000E+00      0.400000E+01
      0.400000E+02      0.000000E+00      0.000000E+00
      0.440000E+02      0.000000E+00      0.000000E+00
      0.400000E+02      0.000000E+00      0.400000E+01
      0.440000E+02      0.000000E+00      0.400000E+01
      0.440000E+02      0.000000E+00      0.000000E+00
      0.480000E+02      0.000000E+00      0.000000E+00
      0.440000E+02      0.000000E+00      0.400000E+01
      0.480000E+02      0.000000E+00      0.400000E+01
      0.480000E+02      0.000000E+00      0.000000E+00
      0.520000E+02      0.000000E+00      0.000000E+00
      0.480000E+02      0.000000E+00      0.400000E+01
      0.520000E+02      0.000000E+00      0.400000E+01
      0.520000E+02      0.000000E+00      0.000000E+00
      0.560000E+02      0.000000E+00      0.000000E+00
      0.520000E+02      0.000000E+00      0.400000E+01
      0.560000E+02      0.000000E+00      0.400000E+01
      0.560000E+02      0.000000E+00      0.000000E+00
      0.600000E+02      0.000000E+00      0.000000E+00
      0.560000E+02      0.000000E+00      0.400000E+01
      0.600000E+02      0.000000E+00      0.400000E+01
      0.600000E+02      0.000000E+00      0.000000E+00
      0.640000E+02      0.000000E+00      0.000000E+00
      0.600000E+02      0.000000E+00      0.400000E+01
      0.640000E+02      0.000000E+00      0.400000E+01
      0.640000E+02      0.000000E+00      0.000000E+00
      0.680000E+02      0.000000E+00      0.000000E+00
      0.640000E+02      0.000000E+00      0.400000E+01
      0.680000E+02      0.000000E+00      0.400000E+01
      0.680000E+02      0.000000E+00      0.000000E+00
      0.720000E+02      0.000000E+00      0.000000E+00
      0.680000E+02      0.000000E+00      0.400000E+01
      0.720000E+02      0.000000E+00      0.400000E+01
      0.720000E+02      0.000000E+00      0.000000E+00
      0.760000E+02      0.000000E+00      0.000000E+00
      0.720000E+02      0.000000E+00      0.400000E+01
      0.760000E+02      0.000000E+00      0.400000E+01
      0.760000E+02      0.000000E+00      0.000000E+00
      0.800000E+02      0.000000E+00      0.000000E+00
      0.760000E+02      0.000000E+00      0.400000E+01
      0.800000E+02      0.000000E+00      0.400000E+01
      0.800000E+02      0.000000E+00      0.000000E+00
      0.840000E+02      0.000000E+00      0.000000E+00
      0.800000E+02      0.000000E+00      0.400000E+01
      0.840000E+02      0.000000E+00      0.400000E+01
      0.840000E+02      0.000000E+00      0.000000E+00
      0.880000E+02      0.000000E+00      0.000000E+00
      0.840000E+02      0.000000E+00      0.400000E+01
      0.880000E+02      0.000000E+00      0.400000E+01
      0.880000E+02      0.000000E+00      0.000000E+00
      0.920000E+02      0.000000E+00      0.000000E+00
      0.880000E+02      0.000000E+00      0.400000E+01
      0.920000E+02      0.000000E+00      0.400000E+01
      0.920000E+02      0.000000E+00      0.000000E+00
      0.960000E+02      0.000000E+00      0.000000E+00
      0.920000E+02      0.000000E+00      0.400000E+01
      0.960000E+02      0.000000E+00      0.400000E+01
      0.960000E+02      0.000000E+00      0.000000E+00
      0.100000E+03      0.000000E+00      0.000000E+00
      0.960000E+02      0.000000E+00      0.400000E+01
      0.100000E+03      0.000000E+00      0.400000E+01
      0.100000E+03      0.000000E+00      0.000000E+00
      0.104000E+03      0.000000E+00      0.000000E+00
      0.100000E+03      0.000000E+00      0.400000E+01
      0.104000E+03      0.000000E+00      0.400000E+01
      0.104000E+03      0.000000E+00      0.000000E+00
      0.108000E+03      0.000000E+00      0.000000E+00
      0.104000E+03      0.000000E+00      0.400000E+01
      0.108000E+03      0.000000E+00      0.400000E+01
      0.108000E+03      0.000000E+00      0.000000E+00
      0.112000E+03      0.000000E+00      0.000000E+00
      0.108000E+03      0.000000E+00      0.400000E+01
      0.112000E+03      0.000000E+00      0.400000E+01
      0.112000E+03      0.000000E+00      0.000000E+00
      0.116000E+03      0.000000E+00      0.000000E+00
      0.112000E+03      0.000000E+00      0.400000E+01
      0.116000E+03      0.000000E+00      0.400000E+01
      0.116000E+03      0.000000E+00      0.000000E+00
      0.120000E+03      0.000000E+00      0.000000E+00
      0.116000E+03      0.000000E+00      0.400000E+01
      0.120000E+03      0.000000E+00      0.400000E+01
      0.120000E+03      0.000000E+00      0.000000E+00
      0.124000E+03      0.000000E+00      0.000000E+00
      0.120000E+03      0.000000E+00      0.400000E+01
      0.124000E+03      0.000000E+00      0.400000E+01
      0.124000E+03      0.000000E+00      0.000000E+00
      0.128000E+03      0.000000E+00      0.000000E+00
      0.124000E+03      0.000000E+00      0.400000E+01
      0.128000E+03      0.000000E+00      0.400000E+01
      0.128000E+03      0.000000E+00      0.000000E+00
      0.132000E+03      0.000000E+00      0.000000E+00
      0.128000E+03      0.000000E+00      0.400000E+01
      0.132000E+03      0.000000E+00      0.400000E+01
      0.132000E+03      0.000000E+00      0.000000E+00
      0.136000E+03      0.000000E+00      0.000000E+00
      0.132000E+03      0.000000E+00      0.400000E+01
      0.136000E+03      0.000000E+00      0.400000E+01
      0.136000E+03      0.000000E+00      0.000000E+00
      0.140000E+03      0.000000E+00      0.000000E+00
      0.136000E+03      0.000000E+00      0.400000E+01
      0.140000E+03      0.000000E+00      0.400000E+01
      0.140000E+03      0.000000E+00      0.000000E+00
      0.144000E+03      0.000000E+00      0.000000E+00
      0.140000E+03      0.000000E+00      0.400000E+01
      0.144000E+03      0.000000E+00      0.400000E+01
      0.144000E+03      0.000000E+00      0.000000E+00
      0.148000E+03      0.000000E+00      0.000000E+00
      0.144000E+03      0.000000E+00      0.400000E+01
      0.148000E+03      0.000000E+00      0.400000E+01
      0.148000E+03      0.000000E+00      0.000000E+00
      0.152000E+03      0.000000E+00      0.000000E+00
      0.148000E+03      0.000000E+00      0.400000E+01
      0.152000E+03      0.000000E+00      0.400000E+01
      0.152000E+03      0.000000E+00      0.000000E+00
      0.156000E+03      0.000000E+00      0.000000E+00
      0.152000E+03      0.000000E+00      0.400000E+01
      0.156000E+03      0.000000E+00      0.400000E+01
      0.156000E+03      0.000000E+00      0.000000E+00
      0.160000E+03      0.000000E+00      0.000000E+00
      0.156000E+03      0.000000E+00      0.400000E+01
      0.160000E+03      0.000000E+00      0.400000E+01
      0.160000E+03      0.000000E+00      0.000000E+00
      0.164000E+03      0.000000E+00      0.000000E+00
      0.160000E+03      0.000000E+00      0.400000E+01
      0.164000E+03      0.000000E+00      0.400000E+01
      0.164000E+03      0.000000E+00      0.000000E+00
      0.168000E+03      0.000000E+00      0.000000E+00
      0.164000E+03      0.000000E+00      0.400000E+01
      0.168000E+03      0.000000E+00      0.400000E+01
      0.168000E+03      0.000000E+00      0.000000E+00
      0.172000E+03      0.000000E+00      0.000000E+00
      0.168000E+03      0.000000E+00      0.400000E+01
      0.172000E+03      0.000000E+00      0.400000E+01
      0.172000E+03      0.000000E+00      0.000000E+00
      0.176000E+03      0.000000E+00      0.000000E+00
      0.172000E+03      0.000000E+00      0.400000E+01
      0.176000E+03      0.000000E+00      0.400000E+01
      0.176000E+03      0.000000E+00      0.000000E+00
      0.180000E+03      0.000000E+00      0.000000E+00
      0.176000E+03      0.000000E+00      0.400000E+01
[...]
POINT_DATA             2700
SCALARS gll_data float
LOOKUP_TABLE default
   942.658639445723     
   942.695627196993     
   911.451347861071     
   911.384217065774     
   942.695427726971     
   942.658321711196     
   911.384147225963     
   911.381300127203     
   942.658255237703     
   942.651365763352     
   911.381335043318     
   911.355910807061     
   942.651365763352     
   942.642576020225     
   911.355910807061     
   911.335628890939     
   942.642576020225     
   942.626027969263     
   911.335558721993     
   911.330936081821     
   942.626027969263     
   942.617809402052     
   911.331006237538     
   911.317094791094     
   942.617809402052     
   942.608832175650     
   911.317094791094     
   911.293881753585     
   942.608764332411     
   942.604603289424     
   911.293881753585     
   911.266218922577     
   942.604569519099     
   942.610846796803     
   911.266218922577     
   911.237901096166     
   942.610913577335     
   942.616031430950     
   911.237971274715     
   911.210885799636     
   942.616031430950     
   942.612911649244     
   911.210885799636     
   911.195261944807     
   942.612911649244     
   942.612621930813     
   911.195296870176     
   911.190783536646     
   942.612655191240     
   942.606185749852     
   911.190748633592     
   911.204957798272     
   942.606185749852     
   942.596058146843     
   911.205026925700     
   911.230118164013     
   942.596124703041     
   942.579149162799     
   911.230118164013     
   911.259028129933     
   942.579215724105     
   942.550840319234     
   911.258959284688     
   911.296746559458     
   942.550906882607     
   942.529294336019     
   911.296746559458     
   911.319884520705     
   942.529360900949     
   942.514206641398     
   911.319884520705     
   911.324638735943     
   942.514273207350     
   942.497132319401     
   911.324638735943     
   911.325265491645     
   942.497132319401     
   942.482487430322     
   911.325265491645     
   911.321487587394     
   942.482553998515     
   942.472468863754     
   911.321487587394     
   911.314775236155     
   942.472468863754     
   942.465146256039     
   911.314775236155     
   911.312744309884     
   942.465146256039     
   942.464547131071     
   911.312744309884     
   911.313673717383     
   942.464480561607     
   942.469539827495     
   911.313708139865     
   911.311573943536     
   942.469539827495     
   942.472602001549     
   911.311573943536     
   911.305894203150     
   942.472602001549     
   942.480889792293     
   911.305894203150     
   911.294672308990     
   942.480823223983     
   942.500294254219     
   911.294672308990     
   911.281316009447     
   942.500227687279     
   942.521129475246     
   911.281316009447     
   911.272469074396     
   942.521062909778     
   942.536006739395     
   911.272469074396     
   911.269157198451     
   942.535940174977     
   942.550184853136     
   911.269157198451     
   911.269731086624     
   942.550118289720     
   942.570752723541     
   911.269731086624     
   911.272329992251     
   942.570686161578     
   942.594348643427     
   911.272261144140     
   911.277723477913     
   942.594315363279     
   942.617137911490     
   911.277654630044     
   911.285769215706     
   942.617137911490     
   942.636713858499     
   911.285700371588     
   911.298028427074     
   942.636713858499     
   942.650890468563     
   911.297959585192     
   911.316661537212     
   942.650890468563     
   942.659043586705     
   911.316661537212     
   911.338862329616     
   942.659043586705     
   942.658078527420     
   911.338793490786     
   911.362301649084     
   942.658078527420     
   942.644833820866     
   911.362232812024     
   911.384707835840     
   942.644833820866     
   942.631655485928     
   911.384707835840     
   911.397090964210     
   942.631722043638     
   942.635129445720     
   911.397090964210     
   911.397088200665     
   942.635129445720     
   942.649247417321     
   911.397088200665     
   911.393192953801     
   942.649247417321     
   942.646186906577     
   911.393192953801     
   911.396313940525     
   942.646186906577     
   942.628920330885     
   911.396313940525     
   911.401261832697     
   942.628953609905     
   942.662032374681     
   911.401261832697     
   911.378829997616     
   942.662098930382     
   942.661865985409     
   911.378898807770     
   911.415092228879     
   911.450928853293     
   911.384077386146     
   880.167046183634     
   880.127025447460     
   911.383972626412     
   911.381160462728     
   880.127025447460     
   880.112434319841     
   911.381160462728     
   911.355524911073     
   880.112434319841     
   880.099863717312     
   911.355595073992     
   911.335137708210     
   880.099863717312     
   880.121535538370     
   911.335137708210     
   911.330690536769     
   880.121535538370     
   880.128909242433     
   911.330760692505     
   911.316884365466     
   880.128909242433     
   880.110060039059     
   911.316884365466     
   911.293636250985     
   880.110096914713     
   880.094421663144     
   911.293636250985     
   911.265692511386     
   880.094421663144     
   880.085676643782     
   911.265762699562     
   911.236988774532     
   880.085676643782     
   880.057863969344     
   911.237058953152     
   911.210254563968     
   880.057937720979     
   880.021166604672     
   911.210254563968     
   911.194703138733     
   880.021130112347     
   880.006830484576     
   911.194772989511     
   911.190434506040     
   880.006757499866     
   880.007463160380     
   911.190364699903     
   911.204646724780     
   880.007499498893     
   880.011351669152     
   911.204715852232     
   911.229807062201     
   880.011351669152     
   880.025438421140     
   911.229841629075     
   911.258683903659     
   880.025438421140     
   880.069136847987     
   911.258615058388     
   911.296505634390     
   880.069028288660     
   880.135179934887     
   911.296436798645     
   911.319746838969     
   880.135143795932     
   880.195416900578     
   911.319746838969     
   911.324569891775     
   880.195381125892     
   880.252931563637     
   911.324569891775     
   911.325196647529     
   880.252860302651     
   880.299206657104     
   911.325265491645     
   911.321418743017     
   880.299135389095     
   880.328486881108     
   911.321418743017     
   911.314706391271     
   880.328486881108     
   880.346880092165     
   911.314706391271     
   911.312606619803     
   880.346880092165     
   880.364019550507     
   911.312675464846     
   911.313604872416     
   880.364019550507     
   880.375920766034     
   911.313673717383     
   911.311539520974     
   880.375920766034     
   880.380624196078     
   911.311539520974     
   911.305859780373     
   880.380659828028     
   880.380232244534     
   911.305859780373     
   911.294603462587     
   880.380303508465     
   880.362843673174     
   911.294603462587     
   911.281247162035     
   880.362914938512     
   880.328964092443     
   911.281247162035     
   911.272469074396     
   880.329035360536     
   880.298020766926     
   911.272469074396     
   911.269088350116     
   880.298092037562     
   880.278425942739     
   911.269088350116     
   911.269662238267     
   880.278497214813     
   880.257752399397     
   911.269662238267     
   911.272329992251     
   880.257752399397     
   880.228320182064     
   911.272261144140     
   911.277723477913     
   880.228320182064     
   880.198041448716     
   911.277654630044     
   911.285700371588     
   880.198041448716     
   880.170772654429     
   911.285700371588     
   911.297959585192     
   880.170772654429     
   880.145623331999     
   911.297925164249     
   911.316661537212     
   880.145623331999     
   880.126157750119     
   911.316592696705     
   911.338862329616     
   880.126157750119     
   880.115531348104     
   911.338793490786     
   911.362301649084     
   880.115531348104     
   880.112847485850     
   911.362232812024     
   911.384707835840     
   880.112847485850     
   880.124503931682     
   911.384707835840     
   911.397090964210     
   880.124503931682     
   880.145063950532     
   911.397090964210     
   911.397088200665     
   880.145028166918     
   880.156609811794     
   911.397088200665     
   911.393192953801     
   880.156609811794     
   880.155625096765     
   911.393192953801     
   911.396313940525     
   880.155625096765     
   880.154164170863     
   911.396313940525     
   911.401261832697     
   880.154164170863     
   880.163385580364     
   911.401193024231     
   911.378829997616     
   880.163385580364     
   880.145695862021     
   911.378898807770     
   911.414748191719     
   880.145695862021     
   880.130791365274     
   880.166936709596     
   880.127061940451     
   848.882699919572     
   848.886094578838     
   880.127025447460     
   880.112361333999     
   848.886171371938     
   848.883904261092     
   880.112361333999     
   880.099973681523     
   848.883865864058     
   848.931093225696     
   880.099973681523     
   880.121646178348     
   848.931093225696     
   848.955336657744     
   880.121646178348     
   880.129019864944     
   848.955336657744     
   848.931390089326     
   880.129019864944     
   880.110244417311     
   848.931466848270     
   848.918770540930     
   880.110244417311     
   880.094679797033     
   848.918770540930     
   848.936470898510     
   880.094679797033     
   880.086008536022     
   848.936470898510     
   848.953752824746     
   880.086008536022     
   880.058232727456     
   848.953752824746     
   848.944161866450     
   880.058306479059     
   880.021166604672     
   848.944161866450     
   848.951675943775     
   880.021130112347     
   880.006830484576     
   848.951714337290     
   848.964789590523     
   880.006757499866     
   880.007063436637     
   848.964789590523     
   848.933910039037     
   880.007136113695     
   880.011279002698     
   848.933948447427     
   848.897532958413     
   880.011279002698     
   880.025620121693     
   848.897532958413     
   848.866217812855     
   880.025620121693     
   880.069390153033     
   848.866217812855     
   848.839651476303     
   880.069281593737     
   880.135360629641     
   848.839460467331     
   848.834899687621     
   880.135324490693     
   880.195130703050     
   848.835013184521     
   848.872016691816     
   880.195130703050     
   880.252824672156     
   848.871903667408     
   848.948128506766     
   880.252753411162     
   880.299206657104     
   848.948053249620     
   849.018353169905     
   880.299135389095     
   880.328486881108     
   849.018353169905     
   849.069278385098     
   880.328415612915     
   880.346808825529     
   849.069167458834     
   849.094439061764     
   880.346808825529     
   880.364019550507     
   849.094439061764     
   849.112599805715     
   880.364019550507     
   880.375849501749     
   849.112562861538     
   849.134708246330     
   880.375849501749     
   880.380552932174     
   849.134634359948     
   849.150198840627     
   880.380624196078     
   880.380196612567     
   849.150198840627     
   849.150013857894     
   880.380232244534     
   880.362843673174     
   849.150013857894     
   849.137206184717     
   880.362843673174     
   880.328928458394     
   849.137280066366     
   849.115120318561     
   880.328964092443     
   880.298020766926     
   849.115157260608     
   849.094317191689     
   880.298020766926     
   880.278390306700     
   849.094317191689     
   849.075510609173     
   880.278425942739     
   880.257681131196     
   849.075510609173     
   849.044145861469     
   880.257681131196     
   880.228213295388     
   849.044183360739     
   848.998836363666     
   880.228213295388     
   880.197863345861     
   848.998836363666     
   848.953810453825     
   880.197934587007     
   880.170665389054     
   848.953848125493     
   848.917540381693     
   880.170665389054     
   880.145515980866     
   848.917615713358     
   848.887329337788     
   880.145551764578     
   880.126086181412     
   848.887329337788     
   848.858894991497     
   880.126086181412     
   880.115495563327     
   848.858894991497     
   848.842832200133     
   880.115495563327     
   880.112775916078     
   848.842832200133     
   848.838733193450     
   880.112775916078     
   880.124468147269     
   848.838733193450     
   848.844923460005     
   880.124468147269     
   880.145028166918     
   848.844923460005     
   848.863712901056     
   880.144956599685     
   880.156538233580     
   848.863712901056     
   848.884891904064     
   880.156609811794     
   880.155625096765     
   848.884891904064     
   848.904490917411     
   880.155625096765     
   880.154164170863     
   848.904415585500     
   848.919371834215     
   880.154164170863     
   880.163385580364     
   848.919371834215     
   848.916987149701     
   880.163385580364     
   880.145768213331     
   848.916987149701     
   848.907834450777     
   880.145768213331     
   880.130863717810     
   848.907759119512     
   848.873671036281     
   848.882738316577     
   848.886171371938     
   817.639891976814     
   817.637559468354     
   848.886248165031     
   848.883981055154     
   817.637639087981     
   817.685626028583     
   848.883904261092     
   848.931093225696     
   817.685626028583     
   817.707462871062     
   848.931093225696     
   848.955336657744     
   817.707462871062     
   817.642638861371     
   848.955336657744     
   848.931505227740     
   817.642719925439     
   817.591074559168     
   848.931505227740     
   848.918808920919     
   817.591074559168     
   817.600572846239     
   848.918885680891     
   848.936509277644     
   817.600532124454     
   817.620651446784     
   848.936509277644     
   848.953791203287     
   817.620651446784     
   817.625369417286     
   848.953791203287     
   848.944161866450     
   817.625369417286     
   817.653013030196     
   848.944161866450     
   848.951714337290     
   817.652850068850     
   817.751391098676     
   848.951714337290     
   848.964827984472     
   817.751391098676     
   817.812795036605     
   848.964904772364     
   848.934217306111     
   817.812874581229     
   817.830494817127     
   848.934217306111     
   848.897763203972     
   817.830494817127     
   817.876635725894     
   848.897763203972     
   848.866408967542     
   817.876715399487     
   817.840636956610     
   848.866447198474     
   848.840033494119     
   817.840716647983     
   817.759897987288     
   848.839918888792     
   848.835618501067     
   817.760017564812     
   817.688350700364     
   848.835807662399     
   848.872996236051     
   817.688430463775     
   817.632022756276     
   848.872845537011     
   848.948354278163     
   817.632022756276     
   817.630625967260     
   848.948354278163     
   849.018540100052     
   817.630429339604     
   817.670392439693     
   849.018614872100     
   849.069537212990     
   817.670470650932     
   817.727097664734     
   849.069389311347     
   849.094439061764     
   817.727097664734     
   817.772569273195     
   849.094439061764     
   849.112599805715     
   817.772569273195     
   817.783557329611     
   849.112599805715     
   849.134708246330     
   817.783634005144     
   817.786670390027     
   849.134708246330     
   849.150198840627     
   817.786670390027     
   817.794501317548     
   849.150198840627     
   849.150013857894     
   817.794501317548     
   817.794739970107     
   849.150013857894     
   849.137280066366     
   817.794816662969     
   817.794071465091     
   849.137280066366     
   849.115120318561     
   817.793994433274     
   817.786389460276     
   849.115157260608     
   849.094465035120     
   817.786311980726     
   817.769420927970     
   849.094465035120     
   849.075696226352     
   817.769420927970     
   817.734491050468     
   849.075696226352     
   849.044183360739     
   817.734569274221     
   817.688108869454     
   849.044258359272     
   848.998911734019     
   817.688030663469     
   817.636793889059     
   848.998949419194     
   848.953961140487     
   817.636832978581     
   817.586666381900     
   848.954036483808     
   848.917728710843     
   817.586627185784     
   817.556038631426     
   848.917804042491     
   848.887517671182     
   817.556038631426     
   817.540204849238     
   848.887517671182     
   848.859083338172     
   817.540204849238     
   817.528704346425     
   848.859083338172     
   848.842945213508     
   817.528704346425     
   817.525941617465     
   848.842945213508     
   848.838921549895     
   817.525941617465     
   817.538526749228     
   848.838921549895     
   848.845149485630     
   817.538526749228     
   817.556206424800     
   848.845074143762     
   848.863901250337     
   817.556206424800     
   817.578254366591     
   848.863901250337     
   848.885004909668     
   817.578254366591     
   817.600360158459     
   848.885004909668     
   848.904490917411     
   817.600360158459     
   817.628594036543     
   848.904490917411     
   848.919371834215     
   817.628554948910     
   817.672900864175     
   848.919371834215     
   848.916987149701     
   817.672861776738     
   817.692065992873     
   848.916987149701     
   848.907834450777     
   817.692144165748     
   817.672419442122     
   848.907759119512     
   848.873708703426     
   817.672419442122     
   817.636966423286     
   817.639055467483     
   817.637201179936     
   786.408004312661     
   786.350523067678     
   817.637201179936     
   817.685983936723     
   786.350658628514     
   786.418501636048     
   817.685983936723     
   817.707223947810     
   786.418592265350     
   786.321733959242     
   817.707263768357     
   817.642274072961     
   786.321643056167     
   786.222359188672     
   817.642314605014     
   817.592173812738     
   786.222405872245     
   786.189884632571     
   817.592214525805     
   817.601998107429     
   786.189931628126     
   786.202457107485     
   817.601998107429     
   817.621995382689     
   786.202504047945     
   786.188419002344     
   817.621995382689     
   817.626224335979     
   786.188465946262     
   786.155403058243     
   817.626142915190     
   817.653338952790     
   786.155403058243     
   786.163565656460     
   817.653135251184     
   817.750714188336     
   786.163212779402     
   786.218182664051     
   817.750714188336     
   817.812635947334     
   786.218319025736     
   786.262396365300     
   817.812675719654     
   817.830813378836     
   786.262577653473     
   786.386183638422     
   817.830813378836     
   817.877671481991     
   786.385756574901     
   786.579710561289     
   817.877751155483     
   817.840995567724     
   786.579583586898     
   786.659041114357     
   817.840995567724     
   817.759658832187     
   786.659041114357     
   786.805120217688     
   817.759698691375     
   817.687752474530     
   786.804913591463     
   786.853094652014     
   817.687872119732     
   817.631665388230     
   786.853259927911     
   786.745952883213     
   817.631665388230     
   817.630783269351     
   786.746159985338     
   786.594485061558     
   817.630547316204     
   817.670157805929     
   786.594733762826     
   786.490731618302     
   817.670236017191     