 -4.000000000000000E-002    0.000000000000000E+000
 -3.990000000000000E-002    0.000000000000000E+000
 -3.980000000000000E-002   -2.116930950197753E-012
 -3.970000000000000E-002   -1.365466419615892E-011
 -3.960000000000000E-002   -5.098046024306393E-011
 -3.950000000000000E-002   -1.419172424257537E-010
 -3.940000000000000E-002   -3.249802605579256E-010
 -3.930000000000000E-002   -6.447252500073987E-010
 -3.920000000000000E-002   -1.143501383365743E-009
 -3.910000000000000E-002   -1.850806693516387E-009
 -3.900000000000000E-002   -2.772069810063502E-009
 -3.890000000000000E-002   -3.878936769048284E-009
 -3.880000000000000E-002   -5.103006294435653E-009
 -3.870000000000000E-002   -6.334478870728446E-009
 -3.860000000000000E-002   -7.426466942452902E-009
 -3.850000000000000E-002   -8.204890156503549E-009
 -3.840000000000000E-002   -8.483089525937708E-009
 -3.830000000000000E-002   -8.079655508555472E-009
 -3.820000000000000E-002   -6.837582685413351E-009
 -3.810000000000000E-002   -4.642740403540263E-009
 -3.800000000000000E-002   -1.439794478064725E-009
 -3.790000000000000E-002    2.755919171222836E-009
 -3.780000000000000E-002    7.851624062713577E-009
 -3.770000000000000E-002    1.367594104322087E-008
 -3.760000000000000E-002    1.998341840054596E-008
 -3.750000000000000E-002    2.646443237974267E-008
 -3.740000000000000E-002    3.275985869157679E-008
 -3.730000000000000E-002    3.847973187546469E-008
 -3.720000000000000E-002    4.322497130130788E-008
 -3.710000000000000E-002    4.661107076567994E-008
 -3.700000000000000E-002    4.829255065128806E-008
 -3.690000000000000E-002    4.798676994687628E-008
 -3.680000000000000E-002    4.549553428364181E-008
 -3.670000000000000E-002    4.072288704061328E-008
 -3.660000000000000E-002    3.368750296303904E-008
 -3.650000000000000E-002    2.452834170278197E-008
 -3.640000000000000E-002    1.350268718356727E-008
 -3.630000000000000E-002    9.763433892729285E-010
 -3.620000000000000E-002   -1.259345201364633E-008
 -3.610000000000000E-002   -2.668106727971383E-008
 -3.600000000000000E-002   -4.071942419938449E-008
 -3.590000000000000E-002   -5.412840612778525E-008
 -3.580000000000000E-002   -6.634216361665528E-008
 -3.570000000000000E-002   -7.683305520539669E-008
 -3.560000000000000E-002   -8.513054787739444E-008
 -3.550000000000000E-002   -9.083433881451301E-008
 -3.540000000000000E-002   -9.362184574885611E-008
 -3.530000000000000E-002   -9.325112025651705E-008
 -3.520000000000000E-002   -8.956077020881479E-008
 -3.510000000000000E-002   -8.246874905705468E-008
 -3.500000000000000E-002   -7.197157221226917E-008
 -3.490000000000000E-002   -5.814494226966651E-008
 -3.480000000000000E-002   -4.114587434057960E-008
 -3.470000000000000E-002   -2.121549435838503E-008
 -3.460000000000000E-002    1.319171674687249E-009
 -3.450000000000000E-002    2.604654206643862E-008
 -3.440000000000000E-002    5.247712725683383E-008
 -3.430000000000000E-002    8.005722366240902E-008
 -3.420000000000000E-002    1.081905019591308E-007
 -3.410000000000000E-002    1.362672585868237E-007
 -3.400000000000000E-002    1.636997452186439E-007
 -3.390000000000000E-002    1.899611721888038E-007
 -3.380000000000000E-002    2.146249642350025E-007
 -3.370000000000000E-002    2.374009104888482E-007
 -3.360000000000000E-002    2.581648019256611E-007
 -3.350000000000000E-002    2.769790956062287E-007
 -3.340000000000000E-002    2.941029394696050E-007
 -3.330000000000000E-002    3.099913184765477E-007
 -3.320000000000000E-002    3.252836836028030E-007
 -3.310000000000000E-002    3.407838535604415E-007
 -3.300000000000000E-002    3.574331312370562E-007
 -3.290000000000000E-002    3.762789946483901E-007
 -3.280000000000000E-002    3.984417638947587E-007
 -3.270000000000000E-002    4.250810908700927E-007
 -3.260000000000000E-002    4.573644521689152E-007
 -3.250000000000000E-002    4.964386865791379E-007
 -3.240000000000000E-002    5.434062574119225E-007
 -3.230000000000000E-002    5.993070257202886E-007
 -3.220000000000000E-002    6.651064611393751E-007
 -3.210000000000000E-002    7.416908125327639E-007
 -3.200000000000000E-002    8.298695553883762E-007
 -3.190000000000000E-002    9.303841676879725E-007
 -3.180000000000000E-002    1.043922269929266E-006
 -3.170000000000000E-002    1.171135069825305E-006
 -3.160000000000000E-002    1.312655076684658E-006
 -3.150000000000000E-002    1.469110997300961E-006
 -3.140000000000000E-002    1.641137663785614E-006
 -3.130000000000000E-002    1.829377027023189E-006
 -3.120000000000000E-002    2.034469961882895E-006
 -3.110000000000000E-002    2.257039714465976E-006
 -3.100000000000000E-002    2.497669055921493E-006
 -3.090000000000000E-002    2.756873793383698E-006
 -3.080000000000000E-002    3.035079514027022E-006
 -3.070000000000000E-002    3.332606070287585E-006
 -3.060000000000000E-002    3.649664362224986E-006
 -3.050000000000000E-002    3.986371116420610E-006
 -3.040000000000000E-002    4.342779413434694E-006
 -3.030000000000000E-002    4.718927908295219E-006
 -3.020000000000000E-002    5.114901373049802E-006
 -3.010000000000000E-002    5.530899400562943E-006
 -3.000000000000000E-002    5.967305643494122E-006
 -2.990000000000000E-002    6.424747380502865E-006
 -2.980000000000000E-002    6.904143870249019E-006
 -2.970000000000000E-002    7.406734788534546E-006
 -2.960000000000000E-002    7.934086340908695E-006
 -2.950000000000000E-002    8.488080173513420E-006
 -2.940000000000000E-002    9.070880307909101E-006
 -2.930000000000000E-002    9.684890690536382E-006
 -2.920000000000000E-002    1.033270090900199E-005
 -2.910000000000000E-002    1.101703065007770E-005
 -2.900000000000000E-002    1.174067657379873E-005
 -2.890000000000000E-002    1.250646538647934E-005
 -2.880000000000000E-002    1.331720969097078E-005
 -2.870000000000000E-002    1.417567327014787E-005
 -2.860000000000000E-002    1.508454764061752E-005
 -2.850000000000000E-002    1.604642991219932E-005
 -2.840000000000000E-002    1.706380966386250E-005
 -2.830000000000000E-002    1.813906618193923E-005
 -2.820000000000000E-002    1.927447130867118E-005
 -2.810000000000000E-002    2.047220515827670E-005
 -2.800000000000000E-002    2.173438157878526E-005
 -2.790000000000000E-002    2.306308818896100E-005
 -2.780000000000000E-002    2.446043944119809E-005
 -2.770000000000000E-002    2.592863284923306E-005
 -2.760000000000000E-002    2.747001742841494E-005
 -2.750000000000000E-002    2.908715406288874E-005
 -2.740000000000000E-002    3.078288055272160E-005
 -2.730000000000000E-002    3.256035344258432E-005
 -2.720000000000000E-002    3.442309926285009E-005
 -2.710000000000000E-002    3.637502373601064E-005
 -2.700000000000000E-002    3.842043140427824E-005
 -2.690000000000000E-002    4.056402704346157E-005
 -2.680000000000000E-002    4.281092628026255E-005
 -2.670000000000000E-002    4.516664636920069E-005
 -2.660000000000000E-002    4.763713575461701E-005
 -2.650000000000000E-002    5.022877920941143E-005
 -2.640000000000000E-002    5.294842914858948E-005
 -2.630000000000000E-002    5.580342205485977E-005
 -2.620000000000000E-002    5.880161846424163E-005
 -2.610000000000000E-002    6.195138032883267E-005
 -2.600000000000000E-002    6.526157168689060E-005
 -2.590000000000000E-002    6.874151661847028E-005
 -2.580000000000000E-002    7.240092464831099E-005
 -2.570000000000000E-002    7.624981247509096E-005
 -2.560000000000000E-002    8.029839524420954E-005
 -2.550000000000000E-002    8.455699298487783E-005
 -2.540000000000000E-002    8.903595054272505E-005
 -2.530000000000000E-002    9.374557397138441E-005
 -2.520000000000000E-002    9.869610637920977E-005
 -2.510000000000000E-002    1.038977663741400E-004
 -2.500000000000000E-002    1.093607966162481E-004
 -2.490000000000000E-002    1.150955756996743E-004
 -2.480000000000000E-002    1.211127404958550E-004
 -2.470000000000000E-002    1.274232833875311E-004
 -2.460000000000000E-002    1.340387271384312E-004
 -2.450000000000000E-002    1.409711689011576E-004
 -2.440000000000000E-002    1.482333898407423E-004
 -2.430000000000000E-002    1.558388830288417E-004
 -2.420000000000000E-002    1.638018633882840E-004
 -2.410000000000000E-002    1.721372430721737E-004
 -2.400000000000000E-002    1.808606469760655E-004
 -2.390000000000000E-002    1.899883483300477E-004
 -2.380000000000000E-002    1.995372934702281E-004
 -2.370000000000000E-002    2.095250878373043E-004
 -2.360000000000000E-002    2.199700047090288E-004
 -2.350000000000000E-002    2.308910319999837E-004
 -2.340000000000000E-002    2.423079328114203E-004
 -2.330000000000000E-002    2.542412005871390E-004
 -2.320000000000000E-002    2.667121811447955E-004
 -2.310000000000000E-002    2.797430300409367E-004
 -2.300000000000000E-002    2.933566254884967E-004
 -2.290000000000000E-002    3.075766673043312E-004
 -2.280000000000000E-002    3.224274930239414E-004
 -2.270000000000000E-002    3.379341109655169E-004
 -2.260000000000000E-002    3.541221070180216E-004
 -2.250000000000000E-002    3.710176596818265E-004
 -2.240000000000000E-002    3.886474057666963E-004
 -2.230000000000000E-002    4.070385737423878E-004
 -2.220000000000000E-002    4.262189314641721E-004
 -2.210000000000000E-002    4.462168782797166E-004
 -2.200000000000000E-002    4.670613932858395E-004
 -2.190000000000000E-002    4.887821947122334E-004
 -2.180000000000000E-002    5.114096816583992E-004
 -2.170000000000000E-002    5.349749927898511E-004
 -2.160000000000000E-002    5.595100161423911E-004
 -2.150000000000000E-002    5.850474207396287E-004
 -2.140000000000000E-002    6.116205629818012E-004
 -2.130000000000000E-002    6.392635789937115E-004
 -2.120000000000000E-002    6.680114321876856E-004
 -2.110000000000000E-002    6.978999385930161E-004
 -2.100000000000000E-002    7.289657618716426E-004
 -2.090000000000000E-002    7.612465808108231E-004
 -2.080000000000000E-002    7.947811080154674E-004
 -2.070000000000000E-002    8.296092002214447E-004
 -2.060000000000000E-002    8.657717815013159E-004
 -2.050000000000000E-002    9.033109070868662E-004
 -2.040000000000000E-002    9.422697264156532E-004
 -2.030000000000000E-002    9.826923233398985E-004
 -2.020000000000000E-002    1.024623799623312E-003
 -2.010000000000000E-002    1.068109913591942E-003
 -2.000000000000000E-002    1.113197147105564E-003
 -1.990000000000000E-002    1.159932512464471E-003
 -1.980000000000000E-002    1.208363558755429E-003
 -1.970000000000000E-002    1.258538249796082E-003
 -1.960000000000000E-002    1.310504979288626E-003
 -1.950000000000000E-002    1.364312727263465E-003
 -1.940000000000000E-002    1.420010847553162E-003
 -1.930000000000000E-002    1.477649394753242E-003
 -1.920000000000000E-002    1.537278887659474E-003
 -1.910000000000000E-002    1.598950425265129E-003
 -1.900000000000000E-002    1.662715473576143E-003
 -1.890000000000000E-002    1.728626258148159E-003
 -1.880000000000000E-002    1.796735075512719E-003
 -1.870000000000000E-002    1.867094497111819E-003
 -1.860000000000000E-002    1.939757153242544E-003
 -1.850000000000000E-002    2.014775861812779E-003
 -1.840000000000000E-002    2.092202946573105E-003
 -1.830000000000000E-002    2.172090977602079E-003
 -1.820000000000000E-002    2.254491889550200E-003
 -1.810000000000000E-002    2.339457712183073E-003
 -1.800000000000000E-002    2.427040078090172E-003
 -1.790000000000000E-002    2.517290428864746E-003
 -1.780000000000000E-002    2.610259534575518E-003
 -1.770000000000000E-002    2.705997979151475E-003
 -1.760000000000000E-002    2.804555556632152E-003
 -1.750000000000000E-002    2.905981524665288E-003
 -1.740000000000000E-002    3.010324197023633E-003
 -1.730000000000000E-002    3.117630726255076E-003
 -1.720000000000000E-002    3.227947352154747E-003
 -1.710000000000000E-002    3.341318608589817E-003
 -1.700000000000000E-002    3.457787754834375E-003
 -1.690000000000000E-002    3.577396614121142E-003
 -1.680000000000000E-002    3.700185096014233E-003
 -1.670000000000000E-002    3.826191462813819E-003
 -1.660000000000000E-002    3.955451942451540E-003
 -1.650000000000000E-002    4.088001392199443E-003
 -1.640000000000000E-002    4.223872189491843E-003
 -1.630000000000000E-002    4.363094740549352E-003
 -1.620000000000000E-002    4.505696138489215E-003
 -1.610000000000000E-002    4.651701691175648E-003
 -1.600000000000000E-002    4.801133344805816E-003
 -1.590000000000000E-002    4.954009620744207E-003
 -1.580000000000000E-002    5.110345673387432E-003
 -1.570000000000000E-002    5.270152624175050E-003
 -1.560000000000000E-002    5.433437592766989E-003
 -1.550000000000000E-002    5.600203530775517E-003
 -1.540000000000000E-002    5.770448144256960E-003
 -1.530000000000000E-002    5.944165383618243E-003
 -1.520000000000000E-002    6.121343391523716E-003
 -1.510000000000000E-002    6.301965299554113E-003
 -1.500000000000000E-002    6.486008660031481E-003
 -1.490000000000000E-002    6.673445948889648E-003
 -1.480000000000000E-002    6.864243017351499E-003
 -1.470000000000000E-002    7.058359988784316E-003
 -1.460000000000000E-002    7.255749965944994E-003
 -1.450000000000000E-002    7.456359920088898E-003
 -1.440000000000000E-002    7.660129194369959E-003
 -1.430000000000000E-002    7.866990080475835E-003
 -1.420000000000000E-002    8.076867860603321E-003
 -1.410000000000000E-002    8.289679101148103E-003
 -1.400000000000000E-002    8.505332897573641E-003
 -1.390000000000000E-002    8.723729246823197E-003
 -1.380000000000000E-002    8.944760566364222E-003
 -1.370000000000000E-002    9.168309371788495E-003
 -1.360000000000000E-002    9.394249467019042E-003
 -1.350000000000000E-002    9.622444256584355E-003
 -1.340000000000000E-002    9.852747835212379E-003
 -1.330000000000000E-002    1.008500275757516E-002
 -1.320000000000000E-002    1.031904126359644E-002
 -1.310000000000000E-002    1.055468355420728E-002
 -1.300000000000000E-002    1.079173883981499E-002
 -1.290000000000000E-002    1.103000338341948E-002
 -1.280000000000000E-002    1.126926122486966E-002
 -1.270000000000000E-002    1.150928331167619E-002
 -1.260000000000000E-002    1.174982781945645E-002
 -1.250000000000000E-002    1.199063912191061E-002
 -1.240000000000000E-002    1.223144890654521E-002
 -1.230000000000000E-002    1.247197255119092E-002
 -1.220000000000000E-002    1.271191272547035E-002
 -1.210000000000000E-002    1.295095762680413E-002
 -1.200000000000000E-002    1.318877903101888E-002
 -1.190000000000000E-002    1.342503506957006E-002
 -1.180000000000000E-002    1.365936773454806E-002
 -1.170000000000000E-002    1.389140269227376E-002
 -1.160000000000000E-002    1.412074980398216E-002
 -1.150000000000000E-002    1.434700225084279E-002
 -1.140000000000000E-002    1.456973688482609E-002
 -1.130000000000000E-002    1.478851396894076E-002
 -1.120000000000000E-002    1.500287502399463E-002
 -1.110000000000000E-002    1.521234585530850E-002
 -1.100000000000000E-002    1.541643409168688E-002
 -1.090000000000000E-002    1.561462824950784E-002
 -1.080000000000000E-002    1.580639964636367E-002
 -1.070000000000000E-002    1.599120129018793E-002
 -1.060000000000000E-002    1.616846704768986E-002
 -1.050000000000000E-002    1.633761215120414E-002
 -1.040000000000000E-002    1.649803291533284E-002
 -1.030000000000000E-002    1.664910624101604E-002
 -1.020000000000000E-002    1.679018940001249E-002
 -1.010000000000000E-002    1.692062051941363E-002
 -1.000000000000000E-002    1.703971849267074E-002
 -9.899999999999999E-003    1.714678125805257E-002
 -9.800000000000000E-003    1.724108859638210E-002
 -9.699999999999999E-003    1.732189894182260E-002
 -9.599999999999999E-003    1.738845214535018E-002
 -9.500000000000000E-003    1.743996800197184E-002
 -9.399999999999999E-003    1.747564627510502E-002
 -9.299999999999999E-003    1.749466873992401E-002
 -9.200000000000000E-003    1.749619592785539E-002
 -9.099999999999999E-003    1.747937016980438E-002
 -8.999999999999999E-003    1.744331401625601E-002
 -8.900000000000000E-003    1.738713244346346E-002
 -8.799999999999999E-003    1.730991116433061E-002
 -8.699999999999999E-003    1.721071682665520E-002
 -8.600000000000000E-003    1.708859921451421E-002
 -8.499999999999999E-003    1.694258991341980E-002
 -8.399999999999999E-003    1.677170273935573E-002
 -8.300000000000000E-003    1.657493541810844E-002
 -8.199999999999999E-003    1.635126824364461E-002
 -8.100000000000000E-003    1.609966449962294E-002
 -8.000000000000000E-003    1.581907429853176E-002
 -7.899999999999999E-003    1.550843139777760E-002
 -7.800000000000000E-003    1.516665491510112E-002
 -7.699999999999999E-003    1.479265047265316E-002
 -7.599999999999999E-003    1.438530888565454E-002
 -7.499999999999999E-003    1.394351121934888E-002
 -7.399999999999999E-003    1.346612504504454E-002
 -7.299999999999999E-003    1.295200820153940E-002
 -7.199999999999999E-003    1.240000674030407E-002
 -7.100000000000000E-003    1.180895965994815E-002
 -6.999999999999999E-003    1.117769628553570E-002
 -6.899999999999999E-003    1.050503895326374E-002
 -6.800000000000000E-003    9.789803390968702E-003
 -6.699999999999999E-003    9.030801234265206E-003
 -6.599999999999999E-003    8.226838097382916E-003
 -6.499999999999999E-003    7.376717167118120E-003
 -6.399999999999999E-003    6.479239078227901E-003
 -6.299999999999999E-003    5.533204595557612E-003
 -6.199999999999999E-003    4.537413020851135E-003
 -6.100000000000000E-003    3.490666632776738E-003
 -5.999999999999999E-003    2.391769984872020E-003
 -5.899999999999999E-003    1.239532404385836E-003
 -5.800000000000000E-003    3.276727931109634E-005
 -5.699999999999999E-003   -1.229704453210696E-003
 -5.599999999999999E-003   -2.549051284814515E-003
 -5.499999999999999E-003   -3.926433731688951E-003
 -5.399999999999999E-003   -5.363000972147646E-003
 -5.299999999999999E-003   -6.859888349898787E-003
 -5.199999999999999E-003   -8.418216049683168E-003
 -5.099999999999999E-003   -1.003908907126162E-002
 -4.999999999999999E-003   -1.172359196626892E-002
 -4.899999999999999E-003   -1.347279137008786E-002
 -4.799999999999999E-003   -1.528773269527696E-002
 -4.699999999999999E-003   -1.716943509572655E-002
 -4.599999999999999E-003   -1.911889344856370E-002
 -4.499999999999999E-003   -2.113707655726151E-002
 -4.399999999999999E-003   -2.322492493850257E-002
 -4.299999999999999E-003   -2.538334482401969E-002
 -4.199999999999999E-003   -2.761320727282816E-002
 -4.099999999999999E-003   -2.991535773449675E-002
 -3.999999999999999E-003   -3.229059691781292E-002
 -3.899999999999999E-003   -3.473969273172475E-002
 -3.799999999999999E-003   -3.726336941873600E-002
 -3.699999999999999E-003   -3.986230765468406E-002
 -3.599999999999999E-003   -4.253715171802107E-002
 -3.499999999999999E-003   -4.528849167565249E-002
 -3.399999999999999E-003   -4.811687397529253E-002
 -3.299999999999999E-003   -5.102279632710015E-002
 -3.199999999999999E-003   -5.400669914412823E-002
 -3.099999999999999E-003   -5.706897856466180E-002
 -2.999999999999999E-003   -6.020996731132387E-002
 -2.899999999999999E-003   -6.342994601993350E-002
 -2.799999999999999E-003   -6.672913219763327E-002
 -2.699999999999999E-003   -7.010768478934314E-002
 -2.599999999999999E-003   -7.356569690184020E-002
 -2.499999999999999E-003   -7.710319598129176E-002
 -2.399999999999999E-003   -8.072015536989771E-002
 -2.299999999999999E-003   -8.441646314778520E-002
 -2.199999999999999E-003   -8.819194765985497E-002
 -2.099999999999999E-003   -9.204636678952963E-002
 -1.999999999999999E-003   -9.597939746192363E-002
 -1.899999999999999E-003   -9.999064021746555E-002
 -1.799999999999999E-003   -0.104079629632401     
 -1.699999999999999E-003   -0.108245816373107     
 -1.599999999999999E-003   -0.112488572691104     
 -1.499999999999999E-003   -0.116807184713875     
 -1.399999999999999E-003   -0.121200866362406     
 -1.299999999999999E-003   -0.125668737252699     
 -1.199999999999999E-003   -0.130209827077725     
 -1.099999999999999E-003   -0.134823097087829     
 -9.999999999999989E-004   -0.139507420915634     
 -8.999999999999990E-004   -0.144261576546218     
 -7.999999999999990E-004   -0.149084249283203     
 -6.999999999999989E-004   -0.153974052911545     
 -5.999999999999990E-004   -0.158929490213528     
 -4.999999999999989E-004   -0.163948998367941     
 -3.999999999999989E-004   -0.169030903352606     
 -2.999999999999989E-004   -0.174173440713287     
 -1.999999999999989E-004   -0.179374759018248     
 -9.999999999999892E-005   -0.184632923134940     
  1.084202172485504E-018   -0.189945898154724     
  1.000000000000011E-004   -0.195311547110053     
  2.000000000000011E-004   -0.200727651734133     
  3.000000000000011E-004   -0.206191909733791     
  4.000000000000011E-004   -0.211701907958706     
  5.000000000000011E-004   -0.217255163578994     
  6.000000000000011E-004   -0.222849092960108     
  7.000000000000011E-004   -0.228481023005932     
  8.000000000000011E-004   -0.234148167000564     
  9.000000000000012E-004   -0.239847702686179     
  1.000000000000001E-003   -0.245576665151565     
  1.100000000000001E-003   -0.251332065291671     
  1.200000000000001E-003   -0.257110752007751     
  1.300000000000001E-003   -0.262909554293144     
  1.400000000000001E-003   -0.268725199491504     
  1.500000000000001E-003   -0.274554334646940     
  1.600000000000001E-003   -0.280393509785262     
  1.700000000000001E-003   -0.286239234832506     
  1.800000000000001E-003   -0.292087902476918     
  1.900000000000001E-003   -0.297935859063381     
  2.000000000000001E-003   -0.303779384079939     
  2.100000000000001E-003   -0.309614687241827     
  2.200000000000001E-003   -0.315437909629130     
  2.300000000000001E-003   -0.321245103991691     
  2.400000000000001E-003   -0.327032311097980     
  2.500000000000001E-003   -0.332795464554865     
  2.600000000000001E-003   -0.338530483926293     
  2.700000000000001E-003   -0.344233194806146     
  2.800000000000001E-003   -0.349899426369128     
  2.900000000000001E-003   -0.355524923764027     
  3.000000000000001E-003   -0.361105393855487     
  3.100000000000001E-003   -0.366636534524010     
  3.200000000000001E-003   -0.372113971346706     
  3.300000000000001E-003   -0.377533303321242     
  3.400000000000001E-003   -0.382890124215658     
  3.500000000000001E-003   -0.388180018776424     
  3.600000000000001E-003   -0.393398492302949     
  3.700000000000001E-003   -0.398541084507914     
  3.800000000000001E-003   -0.403603291983107     
  3.900000000000001E-003   -0.408580646697799     
  4.000000000000001E-003   -0.413468627760510     
  4.100000000000001E-003   -0.418262753917570     
  4.200000000000001E-003   -0.422958536811313     
  4.300000000000001E-003   -0.427551468721280     
  4.400000000000001E-003   -0.432037097750467     
  4.500000000000001E-003   -0.436410989105019     
  4.600000000000002E-003   -0.440668693824982     
  4.700000000000001E-003   -0.444805853622251     
  4.800000000000001E-003   -0.448818061420048     
  4.900000000000002E-003   -0.452701017990001     
  5.000000000000001E-003   -0.456450411713462     
  5.100000000000001E-003   -0.460062021797851     
  5.200000000000001E-003   -0.463531675517504     
  5.300000000000002E-003   -0.466855202081962     
  5.400000000000001E-003   -0.470028527697725     
  5.500000000000001E-003   -0.473047645771856     
  5.600000000000002E-003   -0.475908647179182     
  5.700000000000001E-003   -0.478607648016729     
  5.800000000000001E-003   -0.481140865921161     
  5.900000000000002E-003   -0.483504569707580     
  6.000000000000001E-003   -0.485695140032582     
  6.100000000000001E-003   -0.487709067492516     
  6.200000000000002E-003   -0.489542922609257     
  6.300000000000002E-003   -0.491193352748149     
  6.400000000000001E-003   -0.492657129751653     
  6.500000000000001E-003   -0.493931164956858     
  6.600000000000002E-003   -0.495012432104543     
  6.700000000000001E-003   -0.495898072197048     
  6.800000000000001E-003   -0.496585289141564     
  6.900000000000002E-003   -0.497071431641706     
  7.000000000000001E-003   -0.497354004065708     
  7.100000000000001E-003   -0.497430610594868     
  7.200000000000002E-003   -0.497299009241128     
  7.300000000000002E-003   -0.496957088695490     
  7.400000000000001E-003   -0.496402843391625     
  7.500000000000001E-003   -0.495634469396315     
  7.600000000000002E-003   -0.494650270571398     
  7.700000000000001E-003   -0.493448723552351     
  7.800000000000001E-003   -0.492028461336646     
  7.900000000000001E-003   -0.490388242963865     
  8.000000000000002E-003   -0.488527010209983     
  8.100000000000001E-003   -0.486443868508417     
  8.200000000000001E-003   -0.484138022848719     
  8.300000000000002E-003   -0.481608922644300     
  8.400000000000001E-003   -0.478856141901360     
  8.500000000000002E-003   -0.475879413271038     
  8.600000000000002E-003   -0.472678659468367     
  8.700000000000001E-003   -0.469253936485085     
  8.800000000000002E-003   -0.465605514137870     
  8.900000000000002E-003   -0.461733816124121     
  9.000000000000001E-003   -0.457639403053961     
  9.100000000000002E-003   -0.453323030704025     
  9.200000000000002E-003   -0.448785657881920     
  9.300000000000001E-003   -0.444028360034930     
  9.400000000000002E-003   -0.439052420523452     
  9.500000000000001E-003   -0.433859285047258     
  9.600000000000001E-003   -0.428450572655768     
  9.700000000000002E-003   -0.422828031967846     
  9.800000000000001E-003   -0.416993645289058     
  9.900000000000001E-003   -0.410949522479431     
  1.000000000000000E-002   -0.404697928994549     
  1.010000000000000E-002   -0.398241321501095     
  1.020000000000000E-002   -0.391582293540415     
  1.030000000000000E-002   -0.384723637994190     
  1.040000000000000E-002   -0.377668253776002     
  1.050000000000000E-002   -0.370419239925190     
  1.060000000000000E-002   -0.362979829700284     
  1.070000000000000E-002   -0.355353390628639     
  1.080000000000000E-002   -0.347543453089393     
  1.090000000000000E-002   -0.339553724079601     
  1.100000000000000E-002   -0.331387981810363     
  1.110000000000000E-002   -0.323050202626209     
  1.120000000000000E-002   -0.314544476588006     
  1.130000000000000E-002   -0.305875025679469     
  1.140000000000000E-002   -0.297046212408786     
  1.150000000000000E-002   -0.288062503079583     
  1.160000000000000E-002   -0.278928501204270     
  1.170000000000000E-002   -0.269648900052020     
  1.180000000000000E-002   -0.260228536106125     
  1.190000000000000E-002   -0.250672332892676     
  1.200000000000000E-002   -0.240985327146112     
  1.210000000000000E-002   -0.231172641407191     
  1.220000000000000E-002   -0.221239511068092     
  1.230000000000000E-002   -0.211191225874790     
  1.240000000000000E-002   -0.201033192214938     
  1.250000000000000E-002   -0.190770875314989     
  1.260000000000000E-002   -0.180409833287616     
  1.270000000000000E-002   -0.169955669541675     
  1.280000000000000E-002   -0.159414081691426     
  1.290000000000000E-002   -0.148790796861748     
  1.300000000000000E-002   -0.138091596618275     
  1.310000000000000E-002   -0.127322323871010     
  1.320000000000000E-002   -0.116488847578066     
  1.330000000000000E-002   -0.105597080656888     
  1.340000000000000E-002   -9.465296811424920E-002
  1.350000000000000E-002   -8.366247678066230E-002
  1.360000000000000E-002   -7.263159053256898E-002
  1.370000000000000E-002   -6.156630875938843E-002
  1.380000000000000E-002   -5.047264142496927E-002
  1.390000000000000E-002   -3.935659654086875E-002
  1.400000000000000E-002   -2.822418116714480E-002
  1.410000000000000E-002   -1.708140126090881E-002
  1.420000000000000E-002   -5.934250978899420E-003
  1.430000000000000E-002    5.211307420082866E-003
  1.440000000000000E-002    1.634932731943677E-002
  1.450000000000000E-002    2.747388917395861E-002
  1.460000000000000E-002    3.857911078180431E-002
  1.470000000000000E-002    4.965914264967303E-002
  1.480000000000000E-002    6.070818905338397E-002
  1.490000000000000E-002    7.172050165020130E-002
  1.500000000000000E-002    8.269038810476900E-002
  1.510000000000000E-002    9.361220056834635E-002
  1.520000000000000E-002    0.104480378937651     
  1.530000000000000E-002    0.115289411754735     
  1.540000000000000E-002    0.126033868211876     
  1.550000000000000E-002    0.136708389552673     
  1.560000000000000E-002    0.147307691827999     
  1.570000000000000E-002    0.157826610501296     
  1.580000000000000E-002    0.168260037361757     
  1.590000000000000E-002    0.178602964158752     
  1.600000000000000E-002    0.188850484190635     
  1.610000000000000E-002    0.198997804177959     
  1.620000000000000E-002    0.209040225949181     
  1.630000000000000E-002    0.218973146574859     
  1.640000000000000E-002    0.228792052852525     
  1.650000000000000E-002    0.238492603617822     
  1.660000000000000E-002    0.248070546331203     
  1.670000000000000E-002    0.257521747653904     
  1.680000000000000E-002    0.266842174228880     
  1.690000000000000E-002    0.276027965562399     
  1.700000000000000E-002    0.285075325802018     
  1.710000000000000E-002    0.293980647418875     
  1.720000000000000E-002    0.302740430822436     
  1.730000000000000E-002    0.311351311204167     
  1.740000000000000E-002    0.319810042978903     
  1.750000000000000E-002    0.328113531864594     
  1.760000000000000E-002    0.336258797593268     
  1.770000000000000E-002    0.344243053514156     
  1.780000000000000E-002    0.352063577261868     
  1.790000000000000E-002    0.359717858749013     
  1.800000000000000E-002    0.367203457272580     
  1.810000000000000E-002    0.374518133696094     
  1.820000000000000E-002    0.381659752214060     
  1.830000000000000E-002    0.388626373980955     
  1.840000000000000E-002    0.395416089193775     
  1.850000000000000E-002    0.402027245573075     
  1.860000000000000E-002    0.408458274266486     
  1.870000000000000E-002    0.414707721107077     