 -4.000000000000000E-002    0.000000000000000E+000
 -3.990000000000000E-002    0.000000000000000E+000
 -3.980000000000000E-002    0.000000000000000E+000
 -3.970000000000000E-002    0.000000000000000E+000
 -3.960000000000000E-002    0.000000000000000E+000
 -3.950000000000000E-002    0.000000000000000E+000
 -3.940000000000000E-002    0.000000000000000E+000
 -3.930000000000000E-002    0.000000000000000E+000
 -3.920000000000000E-002    0.000000000000000E+000
 -3.910000000000000E-002    0.000000000000000E+000
 -3.900000000000000E-002    1.784082944887596E-033
 -3.890000000000000E-002    2.453195700450149E-032
 -3.880000000000000E-002    1.357630239536262E-031
 -3.870000000000000E-002    1.222367079134772E-031
 -3.860000000000000E-002   -3.924976093386868E-030
 -3.850000000000000E-002   -3.807179414388608E-029
 -3.840000000000000E-002   -2.230331238842219E-028
 -3.830000000000000E-002   -1.001815535949837E-027
 -3.820000000000000E-002   -3.736002518600782E-027
 -3.810000000000000E-002   -1.203216440704758E-026
 -3.800000000000000E-002   -3.424549167520068E-026
 -3.790000000000000E-002   -8.737688360097690E-026
 -3.780000000000000E-002   -2.015687431440154E-025
 -3.770000000000000E-002   -4.219836726731000E-025
 -3.760000000000000E-002   -8.004793113210584E-025
 -3.750000000000000E-002   -1.363284362243995E-024
 -3.740000000000000E-002   -2.034493741335483E-024
 -3.730000000000000E-002   -2.492828724933582E-024
 -3.720000000000000E-002   -1.948078790414909E-024
 -3.710000000000000E-002    1.146182349505405E-024
 -3.700000000000000E-002    9.366132115323298E-024
 -3.690000000000000E-002    2.640488371869057E-023
 -3.680000000000000E-002    5.668214870118757E-023
 -3.670000000000000E-002    1.040777316563061E-022
 -3.660000000000000E-002    1.693573281126362E-022
 -3.650000000000000E-002    2.459922093694115E-022
 -3.640000000000000E-002    3.144717342512630E-022
 -3.630000000000000E-002    3.359421948510796E-022
 -3.620000000000000E-002    2.470615969148492E-022
 -3.610000000000000E-002   -4.081735713934925E-023
 -3.600000000000000E-002   -6.339975598382768E-022
 -3.590000000000000E-002   -1.635896769324058E-021
 -3.580000000000000E-002   -3.110336489348711E-021
 -3.570000000000000E-002   -5.028576088118832E-021
 -3.560000000000000E-002   -7.205527339663818E-021
 -3.550000000000000E-002   -9.238052681900679E-021
 -3.540000000000000E-002   -1.046622521174542E-020
 -3.530000000000000E-002   -9.984442582124255E-021
 -3.520000000000000E-002   -6.729854740082085E-021
 -3.510000000000000E-002    3.329903278784356E-022
 -3.500000000000000E-002    1.193267824017047E-020
 -3.490000000000000E-002    2.815025088102632E-020
 -3.480000000000000E-002    4.809090489052098E-020
 -3.470000000000000E-002    6.967986536942945E-020
 -3.460000000000000E-002    8.971605161313479E-020
 -3.450000000000000E-002    1.043046151114544E-019
 -3.440000000000000E-002    1.097258775549807E-019
 -3.430000000000000E-002    1.036745800382889E-019
 -3.420000000000000E-002    8.662612397285437E-020
 -3.410000000000000E-002    6.288351072809978E-020
 -3.400000000000000E-002    4.068456833981253E-020
 -3.390000000000000E-002    3.067915278021847E-020
 -3.380000000000000E-002    4.220835123965029E-020
 -3.370000000000000E-002    7.720420978141528E-020
 -3.360000000000000E-002    1.222189722663086E-019
 -3.350000000000000E-002    1.400423747524955E-019
 -3.340000000000000E-002    6.343620237332201E-020
 -3.330000000000000E-002   -2.055407738658447E-019
 -3.320000000000000E-002   -7.866809894806930E-019
 -3.310000000000000E-002   -1.799715845634108E-018
 -3.300000000000000E-002   -3.327426231055164E-018
 -3.290000000000000E-002   -5.364885928705030E-018
 -3.280000000000000E-002   -7.760262911060287E-018
 -3.270000000000000E-002   -1.015776284511175E-017
 -3.260000000000000E-002   -1.195830819239481E-017
 -3.250000000000000E-002   -1.231717063890630E-017
 -3.240000000000000E-002   -1.019841068241810E-017
 -3.230000000000000E-002   -4.502181568909501E-018
 -3.220000000000000E-002    5.728255661536823E-018
 -3.210000000000000E-002    2.102781015185258E-017
 -3.200000000000000E-002    4.118630522940731E-017
 -3.190000000000000E-002    6.492910816497720E-017
 -3.180000000000000E-002    8.966897938155814E-017
 -3.170000000000000E-002    1.114086292708582E-016
 -3.160000000000000E-002    1.248733035457866E-016
 -3.150000000000000E-002    1.239364621926968E-016
 -3.140000000000000E-002    1.023667739879215E-016
 -3.130000000000000E-002    5.487287964774466E-017
 -3.120000000000000E-002   -2.164150694501029E-017
 -3.110000000000000E-002   -1.267665579181217E-016
 -3.100000000000000E-002   -2.554307984710750E-016
 -3.090000000000000E-002   -3.971467381622905E-016
 -3.080000000000000E-002   -5.359008182360737E-016
 -3.070000000000000E-002   -6.508849734691606E-016
 -3.060000000000000E-002   -7.181723487611697E-016
 -3.050000000000000E-002   -7.133078379355928E-016
 -3.040000000000000E-002   -6.146258250331115E-016
 -3.030000000000000E-002   -4.069527380653691E-016
 -3.020000000000000E-002   -8.522284301009853E-017
 -3.010000000000000E-002    3.425315609062554E-016
 -3.000000000000000E-002    8.533464353047166E-016
 -2.990000000000000E-002    1.409079360384295E-015
 -2.980000000000000E-002    1.957998433000730E-015
 -2.970000000000000E-002    2.438215781066566E-015
 -2.960000000000000E-002    2.782713404906483E-015
 -2.950000000000000E-002    2.925477383906186E-015
 -2.940000000000000E-002    2.808101840160454E-015
 -2.930000000000000E-002    2.386178001285084E-015
 -2.920000000000000E-002    1.634862093166346E-015
 -2.910000000000000E-002    5.532091645127912E-016
 -2.900000000000000E-002   -8.328932447441604E-016
 -2.890000000000000E-002   -2.469102622881801E-015
 -2.880000000000000E-002   -4.272060300868808E-015
 -2.870000000000000E-002   -6.129623680516769E-015
 -2.860000000000000E-002   -7.901802676902686E-015
 -2.850000000000000E-002   -9.422668892761780E-015
 -2.840000000000000E-002   -1.050397775497038E-014
 -2.830000000000000E-002   -1.094171446648251E-014
 -2.820000000000000E-002   -1.052704972826544E-014
 -2.810000000000000E-002   -9.063153258902136E-015
 -2.800000000000000E-002   -6.388759006930905E-015
 -2.790000000000000E-002   -2.408295138139366E-015
 -2.780000000000000E-002    2.873188884951380E-015
 -2.770000000000000E-002    9.313957312513143E-015
 -2.760000000000000E-002    1.660392089522101E-014
 -2.750000000000000E-002    2.424435963615858E-014
 -2.740000000000000E-002    3.154661866131085E-014
 -2.730000000000000E-002    3.765671112790078E-014
 -2.720000000000000E-002    4.161060808811588E-014
 -2.710000000000000E-002    4.242138445709509E-014
 -2.700000000000000E-002    3.919453060909933E-014
 -2.690000000000000E-002    3.126232357538890E-014
 -2.680000000000000E-002    1.832283752042691E-014
 -2.670000000000000E-002    5.650934852425858E-016
 -2.660000000000000E-002   -2.124020876449126E-014
 -2.650000000000000E-002   -4.570414668244061E-014
 -2.640000000000000E-002   -7.085302179328952E-014
 -2.630000000000000E-002   -9.424048505404050E-014
 -2.620000000000000E-002   -1.131375657829167E-013
 -2.610000000000000E-002   -1.247889580394855E-013
 -2.600000000000000E-002   -1.267133480823180E-013
 -2.590000000000000E-002   -1.170168050995318E-013
 -2.580000000000000E-002   -9.468289256432474E-014
 -2.570000000000000E-002   -5.980237524954696E-014
 -2.560000000000000E-002   -1.370952463598796E-014
 -2.550000000000000E-002    4.099901110074681E-014
 -2.540000000000000E-002    1.005741910452751E-013
 -2.530000000000000E-002    1.603501358961080E-013
 -2.520000000000000E-002    2.150874764082640E-013
 -2.510000000000000E-002    2.593940437654203E-013
 -2.500000000000000E-002    2.881840440796750E-013
 -2.490000000000000E-002    2.971334012667208E-013
 -2.480000000000000E-002    2.830906701914598E-013
 -2.470000000000000E-002    2.444096255606053E-013
 -2.460000000000000E-002    1.811795535792780E-013
 -2.450000000000000E-002    9.534025944607994E-014
 -2.440000000000000E-002   -9.320186095042143E-015
 -2.430000000000000E-002   -1.272791211691691E-013
 -2.420000000000000E-002   -2.514937439726075E-013
 -2.410000000000000E-002   -3.737047535622097E-013
 -2.400000000000000E-002   -4.848195498347384E-013
 -2.390000000000000E-002   -5.753684995767528E-013
 -2.380000000000000E-002   -6.360307115213241E-013
 -2.370000000000000E-002   -6.582250506992555E-013
 -2.360000000000000E-002   -6.347583482541427E-013
 -2.350000000000000E-002   -5.605128449757288E-013
 -2.340000000000000E-002   -4.331417367964506E-013
 -2.330000000000000E-002   -2.537252473872923E-013
 -2.320000000000000E-002   -2.732349586754003E-014
 -2.310000000000000E-002    2.366499336567545E-013
 -2.300000000000000E-002    5.243157664522620E-013
 -2.290000000000000E-002    8.175562118156194E-013
 -2.280000000000000E-002    1.094644345756005E-012
 -2.270000000000000E-002    1.331312101885077E-012
 -2.260000000000000E-002    1.502254448390179E-012
 -2.250000000000000E-002    1.583024524811456E-012
 -2.240000000000000E-002    1.552224065143712E-012
 -2.230000000000000E-002    1.393845083676374E-012
 -2.220000000000000E-002    1.099577986270403E-012
 -2.210000000000000E-002    6.708691199215679E-013
 -2.200000000000000E-002    1.204940879266171E-013
 -2.190000000000000E-002   -5.265833083576708E-013
 -2.180000000000000E-002   -1.233271947158901E-012
 -2.170000000000000E-002   -1.951491767738898E-012
 -2.160000000000000E-002   -2.624475349536858E-012
 -2.150000000000000E-002   -3.190224375169577E-012
 -2.140000000000000E-002   -3.586003161077093E-012
 -2.130000000000000E-002   -3.753630576287206E-012
 -2.120000000000000E-002   -3.645212743315013E-012
 -2.110000000000000E-002   -3.228849488609925E-012
 -2.100000000000000E-002   -2.493775022993926E-012
 -2.090000000000000E-002   -1.454353540483725E-012
 -2.080000000000000E-002   -1.523749045047546E-013
 -2.070000000000000E-002    1.342816419370146E-012
 -2.060000000000000E-002    2.936675178337225E-012
 -2.050000000000000E-002    4.514388882665258E-012
 -2.040000000000000E-002    5.948238825853972E-012
 -2.030000000000000E-002    7.106951746293675E-012
 -2.020000000000000E-002    7.866362887958049E-012
 -2.010000000000000E-002    8.120492976846779E-012
 -2.000000000000000E-002    7.792027876400746E-012
 -1.990000000000000E-002    6.841173452051702E-012
 -1.980000000000000E-002    5.271974888155573E-012
 -1.970000000000000E-002    3.135400112399062E-012
 -1.960000000000000E-002    5.288036596466520E-013
 -1.950000000000000E-002   -2.408247286922357E-012
 -1.940000000000000E-002   -5.501448104138366E-012
 -1.930000000000000E-002   -8.551889509892296E-012
 -1.920000000000000E-002   -1.134799095666439E-011
 -1.910000000000000E-002   -1.367830372966266E-011
 -1.900000000000000E-002   -1.534430499954963E-011
 -1.890000000000000E-002   -1.617247690598855E-011
 -1.880000000000000E-002   -1.602519798220069E-011
 -1.870000000000000E-002   -1.481025011867309E-011
 -1.860000000000000E-002   -1.248890918041040E-011
 -1.850000000000000E-002   -9.082698911629085E-012
 -1.840000000000000E-002   -4.678790168597878E-012
 -1.830000000000000E-002    5.661663518953005E-013
 -1.820000000000000E-002    6.424346497956640E-012
 -1.810000000000000E-002    1.259812727666003E-011
 -1.800000000000000E-002    1.872577057167115E-011
 -1.790000000000000E-002    2.439277788687810E-011
 -1.780000000000000E-002    2.915011465548946E-011
 -1.770000000000000E-002    3.253999800422398E-011
 -1.760000000000000E-002    3.412906976837612E-011
 -1.750000000000000E-002    3.354762348246423E-011
 -1.740000000000000E-002    3.053224209798012E-011
 -1.730000000000000E-002    2.496793610218254E-011
 -1.720000000000000E-002    1.692491306315018E-011
 -1.710000000000000E-002    6.684520934049544E-012
 -1.700000000000000E-002   -5.250768927324962E-012
 -1.690000000000000E-002   -1.816759752081800E-011
 -1.680000000000000E-002   -3.117466009885276E-011
 -1.670000000000000E-002   -4.325841589390873E-011
 -1.660000000000000E-002   -5.335892905001995E-011
 -1.650000000000000E-002   -6.046037698556391E-011
 -1.640000000000000E-002   -6.368833714059525E-011
 -1.630000000000000E-002   -6.240435478608122E-011
 -1.620000000000000E-002   -5.628757031668742E-011
 -1.610000000000000E-002   -4.539390756063449E-011
 -1.600000000000000E-002   -3.018500172087803E-011
 -1.590000000000000E-002   -1.152202285088985E-011
 -1.580000000000000E-002    9.376962664270601E-012
 -1.570000000000000E-002    3.101367496238727E-011
 -1.560000000000000E-002    5.171438332855488E-011
 -1.550000000000000E-002    6.975408413805950E-011
 -1.540000000000000E-002    8.348971559098896E-011
 -1.530000000000000E-002    9.149162964755086E-011
 -1.520000000000000E-002    9.266340494190813E-011
 -1.510000000000000E-002    8.634195236426254E-011
 -1.500000000000000E-002    7.237210951370254E-011
 -1.490000000000000E-002    5.115265057372906E-011
 -1.480000000000000E-002    2.365245721527464E-011
 -1.470000000000000E-002   -8.602797798018698E-012
 -1.460000000000000E-002   -4.357304156873143E-011
 -1.450000000000000E-002   -7.877502923817154E-011
 -1.440000000000000E-002   -1.113833651804316E-010
 -1.430000000000000E-002   -1.383632487266626E-010
 -1.420000000000000E-002   -1.566370730029852E-010
 -1.410000000000000E-002   -1.632861251333929E-010
 -1.400000000000000E-002   -1.557859037835795E-010
 -1.390000000000000E-002   -1.322688475683168E-010
 -1.380000000000000E-002   -9.180223566409346E-011
 -1.370000000000000E-002   -3.466159906841217E-011
 -1.360000000000000E-002    3.742682629265128E-011
 -1.350000000000000E-002    1.211072114496693E-010
 -1.340000000000000E-002    2.113134480202113E-010
 -1.330000000000000E-002    3.013212136585745E-010
 -1.320000000000000E-002    3.829606342077153E-010
 -1.310000000000000E-002    4.470070277595187E-010
 -1.300000000000000E-002    4.837516694307089E-010
 -1.290000000000000E-002    4.837360547549581E-010
 -1.280000000000000E-002    4.386129632072360E-010
 -1.270000000000000E-002    3.420789844730180E-010
 -1.260000000000000E-002    1.908069147213104E-010
 -1.250000000000000E-002   -1.470386179549016E-011
 -1.240000000000000E-002   -2.694438254602880E-010
 -1.230000000000000E-002   -5.634570743995150E-010
 -1.220000000000000E-002   -8.817198817192310E-010
 -1.210000000000000E-002   -1.204382490178016E-009
 -1.200000000000000E-002   -1.507397239906469E-009
 -1.190000000000000E-002   -1.763529148368169E-009
 -1.180000000000000E-002   -1.943718384376844E-009
 -1.170000000000000E-002   -2.018738257777630E-009
 -1.160000000000000E-002   -1.961071703410303E-009
 -1.150000000000000E-002   -1.746915999492890E-009
 -1.140000000000000E-002   -1.358213992012434E-009
 -1.130000000000000E-002   -7.846089571066926E-010
 -1.120000000000000E-002   -2.521873931467626E-011
 -1.110000000000000E-002    9.098694233115253E-010
 -1.100000000000000E-002    1.998478978029127E-009
 -1.090000000000000E-002    3.205687139654064E-009
 -1.080000000000000E-002    4.483714241554191E-009
 -1.070000000000000E-002    5.772432869529305E-009
 -1.060000000000000E-002    7.000565627562456E-009
 -1.050000000000000E-002    8.087616311754881E-009
 -1.040000000000000E-002    8.946569449871659E-009
 -1.030000000000000E-002    9.487355491600533E-009
 -1.020000000000000E-002    9.621043978135227E-009
 -1.010000000000000E-002    9.264679437499049E-009
 -1.000000000000000E-002    8.346625957058836E-009
 -9.899999999999999E-003    6.812227863067022E-009
 -9.800000000000000E-003    4.629550395938698E-009
 -9.699999999999999E-003    1.794916936994420E-009
 -9.599999999999999E-003   -1.662061787882189E-009
 -9.500000000000000E-003   -5.674274397515765E-009
 -9.399999999999999E-003   -1.013400728384350E-008
 -9.299999999999999E-003   -1.489120636417428E-008
 -9.200000000000000E-003   -1.975328040572168E-008
 -9.099999999999999E-003   -2.448655635144780E-008
 -8.999999999999999E-003   -2.881939323674544E-008
 -8.900000000000000E-003   -3.244687970537523E-008
 -8.799999999999999E-003   -3.503691898998446E-008
 -8.699999999999999E-003   -3.623746462917812E-008
 -8.600000000000000E-003   -3.568458052034331E-008
 -8.499999999999999E-003   -3.301099175685381E-008
 -8.399999999999999E-003   -2.785474705576283E-008
 -8.300000000000000E-003   -1.986764843717878E-008
 -8.199999999999999E-003   -8.723105322687948E-009
 -8.100000000000000E-003    5.876844312445615E-009
 -8.000000000000000E-003    2.419563385974251E-008
 -7.899999999999999E-003    4.645754087644884E-008
 -7.800000000000000E-003    7.284454474297377E-008
 -7.699999999999999E-003    1.034947090671601E-007
 -7.599999999999999E-003    1.385022745864207E-007
 -7.499999999999999E-003    1.779193850499166E-007
 -7.399999999999999E-003    2.217595297663149E-007
 -7.299999999999999E-003    2.700026228808165E-007
 -7.199999999999999E-003    3.226016469623459E-007
 -7.100000000000000E-003    3.794906675398551E-007
 -6.999999999999999E-003    4.405939755177962E-007
 -6.899999999999999E-003    5.058360023230227E-007
 -6.800000000000000E-003    5.751518775590405E-007
 -6.699999999999999E-003    6.484975977988024E-007
 -6.599999999999999E-003    7.258600294455453E-007
 -6.499999999999999E-003    8.072658741028988E-007
 -6.399999999999999E-003    8.927890226973796E-007
 -6.299999999999999E-003    9.825562589671565E-007
 -6.199999999999999E-003    1.076751034283297E-006
 -6.100000000000000E-003    1.175614845047926E-006
 -5.999999999999999E-003    1.279446678448207E-006
 -5.899999999999999E-003    1.388600516952094E-006
 -5.800000000000000E-003    1.503480973255360E-006
 -5.699999999999999E-003    1.624538409746694E-006
 -5.599999999999999E-003    1.752263125084508E-006
 -5.499999999999999E-003    1.887179279326456E-006
 -5.399999999999999E-003    2.029839745229187E-006
 -5.299999999999999E-003    2.180821586551474E-006
 -5.199999999999999E-003    2.340723066928588E-006
 -5.099999999999999E-003    2.510161862106522E-006
 -4.999999999999999E-003    2.689774909276213E-006
 -4.899999999999999E-003    2.880220131678088E-006
 -4.799999999999999E-003    3.082178552369257E-006
 -4.699999999999999E-003    3.296357920930750E-006
 -4.599999999999999E-003    3.523497222203068E-006
 -4.499999999999999E-003    3.764370830279731E-006
 -4.399999999999999E-003    4.019792909105596E-006
 -4.299999999999999E-003    4.290621969891254E-006
 -4.199999999999999E-003    4.577764260625441E-006
 -4.099999999999999E-003    4.882177121973112E-006
 -3.999999999999999E-003    5.204869471755849E-006
 -3.899999999999999E-003    5.546905799785726E-006
 -3.799999999999999E-003    5.909405314805191E-006
 -3.699999999999999E-003    6.293543585050033E-006
 -3.599999999999999E-003    6.700551529839230E-006
 -3.499999999999999E-003    7.131715850493024E-006
 -3.399999999999999E-003    7.588378209540206E-006
 -3.299999999999999E-003    8.071935534510697E-006
 -3.199999999999999E-003    8.583840827303914E-006
 -3.099999999999999E-003    9.125602139011307E-006
 -2.999999999999999E-003    9.698784914625342E-006
 -2.899999999999999E-003    1.030501405802624E-005
 -2.799999999999999E-003    1.094597580102286E-005
 -2.699999999999999E-003    1.162342264337002E-005
 -2.599999999999999E-003    1.233917797041361E-005
 -2.499999999999999E-003    1.309513990941071E-005
 -2.399999999999999E-003    1.389329091811906E-005
 -2.299999999999999E-003    1.473570345740102E-005
 -2.199999999999999E-003    1.562454564498364E-005
 -2.099999999999999E-003    1.656209529872195E-005
 -1.999999999999999E-003    1.755074586232907E-005
 -1.899999999999999E-003    1.859301252486070E-005
 -1.799999999999999E-003    1.969154755526619E-005
 -1.699999999999999E-003    2.084914499187584E-005
 -1.599999999999999E-003    2.206875100652921E-005
 -1.499999999999999E-003    2.335347330410476E-005
 -1.399999999999999E-003    2.470659128954399E-005
 -1.299999999999999E-003    2.613156455679327E-005
 -1.199999999999999E-003    2.763203866441905E-005
 -1.099999999999999E-003    2.921185948399938E-005
 -9.999999999999989E-004    3.087507669552392E-005
 -8.999999999999990E-004    3.262594650969290E-005
 -7.999999999999990E-004    3.446894809387167E-005
 -6.999999999999989E-004    3.640877910520232E-005
 -5.999999999999990E-004    3.845036050504337E-005
 -4.999999999999989E-004    4.059883415297060E-005
 -3.999999999999989E-004    4.285956531856765E-005
 -2.999999999999989E-004    4.523813236261291E-005
 -1.999999999999989E-004    4.774032870784621E-005
 -9.999999999999892E-005    5.037215223211107E-005
  1.084202172485504E-018    5.313979975789024E-005
  1.000000000000011E-004    5.604966419927362E-005
  2.000000000000011E-004    5.910833377196900E-005
  3.000000000000011E-004    6.232258835608853E-005
  4.000000000000011E-004    6.569941170539078E-005
  5.000000000000011E-004    6.924599454359776E-005
  6.000000000000011E-004    7.296974921227090E-005
  7.000000000000011E-004    7.687833451074665E-005
  8.000000000000011E-004    8.097968881125348E-005
  9.000000000000012E-004    8.528203138315280E-005
  1.000000000000001E-003    8.979391900520348E-005
  1.100000000000001E-003    9.452426690177925E-005
  1.200000000000001E-003    9.948237666104005E-005
  1.300000000000001E-003    1.046779792258639E-004
  1.400000000000001E-003    1.101212372049949E-004
  1.500000000000001E-003    1.158227936591354E-004
  1.600000000000001E-003    1.217937727702818E-004
  1.700000000000001E-003    1.280457940351604E-004
  1.800000000000001E-003    1.345910008946104E-004
  1.900000000000001E-003    1.414420494692822E-004
  2.000000000000001E-003    1.486120985491860E-004
  2.100000000000001E-003    1.561148176458852E-004
  2.200000000000001E-003    1.639643884209996E-004
  2.300000000000001E-003    1.721755183964495E-004
  2.400000000000001E-003    1.807633764340600E-004
  2.500000000000001E-003    1.897436389249458E-004
  2.600000000000001E-003    1.991324810317472E-004
  2.700000000000001E-003    2.089465316760060E-004
  2.800000000000001E-003    2.192029329525997E-004
  2.900000000000001E-003    2.299193392832243E-004
  3.000000000000001E-003    2.411138662879514E-004
  3.100000000000001E-003    2.528051625386895E-004
  3.200000000000001E-003    2.650124266768019E-004
  3.300000000000001E-003    2.777553673183386E-004
  3.400000000000001E-003    2.910543226792781E-004
  3.500000000000001E-003    3.049301948659539E-004
  3.600000000000001E-003    3.194045354164993E-004
  3.700000000000001E-003    3.344995585196787E-004
  3.800000000000001E-003    3.502381799851623E-004
  3.900000000000001E-003    3.666440403813475E-004
  4.000000000000001E-003    3.837415186687047E-004
  4.100000000000001E-003    4.015557703799760E-004
  4.200000000000001E-003    4.201127629481791E-004
  4.300000000000001E-003    4.394392534385658E-004
  4.400000000000001E-003    4.595628289722458E-004
  4.500000000000001E-003    4.805118905291348E-004
  4.600000000000002E-003    5.023156585702620E-004
  4.700000000000001E-003    5.250042197750401E-004
  4.800000000000001E-003    5.486084281747346E-004
  4.900000000000002E-003    5.731599240506891E-004
  5.000000000000001E-003    5.986912765170878E-004
  5.100000000000001E-003    6.252357641460474E-004
  5.200000000000001E-003    6.528275411609405E-004
  5.300000000000002E-003    6.815015490092016E-004
  5.400000000000001E-003    7.112935939306014E-004
  5.500000000000001E-003    7.422403065870294E-004
  5.600000000000002E-003    7.743792107498745E-004
  5.700000000000001E-003    8.077486606011217E-004
  5.800000000000001E-003    8.423879834331233E-004
  5.900000000000002E-003    8.783373428162777E-004
  6.000000000000001E-003    9.156378602135265E-004
  6.100000000000001E-003    9.543315552703641E-004
  6.200000000000002E-003    9.944614715950773E-004
  6.300000000000002E-003    1.036071416605708E-003
  6.400000000000001E-003    1.079206213485063E-003
  6.500000000000001E-003    1.123911609638454E-003
  6.600000000000002E-003    1.170234264583620E-003
  6.700000000000001E-003    1.218221633807449E-003
  6.800000000000001E-003    1.267922094328469E-003
  6.900000000000002E-003    1.319384909313440E-003
  7.000000000000001E-003    1.372660105541624E-003
  7.100000000000001E-003    1.427798655605930E-003
  7.200000000000002E-003    1.484852139609448E-003
  7.300000000000002E-003    1.543873083250792E-003
  7.400000000000001E-003    1.604914756908332E-003
  7.500000000000001E-003    1.668031273819824E-003
  7.600000000000002E-003    1.733277415969579E-003
  7.700000000000001E-003    1.800708896199038E-003
  7.800000000000001E-003    1.870382024789066E-003
  7.900000000000001E-003    1.942353980071499E-003
  8.000000000000002E-003    2.016682647268784E-003
  8.100000000000001E-003    2.093426472983525E-003
  8.200000000000001E-003    2.172645031476157E-003
  8.300000000000002E-003    2.254398148228261E-003
  8.400000000000001E-003    2.338746469309623E-003
  8.500000000000002E-003    2.425751564388885E-003
  8.600000000000002E-003    2.515475336624482E-003
  8.700000000000001E-003    2.607980093021593E-003
  8.800000000000002E-003    2.703329008582501E-003
  8.900000000000002E-003    2.801585698964317E-003
  9.000000000000001E-003    2.902814082855660E-003
  9.100000000000002E-003    3.007078300756268E-003
  9.200000000000002E-003    3.114443062615072E-003
  9.300000000000001E-003    3.224973309020227E-003
  9.400000000000002E-003    3.338733833679942E-003
  9.500000000000001E-003    3.455789945546420E-003
  9.600000000000001E-003    3.576206529202575E-003
  9.700000000000002E-003    3.700048769621416E-003
  9.800000000000001E-003    3.827381617203702E-003
  9.900000000000001E-003    3.958269967180908E-003
  1.000000000000000E-002    4.092778164177277E-003
  1.010000000000000E-002    4.230970160227398E-003
  1.020000000000000E-002    4.372909884091501E-003
  1.030000000000000E-002    4.518660857443814E-003
  1.040000000000000E-002    4.668285259989131E-003
  1.050000000000000E-002    4.821845447925719E-003
  1.060000000000000E-002    4.979402978460093E-003
  1.070000000000000E-002    5.141018499599546E-003
  1.080000000000000E-002    5.306751947153994E-003
  1.090000000000000E-002    5.476662439762961E-003
  1.100000000000000E-002    5.650808172406061E-003
  1.110000000000000E-002    5.829245690256534E-003
  1.120000000000000E-002    6.012031546637145E-003
  1.130000000000000E-002    6.199220196646184E-003
  1.140000000000000E-002    6.390865103415589E-003
  1.150000000000000E-002    6.587018352196443E-003
  1.160000000000000E-002    6.787730063784324E-003
  1.170000000000000E-002    6.993049038880705E-003
  1.180000000000000E-002    7.203022039676051E-003
  1.190000000000000E-002    7.417693807564184E-003
  1.200000000000000E-002    7.637106823493871E-003
  1.210000000000000E-002    7.861301463227128E-003
  1.220000000000000E-002    8.090315281562057E-003
  1.230000000000000E-002    8.324183464945732E-003
  1.240000000000000E-002    8.562938948366747E-003
  1.250000000000000E-002    8.806610913914277E-003
  1.260000000000000E-002    9.055227023357868E-003
  1.270000000000000E-002    9.308810930254641E-003
  1.280000000000000E-002    9.567382095270987E-003
  1.290000000000000E-002    9.830958542259956E-003
  1.300000000000000E-002    1.009955404060267E-002
  1.310000000000000E-002    1.037318036290012E-002
  1.320000000000000E-002    1.065184310503229E-002
  1.330000000000000E-002    1.093554538599901E-002
  1.340000000000000E-002    1.122428715714896E-002
  1.350000000000000E-002    1.151806389866554E-002
  1.360000000000000E-002    1.181686688728453E-002
  1.370000000000000E-002    1.212068332306048E-002
  1.380000000000000E-002    1.242949567961260E-002
  1.390000000000000E-002    1.274328315657903E-002
  1.400000000000000E-002    1.306201797773623E-002
  1.410000000000000E-002    1.338566888677541E-002
  1.420000000000000E-002    1.371420015393652E-002
  1.430000000000000E-002    1.404757098808125E-002
  1.440000000000000E-002    1.438573376804175E-002
  1.450000000000000E-002    1.472863690190482E-002
  1.460000000000000E-002    1.507622231855681E-002
  1.470000000000000E-002    1.542842681777818E-002
  1.480000000000000E-002    1.578518069754182E-002
  1.490000000000000E-002    1.614640905090043E-002
  1.500000000000000E-002    1.651203011053465E-002
  1.510000000000000E-002    1.688195652139435E-002
  1.520000000000000E-002    1.725609349750561E-002
  1.530000000000000E-002    1.763434264066536E-002
  1.540000000000000E-002    1.801659492817666E-002
  1.550000000000000E-002    1.840274041200561E-002
  1.560000000000000E-002    1.879265667850409E-002
  1.570000000000000E-002    1.918621879857042E-002
  1.580000000000000E-002    1.958329383994604E-002
  1.590000000000000E-002    1.998374216088612E-002
  1.600000000000000E-002    2.038741648332916E-002
  1.610000000000000E-002    2.079416479953093E-002
  1.620000000000000E-002    2.120382682037917E-002
  1.630000000000000E-002    2.161623399720852E-002
  1.640000000000000E-002    2.203121111683349E-002
  1.650000000000000E-002    2.244857898231606E-002
  1.660000000000000E-002    2.286814600220165E-002
  1.670000000000000E-002    2.328971818635485E-002
  1.680000000000000E-002    2.371309120433089E-002
  1.690000000000000E-002    2.413805561099992E-002
  1.700000000000000E-002    2.456439277101014E-002
  1.710000000000000E-002    2.499187880396329E-002
  1.720000000000000E-002    2.542028082258244E-002
  1.730000000000000E-002    2.584936152644784E-002
  1.740000000000000E-002    2.627887224840636E-002
  1.750000000000000E-002    2.670856176969348E-002
  1.760000000000000E-002    2.713816627402374E-002
  1.770000000000000E-002    2.756742095430755E-002
  1.780000000000000E-002    2.799605020413724E-002
  1.790000000000000E-002    2.842377314497645E-002
  1.800000000000000E-002    2.885030166371693E-002
  1.810000000000000E-002    2.927534145879139E-002
  1.820000000000000E-002    2.969859099935570E-002
  1.830000000000000E-002    3.011974228500762E-002
  1.840000000000000E-002    3.053848091205673E-002
  1.850000000000000E-002    3.095448893962780E-002
  1.860000000000000E-002    3.136743976895214E-002
  1.870000000000000E-002    3.177699993693933E-002