 -4.000000000000000E-002    0.000000000000000E+000
 -3.990000000000000E-002    0.000000000000000E+000
 -3.980000000000000E-002    0.000000000000000E+000
 -3.970000000000000E-002    0.000000000000000E+000
 -3.960000000000000E-002    0.000000000000000E+000
 -3.950000000000000E-002    0.000000000000000E+000
 -3.940000000000000E-002    0.000000000000000E+000
 -3.930000000000000E-002    0.000000000000000E+000
 -3.920000000000000E-002    1.382214572736080E-028
 -3.910000000000000E-002    2.029190097066960E-027
 -3.900000000000000E-002    1.491642046124676E-026
 -3.890000000000000E-002    7.216712668143328E-026
 -3.880000000000000E-002    2.513981279478183E-025
 -3.870000000000000E-002    6.303486912483629E-025
 -3.860000000000000E-002    9.438582426088886E-025
 -3.850000000000000E-002   -6.163427940812439E-025
 -3.840000000000000E-002   -1.047343058288033E-023
 -3.830000000000000E-002   -4.600357234446788E-023
 -3.820000000000000E-002   -1.463443778721576E-022
 -3.810000000000000E-002   -3.873265948575631E-022
 -3.800000000000000E-002   -8.963791021240166E-022
 -3.790000000000000E-002   -1.856698096644819E-021
 -3.780000000000000E-002   -3.481275011004685E-021
 -3.770000000000000E-002   -5.929141649541342E-021
 -3.760000000000000E-002   -9.133442976083237E-021
 -3.750000000000000E-002   -1.252087098277113E-020
 -3.740000000000000E-002   -1.463216177623857E-020
 -3.730000000000000E-002   -1.270850500690036E-020
 -3.720000000000000E-002   -2.386228132334889E-021
 -3.710000000000000E-002    2.227224391385418E-020
 -3.700000000000000E-002    6.811826027688811E-020
 -3.690000000000000E-002    1.413318546894292E-019
 -3.680000000000000E-002    2.447205885918262E-019
 -3.670000000000000E-002    3.739606429910993E-019
 -3.660000000000000E-002    5.132362298971839E-019
 -3.650000000000000E-002    6.312363279034774E-019
 -3.640000000000000E-002    6.789658325745529E-019
 -3.630000000000000E-002    5.911496160406598E-019
 -3.620000000000000E-002    2.929448492676355E-019
 -3.610000000000000E-002   -2.869593199878111E-019
 -3.600000000000000E-002   -1.197091539639870E-018
 -3.590000000000000E-002   -2.439958355805695E-018
 -3.580000000000000E-002   -3.949193310867669E-018
 -3.570000000000000E-002   -5.573448306367614E-018
 -3.560000000000000E-002   -7.074337164853961E-018
 -3.550000000000000E-002   -8.144911347190657E-018
 -3.540000000000000E-002   -8.451922885764208E-018
 -3.530000000000000E-002   -7.699362061656722E-018
 -3.520000000000000E-002   -5.703161929562102E-018
 -3.510000000000000E-002   -2.458861747267210E-018
 -3.500000000000000E-002    1.822007003716322E-018
 -3.490000000000000E-002    6.732449725817057E-018
 -3.480000000000000E-002    1.176699172315734E-017
 -3.470000000000000E-002    1.649948936842247E-017
 -3.460000000000000E-002    2.082222364929526E-017
 -3.450000000000000E-002    2.519712528888868E-017
 -3.440000000000000E-002    3.084035003878816E-017
 -3.430000000000000E-002    3.974098782897905E-017
 -3.420000000000000E-002    5.441256169031577E-017
 -3.410000000000000E-002    7.730151055556206E-017
 -3.400000000000000E-002    1.098351895587105E-016
 -3.390000000000000E-002    1.511815502687744E-016
 -3.380000000000000E-002    1.969039777436379E-016
 -3.370000000000000E-002    2.378086885863547E-016
 -3.360000000000000E-002    2.593698913039663E-016
 -3.350000000000000E-002    2.421521566132708E-016
 -3.340000000000000E-002    1.635952411616879E-016
 -3.330000000000000E-002    1.371232812068060E-018
 -3.320000000000000E-002   -2.617396613762580E-016
 -3.310000000000000E-002   -6.318566227737515E-016
 -3.300000000000000E-002   -1.097674780754460E-015
 -3.290000000000000E-002   -1.624948365965900E-015
 -3.280000000000000E-002   -2.153155184968489E-015
 -3.270000000000000E-002   -2.595747104766149E-015
 -3.260000000000000E-002   -2.845159634394556E-015
 -3.250000000000000E-002   -2.783229966544908E-015
 -3.240000000000000E-002   -2.296869839165458E-015
 -3.230000000000000E-002   -1.297857111895037E-015
 -3.220000000000000E-002    2.554150706491617E-016
 -3.210000000000000E-002    2.337299559669937E-015
 -3.200000000000000E-002    4.838985339241305E-015
 -3.190000000000000E-002    7.561005584493699E-015
 -3.180000000000000E-002    1.021729819684308E-014
 -3.170000000000000E-002    1.245274902221456E-014
 -3.160000000000000E-002    1.387444570241257E-014
 -3.150000000000000E-002    1.409476477138494E-014
 -3.140000000000000E-002    1.278233492859587E-014
 -3.130000000000000E-002    9.715134940402768E-015
 -3.120000000000000E-002    4.828797117648307E-015
 -3.110000000000000E-002   -1.746986526619484E-015
 -3.100000000000000E-002   -9.670267909748319E-015
 -3.090000000000000E-002   -1.839132714977919E-014
 -3.080000000000000E-002   -2.718164443694389E-014
 -3.070000000000000E-002   -3.518613764723165E-014
 -3.060000000000000E-002   -4.149433209913911E-014
 -3.050000000000000E-002   -4.522365410653834E-014
 -3.040000000000000E-002   -4.560641302167900E-014
 -3.030000000000000E-002   -4.207159009200496E-014
 -3.020000000000000E-002   -3.431338090986802E-014
 -3.010000000000000E-002   -2.234026479377040E-014
 -3.000000000000000E-002   -6.500878764367491E-015
 -2.990000000000000E-002    1.251433641334665E-014
 -2.980000000000000E-002    3.369437350512008E-014
 -2.970000000000000E-002    5.574891036796069E-014
 -2.960000000000000E-002    7.716610465188824E-014
 -2.950000000000000E-002    9.628381540180693E-014
 -2.940000000000000E-002    1.113724135123521E-013
 -2.930000000000000E-002    1.207283209600041E-013
 -2.920000000000000E-002    1.227788413975786E-013
 -2.910000000000000E-002    1.161983157271548E-013
 -2.900000000000000E-002    1.000347809376029E-013
 -2.890000000000000E-002    7.384312318867434E-014
 -2.880000000000000E-002    3.781718975301998E-014
 -2.870000000000000E-002   -7.091637447402734E-015
 -2.860000000000000E-002   -5.908569620142250E-014
 -2.850000000000000E-002   -1.154816018543808E-013
 -2.840000000000000E-002   -1.727399444591071E-013
 -2.830000000000000E-002   -2.265815663085718E-013
 -2.820000000000000E-002   -2.722018254231064E-013
 -2.810000000000000E-002   -3.045850583813239E-013
 -2.800000000000000E-002   -3.189099078565130E-013
 -2.790000000000000E-002   -3.110222493027039E-013
 -2.780000000000000E-002   -2.779400785271660E-013
 -2.770000000000000E-002   -2.183426534759642E-013
 -2.760000000000000E-002   -1.329884310047585E-013
 -2.750000000000000E-002   -2.500358038026423E-014
 -2.740000000000000E-002    1.000135599567757E-013
 -2.730000000000000E-002    2.341166406897018E-013
 -2.720000000000000E-002    3.673920998469865E-013
 -2.710000000000000E-002    4.885989475466509E-013
 -2.700000000000000E-002    5.860448582367785E-013
 -2.690000000000000E-002    6.486431611982633E-013
 -2.680000000000000E-002    6.670656424183932E-013
 -2.670000000000000E-002    6.348822741469420E-013
 -2.660000000000000E-002    5.495597725947137E-013
 -2.650000000000000E-002    4.131864240407305E-013
 -2.640000000000000E-002    2.328007107848560E-013
 -2.630000000000000E-002    2.022805099146648E-014
 -2.620000000000000E-002   -2.086264929928593E-013
 -2.610000000000000E-002   -4.350214870292309E-013
 -2.600000000000000E-002   -6.390845527136878E-013
 -2.590000000000000E-002   -8.018332974748588E-013
 -2.580000000000000E-002   -9.073040435881488E-013
 -2.570000000000000E-002   -9.445358456887912E-013
 -2.560000000000000E-002   -9.091387134552857E-013
 -2.550000000000000E-002   -8.041944562354813E-013
 -2.540000000000000E-002   -6.402944757100775E-013
 -2.530000000000000E-002   -4.346106884984963E-013
 -2.520000000000000E-002   -2.090213290155410E-013
 -2.510000000000000E-002    1.255506996353139E-014
 -2.500000000000000E-002    2.073249794334743E-013
 -2.490000000000000E-002    3.568881569044393E-013
 -2.480000000000000E-002    4.501414600983667E-013
 -2.470000000000000E-002    4.853534680117566E-013
 -2.460000000000000E-002    4.710016213054218E-013
 -2.450000000000000E-002    4.251033187196099E-013
 -2.440000000000000E-002    3.729629206602863E-013
 -2.430000000000000E-002    3.434799667092277E-013
 -2.420000000000000E-002    3.644017657764161E-013
 -2.410000000000000E-002    4.571009007304222E-013
 -2.400000000000000E-002    6.316037229435854E-013
 -2.390000000000000E-002    8.826435092608683E-013
 -2.380000000000000E-002    1.187454998681902E-012
 -2.370000000000000E-002    1.505855781938678E-012
 -2.360000000000000E-002    1.782899972677311E-012
 -2.350000000000000E-002    1.954057679909300E-012
 -2.340000000000000E-002    1.952511655708745E-012
 -2.330000000000000E-002    1.717852808242774E-012
 -2.320000000000000E-002    1.205188969804961E-012
 -2.310000000000000E-002    3.935488466517128E-013
 -2.300000000000000E-002   -7.075180760730095E-013
 -2.290000000000000E-002   -2.054092800519312E-012
 -2.280000000000000E-002   -3.567437099144940E-012
 -2.270000000000000E-002   -5.137193583152516E-012
 -2.260000000000000E-002   -6.628052288032526E-012
 -2.250000000000000E-002   -7.889283318735951E-012
 -2.240000000000000E-002   -8.766192641267093E-012
 -2.230000000000000E-002   -9.112372257119194E-012
 -2.220000000000000E-002   -8.801578812873261E-012
 -2.210000000000000E-002   -7.738224701584311E-012
 -2.200000000000000E-002   -5.865756414831261E-012
 -2.190000000000000E-002   -3.172599390392418E-012
 -2.180000000000000E-002    3.042215122034450E-013
 -2.170000000000000E-002    4.477359139014706E-012
 -2.160000000000000E-002    9.208629204473328E-012
 -2.150000000000000E-002    1.430901293069744E-011
 -2.140000000000000E-002    1.953871824526286E-011
 -2.130000000000000E-002    2.460727399225567E-011
 -2.120000000000000E-002    2.917420323309557E-011
 -2.110000000000000E-002    3.285153755187129E-011
 -2.100000000000000E-002    3.520994136457932E-011
 -2.090000000000000E-002    3.579068370414155E-011
 -2.080000000000000E-002    3.412556228458742E-011
 -2.070000000000000E-002    2.976663362955706E-011
 -2.060000000000000E-002    2.232645852296722E-011
 -2.050000000000000E-002    1.152830943596030E-011
 -2.040000000000000E-002   -2.735975830998707E-012
 -2.030000000000000E-002   -2.034476883971267E-011
 -2.020000000000000E-002   -4.088809293868240E-011
 -2.010000000000000E-002   -6.361919487427355E-011
 -2.000000000000000E-002   -8.742444622763578E-011
 -1.990000000000000E-002   -1.108197676580663E-010
 -1.980000000000000E-002   -1.319805171988671E-010
 -1.970000000000000E-002   -1.488097089381264E-010
 -1.960000000000000E-002   -1.590464076978490E-010
 -1.950000000000000E-002   -1.604122480584598E-010
 -1.940000000000000E-002   -1.507902348557068E-010
 -1.930000000000000E-002   -1.284256572209150E-010
 -1.920000000000000E-002   -9.213595929705625E-011
 -1.910000000000000E-002   -4.151359119967052E-011
 -1.900000000000000E-002    2.289524706276067E-011
 -1.890000000000000E-002    9.945289384212413E-011
 -1.880000000000000E-002    1.853489649519737E-010
 -1.870000000000000E-002    2.765881373229679E-010
 -1.860000000000000E-002    3.680557061093003E-010
 -1.850000000000000E-002    4.536653771812802E-010
 -1.840000000000000E-002    5.265889296458379E-010
 -1.830000000000000E-002    5.795629953647886E-010
 -1.820000000000000E-002    6.052641504791194E-010
 -1.810000000000000E-002    5.967396551146944E-010
 -1.800000000000000E-002    5.478785521660493E-010
 -1.790000000000000E-002    4.539051686851908E-010
 -1.780000000000000E-002    3.118747513089814E-010
 -1.770000000000000E-002    1.211489307685445E-010
 -1.760000000000000E-002   -1.161729666072569E-010
 -1.750000000000000E-002   -3.948934614321451E-010
 -1.740000000000000E-002   -7.064548994289704E-010
 -1.730000000000000E-002   -1.038805731982215E-009
 -1.720000000000000E-002   -1.376423339829222E-009
 -1.710000000000000E-002   -1.700522285442894E-009
 -1.700000000000000E-002   -1.989471077422194E-009
 -1.690000000000000E-002   -2.219434810776653E-009
 -1.680000000000000E-002   -2.365251570587956E-009
 -1.670000000000000E-002   -2.401538422121799E-009
 -1.660000000000000E-002   -2.304006699472808E-009
 -1.650000000000000E-002   -2.050952064470646E-009
 -1.640000000000000E-002   -1.624865457021080E-009
 -1.630000000000000E-002   -1.014097648374077E-009
 -1.620000000000000E-002   -2.144937823078143E-010
 -1.610000000000000E-002    7.690949993022415E-010
 -1.600000000000000E-002    1.921521082296860E-009
 -1.590000000000000E-002    3.216371656335989E-009
 -1.580000000000000E-002    4.615417682095370E-009
 -1.570000000000000E-002    6.068564836359539E-009
 -1.560000000000000E-002    7.514377853773243E-009
 -1.550000000000000E-002    8.881230622122670E-009
 -1.540000000000000E-002    1.008911216569412E-008
 -1.530000000000000E-002    1.105209664632728E-008
 -1.520000000000000E-002    1.168145223355100E-008
 -1.510000000000000E-002    1.188935380860009E-008
 -1.500000000000000E-002    1.159311382932047E-008
 -1.490000000000000E-002    1.071984381100797E-008
 -1.480000000000000E-002    9.211411381235832E-009
 -1.470000000000000E-002    7.029544355189275E-009
 -1.460000000000000E-002    4.160907590323878E-009
 -1.450000000000000E-002    6.219509171847943E-010
 -1.440000000000000E-002   -3.536677495724411E-009
 -1.430000000000000E-002   -8.226375057508626E-009
 -1.420000000000000E-002   -1.331770695726198E-008
 -1.410000000000000E-002   -1.863859976405092E-008
 -1.400000000000000E-002   -2.397380171721336E-008
 -1.390000000000000E-002   -2.906573391561696E-008
 -1.380000000000000E-002   -3.361682048634973E-008
 -1.370000000000000E-002   -3.729331242717515E-008
 -1.360000000000000E-002   -3.973055606848060E-008
 -1.350000000000000E-002   -4.053955148930717E-008
 -1.340000000000000E-002   -3.931465978761560E-008
 -1.330000000000000E-002   -3.564206258047140E-008
 -1.320000000000000E-002   -2.910877518829026E-008
 -1.310000000000000E-002   -1.931173857565412E-008
 -1.300000000000000E-002   -5.866711230371454E-009
 -1.290000000000000E-002    1.158354230656862E-008
 -1.280000000000000E-002    3.336195323660474E-008
 -1.270000000000000E-002    5.975124753666177E-008
 -1.260000000000000E-002    9.098947446615896E-008
 -1.250000000000000E-002    1.272672839147937E-007
 -1.240000000000000E-002    1.687270180241479E-007
 -1.230000000000000E-002    2.154635676846447E-007
 -1.220000000000000E-002    2.675271209660962E-007
 -1.210000000000000E-002    3.249275427757438E-007
 -1.200000000000000E-002    3.876403203117978E-007
 -1.190000000000000E-002    4.556139518726192E-007
 -1.180000000000000E-002    5.287783028286510E-007
 -1.170000000000000E-002    6.070542436149959E-007
 -1.160000000000000E-002    6.903634290313803E-007
 -1.150000000000000E-002    7.786387436214698E-007
 -1.140000000000000E-002    8.718347362554811E-007
 -1.130000000000000E-002    9.699376487842778E-007
 -1.120000000000000E-002    1.072974685031351E-006
 -1.110000000000000E-002    1.181022624541569E-006
 -1.100000000000000E-002    1.294215056210457E-006
 -1.090000000000000E-002    1.412747791156160E-006
 -1.080000000000000E-002    1.536883083572960E-006
 -1.070000000000000E-002    1.666951689297711E-006
 -1.060000000000000E-002    1.803353537206941E-006
 -1.050000000000000E-002    1.946556908795526E-006
 -1.040000000000000E-002    2.097095348345559E-006
 -1.030000000000000E-002    2.255564652430523E-006
 -1.020000000000000E-002    2.422618625934586E-006
 -1.010000000000000E-002    2.598964227027422E-006
 -1.000000000000000E-002    2.785357469349334E-006
 -9.899999999999999E-003    2.982599546084240E-006
 -9.800000000000000E-003    3.191532947638161E-006
 -9.699999999999999E-003    3.413039096027001E-006
 -9.599999999999999E-003    3.648035700759437E-006
 -9.500000000000000E-003    3.897476454513907E-006
 -9.399999999999999E-003    4.162348525083092E-006
 -9.299999999999999E-003    4.443673569992527E-006
 -9.200000000000000E-003    4.742505157738832E-006
 -9.099999999999999E-003    5.059930725622708E-006
 -8.999999999999999E-003    5.397068313492646E-006
 -8.900000000000000E-003    5.755067040418373E-006
 -8.799999999999999E-003    6.135107564632421E-006
 -8.699999999999999E-003    6.538401354871588E-006
 -8.600000000000000E-003    6.966192051902533E-006
 -8.499999999999999E-003    7.419759252094299E-006
 -8.399999999999999E-003    7.900420465684082E-006
 -8.300000000000000E-003    8.409540499614687E-006
 -8.199999999999999E-003    8.948535814425865E-006
 -8.100000000000000E-003    9.518887428516988E-006
 -8.000000000000000E-003    1.012214910195642E-005
 -7.899999999999999E-003    1.075996033859605E-005
 -7.800000000000000E-003    1.143405881821009E-005
 -7.699999999999999E-003    1.214628552127346E-005
 -7.599999999999999E-003    1.289860047225144E-005
 -7.499999999999999E-003    1.369308441750088E-005
 -7.399999999999999E-003    1.453194357771223E-005
 -7.299999999999999E-003    1.541751442161695E-005
 -7.199999999999999E-003    1.635225963499002E-005
 -7.100000000000000E-003    1.733876734170542E-005
 -6.999999999999999E-003    1.837975015342560E-005
 -6.899999999999999E-003    1.947804204164687E-005
 -6.800000000000000E-003    2.063659677151769E-005
 -6.699999999999999E-003    2.185848892404270E-005
 -6.599999999999999E-003    2.314691985135891E-005
 -6.499999999999999E-003    2.450522693196849E-005
 -6.399999999999999E-003    2.593688772909630E-005
 -6.299999999999999E-003    2.744554085060807E-005
 -6.199999999999999E-003    2.903499795720416E-005
 -6.100000000000000E-003    3.070926189866221E-005
 -5.999999999999999E-003    3.247254291998828E-005
 -5.899999999999999E-003    3.432927295155005E-005
 -5.800000000000000E-003    3.628411551286510E-005
 -5.699999999999999E-003    3.834197748634577E-005
 -5.599999999999999E-003    4.050801304909320E-005
 -5.499999999999999E-003    4.278761994308311E-005
 -5.399999999999999E-003    4.518644360759962E-005
 -5.299999999999999E-003    4.771036823840062E-005
 -5.199999999999999E-003    5.036551321993274E-005
 -5.099999999999999E-003    5.315822121558851E-005
 -4.999999999999999E-003    5.609505938595156E-005
 -4.899999999999999E-003    5.918281845896964E-005
 -4.799999999999999E-003    6.242851457055598E-005
 -4.699999999999999E-003    6.583940070115121E-005
 -4.599999999999999E-003    6.942297222968722E-005
 -4.499999999999999E-003    7.318699738319487E-005
 -4.399999999999999E-003    7.713952984245249E-005
 -4.299999999999999E-003    8.128894929697082E-005
 -4.199999999999999E-003    8.564397371338938E-005
 -4.099999999999999E-003    9.021371444048352E-005
 -3.999999999999999E-003    9.500766886286823E-005
 -3.899999999999999E-003    1.000357824639839E-004
 -3.799999999999999E-003    1.053084402478664E-004
 -3.699999999999999E-003    1.108364909881296E-004
 -3.599999999999999E-003    1.166312680263617E-004
 -3.499999999999999E-003    1.227045930921228E-004
 -3.399999999999999E-003    1.290687467815532E-004
 -3.299999999999999E-003    1.357365095481975E-004
 -3.199999999999999E-003    1.427211111657875E-004
 -3.099999999999999E-003    1.500362672721318E-004
 -2.999999999999999E-003    1.576961244299976E-004
 -2.899999999999999E-003    1.657153098779421E-004
 -2.799999999999999E-003    1.741088954673080E-004
 -2.699999999999999E-003    1.828924243374588E-004
 -2.599999999999999E-003    1.920818874824880E-004
 -2.499999999999999E-003    2.016938052752801E-004
 -2.399999999999999E-003    2.117451971365119E-004
 -2.299999999999999E-003    2.222536559668831E-004
 -2.199999999999999E-003    2.332373362350247E-004
 -2.099999999999999E-003    2.447149975035663E-004
 -1.999999999999999E-003    2.567060653387674E-004
 -1.899999999999999E-003    2.692306502996300E-004
 -1.799999999999999E-003    2.823095724968006E-004
 -1.699999999999999E-003    2.959643825128731E-004
 -1.599999999999999E-003    3.102173741986165E-004
 -1.499999999999999E-003    3.250916315147672E-004
 -1.399999999999999E-003    3.406109968935412E-004
 -1.299999999999999E-003    3.568001023783375E-004
 -1.199999999999999E-003    3.736843549647651E-004
 -1.099999999999999E-003    3.912899668193198E-004
 -9.999999999999989E-004    4.096439335070315E-004
 -8.999999999999990E-004    4.287740819652445E-004
 -7.999999999999990E-004    4.487090054795428E-004
 -6.999999999999989E-004    4.694781165333357E-004
 -5.999999999999990E-004    4.911117119493353E-004
 -4.999999999999989E-004    5.136408971951887E-004
 -3.999999999999989E-004    5.370976913826015E-004
 -2.999999999999989E-004    5.615149661883787E-004
 -1.999999999999989E-004    5.869265625193893E-004
 -9.999999999999892E-005    6.133672088051732E-004
  1.084202172485504E-018    6.408726251932665E-004
  1.000000000000011E-004    6.694794130455538E-004
  2.000000000000011E-004    6.992252414502430E-004
  3.000000000000011E-004    7.301485613546338E-004
  4.000000000000011E-004    7.622889090009647E-004
  5.000000000000011E-004    7.956867280258700E-004
  6.000000000000011E-004    8.303833657184454E-004
  7.000000000000011E-004    8.664210938400271E-004
  8.000000000000011E-004    9.038431721846486E-004
  9.000000000000012E-004    9.426936988705775E-004
  1.000000000000001E-003    9.830176753131356E-004
  1.100000000000001E-003    1.024861123416040E-003
  1.200000000000001E-003    1.068270976376704E-003
  1.300000000000001E-003    1.113295048042592E-003
  1.400000000000001E-003    1.159982305183027E-003
  1.500000000000001E-003    1.208382690412024E-003
  1.600000000000001E-003    1.258547142096596E-003
  1.700000000000001E-003    1.310527793615204E-003
  1.800000000000001E-003    1.364377721306081E-003
  1.900000000000001E-003    1.420151297002719E-003
  2.000000000000001E-003    1.477903938312384E-003
  2.100000000000001E-003    1.537692228241844E-003
  2.200000000000001E-003    1.599573775028783E-003
  2.300000000000001E-003    1.663607389496514E-003
  2.400000000000001E-003    1.729852981697687E-003
  2.500000000000001E-003    1.798371405094822E-003
  2.600000000000001E-003    1.869224712989464E-003
  2.700000000000001E-003    1.942475601292024E-003
  2.800000000000001E-003    2.018187966908611E-003
  2.900000000000001E-003    2.096426406973762E-003
  3.000000000000001E-003    2.177256183448304E-003
  3.100000000000001E-003    2.260743408216419E-003
  3.200000000000001E-003    2.346954714861017E-003
  3.300000000000001E-003    2.435957357705088E-003
  3.400000000000001E-003    2.527819054773427E-003
  3.500000000000001E-003    2.622608370614819E-003
  3.600000000000001E-003    2.720393904174641E-003
  3.700000000000001E-003    2.821245048433590E-003
  3.800000000000001E-003    2.925231438877147E-003
  3.900000000000001E-003    3.032423151911330E-003
  4.000000000000001E-003    3.142890925594194E-003
  4.100000000000001E-003    3.256705553729787E-003
  4.200000000000001E-003    3.373938665312271E-003
  4.300000000000001E-003    3.494662003673457E-003
  4.400000000000001E-003    3.618947695376366E-003
  4.500000000000001E-003    3.746868681562657E-003
  4.600000000000002E-003    3.878497813584519E-003
  4.700000000000001E-003    4.013908496988421E-003
  4.800000000000001E-003    4.153174037311710E-003
  4.900000000000002E-003    4.296368020827742E-003
  5.000000000000001E-003    4.443564027901661E-003
  5.100000000000001E-003    4.594835305948701E-003
  5.200000000000001E-003    4.750255068734206E-003
  5.300000000000002E-003    4.909896458390390E-003
  5.400000000000001E-003    5.073831141027677E-003
  5.500000000000001E-003    5.242131101755101E-003
  5.600000000000002E-003    5.414866998902483E-003
  5.700000000000001E-003    5.592109200960214E-003
  5.800000000000001E-003    5.773925974360227E-003
  5.900000000000002E-003    5.960385634085481E-003
  6.000000000000001E-003    6.151554447184623E-003
  6.100000000000001E-003    6.347497993350579E-003
  6.200000000000002E-003    6.548280665765167E-003
  6.300000000000002E-003    6.753964145889400E-003
  6.400000000000001E-003    6.964610028629480E-003
  6.500000000000001E-003    7.180276850321763E-003
  6.600000000000002E-003    7.401022225293674E-003
  6.700000000000001E-003    7.626901868217908E-003
  6.800000000000001E-003    7.857968941532656E-003
  6.900000000000002E-003    8.094275042238256E-003
  7.000000000000001E-003    8.335869217740542E-003
  7.100000000000001E-003    8.582798088549382E-003
  7.200000000000002E-003    8.835105636995744E-003
  7.300000000000002E-003    9.092833928618427E-003
  7.400000000000001E-003    9.356020674091563E-003
  7.500000000000001E-003    9.624701776983815E-003
  7.600000000000002E-003    9.898909811482755E-003
  7.700000000000001E-003    1.017867418882569E-002
  7.800000000000001E-003    1.046402059334329E-002
  7.900000000000001E-003    1.075497130322325E-002
  8.000000000000002E-003    1.105154439403892E-002
  8.100000000000001E-003    1.135375516514504E-002
  8.200000000000001E-003    1.166161334619501E-002
  8.300000000000002E-003    1.197512535796557E-002
  8.400000000000001E-003    1.229429383556273E-002
  8.500000000000002E-003    1.261911608313016E-002
  8.600000000000002E-003    1.294958456945300E-002
  8.700000000000001E-003    1.328568693913236E-002
  8.800000000000002E-003    1.362740542076870E-002
  8.900000000000002E-003    1.397471785886675E-002
  9.000000000000001E-003    1.432759712807777E-002
  9.100000000000002E-003    1.468600857854618E-002
  9.200000000000002E-003    1.504991318372766E-002
  9.300000000000001E-003    1.541926573398180E-002
  9.400000000000002E-003    1.579401480310894E-002
  9.500000000000001E-003    1.617410298469164E-002
  9.600000000000001E-003    1.655946737965468E-002
  9.700000000000002E-003    1.695003705400862E-002
  9.800000000000001E-003    1.734573496815797E-002
  9.900000000000001E-003    1.774647859125451E-002
  1.000000000000000E-002    1.815217651288888E-002
  1.010000000000000E-002    1.856273219170245E-002
  1.020000000000000E-002    1.897804011591150E-002
  1.030000000000000E-002    1.939799009072557E-002
  1.040000000000000E-002    1.982246181215239E-002
  1.050000000000000E-002    2.025132945874056E-002
  1.060000000000000E-002    2.068445746453988E-002
  1.070000000000000E-002    2.112170599618560E-002
  1.080000000000000E-002    2.156292378772601E-002
  1.090000000000000E-002    2.200795429997471E-002
  1.100000000000000E-002    2.245663020891656E-002
  1.110000000000000E-002    2.290877890491557E-002
  1.120000000000000E-002    2.336421833750132E-002
  1.130000000000000E-002    2.382276044016857E-002
  1.140000000000000E-002    2.428420549062016E-002
  1.150000000000000E-002    2.474834530266905E-002
  1.160000000000000E-002    2.521496619233676E-002
  1.170000000000000E-002    2.568384287981595E-002
  1.180000000000000E-002    2.615474557905509E-002
  1.190000000000000E-002    2.662743171538656E-002
  1.200000000000000E-002    2.710165137878110E-002
  1.210000000000000E-002    2.757714594141637E-002
  1.220000000000000E-002    2.805365215454657E-002
  1.230000000000000E-002    2.853089199224781E-002
  1.240000000000000E-002    2.900858336381209E-002
  1.250000000000000E-002    2.948643202077534E-002
  1.260000000000000E-002    2.996413738528142E-002
  1.270000000000000E-002    3.044139134751239E-002
  1.280000000000000E-002    3.091787493319487E-002
  1.290000000000000E-002    3.139326290749372E-002
  1.300000000000000E-002    3.186722150798685E-002
  1.310000000000000E-002    3.233940668538835E-002
  1.320000000000000E-002    3.280946771353318E-002
  1.330000000000000E-002    3.327704841853624E-002
  1.340000000000000E-002    3.374178158598753E-002
  1.350000000000000E-002    3.420329315135782E-002
  1.360000000000000E-002    3.466120519960491E-002
  1.370000000000000E-002    3.511512807556681E-002
  1.380000000000000E-002    3.556466755942574E-002
  1.390000000000000E-002    3.600942337865010E-002
  1.400000000000000E-002    3.644898378986047E-002
  1.410000000000000E-002    3.688293791619719E-002
  1.420000000000000E-002    3.731086588023961E-002
  1.430000000000000E-002    3.773233988768945E-002
  1.440000000000000E-002    3.814693099509314E-002
  1.450000000000000E-002    3.855419962127131E-002
  1.460000000000000E-002    3.895370348945660E-002
  1.470000000000000E-002    3.934499958080501E-002
  1.480000000000000E-002    3.972763341645957E-002
  1.490000000000000E-002    4.010115011848064E-002
  1.500000000000000E-002    4.046509118627346E-002
  1.510000000000000E-002    4.081899213545875E-002
  1.520000000000000E-002    4.116238803610282E-002
  1.530000000000000E-002    4.149481288919729E-002
  1.540000000000000E-002    4.181579241578247E-002
  1.550000000000000E-002    4.212485635755955E-002
  1.560000000000000E-002    4.242152764754212E-002
  1.570000000000000E-002    4.270533299872522E-002
  1.580000000000000E-002    4.297579636606789E-002
  1.590000000000000E-002    4.323244251443999E-002
  1.600000000000000E-002    4.347479592180562E-002
  1.610000000000000E-002    4.370238423559614E-002
  1.620000000000000E-002    4.391473316479848E-002
  1.630000000000000E-002    4.411136845375511E-002
  1.640000000000000E-002    4.429182315347756E-002
  1.650000000000000E-002    4.445563029924059E-002
  1.660000000000000E-002    4.460232925091119E-002
  1.670000000000000E-002    4.473145827709117E-002
  1.680000000000000E-002    4.484256255017838E-002
  1.690000000000000E-002    4.493519273103382E-002
  1.700000000000000E-002    4.500890130590939E-002
  1.710000000000000E-002    4.506325108773636E-002
  1.720000000000000E-002    4.509781072312820E-002
  1.730000000000000E-002    4.511215200850131E-002
  1.740000000000000E-002    4.510585876279397E-002
  1.750000000000000E-002    4.507851851735806E-002
  1.760000000000000E-002    4.502973038983119E-002
  1.770000000000000E-002    4.495910093028195E-002
  1.780000000000000E-002    4.486625117379030E-002
  1.790000000000000E-002    4.475080252014330E-002
  1.800000000000000E-002    4.461239656018912E-002
  1.810000000000000E-002    4.445068408960455E-002
  1.820000000000000E-002    4.426532555626276E-002
  1.830000000000000E-002    4.405599440773052E-002
  1.840000000000000E-002    4.382237766830954E-002
  1.850000000000000E-002    4.356417660494889E-002
  1.860000000000000E-002    4.328110285931844E-002
  1.870000000000000E-002    4.297288864090851E-002