 -4.000000000000000E-002    0.000000000000000E+000
 -3.990000000000000E-002    0.000000000000000E+000
 -3.980000000000000E-002    0.000000000000000E+000
 -3.970000000000000E-002    0.000000000000000E+000
 -3.960000000000000E-002    0.000000000000000E+000
 -3.950000000000000E-002    0.000000000000000E+000
 -3.940000000000000E-002    0.000000000000000E+000
 -3.930000000000000E-002    0.000000000000000E+000
 -3.920000000000000E-002    0.000000000000000E+000
 -3.910000000000000E-002    0.000000000000000E+000
 -3.900000000000000E-002   -8.862916962083339E-032
 -3.890000000000000E-002   -1.535535866030894E-030
 -3.880000000000000E-002   -1.373156578062534E-029
 -3.870000000000000E-002   -8.416526866948979E-029
 -3.860000000000000E-002   -3.960132300450607E-028
 -3.850000000000000E-002   -1.517843738891218E-027
 -3.840000000000000E-002   -4.904903330704152E-027
 -3.830000000000000E-002   -1.362820337941724E-026
 -3.820000000000000E-002   -3.282073198258711E-026
 -3.810000000000000E-002   -6.815961530512965E-026
 -3.800000000000000E-002   -1.185835004170877E-025
 -3.790000000000000E-002   -1.565238292789409E-025
 -3.780000000000000E-002   -8.634912919768508E-026
 -3.770000000000000E-002    3.277153198912250E-025
 -3.760000000000000E-002    1.564398089322587E-024
 -3.750000000000000E-002    4.456328390311333E-024
 -3.740000000000000E-002    1.024390960972455E-023
 -3.730000000000000E-002    2.044406517165751E-023
 -3.720000000000000E-002    3.633381310999893E-023
 -3.710000000000000E-002    5.779678845969799E-023
 -3.700000000000000E-002    8.130063545101237E-023
 -3.690000000000000E-002    9.693476887445629E-023
 -3.680000000000000E-002    8.481411669136489E-023
 -3.670000000000000E-002    1.178888310360423E-023
 -3.660000000000000E-002   -1.697375493935795E-022
 -3.650000000000000E-002   -5.181478836461045E-022
 -3.640000000000000E-002   -1.090689072083479E-021
 -3.630000000000000E-002   -1.919921682405732E-021
 -3.620000000000000E-002   -2.976540950271056E-021
 -3.610000000000000E-002   -4.119785781753357E-021
 -3.600000000000000E-002   -5.041968681918403E-021
 -3.590000000000000E-002   -5.220755118532879E-021
 -3.580000000000000E-002   -3.900567735384370E-021
 -3.570000000000000E-002   -1.307857693836646E-022
 -3.560000000000000E-002    7.109647093323054E-021
 -3.550000000000000E-002    1.867727882420762E-020
 -3.540000000000000E-002    3.491106262785597E-020
 -3.530000000000000E-002    5.518105488047222E-020
 -3.520000000000000E-002    7.739655304793441E-020
 -3.510000000000000E-002    9.757385422071283E-020
 -3.500000000000000E-002    1.096019239342998E-019
 -3.490000000000000E-002    1.053660471162407E-019
 -3.480000000000000E-002    7.538211106198812E-020
 -3.470000000000000E-002    1.004749008980201E-020
 -3.460000000000000E-002   -9.847527119892135E-020
 -3.450000000000000E-002   -2.538524145184041E-019
 -3.440000000000000E-002   -4.529074188802132E-019
 -3.430000000000000E-002   -6.830784216666068E-019
 -3.420000000000000E-002   -9.204946634362600E-019
 -3.410000000000000E-002   -1.129184746143632E-018
 -3.400000000000000E-002   -1.261859532913071E-018
 -3.390000000000000E-002   -1.262552275666803E-018
 -3.380000000000000E-002   -1.071176847603160E-018
 -3.370000000000000E-002   -6.298355355837874E-019
 -3.360000000000000E-002    1.094698686636571E-019
 -3.350000000000000E-002    1.176130167814509E-018
 -3.340000000000000E-002    2.571561666417571E-018
 -3.330000000000000E-002    4.259351050182852E-018
 -3.320000000000000E-002    6.154928010228007E-018
 -3.310000000000000E-002    8.114811331775832E-018
 -3.300000000000000E-002    9.925888589133444E-018
 -3.290000000000000E-002    1.129614232823574E-017
 -3.280000000000000E-002    1.184977448736803E-017
 -3.270000000000000E-002    1.113161390456710E-017
 -3.260000000000000E-002    8.627598858920734E-018
 -3.250000000000000E-002    3.809280993926719E-018
 -3.240000000000000E-002   -3.790200649189283E-018
 -3.230000000000000E-002   -1.446424715949400E-017
 -3.220000000000000E-002   -2.818682402552635E-017
 -3.210000000000000E-002   -4.444360058725286E-017
 -3.200000000000000E-002   -6.206331133224698E-017
 -3.190000000000000E-002   -7.908490271757460E-017
 -3.180000000000000E-002   -9.270625261867689E-017
 -3.170000000000000E-002   -9.936475375706363E-017
 -3.160000000000000E-002   -9.499523105159205E-017
 -3.150000000000000E-002   -7.549382746499182E-017
 -3.140000000000000E-002   -3.738652537198127E-017
 -3.130000000000000E-002    2.134032243628957E-017
 -3.120000000000000E-002    1.003379746237166E-016
 -3.110000000000000E-002    1.960588478588737E-016
 -3.100000000000000E-002    3.011576260494456E-016
 -3.090000000000000E-002    4.043141527188138E-016
 -3.080000000000000E-002    4.906430917531736E-016
 -3.070000000000000E-002    5.427982956604617E-016
 -3.060000000000000E-002    5.427872907889692E-016
 -3.050000000000000E-002    4.743912575173886E-016
 -3.040000000000000E-002    3.259555315751688E-016
 -3.030000000000000E-002    9.319794632638369E-017
 -3.020000000000000E-002   -2.183965490898915E-016
 -3.010000000000000E-002   -5.920455680271074E-016
 -3.000000000000000E-002   -9.993936156223815E-016
 -2.990000000000000E-002   -1.401743810756624E-015
 -2.980000000000000E-002   -1.752844798408617E-015
 -2.970000000000000E-002   -2.003039979091156E-015
 -2.960000000000000E-002   -2.104351476081752E-015
 -2.950000000000000E-002   -2.015890532004291E-015
 -2.940000000000000E-002   -1.708901929933117E-015
 -2.930000000000000E-002   -1.170793754295839E-015
 -2.920000000000000E-002   -4.076750941862748E-016
 -2.910000000000000E-002    5.548004248628864E-016
 -2.900000000000000E-002    1.672162924497004E-015
 -2.890000000000000E-002    2.883007888065893E-015
 -2.880000000000000E-002    4.111429468157383E-015
 -2.870000000000000E-002    5.269396124646918E-015
 -2.860000000000000E-002    6.258671278389152E-015
 -2.850000000000000E-002    6.972290374593038E-015
 -2.840000000000000E-002    7.296142326929750E-015
 -2.830000000000000E-002    7.111738554873083E-015
 -2.820000000000000E-002    6.301623036417784E-015
 -2.810000000000000E-002    4.758922829107205E-015
 -2.800000000000000E-002    2.402121660177799E-015
 -2.790000000000000E-002   -8.047711544430044E-016
 -2.780000000000000E-002   -4.827854363791978E-015
 -2.770000000000000E-002   -9.537585087669518E-015
 -2.760000000000000E-002   -1.468605845410801E-014
 -2.750000000000000E-002   -1.989290377219739E-014
 -2.740000000000000E-002   -2.464580107608429E-014
 -2.730000000000000E-002   -2.832093546920140E-014
 -2.720000000000000E-002   -3.022680555649611E-014
 -2.710000000000000E-002   -2.967169044275562E-014
 -2.700000000000000E-002   -2.605115669449003E-014
 -2.690000000000000E-002   -1.894770297181011E-014
 -2.680000000000000E-002   -8.230793132437224E-015
 -2.670000000000000E-002    5.857160751184746E-015
 -2.660000000000000E-002    2.264409175219598E-014
 -2.650000000000000E-002    4.101459703209415E-014
 -2.640000000000000E-002    5.944901044928235E-014
 -2.630000000000000E-002    7.611894637770787E-014
 -2.620000000000000E-002    8.903548122847872E-014
 -2.610000000000000E-002    9.623842026744900E-014
 -2.600000000000000E-002    9.600820878779965E-014
 -2.590000000000000E-002    8.707729614266922E-014
 -2.580000000000000E-002    6.881608933037791E-014
 -2.570000000000000E-002    4.137049546257691E-014
 -2.560000000000000E-002    5.733127076592510E-015
 -2.550000000000000E-002   -3.626181768594702E-014
 -2.540000000000000E-002   -8.202092335964309E-014
 -2.530000000000000E-002   -1.283430752528148E-013
 -2.520000000000000E-002   -1.716246420533322E-013
 -2.510000000000000E-002   -2.080986630752820E-013
 -2.500000000000000E-002   -2.340873938249243E-013
 -2.490000000000000E-002   -2.462503035892759E-013
 -2.480000000000000E-002   -2.418146658324394E-013
 -2.470000000000000E-002   -2.187823798067053E-013
 -2.460000000000000E-002   -1.761120289028525E-013
 -2.450000000000000E-002   -1.138782573676633E-013
 -2.440000000000000E-002   -3.341035317553158E-014
 -2.430000000000000E-002    6.259282160980052E-014
 -2.420000000000000E-002    1.699818636337408E-013
 -2.410000000000000E-002    2.831297609768931E-013
 -2.400000000000000E-002    3.949868344221826E-013
 -2.390000000000000E-002    4.972510694057272E-013
 -2.380000000000000E-002    5.806858710329648E-013
 -2.370000000000000E-002    6.356088408362437E-013
 -2.360000000000000E-002    6.525582423746355E-013
 -2.350000000000000E-002    6.231197792494111E-013
 -2.340000000000000E-002    5.408697862050733E-013
 -2.330000000000000E-002    4.023613579327049E-013
 -2.320000000000000E-002    2.080571164187399E-013
 -2.310000000000000E-002   -3.690353970755657E-014
 -2.300000000000000E-002   -3.222183462564681E-013
 -2.290000000000000E-002   -6.323229343169902E-013
 -2.280000000000000E-002   -9.467594105507125E-013
 -2.270000000000000E-002   -1.241058121265959E-012
 -2.260000000000000E-002   -1.488131966788356E-012
 -2.250000000000000E-002   -1.660134282988243E-012
 -2.240000000000000E-002   -1.730680455576142E-012
 -2.230000000000000E-002   -1.677291649553647E-012
 -2.220000000000000E-002   -1.483881069003318E-012
 -2.210000000000000E-002   -1.143080615516855E-012
 -2.200000000000000E-002   -6.581955170463737E-013
 -2.190000000000000E-002   -4.457698941763733E-014
 -2.180000000000000E-002    6.697774208249087E-013
 -2.170000000000000E-002    1.444552577226056E-012
 -2.160000000000000E-002    2.228480558449494E-012
 -2.150000000000000E-002    2.961785056993129E-012
 -2.140000000000000E-002    3.579668367435553E-012
 -2.130000000000000E-002    4.016715393603668E-012
 -2.120000000000000E-002    4.211993244525121E-012
 -2.110000000000000E-002    4.114527450033013E-012
 -2.100000000000000E-002    3.688754991139653E-012
 -2.090000000000000E-002    2.919493923723357E-012
 -2.080000000000000E-002    1.815940712354453E-012
 -2.070000000000000E-002    4.142334353537799E-013
 -2.060000000000000E-002   -1.221820530934051E-012
 -2.050000000000000E-002   -3.002126944126484E-012
 -2.040000000000000E-002   -4.813910984368884E-012
 -2.030000000000000E-002   -6.527477035916678E-012
 -2.020000000000000E-002   -8.003851334545765E-012
 -2.010000000000000E-002   -9.103859955952724E-012
 -2.000000000000000E-002   -9.698064017861054E-012
 -1.990000000000000E-002   -9.676878807680133E-012
 -1.980000000000000E-002   -8.960198807424168E-012
 -1.970000000000000E-002   -7.505887899518863E-012
 -1.960000000000000E-002   -5.316593766232083E-012
 -1.950000000000000E-002   -2.444452850196567E-012
 -1.940000000000000E-002    1.006614198982447E-012
 -1.930000000000000E-002    4.881227033035690E-012
 -1.920000000000000E-002    8.975648752275242E-012
 -1.910000000000000E-002    1.304379288983691E-011
 -1.900000000000000E-002    1.680627655103201E-011
 -1.890000000000000E-002    1.996265194732387E-011
 -1.880000000000000E-002    2.220689819731724E-011
 -1.870000000000000E-002    2.324611385214849E-011
 -1.860000000000000E-002    2.282208717737994E-011
 -1.850000000000000E-002    2.073502454513498E-011
 -1.840000000000000E-002    1.686821827382187E-011
 -1.830000000000000E-002    1.121185555490282E-011
 -1.820000000000000E-002    3.883652505578760E-012
 -1.810000000000000E-002   -4.856401943899306E-012
 -1.800000000000000E-002   -1.460005526318482E-011
 -1.790000000000000E-002   -2.479618474122207E-011
 -1.780000000000000E-002   -3.476958228470879E-011
 -1.770000000000000E-002   -4.375408069269502E-011
 -1.760000000000000E-002   -5.093957929656194E-011
 -1.750000000000000E-002   -5.553081447381669E-011
 -1.740000000000000E-002   -5.681415687865649E-011
 -1.730000000000000E-002   -5.422715188507220E-011
 -1.720000000000000E-002   -4.742449542818148E-011
 -1.710000000000000E-002   -3.633376525825834E-011
 -1.700000000000000E-002   -2.119444208482741E-011
 -1.690000000000000E-002   -2.574997340152565E-012
 -1.680000000000000E-002    1.863547305844146E-011
 -1.670000000000000E-002    4.126224784664497E-011
 -1.660000000000000E-002    6.390521609012972E-011
 -1.650000000000000E-002    8.502057699597212E-011
 -1.640000000000000E-002    1.030180899408761E-010
 -1.630000000000000E-002    1.163667005730711E-010
 -1.620000000000000E-002    1.237006790209686E-010
 -1.610000000000000E-002    1.239188359587886E-010
 -1.600000000000000E-002    1.162702625902296E-010
 -1.590000000000000E-002    1.004218766044761E-010
 -1.580000000000000E-002    7.650445075499170E-011
 -1.570000000000000E-002    4.513584697479530E-011
 -1.560000000000000E-002    7.421286573134839E-012
 -1.550000000000000E-002   -3.506876385098495E-011
 -1.540000000000000E-002   -8.034231518201443E-011
 -1.530000000000000E-002   -1.260506453588015E-010
 -1.520000000000000E-002   -1.695742294743192E-010
 -1.510000000000000E-002   -2.081300000690227E-010
 -1.500000000000000E-002   -2.389001379806462E-010
 -1.490000000000000E-002   -2.591812504039050E-010
 -1.480000000000000E-002   -2.665511222911737E-010
 -1.470000000000000E-002   -2.590471449345105E-010
 -1.460000000000000E-002   -2.353469829646863E-010
 -1.450000000000000E-002   -1.949388752028487E-010
 -1.440000000000000E-002   -1.382658079654935E-010
 -1.430000000000000E-002   -6.682636006424988E-011
 -1.420000000000000E-002    1.678465876388646E-011
 -1.410000000000000E-002    1.089098404252724E-010
 -1.400000000000000E-002    2.049462139713969E-010
 -1.390000000000000E-002    2.995476391061232E-010
 -1.380000000000000E-002    3.869060426720046E-010
 -1.370000000000000E-002    4.610960526782655E-010
 -1.360000000000000E-002    5.164597906017463E-010
 -1.350000000000000E-002    5.480023179708707E-010
 -1.340000000000000E-002    5.517651048033976E-010
 -1.330000000000000E-002    5.251458989756448E-010
 -1.320000000000000E-002    4.671368867542798E-010
 -1.310000000000000E-002    3.784607196455975E-010
 -1.300000000000000E-002    2.615941219402226E-010
 -1.290000000000000E-002    1.206790714221372E-010
 -1.280000000000000E-002   -3.866767897433865E-011
 -1.270000000000000E-002   -2.096279494019209E-010
 -1.260000000000000E-002   -3.845131271669374E-010
 -1.250000000000000E-002   -5.551268451017796E-010
 -1.240000000000000E-002   -7.131335362788328E-010
 -1.230000000000000E-002   -8.504136110270398E-010
 -1.220000000000000E-002   -9.593900766812760E-010
 -1.210000000000000E-002   -1.033320637955965E-009
 -1.200000000000000E-002   -1.066554285384971E-009
 -1.190000000000000E-002   -1.054753907791905E-009
 -1.180000000000000E-002   -9.950897909957543E-010
 -1.170000000000000E-002   -8.864035198767625E-010
 -1.160000000000000E-002   -7.293396733522097E-010
 -1.150000000000000E-002   -5.264352384709815E-010
 -1.140000000000000E-002   -2.821530036957564E-010
 -1.130000000000000E-002   -2.840488452634070E-012
 -1.120000000000000E-002    3.034006008352018E-010
 -1.110000000000000E-002    6.269452621747868E-010
 -1.100000000000000E-002    9.569763867116744E-010
 -1.090000000000000E-002    1.281903548322132E-009
 -1.080000000000000E-002    1.589839738731139E-009
 -1.070000000000000E-002    1.869095639516608E-009
 -1.060000000000000E-002    2.108639225266330E-009
 -1.050000000000000E-002    2.298467122181141E-009
 -1.040000000000000E-002    2.429839774603680E-009
 -1.030000000000000E-002    2.495350154501021E-009
 -1.020000000000000E-002    2.488812264442605E-009
 -1.010000000000000E-002    2.404997112079694E-009
 -1.000000000000000E-002    2.239262232953760E-009
 -9.899999999999999E-003    1.987160950114999E-009
 -9.800000000000000E-003    1.644131275863318E-009
 -9.699999999999999E-003    1.205383533571610E-009
 -9.599999999999999E-003    6.660962765037791E-010
 -9.500000000000000E-003    2.201626230398419E-011
 -9.399999999999999E-003   -7.294740989936952E-010
 -9.299999999999999E-003   -1.587801435247910E-009
 -9.200000000000000E-003   -2.547186800245752E-009
 -9.099999999999999E-003   -3.594253577254008E-009
 -8.999999999999999E-003   -4.705378768158283E-009
 -8.900000000000000E-003   -5.843951690315698E-009
 -8.799999999999999E-003   -6.957725444606784E-009
 -8.699999999999999E-003   -7.976445312974099E-009
 -8.600000000000000E-003   -8.809945220996822E-009
 -8.499999999999999E-003   -9.346863087177156E-009
 -8.399999999999999E-003   -9.454109428553486E-009
 -8.300000000000000E-003   -8.977176929453107E-009
 -8.199999999999999E-003   -7.741338533164182E-009
 -8.100000000000000E-003   -5.553744383262488E-009
 -8.000000000000000E-003   -2.206391646117190E-009
 -7.899999999999999E-003    2.520093113023241E-009
 -7.800000000000000E-003    8.851956896880775E-009
 -7.699999999999999E-003    1.701721130980608E-008
 -7.599999999999999E-003    2.724009244603546E-008
 -7.499999999999999E-003    3.973525904563214E-008
 -7.399999999999999E-003    5.470192111761387E-008
 -7.299999999999999E-003    7.231823290556768E-008
 -7.199999999999999E-003    9.273614703227105E-008
 -7.100000000000000E-003    1.160771508611037E-007
 -6.999999999999999E-003    1.424290221149356E-007
 -6.899999999999999E-003    1.718441225370295E-007
 -6.800000000000000E-003    2.043393036667450E-007
 -6.699999999999999E-003    2.398976534775984E-007
 -6.599999999999999E-003    2.784722344783214E-007
 -6.499999999999999E-003    3.199916206878078E-007
 -6.399999999999999E-003    3.643671881766138E-007
 -6.299999999999999E-003    4.115017486681598E-007
 -6.199999999999999E-003    4.612991189171394E-007
 -6.100000000000000E-003    5.136743251638295E-007
 -5.999999999999999E-003    5.685633716242679E-007
 -5.899999999999999E-003    6.259326215015899E-007
 -5.800000000000000E-003    6.857868813393186E-007
 -5.699999999999999E-003    7.481760829024672E-007
 -5.599999999999999E-003    8.131998478626581E-007
 -5.499999999999999E-003    8.810104873651930E-007
 -5.399999999999999E-003    9.518137097048947E-007
 -5.299999999999999E-003    1.025867844188726E-006
 -5.199999999999999E-003    1.103481263487758E-006
 -5.099999999999999E-003    1.185009096896827E-006
 -4.999999999999999E-003    1.270848895981858E-006
 -4.899999999999999E-003    1.361435520559240E-006
 -4.799999999999999E-003    1.457236602293773E-006
 -4.699999999999999E-003    1.558747360941364E-006
 -4.599999999999999E-003    1.666485841052722E-006
 -4.499999999999999E-003    1.780988689479080E-006
 -4.399999999999999E-003    1.902806705883538E-006
 -4.299999999999999E-003    2.032500439238233E-006
 -4.199999999999999E-003    2.170636734550430E-006
 -4.099999999999999E-003    2.317785375878506E-006
 -3.999999999999999E-003    2.474515484338980E-006
 -3.899999999999999E-003    2.641393706413622E-006
 -3.799999999999999E-003    2.818981588431351E-006
 -3.699999999999999E-003    3.007835581540212E-006
 -3.599999999999999E-003    3.208507231545158E-006
 -3.499999999999999E-003    3.421545973511466E-006
 -3.399999999999999E-003    3.647501907712597E-006
 -3.299999999999999E-003    3.886932979246223E-006
 -3.199999999999999E-003    4.140409646410011E-006
 -3.099999999999999E-003    4.408525938795438E-006
 -2.999999999999999E-003    4.691907105705958E-006
 -2.899999999999999E-003    4.991219100383238E-006
 -2.799999999999999E-003    5.307179752188987E-006
 -2.699999999999999E-003    5.640566915908283E-006
 -2.599999999999999E-003    5.992226849453043E-006
 -2.499999999999999E-003    6.363081236464907E-006
 -2.399999999999999E-003    6.754131933968674E-006
 -2.299999999999999E-003    7.166463850737694E-006
 -2.199999999999999E-003    7.601245999932459E-006
 -2.099999999999999E-003    8.059733615586104E-006
 -1.999999999999999E-003    8.543260941600424E-006
 -1.899999999999999E-003    9.053242622794825E-006
 -1.799999999999999E-003    9.591168260946692E-006
 -1.699999999999999E-003    1.015859597072696E-005
 -1.599999999999999E-003    1.075715140103060E-005
 -1.499999999999999E-003    1.138852004549615E-005
 -1.399999999999999E-003    1.205444825244154E-005
 -1.299999999999999E-003    1.275673760320102E-005
 -1.199999999999999E-003    1.349724760254105E-005
 -1.099999999999999E-003    1.427789561513662E-005
 -9.999999999999989E-004    1.510066188465924E-005
 -8.999999999999990E-004    1.596759429948815E-005
 -7.999999999999990E-004    1.688081514139926E-005
 -6.999999999999989E-004    1.784253118264918E-005
 -5.999999999999990E-004    1.885504564429674E-005
 -4.999999999999989E-004    1.992076720222636E-005
 -3.999999999999989E-004    2.104222250727298E-005
 -2.999999999999989E-004    2.222206704652512E-005
 -1.999999999999989E-004    2.346309428523532E-005
 -9.999999999999892E-005    2.476824727117669E-005
  1.084202172485504E-018    2.614061796693772E-005
  1.000000000000011E-004    2.758346017636740E-005
  2.000000000000011E-004    2.910017893847963E-005
  3.000000000000011E-004    3.069433901973001E-005
  4.000000000000011E-004    3.236965542135225E-005
  5.000000000000011E-004    3.412998790235665E-005
  6.000000000000011E-004    3.597933720285080E-005
  7.000000000000011E-004    3.792183397964715E-005
  8.000000000000011E-004    3.996174233614016E-005
  9.000000000000012E-004    4.210345172876754E-005
  1.000000000000001E-003    4.435147584191170E-005
  1.100000000000001E-003    4.671046130791571E-005
  1.200000000000001E-003    4.918519274126109E-005
  1.300000000000001E-003    5.178060674751592E-005
  1.400000000000001E-003    5.450180340809238E-005
  1.500000000000001E-003    5.735405953810077E-005
  1.600000000000001E-003    6.034286677277322E-005
  1.700000000000001E-003    6.347394410578055E-005
  1.800000000000001E-003    6.675323714730229E-005
  1.900000000000001E-003    7.018698031963287E-005
  2.000000000000001E-003    7.378167659745602E-005
  2.100000000000001E-003    7.754413440365924E-005
  2.200000000000001E-003    8.148148232065182E-005
  2.300000000000001E-003    8.560116024087970E-005
  2.400000000000001E-003    8.991094207224778E-005
  2.500000000000001E-003    9.441893098781554E-005
  2.600000000000001E-003    9.913355951527516E-005
  2.700000000000001E-003    1.040635729348307E-004
  2.800000000000001E-003    1.092180347164359E-004
  2.900000000000001E-003    1.146063235606792E-004
  3.000000000000001E-003    1.202381007073605E-004
  3.100000000000001E-003    1.261233241242726E-004
  3.200000000000001E-003    1.322722085977122E-004
  3.300000000000001E-003    1.386952584889022E-004
  3.400000000000001E-003    1.454032467571562E-004
  3.500000000000001E-003    1.524071951380303E-004
  3.600000000000001E-003    1.597184001245477E-004
  3.700000000000001E-003    1.673484228454716E-004
  3.800000000000001E-003    1.753091232472932E-004
  3.900000000000001E-003    1.836126745078073E-004
  4.000000000000001E-003    1.922715410203778E-004
  4.100000000000001E-003    2.012985644866891E-004
  4.200000000000001E-003    2.107069359564343E-004
  4.300000000000001E-003    2.205102656755095E-004
  4.400000000000001E-003    2.307225876959950E-004
  4.500000000000001E-003    2.413584041388097E-004
  4.600000000000002E-003    2.524326609164148E-004
  4.700000000000001E-003    2.639608492964245E-004
  4.800000000000001E-003    2.759589432220259E-004
  4.900000000000002E-003    2.884434708099245E-004
  5.000000000000001E-003    3.014314624229748E-004
  5.100000000000001E-003    3.149404837271248E-004
  5.200000000000001E-003    3.289886461372779E-004
  5.300000000000002E-003    3.435945687796769E-004
  5.400000000000001E-003    3.587773605706856E-004
  5.500000000000001E-003    3.745566502273358E-004
  5.600000000000002E-003    3.909525385932633E-004
  5.700000000000001E-003    4.079856065453537E-004
  5.800000000000001E-003    4.256768634950091E-004
  5.900000000000002E-003    4.440477862342003E-004
  6.000000000000001E-003    4.631202452661286E-004
  6.100000000000001E-003    4.829166090823624E-004
  6.200000000000002E-003    5.034596118475266E-004
  6.300000000000002E-003    5.247724882408160E-004
  6.400000000000001E-003    5.468787675212187E-004
  6.500000000000001E-003    5.698025297385048E-004
  6.600000000000002E-003    5.935682459387581E-004
  6.700000000000001E-003    6.182008033294726E-004
  6.800000000000001E-003    6.437255035672704E-004
  6.900000000000002E-003    6.701680660407930E-004
  7.000000000000001E-003    6.975547583077346E-004
  7.100000000000001E-003    7.259121511252399E-004
  7.200000000000002E-003    7.552673997336564E-004
  7.300000000000002E-003    7.856481525752643E-004
  7.400000000000001E-003    8.170824448697916E-004
  7.500000000000001E-003    8.495988898683637E-004
  7.600000000000002E-003    8.832266200667891E-004
  7.700000000000001E-003    9.179952419328171E-004
  7.800000000000001E-003    9.539349674340415E-004
  7.900000000000001E-003    9.910764791745388E-004
  8.000000000000002E-003    1.029450865107161E-003
  8.100000000000001E-003    1.069089812914025E-003
  8.200000000000001E-003    1.110025502258042E-003
  8.300000000000002E-003    1.152290484760510E-003
  8.400000000000001E-003    1.195917735824431E-003
  8.500000000000002E-003    1.240940569739029E-003
  8.600000000000002E-003    1.287392650676438E-003
  8.700000000000001E-003    1.335307723855910E-003
  8.800000000000002E-003    1.384719990206585E-003
  8.900000000000002E-003    1.435663769462758E-003
  9.000000000000001E-003    1.488173378581703E-003
  9.100000000000002E-003    1.542283411900290E-003
  9.200000000000002E-003    1.598028524549199E-003
  9.300000000000001E-003    1.655443485526216E-003
  9.400000000000002E-003    1.714562922470441E-003
  9.500000000000001E-003    1.775421699820894E-003
  9.600000000000001E-003    1.838054522968874E-003
  9.700000000000002E-003    1.902496154096886E-003
  9.800000000000001E-003    1.968781354579112E-003
  9.900000000000001E-003    2.036944779097795E-003
  1.000000000000000E-002    2.107020887127706E-003
  1.010000000000000E-002    2.179044173033254E-003
  1.020000000000000E-002    2.253049033118822E-003
  1.030000000000000E-002    2.329069639882733E-003
  1.040000000000000E-002    2.407139811995099E-003
  1.050000000000000E-002    2.487293396313520E-003
  1.060000000000000E-002    2.569563884204151E-003
  1.070000000000000E-002    2.653984128364555E-003
  1.080000000000000E-002    2.740587134780328E-003
  1.090000000000000E-002    2.829405060695624E-003
  1.100000000000000E-002    2.920469997404415E-003
  1.110000000000000E-002    3.013813043643465E-003
  1.120000000000000E-002    3.109464956371214E-003
  1.130000000000000E-002    3.207455791976484E-003
  1.140000000000000E-002    3.307814895350872E-003
  1.150000000000000E-002    3.410570562866712E-003
  1.160000000000000E-002    3.515750531046019E-003
  1.170000000000000E-002    3.623381387342296E-003
  1.180000000000000E-002    3.733488742579115E-003
  1.190000000000000E-002    3.846096689914610E-003
  1.200000000000000E-002    3.961228801092133E-003
  1.210000000000000E-002    4.078906527216887E-003
  1.220000000000000E-002    4.199150660955909E-003
  1.230000000000000E-002    4.321980724195549E-003
  1.240000000000000E-002    4.447413601883004E-003
  1.250000000000000E-002    4.575465906499028E-003
  1.260000000000000E-002    4.706152316810016E-003
  1.270000000000000E-002    4.839485103437077E-003
  1.280000000000000E-002    4.975475636711238E-003
  1.290000000000000E-002    5.114133270116084E-003
  1.300000000000000E-002    5.255465020207704E-003
  1.310000000000000E-002    5.399476675950491E-003
  1.320000000000000E-002    5.546171896698786E-003
  1.330000000000000E-002    5.695552169878958E-003
  1.340000000000000E-002    5.847616558118776E-003
  1.350000000000000E-002    6.002362357660941E-003
  1.360000000000000E-002    6.159784324699103E-003
  1.370000000000000E-002    6.319875312519538E-003
  1.380000000000000E-002    6.482624867572064E-003
  1.390000000000000E-002    6.648020644437719E-003
  1.400000000000000E-002    6.816047257180327E-003
  1.410000000000000E-002    6.986686862718960E-003
  1.420000000000000E-002    7.159918871921872E-003
  1.430000000000000E-002    7.335719430041474E-003
  1.440000000000000E-002    7.514062300114631E-003
  1.450000000000000E-002    7.694917744789796E-003
  1.460000000000000E-002    7.878252902795820E-003
  1.470000000000000E-002    8.064031583025547E-003
  1.480000000000000E-002    8.252214721177362E-003
  1.490000000000000E-002    8.442759498304147E-003
  1.500000000000000E-002    8.635619631988743E-003
  1.510000000000000E-002    8.830745953410121E-003
  1.520000000000000E-002    9.028085963854595E-003
  1.530000000000000E-002    9.227583100630751E-003
  1.540000000000000E-002    9.429176955289758E-003
  1.550000000000000E-002    9.632804012249915E-003
  1.560000000000000E-002    9.838396294443203E-003
  1.570000000000000E-002    1.004588267058700E-002
  1.580000000000000E-002    1.025518860169582E-002
  1.590000000000000E-002    1.046623460220611E-002
  1.600000000000000E-002    1.067893776687419E-002
  1.610000000000000E-002    1.089321129027524E-002
  1.620000000000000E-002    1.110896386624263E-002
  1.630000000000000E-002    1.132610077895452E-002
  1.640000000000000E-002    1.154452235908796E-002
  1.650000000000000E-002    1.176412495884334E-002
  1.660000000000000E-002    1.198480147131899E-002
  1.670000000000000E-002    1.220644006083388E-002
  1.680000000000000E-002    1.242892378316968E-002
  1.690000000000000E-002    1.265213333171567E-002
  1.700000000000000E-002    1.287594406291327E-002
  1.710000000000000E-002    1.310022716109303E-002
  1.720000000000000E-002    1.332485037270552E-002
  1.730000000000000E-002    1.354967653078848E-002
  1.740000000000000E-002    1.377456422136387E-002
  1.750000000000000E-002    1.399936821511178E-002
  1.760000000000000E-002    1.422394035890696E-002
  1.770000000000000E-002    1.444812678862435E-002
  1.780000000000000E-002    1.467177079100435E-002
  1.790000000000000E-002    1.489471190242369E-002
  1.800000000000000E-002    1.511678534683447E-002
  1.810000000000000E-002    1.533782308663058E-002
  1.820000000000000E-002    1.555765261163799E-002
  1.830000000000000E-002    1.577609943572874E-002
  1.840000000000000E-002    1.599298311370835E-002
  1.850000000000000E-002    1.620812005894622E-002
  1.860000000000000E-002    1.642132636723877E-002
  1.870000000000000E-002    1.663241040780301E-002