 -4.000000000000000E-002    0.000000000000000E+000
 -3.990000000000000E-002    0.000000000000000E+000
 -3.980000000000000E-002    0.000000000000000E+000
 -3.970000000000000E-002    0.000000000000000E+000
 -3.960000000000000E-002    0.000000000000000E+000
 -3.950000000000000E-002    0.000000000000000E+000
 -3.940000000000000E-002    0.000000000000000E+000
 -3.930000000000000E-002    0.000000000000000E+000
 -3.920000000000000E-002    0.000000000000000E+000
 -3.910000000000000E-002    0.000000000000000E+000
 -3.900000000000000E-002    0.000000000000000E+000
 -3.890000000000000E-002    0.000000000000000E+000
 -3.880000000000000E-002    0.000000000000000E+000
 -3.870000000000000E-002    0.000000000000000E+000
 -3.860000000000000E-002    0.000000000000000E+000
 -3.850000000000000E-002    0.000000000000000E+000
 -3.840000000000000E-002    0.000000000000000E+000
 -3.830000000000000E-002    0.000000000000000E+000
 -3.820000000000000E-002    0.000000000000000E+000
 -3.810000000000000E-002    0.000000000000000E+000
 -3.800000000000000E-002    0.000000000000000E+000
 -3.790000000000000E-002    0.000000000000000E+000
 -3.780000000000000E-002    0.000000000000000E+000
 -3.770000000000000E-002    0.000000000000000E+000
 -3.760000000000000E-002    0.000000000000000E+000
 -3.750000000000000E-002    0.000000000000000E+000
 -3.740000000000000E-002    0.000000000000000E+000
 -3.730000000000000E-002    0.000000000000000E+000
 -3.720000000000000E-002    0.000000000000000E+000
 -3.710000000000000E-002    0.000000000000000E+000
 -3.700000000000000E-002    0.000000000000000E+000
 -3.690000000000000E-002    0.000000000000000E+000
 -3.680000000000000E-002    0.000000000000000E+000
 -3.670000000000000E-002    0.000000000000000E+000
 -3.660000000000000E-002    0.000000000000000E+000
 -3.650000000000000E-002    0.000000000000000E+000
 -3.640000000000000E-002    0.000000000000000E+000
 -3.630000000000000E-002    0.000000000000000E+000
 -3.620000000000000E-002    0.000000000000000E+000
 -3.610000000000000E-002    0.000000000000000E+000
 -3.600000000000000E-002    0.000000000000000E+000
 -3.590000000000000E-002    0.000000000000000E+000
 -3.580000000000000E-002    0.000000000000000E+000
 -3.570000000000000E-002    0.000000000000000E+000
 -3.560000000000000E-002    0.000000000000000E+000
 -3.550000000000000E-002    0.000000000000000E+000
 -3.540000000000000E-002    0.000000000000000E+000
 -3.530000000000000E-002    0.000000000000000E+000
 -3.520000000000000E-002    0.000000000000000E+000
 -3.510000000000000E-002    0.000000000000000E+000
 -3.500000000000000E-002    0.000000000000000E+000
 -3.490000000000000E-002    0.000000000000000E+000
 -3.480000000000000E-002    0.000000000000000E+000
 -3.470000000000000E-002    0.000000000000000E+000
 -3.460000000000000E-002    0.000000000000000E+000
 -3.450000000000000E-002    0.000000000000000E+000
 -3.440000000000000E-002    0.000000000000000E+000
 -3.430000000000000E-002    0.000000000000000E+000
 -3.420000000000000E-002    0.000000000000000E+000
 -3.410000000000000E-002    0.000000000000000E+000
 -3.400000000000000E-002    0.000000000000000E+000
 -3.390000000000000E-002    0.000000000000000E+000
 -3.380000000000000E-002    0.000000000000000E+000
 -3.370000000000000E-002    0.000000000000000E+000
 -3.360000000000000E-002    0.000000000000000E+000
 -3.350000000000000E-002    0.000000000000000E+000
 -3.340000000000000E-002    0.000000000000000E+000
 -3.330000000000000E-002    0.000000000000000E+000
 -3.320000000000000E-002    0.000000000000000E+000
 -3.310000000000000E-002    0.000000000000000E+000
 -3.300000000000000E-002    0.000000000000000E+000
 -3.290000000000000E-002    0.000000000000000E+000
 -3.280000000000000E-002    0.000000000000000E+000
 -3.270000000000000E-002    0.000000000000000E+000
 -3.260000000000000E-002    0.000000000000000E+000
 -3.250000000000000E-002    0.000000000000000E+000
 -3.240000000000000E-002    0.000000000000000E+000
 -3.230000000000000E-002    0.000000000000000E+000
 -3.220000000000000E-002    0.000000000000000E+000
 -3.210000000000000E-002    0.000000000000000E+000
 -3.200000000000000E-002    0.000000000000000E+000
 -3.190000000000000E-002    0.000000000000000E+000
 -3.180000000000000E-002    0.000000000000000E+000
 -3.170000000000000E-002    0.000000000000000E+000
 -3.160000000000000E-002    0.000000000000000E+000
 -3.150000000000000E-002    0.000000000000000E+000
 -3.140000000000000E-002    0.000000000000000E+000
 -3.130000000000000E-002    0.000000000000000E+000
 -3.120000000000000E-002    0.000000000000000E+000
 -3.110000000000000E-002   -2.138211768073757E-048
 -3.100000000000000E-002   -4.276423536147513E-048
 -3.090000000000000E-002   -6.414635304221270E-048
 -3.080000000000000E-002   -6.414635304221270E-048
 -3.070000000000000E-002   -4.276423536147513E-048
 -3.060000000000000E-002    8.552847072295026E-048
 -3.050000000000000E-002    1.289205610923795E-046
 -3.040000000000000E-002    3.191274538545614E-046
 -3.030000000000000E-002    6.760209099301137E-046
 -3.020000000000000E-002    1.170521249273234E-045
 -3.010000000000000E-002    1.802761946986814E-045
 -3.000000000000000E-002    2.423295609004967E-045
 -2.990000000000000E-002    2.612432095917001E-045
 -2.980000000000000E-002    1.503780829880144E-045
 -2.970000000000000E-002    1.476798949339707E-046
 -2.960000000000000E-002   -3.714003225528546E-045
 -2.950000000000000E-002   -1.134582896794759E-044
 -2.940000000000000E-002   -2.415438685413152E-044
 -2.930000000000000E-002   -4.291811035537215E-044
 -2.920000000000000E-002   -6.652717967918081E-044
 -2.910000000000000E-002   -9.142965302906615E-044
 -2.900000000000000E-002   -1.110371916200507E-043
 -2.890000000000000E-002   -1.123100820419807E-043
 -2.880000000000000E-002   -7.493663665640721E-044
 -2.870000000000000E-002    2.753294730483713E-044
 -2.860000000000000E-002    2.314500074541931E-043
 -2.850000000000000E-002    5.725755288410704E-043
 -2.840000000000000E-002    1.078497366978725E-042
 -2.830000000000000E-002    1.748864733064234E-042
 -2.820000000000000E-002    2.533248324764850E-042
 -2.810000000000000E-002    3.290172642819628E-042
 -2.800000000000000E-002    3.749854698147899E-042
 -2.790000000000000E-002    3.469255933424830E-042
 -2.780000000000000E-002    1.811019627945302E-042
 -2.770000000000000E-002   -2.053285534276956E-042
 -2.760000000000000E-002   -9.058513649718815E-042
 -2.750000000000000E-002   -2.006392435548454E-041
 -2.740000000000000E-002   -3.551604101649127E-041
 -2.730000000000000E-002   -5.493121470603219E-041
 -2.720000000000000E-002   -7.617295829444560E-041
 -2.710000000000000E-002   -9.458347830636136E-041
 -2.700000000000000E-002   -1.020759385771639E-040
 -2.690000000000000E-002   -8.643734327004844E-041
 -2.680000000000000E-002   -3.124459225499316E-041
 -2.670000000000000E-002    8.304750395860663E-041
 -2.660000000000000E-002    2.761498481509153E-040
 -2.650000000000000E-002    5.623623692554192E-040
 -2.640000000000000E-002    9.417783644367711E-040
 -2.630000000000000E-002    1.388103111990419E-039
 -2.620000000000000E-002    1.833792292980696E-039
 -2.610000000000000E-002    2.154536315482852E-039
 -2.600000000000000E-002    2.157006672696519E-039
 -2.590000000000000E-002    1.575942656051122E-039
 -2.580000000000000E-002    8.885272400260304E-041
 -2.570000000000000E-002   -2.641861341736459E-039
 -2.560000000000000E-002   -6.889654213340714E-039
 -2.550000000000000E-002   -1.274056189614191E-038
 -2.540000000000000E-002   -1.992589249532513E-038
 -2.530000000000000E-002   -2.762276688921426E-038
 -2.520000000000000E-002   -3.425171263284821E-038
 -2.510000000000000E-002   -3.732228561289338E-038
 -2.500000000000000E-002   -3.340128022049183E-038
 -2.490000000000000E-002   -1.829829553944274E-038
 -2.480000000000000E-002    1.242723835488647E-038
 -2.470000000000000E-002    6.254469156858427E-038
 -2.460000000000000E-002    1.337659076026260E-037
 -2.450000000000000E-002    2.239257736041321E-037
 -2.440000000000000E-002    3.248887043316650E-037
 -2.430000000000000E-002    4.205078633204040E-037
 -2.420000000000000E-002    4.851554565551057E-037
 -2.410000000000000E-002    4.835257359355204E-037
 -2.400000000000000E-002    3.725375460618264E-037
 -2.390000000000000E-002    1.061682038169707E-037
 -2.380000000000000E-002   -3.561348612340250E-037
 -2.370000000000000E-002   -1.037254172783990E-036
 -2.360000000000000E-002   -1.926926849177509E-036
 -2.350000000000000E-002   -2.964503861892064E-036
 -2.340000000000000E-002   -4.022646921010928E-036
 -2.330000000000000E-002   -4.895885968716707E-036
 -2.320000000000000E-002   -5.298963807724876E-036
 -2.310000000000000E-002   -4.880362550295316E-036
 -2.300000000000000E-002   -3.255995433761434E-036
 -2.290000000000000E-002   -6.645954034512085E-038
 -2.280000000000000E-002    4.941726999610931E-036
 -2.270000000000000E-002    1.181477854313146E-035
 -2.260000000000000E-002    2.027942946530037E-035
 -2.250000000000000E-002    2.963492174849054E-035
 -2.240000000000000E-002    3.866961002885710E-035
 -2.230000000000000E-002    4.562649028808805E-035
 -2.220000000000000E-002    4.824317862391384E-035
 -2.210000000000000E-002    4.388967354994858E-035
 -2.200000000000000E-002    2.982106867450897E-035
 -2.190000000000000E-002    3.552440652851335E-036
 -2.180000000000000E-002   -3.664985825877003E-035
 -2.170000000000000E-002   -9.118118582700036E-035
 -2.160000000000000E-002   -1.584521138247432E-034
 -2.150000000000000E-002   -2.342342659233720E-034
 -2.140000000000000E-002   -3.110660785602644E-034
 -2.130000000000000E-002   -3.778039087096907E-034
 -2.120000000000000E-002   -4.194262509666721E-034
 -2.110000000000000E-002   -4.172291293909218E-034
 -2.100000000000000E-002   -3.495893604078385E-034
 -2.090000000000000E-002   -1.935163325308364E-034
 -2.080000000000000E-002    7.275002195747908E-035
 -2.070000000000000E-002    4.658275708589320E-034
 -2.060000000000000E-002    9.917540852885036E-034
 -2.050000000000000E-002    1.638968157780979E-033
 -2.040000000000000E-002    2.369961841401140E-033
 -2.030000000000000E-002    3.112352069647350E-033
 -2.020000000000000E-002    3.750791416413376E-033
 -2.010000000000000E-002    4.121963121097345E-033
 -2.000000000000000E-002    4.015736312033234E-033
 -1.990000000000000E-002    3.186216329650472E-033
 -1.980000000000000E-002    1.376606446366886E-033
 -1.970000000000000E-002   -1.638838459664662E-033
 -1.960000000000000E-002   -5.994270178615880E-033
 -1.950000000000000E-002   -1.165482544598257E-032
 -1.940000000000000E-002   -1.832872343834037E-032
 -1.930000000000000E-002   -2.538115223492184E-032
 -1.920000000000000E-002   -3.176864435761810E-032
 -1.910000000000000E-002   -3.601837581123091E-032
 -1.900000000000000E-002   -3.628033756314648E-032
 -1.890000000000000E-002   -3.047955782183820E-032
 -1.880000000000000E-002   -1.658876007338100E-032
 -1.870000000000000E-002    6.972653655464202E-033
 -1.860000000000000E-002    4.082994500408202E-032
 -1.850000000000000E-002    8.408108205023883E-032
 -1.840000000000000E-002    1.337416444057115E-031
 -1.830000000000000E-002    1.843196822946793E-031
 -1.820000000000000E-002    2.276581795897688E-031
 -1.810000000000000E-002    2.531910741699115E-031
 -1.800000000000000E-002    2.487419815950474E-031
 -1.790000000000000E-002    2.019463594658544E-031
 -1.780000000000000E-002    1.022949449258534E-031
 -1.770000000000000E-002   -5.631804688492500E-032
 -1.760000000000000E-002   -2.727945293351192E-031
 -1.750000000000000E-002   -5.361714979042063E-031
 -1.740000000000000E-002   -8.236082928219260E-031
 -1.730000000000000E-002   -1.099598290270429E-030
 -1.720000000000000E-002   -1.316967562363997E-030
 -1.710000000000000E-002   -1.420107459592349E-030
 -1.700000000000000E-002   -1.350659062570438E-030
 -1.690000000000000E-002   -1.055530384822037E-030
 -1.680000000000000E-002   -4.967157773858539E-031
 -1.670000000000000E-002    3.380551729197752E-031
 -1.660000000000000E-002    1.425211091160373E-030
 -1.650000000000000E-002    2.697425894520182E-030
 -1.640000000000000E-002    4.039643538668691E-030
 -1.630000000000000E-002    5.290624286877834E-030
 -1.620000000000000E-002    6.251176689995981E-030
 -1.610000000000000E-002    6.699568509496427E-030
 -1.600000000000000E-002    6.413763510621524E-030
 -1.590000000000000E-002    5.199216532160495E-030
 -1.580000000000000E-002    2.920100791541801E-030
 -1.570000000000000E-002   -4.688351560109604E-031
 -1.560000000000000E-002   -4.892983774769019E-030
 -1.550000000000000E-002   -1.013445914317009E-029
 -1.540000000000000E-002   -1.581767692601727E-029
 -1.530000000000000E-002   -2.140671946548840E-029
 -1.520000000000000E-002   -2.621696683664145E-029
 -1.510000000000000E-002   -2.944323566324813E-029
 -1.500000000000000E-002   -3.020664872751954E-029
 -1.490000000000000E-002   -2.762249137748623E-029
 -1.480000000000000E-002   -2.089114067281191E-029
 -1.470000000000000E-002   -9.413246731599439E-030
 -1.460000000000000E-002    7.071870558605044E-030
 -1.450000000000000E-002    2.832968462183700E-029
 -1.440000000000000E-002    5.346738064936495E-029
 -1.430000000000000E-002    8.078417228886951E-029
 -1.420000000000000E-002    1.076648199948728E-028
 -1.410000000000000E-002    1.305553886036312E-028
 -1.400000000000000E-002    1.450663654067242E-028
 -1.390000000000000E-002    1.462481775040832E-028
 -1.380000000000000E-002    1.290741273743860E-028
 -1.370000000000000E-002    8.914364567677360E-029
 -1.360000000000000E-002    2.358327386202688E-029
 -1.350000000000000E-002   -6.792460505781379E-029
 -1.340000000000000E-002   -1.821092683101608E-028
 -1.330000000000000E-002   -3.112520565012362E-028
 -1.320000000000000E-002   -4.427159137307519E-028
 -1.310000000000000E-002   -5.590935112447823E-028
 -1.300000000000000E-002   -6.391779241928017E-028
 -1.290000000000000E-002   -6.598857483058853E-028
 -1.280000000000000E-002   -5.991380850846731E-028
 -1.270000000000000E-002   -4.395361683830711E-028
 -1.260000000000000E-002   -1.724739960155132E-028
 -1.250000000000000E-002    1.978607808336847E-028
 -1.240000000000000E-002    6.512951000246230E-028
 -1.230000000000000E-002    1.150054226669816E-027
 -1.220000000000000E-002    1.639431549641876E-027
 -1.210000000000000E-002    2.051259069386460E-027
 -1.200000000000000E-002    2.310348671755578E-027
 -1.190000000000000E-002    2.343607784636960E-027
 -1.180000000000000E-002    2.091002165499171E-027
 -1.170000000000000E-002    1.517030144061563E-027
 -1.160000000000000E-002    6.209853580954198E-028
 -1.150000000000000E-002   -5.558757654712317E-028
 -1.140000000000000E-002   -1.927992884801158E-027
 -1.130000000000000E-002   -3.369218296049614E-027
 -1.120000000000000E-002   -4.722992293487627E-027
 -1.110000000000000E-002   -5.818310487526920E-027
 -1.100000000000000E-002   -6.489693250650433E-027
 -1.090000000000000E-002   -6.598379155648064E-027
 -1.080000000000000E-002   -6.051386696913855E-027
 -1.070000000000000E-002   -4.815086942169198E-027
 -1.060000000000000E-002   -2.920659016446071E-027
 -1.050000000000000E-002   -4.602240078729284E-028
 -1.040000000000000E-002    2.425591741888004E-027
 -1.030000000000000E-002    5.565791812731655E-027
 -1.020000000000000E-002    8.778137732690993E-027
 -1.010000000000000E-002    1.188357704075967E-026
 -1.000000000000000E-002    1.471060194614602E-026
 -9.899999999999999E-003    1.708608242845158E-026
 -9.800000000000000E-003    1.881263130301683E-026
 -9.699999999999999E-003    1.963721363846743E-026
 -9.599999999999999E-003    1.922071866864975E-026
 -9.500000000000000E-003    1.712234298540773E-026
 -9.399999999999999E-003    1.281459280227987E-026
 -9.299999999999999E-003    5.743175915624297E-027
 -9.200000000000000E-003   -4.559770076723375E-027
 -9.099999999999999E-003   -1.831093838289190E-026
 -8.999999999999999E-003   -3.527521451066833E-026
 -8.900000000000000E-003   -5.456015444411560E-026
 -8.799999999999999E-003   -7.445062764426246E-026
 -8.699999999999999E-003   -9.233761623676387E-026
 -8.600000000000000E-003   -1.047956414383240E-025
 -8.499999999999999E-003   -1.078521353524993E-025
 -8.399999999999999E-003   -9.746816075511937E-026
 -8.300000000000000E-003   -7.021391182336402E-026
 -8.199999999999999E-003   -2.407872807546589E-026
 -8.100000000000000E-003    4.069048817204776E-026
 -8.000000000000000E-003    1.208670183445401E-025
 -7.899999999999999E-003    2.098046558134708E-025
 -7.800000000000000E-003    2.974434536557813E-025
 -7.699999999999999E-003    3.708884880768305E-025
 -7.599999999999999E-003    4.156204208869045E-025
 -7.499999999999999E-003    4.172998669515287E-025
 -7.399999999999999E-003    3.640125187630996E-025
 -7.299999999999999E-003    2.486886448135711E-025
 -7.199999999999999E-003    7.133705232144043E-026
 -7.100000000000000E-003   -1.593141734015077E-025
 -6.999999999999999E-003   -4.251647440235327E-025
 -6.899999999999999E-003   -6.993834992483219E-025
 -6.800000000000000E-003   -9.484908081709826E-025
 -6.699999999999999E-003   -1.135812095048451E-024
 -6.599999999999999E-003   -1.225987897676839E-024
 -6.499999999999999E-003   -1.189994322548773E-024
 -6.399999999999999E-003   -1.009955486346987E-024
 -6.299999999999999E-003   -6.829611617533758E-025
 -6.199999999999999E-003   -2.231674368480651E-025
 -6.100000000000000E-003    3.383313510587288E-025
 -5.999999999999999E-003    9.560323116240839E-025
 -5.899999999999999E-003    1.574707805323245E-024
 -5.800000000000000E-003    2.135566775442000E-024
 -5.699999999999999E-003    2.582864828111577E-024
 -5.599999999999999E-003    2.869749981738555E-024
 -5.499999999999999E-003    2.962187212866545E-024
 -5.399999999999999E-003    2.840131276554617E-024
 -5.299999999999999E-003    2.495695240426559E-024
 -5.199999999999999E-003    1.928821614935694E-024
 -5.099999999999999E-003    1.141747603208002E-024
 -4.999999999999999E-003    1.342154045176116E-025
 -4.899999999999999E-003   -1.098304320782630E-024
 -4.799999999999999E-003   -2.561269633489643E-024
 -4.699999999999999E-003   -4.251256498289168E-024
 -4.599999999999999E-003   -6.139665672738930E-024
 -4.499999999999999E-003   -8.151694283920596E-024
 -4.399999999999999E-003   -1.014427546414325E-023
 -4.299999999999999E-003   -1.188840162372160E-023
 -4.199999999999999E-003   -1.306236138027574E-023
 -4.099999999999999E-003   -1.326240708027552E-023
 -3.999999999999999E-003   -1.203605511655241E-023
 -3.899999999999999E-003   -8.940357894950153E-024
 -3.799999999999999E-003   -3.623292849568269E-024
 -3.699999999999999E-003    4.078673799738590E-024
 -3.599999999999999E-003    1.403903609336664E-023
 -3.499999999999999E-003    2.575245547537949E-023
 -3.399999999999999E-003    3.827806114478385E-023
 -3.299999999999999E-003    5.023432126117786E-023
 -3.199999999999999E-003    5.986144405478037E-023
 -3.099999999999999E-003    6.516044759375534E-023
 -2.999999999999999E-003    6.410782435300702E-023
 -2.899999999999999E-003    5.493265344679635E-023
 -2.799999999999999E-003    3.643007884982279E-023
 -2.699999999999999E-003    8.273910863473775E-024
 -2.599999999999999E-003   -2.871684407670618E-023
 -2.499999999999999E-003   -7.240484029322131E-023
 -2.399999999999999E-003   -1.192976277303496E-022
 -2.299999999999999E-003   -1.646788415333578E-022
 -2.199999999999999E-003   -2.029207318107182E-022
 -2.099999999999999E-003   -2.279691789178576E-022
 -1.999999999999999E-003   -2.339679113651224E-022
 -1.899999999999999E-003   -2.159661097852035E-022
 -1.799999999999999E-003   -1.706366711349947E-022
 -1.699999999999999E-003   -9.692274586645951E-023
 -1.599999999999999E-003    3.467924348719766E-024
 -1.499999999999999E-003    1.257898324872381E-022
 -1.399999999999999E-003    2.622556684671923E-022
 -1.299999999999999E-003    4.023212466965353E-022
 -1.199999999999999E-003    5.332506609831489E-022
 -1.099999999999999E-003    6.409251842249325E-022
 -9.999999999999989E-004    7.108398284142242E-022
 -8.999999999999990E-004    7.292206409347581E-022
 -7.999999999999990E-004    6.841972330859661E-022
 -6.999999999999989E-004    5.669716159907263E-022
 -5.999999999999990E-004    3.729397618986682E-022
 -4.999999999999989E-004    1.027325401462947E-022
 -3.999999999999989E-004   -2.368532471406236E-022
 -2.999999999999989E-004   -6.320735220071711E-022
 -1.999999999999989E-004   -1.061670728600575E-021
 -9.999999999999892E-005   -1.496628559226197E-021
  1.084202172485504E-018   -1.900401497894666E-021
  1.000000000000011E-004   -2.229815293161414E-021
  2.000000000000011E-004   -2.436857086621084E-021
  3.000000000000011E-004   -2.471559199663899E-021
  4.000000000000011E-004   -2.286111987182050E-021
  5.000000000000011E-004   -1.840209504706357E-021
  6.000000000000011E-004   -1.107447740869346E-021
  7.000000000000011E-004   -8.234299823589861E-023
  8.000000000000011E-004    1.212708214400983E-021
  9.000000000000012E-004    2.721466118725434E-021
  1.000000000000001E-003    4.349991237527593E-021
  1.100000000000001E-003    5.966067759058819E-021
  1.200000000000001E-003    7.403002684052935E-021
  1.300000000000001E-003    8.468603844337898E-021
  1.400000000000001E-003    8.959661990370623E-021
  1.500000000000001E-003    8.681632205582957E-021
  1.600000000000001E-003    7.472426479561985E-021
  1.700000000000001E-003    5.228434942463248E-021
  1.800000000000001E-003    1.930154851831138E-021
  1.900000000000001E-003   -2.335714234469010E-021
  2.000000000000001E-003   -7.361147496574511E-021
  2.100000000000001E-003   -1.281186551466933E-020
  2.200000000000001E-003   -1.823531159169936E-020
  2.300000000000001E-003   -2.308319148885103E-020
  2.400000000000001E-003   -2.674884318632159E-020
  2.500000000000001E-003   -2.861808060341834E-020
  2.600000000000001E-003   -2.813039309838428E-020
  2.700000000000001E-003   -2.484580588681209E-020
  2.800000000000001E-003   -1.851134142460714E-020
  2.900000000000001E-003   -9.120269519896399E-021
  3.000000000000001E-003    3.042870834870399E-021
  3.100000000000001E-003    1.737791300561922E-020
  3.200000000000001E-003    3.297065825689031E-020
  3.300000000000001E-003    4.862377794174044E-020
  3.400000000000001E-003    6.291812490438360E-020
  3.500000000000001E-003    7.430302226402501E-020
  3.600000000000001E-003    8.121158937930318E-020
  3.700000000000001E-003    8.219463570961480E-020
  3.800000000000001E-003    7.606480714968682E-020
  3.900000000000001E-003    6.204100941521319E-020
  4.000000000000001E-003    3.988216311668108E-020
  4.100000000000001E-003    9.998862089899843E-021
  4.200000000000001E-003   -2.646842929780715E-020
  4.300000000000001E-003   -6.761543049631609E-020
  4.400000000000001E-003   -1.107941324537959E-019
  4.500000000000001E-003   -1.526946040853234E-019
  4.600000000000002E-003   -1.894941340977406E-019
  4.700000000000001E-003   -2.170757416181113E-019
  4.800000000000001E-003   -2.313130831518272E-019
  4.900000000000002E-003   -2.284140110251528E-019
  5.000000000000001E-003   -2.053069507074779E-019
  5.100000000000001E-003   -1.600478855910868E-019
  5.200000000000001E-003   -9.221686784644255E-020
  5.300000000000002E-003   -3.266556533304440E-021
  5.400000000000001E-003    1.032205610889125E-019
  5.500000000000001E-003    2.214115724271034E-019
  5.600000000000002E-003    3.432822356425482E-019
  5.700000000000001E-003    4.588911540155352E-019
  5.800000000000001E-003    5.568909414969883E-019
  5.900000000000002E-003    6.252789318321205E-019
  6.000000000000001E-003    6.523642688847877E-019
  6.100000000000001E-003    6.279022164142435E-019
  6.200000000000002E-003    5.443170996939025E-019
  6.300000000000002E-003    3.979097619053759E-019
  6.400000000000001E-003    1.899280229292726E-019
  6.500000000000001E-003   -7.263243582215093E-020
  6.600000000000002E-003   -3.766249087514631E-019
  6.700000000000001E-003   -7.028551735412862E-019
  6.800000000000001E-003   -1.026769810679672E-018
  6.900000000000002E-003   -1.319759652495824E-018
  7.000000000000001E-003   -1.551053219465576E-018
  7.100000000000001E-003   -1.690113967842415E-018
  7.200000000000002E-003   -1.709391844665858E-018
  7.300000000000002E-003   -1.587229289503259E-018
  7.400000000000001E-003   -1.310678253491676E-018
  7.500000000000001E-003   -8.779623725514947E-019
  7.600000000000002E-003   -3.003204150327278E-019
  7.700000000000001E-003    3.970100304441211E-019
  7.800000000000001E-003    1.174865386529808E-018
  7.900000000000001E-003    1.981406504419184E-018
  8.000000000000002E-003    2.754594132266719E-018
  8.100000000000001E-003    3.425833701262153E-018
  8.200000000000001E-003    3.924636980781903E-018
  8.300000000000002E-003    4.184063593921469E-018
  8.400000000000001E-003    4.146604294709281E-018
  8.500000000000002E-003    3.770111614991516E-018
  8.600000000000002E-003    3.033331446467140E-018
  8.700000000000001E-003    1.940562648568533E-018
  8.800000000000002E-003    5.249818026072956E-019
  8.900000000000002E-003   -1.149807006468358E-018
  9.000000000000001E-003   -2.990348638109116E-018
  9.100000000000002E-003   -4.876312416153249E-018
  9.200000000000002E-003   -6.665984985577266E-018
  9.300000000000001E-003   -8.204235218617531E-018
  9.400000000000002E-003   -9.332717201607705E-018
  9.500000000000001E-003   -9.901849656658948E-018
  9.600000000000001E-003   -9.783906571036764E-018
  9.700000000000002E-003   -8.886348460097820E-018
  9.800000000000001E-003   -7.164341065064882E-018
  9.900000000000001E-003   -4.631326878658319E-018
  1.000000000000000E-002   -1.366463727963917E-018
  1.010000000000000E-002    2.482143941034159E-018
  1.020000000000000E-002    6.699358945357600E-018
  1.030000000000000E-002    1.101064028890016E-017
  1.040000000000000E-002    1.509558096619750E-017
  1.050000000000000E-002    1.860704687312149E-017
  1.060000000000000E-002    2.119509319638570E-017
  1.070000000000000E-002    2.253424089452149E-017
  1.080000000000000E-002    2.235232678111548E-017
  1.090000000000000E-002    2.045867815821932E-017
  1.100000000000000E-002    1.676924505139852E-017
  1.110000000000000E-002    1.132627069786643E-017
  1.120000000000000E-002    4.310320636635851E-018
  1.130000000000000E-002   -3.957107614187307E-018
  1.140000000000000E-002   -1.302154543132681E-017
  1.150000000000000E-002   -2.231449563913573E-017
  1.160000000000000E-002   -3.118295319256939E-017
  1.170000000000000E-002   -3.892821382547888E-017
  1.180000000000000E-002   -4.485194447544894E-017
  1.190000000000000E-002   -4.830672253240429E-017
  1.200000000000000E-002   -4.874784883958543E-017
  1.210000000000000E-002   -4.578286380495971E-017
  1.220000000000000E-002   -3.921513437254304E-017
  1.230000000000000E-002   -2.907805938744120E-017
  1.240000000000000E-002   -1.565673773832616E-017
  1.250000000000000E-002    5.053369199402774E-019
  1.260000000000000E-002    1.861640474972924E-017
  1.270000000000000E-002    3.766415609492542E-017
  1.280000000000000E-002    5.646091716563133E-017
  1.290000000000000E-002    7.370488896155519E-017
  1.300000000000000E-002    8.805515489944561E-017
  1.310000000000000E-002    9.821661152655335E-017
  1.320000000000000E-002    1.030303970683170E-016
  1.330000000000000E-002    1.015642791549147E-016
  1.340000000000000E-002    9.319684476842364E-017
  1.350000000000000E-002    7.768945435561697E-017
  1.360000000000000E-002    5.523977694888664E-017
  1.370000000000000E-002    2.651183921821637E-017
  1.380000000000000E-002   -7.361465416373562E-018
  1.390000000000000E-002   -4.480563894012654E-017
  1.400000000000000E-002   -8.386190400261343E-017
  1.410000000000000E-002   -1.222727137104128E-016
  1.420000000000000E-002   -1.575913419054490E-016
  1.430000000000000E-002   -1.873099213793573E-016
  1.440000000000000E-002   -2.089988538469090E-016
  1.450000000000000E-002   -2.204498454563329E-016
  1.460000000000000E-002   -2.198151340604246E-016
  1.470000000000000E-002   -2.057358516832053E-016
  1.480000000000000E-002   -1.774540145115345E-016
  1.490000000000000E-002   -1.349040358351107E-016
  1.500000000000000E-002   -7.878102836170784E-017
  1.510000000000000E-002   -1.058409685036486E-017
  1.520000000000000E-002    6.736640605869253E-017
  1.530000000000000E-002    1.519392774708498E-016
  1.540000000000000E-002    2.392334874339243E-016
  1.550000000000000E-002    3.246535538985660E-016
  1.560000000000000E-002    4.030250648163026E-016
  1.570000000000000E-002    4.687576084865954E-016
  1.580000000000000E-002    5.160613384907809E-016
  1.590000000000000E-002    5.392231068052711E-016
  1.600000000000000E-002    5.329430702985187E-016
  1.610000000000000E-002    4.927280466126806E-016
  1.620000000000000E-002    4.153292270769699E-016
  1.630000000000000E-002    2.992036410187783E-016
  1.640000000000000E-002    1.449684011092227E-016
  1.650000000000000E-002   -4.419169459136713E-017
  1.660000000000000E-002   -2.622084565319138E-016
  1.670000000000000E-002   -4.999562870369403E-016
  1.680000000000000E-002   -7.452675869914723E-016
  1.690000000000000E-002   -9.831791950328664E-016
  1.700000000000000E-002   -1.196439823969460E-015
  1.710000000000000E-002   -1.366292287317146E-015
  1.720000000000000E-002   -1.473523258713697E-015
  1.730000000000000E-002   -1.499750481598639E-015
  1.740000000000000E-002   -1.428893382615345E-015
  1.750000000000000E-002   -1.248748725641700E-015
  1.760000000000000E-002   -9.525736244001196E-016
  1.770000000000000E-002   -5.405607837695828E-016
  1.780000000000000E-002   -2.108001993227721E-017
  1.790000000000000E-002    5.884436685322666E-016
  1.800000000000000E-002    1.261141459900405E-015
  1.810000000000000E-002    1.960916238021413E-015
  1.820000000000000E-002    2.643355625163668E-015
  1.830000000000000E-002    3.257405441808188E-015
  1.840000000000000E-002    3.747826702573873E-015
  1.850000000000000E-002    4.058406719278544E-015
  1.860000000000000E-002    4.135844198470791E-015
  1.870000000000000E-002    3.934149447087509E-015