 -4.000000000000000E-002    0.000000000000000E+000
 -3.990000000000000E-002    0.000000000000000E+000
 -3.980000000000000E-002    6.645124255606945E-012
 -3.970000000000000E-002    4.666536094944982E-011
 -3.960000000000000E-002    1.830233279519579E-010
 -3.950000000000000E-002    5.228998415724937E-010
 -3.940000000000000E-002    1.209836208358807E-009
 -3.930000000000000E-002    2.397332399090097E-009
 -3.920000000000000E-002    4.206652695037373E-009
 -3.910000000000000E-002    6.676308310835647E-009
 -3.900000000000000E-002    9.713731012357935E-009
 -3.890000000000000E-002    1.306048852044353E-008
 -3.880000000000000E-002    1.628088206445566E-008
 -3.870000000000000E-002    1.878025139024049E-008
 -3.860000000000000E-002    1.985440030730730E-008
 -3.850000000000000E-002    1.876617156564214E-008
 -3.840000000000000E-002    1.484026540448573E-008
 -3.830000000000000E-002    7.563813960579065E-009
 -3.820000000000000E-002   -3.321415857278270E-009
 -3.810000000000000E-002   -1.774869862756774E-008
 -3.800000000000000E-002   -3.528857025866668E-008
 -3.790000000000000E-002   -5.514989237566111E-008
 -3.780000000000000E-002   -7.622050468016454E-008
 -3.770000000000000E-002   -9.714291803399063E-008
 -3.760000000000000E-002   -1.164158326301590E-007
 -3.750000000000000E-002   -1.325093788581835E-007
 -3.740000000000000E-002   -1.439808801615988E-007
 -3.730000000000000E-002   -1.495791611152129E-007
 -3.720000000000000E-002   -1.483280518731914E-007
 -3.710000000000000E-002   -1.395837901621414E-007
 -3.700000000000000E-002   -1.230650867866141E-007
 -3.690000000000000E-002   -9.885843504625343E-008
 -3.680000000000000E-002   -6.740376283736623E-008
 -3.670000000000000E-002   -2.946655186718020E-008
 -3.660000000000000E-002    1.389783200454116E-008
 -3.650000000000000E-002    6.138375479438613E-008
 -3.640000000000000E-002    1.114773203384361E-007
 -3.630000000000000E-002    1.625016883805207E-007
 -3.620000000000000E-002    2.126684530584977E-007
 -3.610000000000000E-002    2.601381943678958E-007
 -3.600000000000000E-002    3.030926444493503E-007
 -3.590000000000000E-002    3.398188212539259E-007
 -3.580000000000000E-002    3.688024938257505E-007
 -3.570000000000000E-002    3.888253370943493E-007
 -3.560000000000000E-002    3.990574009836226E-007
 -3.550000000000000E-002    3.991356695017400E-007
 -3.540000000000000E-002    3.892192783548707E-007
 -3.530000000000000E-002    3.700143689616728E-007
 -3.520000000000000E-002    3.427648677699002E-007
 -3.510000000000000E-002    3.092099272915028E-007
 -3.500000000000000E-002    2.715132453718729E-007
 -3.490000000000000E-002    2.321729077998791E-007
 -3.480000000000000E-002    1.939230027304798E-007
 -3.470000000000000E-002    1.596381200879770E-007
 -3.460000000000000E-002    1.322504468601336E-007
 -3.450000000000000E-002    1.146857241187137E-007
 -3.440000000000000E-002    1.098200034293828E-007
 -3.430000000000000E-002    1.204548846229392E-007
 -3.420000000000000E-002    1.493044631801094E-007
 -3.410000000000000E-002    1.989860788677469E-007
 -3.400000000000000E-002    2.720053822059232E-007
 -3.390000000000000E-002    3.707291325758542E-007
 -3.380000000000000E-002    4.973411121500414E-007
 -3.370000000000000E-002    6.537816820015587E-007
 -3.360000000000000E-002    8.416763935485169E-007
 -3.350000000000000E-002    1.062260369253590E-006
 -3.340000000000000E-002    1.316311399348919E-006
 -3.330000000000000E-002    1.604100316219101E-006
 -3.320000000000000E-002    1.925369247872661E-006
 -3.310000000000000E-002    2.279343938446597E-006
 -3.300000000000000E-002    2.664781462001755E-006
 -3.290000000000000E-002    3.080050248324514E-006
 -3.280000000000000E-002    3.523236663797632E-006
 -3.270000000000000E-002    3.992268502094025E-006
 -3.260000000000000E-002    4.485047001104127E-006
 -3.250000000000000E-002    4.999572359315279E-006
 -3.240000000000000E-002    5.534063346624348E-006
 -3.230000000000000E-002    6.087056383148372E-006
 -3.220000000000000E-002    6.657490006350078E-006
 -3.210000000000000E-002    7.244765785654790E-006
 -3.200000000000000E-002    7.848795944225588E-006
 -3.190000000000000E-002    8.470032903880375E-006
 -3.180000000000000E-002    9.109477651472613E-006
 -3.170000000000000E-002    9.768681153362378E-006
 -3.160000000000000E-002    1.044971830436629E-005
 -3.150000000000000E-002    1.115514862666410E-005
 -3.140000000000000E-002    1.188795175754911E-005
 -3.130000000000000E-002    1.265144476978700E-005
 -3.120000000000000E-002    1.344918232470671E-005
 -3.110000000000000E-002    1.428484077257168E-005
 -3.100000000000000E-002    1.516210633157439E-005
 -3.090000000000000E-002    1.608456858735873E-005
 -3.080000000000000E-002    1.705563230657340E-005
 -3.070000000000000E-002    1.807846567148537E-005
 -3.060000000000000E-002    1.915598580629101E-005
 -3.050000000000000E-002    2.029088086107240E-005
 -3.040000000000000E-002    2.148567738583806E-005
 -3.030000000000000E-002    2.274282887390258E-005
 -3.020000000000000E-002    2.406483080486581E-005
 -3.010000000000000E-002    2.545433404274087E-005
 -3.000000000000000E-002    2.691424452865324E-005
 -2.990000000000000E-002    2.844780148150739E-005
 -2.980000000000000E-002    3.005862108134075E-005
 -2.970000000000000E-002    3.175070586051390E-005
 -2.960000000000000E-002    3.352842610073582E-005
 -2.950000000000000E-002    3.539647197185149E-005
 -2.940000000000000E-002    3.735979522452605E-005
 -2.930000000000000E-002    3.942355350736846E-005
 -2.920000000000000E-002    4.159307672029816E-005
 -2.910000000000000E-002    4.387383655799732E-005
 -2.900000000000000E-002    4.627145720060365E-005
 -2.890000000000000E-002    4.879174611291340E-005
 -2.880000000000000E-002    5.144073271528052E-005
 -2.870000000000000E-002    5.422473504780356E-005
 -2.860000000000000E-002    5.715041338454198E-005
 -2.850000000000000E-002    6.022482973626118E-005
 -2.840000000000000E-002    6.345548768619447E-005
 -2.830000000000000E-002    6.685034995675079E-005
 -2.820000000000000E-002    7.041786664351039E-005
 -2.810000000000000E-002    7.416697083625323E-005
 -2.800000000000000E-002    7.810709221283703E-005
 -2.790000000000000E-002    8.224815078343019E-005
 -2.780000000000000E-002    8.660055450653446E-005
 -2.770000000000000E-002    9.117523146582748E-005
 -2.760000000000000E-002    9.598359997513836E-005
 -2.750000000000000E-002    1.010376058915398E-004
 -2.740000000000000E-002    1.063496782498948E-004
 -2.730000000000000E-002    1.119327333736102E-004
 -2.720000000000000E-002    1.178000804043761E-004
 -2.710000000000000E-002    1.239654038387674E-004
 -2.700000000000000E-002    1.304426317799748E-004
 -2.690000000000000E-002    1.372458865939419E-004
 -2.680000000000000E-002    1.443894112093355E-004
 -2.670000000000000E-002    1.518874956353408E-004
 -2.660000000000000E-002    1.597544986676023E-004
 -2.650000000000000E-002    1.680048536622393E-004
 -2.640000000000000E-002    1.766531681744630E-004
 -2.630000000000000E-002    1.857142944953907E-004
 -2.620000000000000E-002    1.952034942447944E-004
 -2.610000000000000E-002    2.051365553800263E-004
 -2.600000000000000E-002    2.155299407944093E-004
 -2.590000000000000E-002    2.264008829703043E-004
 -2.580000000000000E-002    2.377674687292971E-004
 -2.570000000000000E-002    2.496486691645194E-004
 -2.560000000000000E-002    2.620643352540520E-004
 -2.550000000000000E-002    2.750351796855330E-004
 -2.540000000000000E-002    2.885827367109742E-004
 -2.530000000000000E-002    3.027293735426746E-004
 -2.520000000000000E-002    3.174982064317303E-004
 -2.510000000000000E-002    3.329131549916548E-004
 -2.500000000000000E-002    3.489989632826944E-004
 -2.490000000000000E-002    3.657813324677168E-004
 -2.480000000000000E-002    3.832868822878163E-004
 -2.470000000000000E-002    4.015432523084615E-004
 -2.460000000000000E-002    4.205792324612314E-004
 -2.450000000000000E-002    4.404246354478447E-004
 -2.440000000000000E-002    4.611103874053453E-004
 -2.430000000000000E-002    4.826683169681620E-004
 -2.420000000000000E-002    5.051311438151589E-004
 -2.410000000000000E-002    5.285323103637873E-004
 -2.400000000000000E-002    5.529058560976637E-004
 -2.390000000000000E-002    5.782862166262626E-004
 -2.380000000000000E-002    6.047082699564424E-004
 -2.370000000000000E-002    6.322071125288145E-004
 -2.360000000000000E-002    6.608182618466900E-004
 -2.350000000000000E-002    6.905775959702083E-004
 -2.340000000000000E-002    7.215214545147536E-004
 -2.330000000000000E-002    7.536866491009463E-004
 -2.320000000000000E-002    7.871106993160848E-004
 -2.310000000000000E-002    8.218317506403015E-004
 -2.300000000000000E-002    8.578887292414912E-004
 -2.290000000000000E-002    8.953211867968632E-004
 -2.280000000000000E-002    9.341693989942593E-004
 -2.270000000000000E-002    9.744742175362694E-004
 -2.260000000000000E-002    1.016277199736412E-003
 -2.250000000000000E-002    1.059620273343344E-003
 -2.240000000000000E-002    1.104545916472898E-003
 -2.230000000000000E-002    1.151097165140574E-003
 -2.220000000000000E-002    1.199317575257441E-003
 -2.210000000000000E-002    1.249251514013824E-003
 -2.200000000000000E-002    1.300943835417847E-003
 -2.190000000000000E-002    1.354440227252407E-003
 -2.180000000000000E-002    1.409787098642931E-003
 -2.170000000000000E-002    1.467031491424126E-003
 -2.160000000000000E-002    1.526221151548827E-003
 -2.150000000000000E-002    1.587404105818800E-003
 -2.140000000000000E-002    1.650628576301623E-003
 -2.130000000000000E-002    1.715942818615535E-003
 -2.120000000000000E-002    1.783394625569133E-003
 -2.110000000000000E-002    1.853031471880861E-003
 -2.100000000000000E-002    1.924900144041455E-003
 -2.090000000000000E-002    1.999046482521358E-003
 -2.080000000000000E-002    2.075515624918657E-003
 -2.070000000000000E-002    2.154351819315113E-003
 -2.060000000000000E-002    2.235598307888951E-003
 -2.050000000000000E-002    2.319297694127352E-003
 -2.040000000000000E-002    2.405491658416173E-003
 -2.030000000000000E-002    2.494221012250014E-003
 -2.020000000000000E-002    2.585525563419055E-003
 -2.010000000000000E-002    2.679443733460758E-003
 -2.000000000000000E-002    2.776012798169296E-003
 -1.990000000000000E-002    2.875268255821640E-003
 -1.980000000000000E-002    2.977243701266673E-003
 -1.970000000000000E-002    3.081970702965906E-003
 -1.960000000000000E-002    3.189478303597289E-003
 -1.950000000000000E-002    3.299793609319315E-003
 -1.940000000000000E-002    3.412940856295141E-003
 -1.930000000000000E-002    3.528941714768146E-003
 -1.920000000000000E-002    3.647815031659480E-003
 -1.910000000000000E-002    3.769576905744722E-003
 -1.900000000000000E-002    3.894240800043773E-003
 -1.890000000000000E-002    4.021816818302078E-003
 -1.880000000000000E-002    4.152312100802401E-003
 -1.870000000000000E-002    4.285730250159039E-003
 -1.860000000000000E-002    4.422070918292853E-003
 -1.850000000000000E-002    4.561329650039575E-003
 -1.840000000000000E-002    4.703497538940236E-003
 -1.830000000000000E-002    4.848560950299985E-003
 -1.820000000000000E-002    4.996500482579398E-003
 -1.810000000000000E-002    5.147291728028842E-003
 -1.800000000000000E-002    5.300903727717861E-003
 -1.790000000000000E-002    5.457300036789237E-003
 -1.780000000000000E-002    5.616437184176844E-003
 -1.770000000000000E-002    5.778265723874822E-003
 -1.760000000000000E-002    5.942728352326948E-003
 -1.750000000000000E-002    6.109761511813158E-003
 -1.740000000000000E-002    6.279292890484149E-003
 -1.730000000000000E-002    6.451242865448656E-003
 -1.720000000000000E-002    6.625522870452460E-003
 -1.710000000000000E-002    6.802036121560723E-003
 -1.700000000000000E-002    6.980675894674293E-003
 -1.690000000000000E-002    7.161325602056056E-003
 -1.680000000000000E-002    7.343858986369046E-003
 -1.670000000000000E-002    7.528139373699155E-003
 -1.660000000000000E-002    7.714019254813180E-003
 -1.650000000000000E-002    7.901339552554849E-003
 -1.640000000000000E-002    8.089930643023279E-003
 -1.630000000000000E-002    8.279610920700403E-003
 -1.620000000000000E-002    8.470186514289962E-003
 -1.610000000000000E-002    8.661451496133050E-003
 -1.600000000000000E-002    8.853187700569899E-003
 -1.590000000000000E-002    9.045163342723313E-003
 -1.580000000000000E-002    9.237132546673936E-003
 -1.570000000000000E-002    9.428836321083085E-003
 -1.560000000000000E-002    9.620000340981694E-003
 -1.550000000000000E-002    9.810336167778084E-003
 -1.540000000000000E-002    9.999539043031882E-003
 -1.530000000000000E-002    1.018728772426564E-002
 -1.520000000000000E-002    1.037324628569403E-002
 -1.510000000000000E-002    1.055706105034211E-002
 -1.500000000000000E-002    1.073836131396545E-002
 -1.490000000000000E-002    1.091676037335859E-002
 -1.480000000000000E-002    1.109185134699592E-002
 -1.470000000000000E-002    1.126321141187971E-002
 -1.460000000000000E-002    1.143039809654492E-002
 -1.450000000000000E-002    1.159294905545912E-002
 -1.440000000000000E-002    1.175038297536143E-002
 -1.430000000000000E-002    1.190219890198993E-002
 -1.420000000000000E-002    1.204787455210476E-002
 -1.410000000000000E-002    1.218686703348420E-002
 -1.400000000000000E-002    1.231861093825815E-002
 -1.390000000000000E-002    1.244251993494343E-002
 -1.380000000000000E-002    1.255798569310768E-002
 -1.370000000000000E-002    1.266437729301803E-002
 -1.360000000000000E-002    1.276104254942549E-002
 -1.350000000000000E-002    1.284730549097271E-002
 -1.340000000000000E-002    1.292246729445093E-002
 -1.330000000000000E-002    1.298580635531180E-002
 -1.320000000000000E-002    1.303657824773070E-002
 -1.310000000000000E-002    1.307401388276929E-002
 -1.300000000000000E-002    1.309732203555061E-002
 -1.290000000000000E-002    1.310568686716930E-002
 -1.280000000000000E-002    1.309826740636472E-002
 -1.270000000000000E-002    1.307420013808582E-002
 -1.260000000000000E-002    1.303259657330396E-002
 -1.250000000000000E-002    1.297254441648863E-002
 -1.240000000000000E-002    1.289310696220528E-002
 -1.230000000000000E-002    1.279332256139150E-002
 -1.220000000000000E-002    1.267220684704581E-002
 -1.210000000000000E-002    1.252875052213293E-002
 -1.200000000000000E-002    1.236192087027127E-002
 -1.190000000000000E-002    1.217066138592439E-002
 -1.180000000000000E-002    1.195389177034287E-002
 -1.170000000000000E-002    1.171050882291147E-002
 -1.160000000000000E-002    1.143938447918104E-002
 -1.150000000000000E-002    1.113936900328075E-002
 -1.140000000000000E-002    1.080928806140734E-002
 -1.130000000000000E-002    1.044794579120635E-002
 -1.120000000000000E-002    1.005412356656889E-002
 -1.110000000000000E-002    9.626581419215897E-003
 -1.100000000000000E-002    9.164057593159226E-003
 -1.090000000000000E-002    8.665270259015893E-003
 -1.080000000000000E-002    8.128918081612315E-003
 -1.070000000000000E-002    7.553680059007227E-003
 -1.060000000000000E-002    6.938215992623705E-003
 -1.050000000000000E-002    6.281169876961572E-003
 -1.040000000000000E-002    5.581167247640984E-003
 -1.030000000000000E-002    4.836817563604484E-003
 -1.020000000000000E-002    4.046714374159700E-003
 -1.010000000000000E-002    3.209439325853753E-003
 -1.000000000000000E-002    2.323558591155765E-003
 -9.899999999999999E-003    1.387626317577877E-003
 -9.800000000000000E-003    4.001844669683002E-004
 -9.699999999999999E-003   -6.402315759276283E-004
 -9.599999999999999E-003   -1.735098257557265E-003
 -9.500000000000000E-003   -2.885897983577702E-003
 -9.399999999999999E-003   -4.094118030396713E-003
 -9.299999999999999E-003   -5.361251098063698E-003
 -9.200000000000000E-003   -6.688794042810428E-003
 -9.099999999999999E-003   -8.078244727794417E-003
 -8.999999999999999E-003   -9.531098315124185E-003
 -8.900000000000000E-003   -1.104885096986849E-002
 -8.799999999999999E-003   -1.263299428954167E-002
 -8.699999999999999E-003   -1.428501470622753E-002
 -8.600000000000000E-003   -1.600639501619457E-002
 -8.499999999999999E-003   -1.779860717995746E-002
 -8.399999999999999E-003   -1.966311571234894E-002
 -8.300000000000000E-003   -2.160136670812712E-002
 -8.199999999999999E-003   -2.361479895071288E-002
 -8.100000000000000E-003   -2.570482940741920E-002
 -8.000000000000000E-003   -2.787286004282592E-002
 -7.899999999999999E-003   -3.012026909656786E-002
 -7.800000000000000E-003   -3.244841516805639E-002
 -7.699999999999999E-003   -3.485862724932507E-002
 -7.599999999999999E-003   -3.735221039479429E-002
 -7.499999999999999E-003   -3.993043925205317E-002
 -7.399999999999999E-003   -4.259455891363729E-002
 -7.299999999999999E-003   -4.534577585111631E-002
 -7.199999999999999E-003   -4.818526917304356E-002
 -7.100000000000000E-003   -5.111416652462171E-002
 -6.999999999999999E-003   -5.413356131619347E-002
 -6.899999999999999E-003   -5.724450501807844E-002
 -6.800000000000000E-003   -6.044799582548615E-002
 -6.699999999999999E-003   -6.374499102168706E-002
 -6.599999999999999E-003   -6.713639295452890E-002
 -6.499999999999999E-003   -7.062304493428415E-002
 -6.399999999999999E-003   -7.420573943252007E-002
 -6.299999999999999E-003   -7.788520115359777E-002
 -6.199999999999999E-003   -8.166210295936116E-002
 -6.100000000000000E-003   -8.553704707140494E-002
 -5.999999999999999E-003   -8.951056859313250E-002
 -5.899999999999999E-003   -9.358313449135608E-002
 -5.800000000000000E-003   -9.775513422069787E-002
 -5.699999999999999E-003   -0.102026885269764     
 -5.599999999999999E-003   -0.106398613188239     
 -5.499999999999999E-003   -0.110870501491585     
 -5.399999999999999E-003   -0.115442610107184     
 -5.299999999999999E-003   -0.120114940362675     
 -5.199999999999999E-003   -0.124887389873591     
 -5.099999999999999E-003   -0.129759774669099     
 -4.999999999999999E-003   -0.134731812400463     
 -4.899999999999999E-003   -0.139803135992605     
 -4.799999999999999E-003   -0.144973264027039     
 -4.699999999999999E-003   -0.150241645305212     
 -4.599999999999999E-003   -0.155607601208412     
 -4.499999999999999E-003   -0.161070360847922     
 -4.399999999999999E-003   -0.166629044016043     
 -4.299999999999999E-003   -0.172282661565324     
 -4.199999999999999E-003   -0.178030122252671     
 -4.099999999999999E-003   -0.183870225718611     
 -3.999999999999999E-003   -0.189801645432188     
 -3.899999999999999E-003   -0.195822961954081     
 -3.799999999999999E-003   -0.201932608305775     
 -3.699999999999999E-003   -0.208128935619642     
 -3.599999999999999E-003   -0.214410159917022     
 -3.499999999999999E-003   -0.220774357584343     
 -3.399999999999999E-003   -0.227219527397980     
 -3.299999999999999E-003   -0.233743516219818     
 -3.199999999999999E-003   -0.240344045599847     
 -3.099999999999999E-003   -0.247018736909108     
 -2.999999999999999E-003   -0.253765069208599     
 -2.899999999999999E-003   -0.260580407121319     
 -2.799999999999999E-003   -0.267461964958994     
 -2.699999999999999E-003   -0.274406870227734     
 -2.599999999999999E-003   -0.281412108193292     
 -2.499999999999999E-003   -0.288474534362382     
 -2.399999999999999E-003   -0.295590897565139     
 -2.299999999999999E-003   -0.302757794906852     
 -2.199999999999999E-003   -0.309971726506503     
 -2.099999999999999E-003   -0.317229060733256     
 -1.999999999999999E-003   -0.324526028280454     
 -1.899999999999999E-003   -0.331858781331471     
 -1.799999999999999E-003   -0.339223287219274     
 -1.699999999999999E-003   -0.346615459596767     
 -1.599999999999999E-003   -0.354031057345794     
 -1.499999999999999E-003   -0.361465741620225     
 -1.399999999999999E-003   -0.368915062228297     
 -1.299999999999999E-003   -0.376374433460497     
 -1.199999999999999E-003   -0.383839201096737     
 -1.099999999999999E-003   -0.391304584276144     
 -9.999999999999989E-004   -0.398765710371216     
 -8.999999999999990E-004   -0.406217573431951     
 -7.999999999999990E-004   -0.413655071251302     
 -6.999999999999989E-004   -0.421073065337463     
 -5.999999999999990E-004   -0.428466279743395     
 -4.999999999999989E-004   -0.435829375410032     
 -3.999999999999989E-004   -0.443156861469833     
 -2.999999999999989E-004   -0.450443280262749     
 -1.999999999999989E-004   -0.457683036267820     
 -9.999999999999892E-005   -0.464870426359550     
  1.084202172485504E-018   -0.471999728917839     
  1.000000000000011E-004   -0.479065112048811     
  2.000000000000011E-004   -0.486060735950918     
  3.000000000000011E-004   -0.492980701952452     
  4.000000000000011E-004   -0.499819062038391     
  5.000000000000011E-004   -0.506569823251717     
  6.000000000000011E-004   -0.513226907511857     
  7.000000000000011E-004   -0.519784241300538     
  8.000000000000011E-004   -0.526235694578250     
  9.000000000000012E-004   -0.532575196841482     
  1.000000000000001E-003   -0.538796570125761     
  1.100000000000001E-003   -0.544893674417788     
  1.200000000000001E-003   -0.550860322262437     
  1.300000000000001E-003   -0.556690357645740     
  1.400000000000001E-003   -0.562377673516883     
  1.500000000000001E-003   -0.567916087614330     
  1.600000000000001E-003   -0.573299484835622     
  1.700000000000001E-003   -0.578521768188091     
  1.800000000000001E-003   -0.583576844223406     
  1.900000000000001E-003   -0.588458715151304     
  2.000000000000001E-003   -0.593161413230389     
  2.100000000000001E-003   -0.597679005722899     
  2.200000000000001E-003   -0.602005621309937     
  2.300000000000001E-003   -0.606135451501805     
  2.400000000000001E-003   -0.610062735919186     
  2.500000000000001E-003   -0.613781868518147     
  2.600000000000001E-003   -0.617287224972929     
  2.700000000000001E-003   -0.620573315078822     
  2.800000000000001E-003   -0.623634817195749     
  2.900000000000001E-003   -0.626466397353289     
  3.000000000000001E-003   -0.629062898223161     
  3.100000000000001E-003   -0.631419278309941     
  3.200000000000001E-003   -0.633530564900782     
  3.300000000000001E-003   -0.635392004524690     
  3.400000000000001E-003   -0.636998907572165     
  3.500000000000001E-003   -0.638346783013734     
  3.600000000000001E-003   -0.639431212235712     
  3.700000000000001E-003   -0.640248027140994     
  3.800000000000001E-003   -0.640793148417076     
  3.900000000000001E-003   -0.641062678099719     
  4.000000000000001E-003   -0.641052868838671     
  4.100000000000001E-003   -0.640760211652334     
  4.200000000000001E-003   -0.640181310402756     
  4.300000000000001E-003   -0.639313008730646     
  4.400000000000001E-003   -0.638152357133966     
  4.500000000000001E-003   -0.636696531343628     
  4.600000000000002E-003   -0.634942938311522     
  4.700000000000001E-003   -0.632889240015376     
  4.800000000000001E-003   -0.630533238729858     
  4.900000000000002E-003   -0.627873052041185     
  5.000000000000001E-003   -0.624906880577619     
  5.100000000000001E-003   -0.621633217056703     
  5.200000000000001E-003   -0.618050813459147     
  5.300000000000002E-003   -0.614158650721880     
  5.400000000000001E-003   -0.609955858239682     
  5.500000000000001E-003   -0.605441842643217     
  5.600000000000002E-003   -0.600616317997028     
  5.700000000000001E-003   -0.595479158586576     
  5.800000000000001E-003   -0.590030479770114     
  5.900000000000002E-003   -0.584270679996624     
  6.000000000000001E-003   -0.578200411410136     
  6.100000000000001E-003   -0.571820489696725     
  6.200000000000002E-003   -0.565132122531275     
  6.300000000000002E-003   -0.558136595704908     
  6.400000000000001E-003   -0.550835620825718     
  6.500000000000001E-003   -0.543231004812484     
  6.600000000000002E-003   -0.535324862676991     
  6.700000000000001E-003   -0.527119612241140     
  6.800000000000001E-003   -0.518617845672136     
  6.900000000000002E-003   -0.509822414347634     
  7.000000000000001E-003   -0.500736426187609     
  7.100000000000001E-003   -0.491363241168848     
  7.200000000000002E-003   -0.481706449283480     
  7.300000000000002E-003   -0.471769886498809     
  7.400000000000001E-003   -0.461557614711003     
  7.500000000000001E-003   -0.451073936204087     
  7.600000000000002E-003   -0.440323416431677     
  7.700000000000001E-003   -0.429310800235556     
  7.800000000000001E-003   -0.418041071927914     
  7.900000000000001E-003   -0.406519484874569     
  8.000000000000002E-003   -0.394751427708200     
  8.100000000000001E-003   -0.382742555086076     
  8.200000000000001E-003   -0.370498741832524     
  8.300000000000002E-003   -0.358026021978112     
  8.400000000000001E-003   -0.345330669566491     
  8.500000000000002E-003   -0.332419146435673     
  8.600000000000002E-003   -0.319298070738708     
  8.700000000000001E-003   -0.305974276565419     
  8.800000000000002E-003   -0.292454755269391     
  8.900000000000002E-003   -0.278746690467851     
  9.000000000000001E-003   -0.264857412886701     
  9.100000000000002E-003   -0.250794411679960     
  9.200000000000002E-003   -0.236565344678535     
  9.300000000000001E-003   -0.222177993046297     
  9.400000000000002E-003   -0.207640291784224     
  9.500000000000001E-003   -0.192960291528024     
  9.600000000000001E-003   -0.178146166549277     
  9.700000000000002E-003   -0.163206223950992     
  9.800000000000001E-003   -0.148148861768871     
  9.900000000000001E-003   -0.132982580554900     
  1.000000000000000E-002   -0.117715971725162     
  1.010000000000000E-002   -0.102357714530393     
  1.020000000000000E-002   -8.691656561529995E-002
  1.030000000000000E-002   -7.140134352183992E-002
  1.040000000000000E-002   -5.582092939493372E-002
  1.050000000000000E-002   -4.018426673718018E-002
  1.060000000000000E-002   -2.450032185286145E-002
  1.070000000000000E-002   -8.778119014333424E-003
  1.080000000000000E-002    6.973320445474378E-003
  1.090000000000000E-002    2.274492805914333E-002
  1.100000000000000E-002    3.852763498098569E-002
  1.110000000000000E-002    5.431237229595732E-002
  1.120000000000000E-002    7.009007682258629E-002
  1.130000000000000E-002    8.585170511356784E-002
  1.140000000000000E-002    0.101588235468694     
  1.150000000000000E-002    0.117290663332186     
  1.160000000000000E-002    0.132950047082250     
  1.170000000000000E-002    0.148557479137364     
  1.180000000000000E-002    0.164104119306966     
  1.190000000000000E-002    0.179581169088020     
  1.200000000000000E-002    0.194979929318955     
  1.210000000000000E-002    0.210291780512959     
  1.220000000000000E-002    0.225508176492557     
  1.230000000000000E-002    0.240620665305778     
  1.240000000000000E-002    0.255620897976412     
  1.250000000000000E-002    0.270500654764153     
  1.260000000000000E-002    0.285251801316099     
  1.270000000000000E-002    0.299866315272509     
  1.280000000000000E-002    0.314336366698841     
  1.290000000000000E-002    0.328654210416312     
  1.300000000000000E-002    0.342812281335451     
  1.310000000000000E-002    0.356803104580729     
  1.320000000000000E-002    0.370619415350534     
  1.330000000000000E-002    0.384254096089467     
  1.340000000000000E-002    0.397700195670577     
  1.350000000000000E-002    0.410950929585036     
  1.360000000000000E-002    0.423999708716755     
  1.370000000000000E-002    0.436840085746654     
  1.380000000000000E-002    0.449465854788330     
  1.390000000000000E-002    0.461870970325876     
  1.400000000000000E-002    0.474049569484429     
  1.410000000000000E-002    0.485996005754951     
  1.420000000000000E-002    0.497704847436727     
  1.430000000000000E-002    0.509170850344048     
  1.440000000000000E-002    0.520388988018980     
  1.450000000000000E-002    0.531354465884166     
  1.460000000000000E-002    0.542062695987064     
  1.470000000000000E-002    0.552509299722042     
  1.480000000000000E-002    0.562690118336637     
  1.490000000000000E-002    0.572601188513937     
  1.500000000000000E-002    0.582238844524056     
  1.510000000000000E-002    0.591599596591276     
  1.520000000000000E-002    0.600680151582316     
  1.530000000000000E-002    0.609477528915007     
  1.540000000000000E-002    0.617988955801575     
  1.550000000000000E-002    0.626211780375216     
  1.560000000000000E-002    0.634143769742334     
  1.570000000000000E-002    0.641782727674787     
  1.580000000000000E-002    0.649126826228608     
  1.590000000000000E-002    0.656174432045236     
  1.600000000000000E-002    0.662924065501521     
  1.610000000000000E-002    0.669374595206856     
  1.620000000000000E-002    0.675525022900253     
  1.630000000000000E-002    0.681374600038168     
  1.640000000000000E-002    0.686922813984946     
  1.650000000000000E-002    0.692169364766945     
  1.660000000000000E-002    0.697114171071172     
  1.670000000000000E-002    0.701757408466700     
  1.680000000000000E-002    0.706099384445164     
  1.690000000000000E-002    0.710140685493455     
  1.700000000000000E-002    0.713882056639968     
  1.710000000000000E-002    0.717324526749117     
  1.720000000000000E-002    0.720469225744064     
  1.730000000000000E-002    0.723317544849500     
  1.740000000000000E-002    0.725871070630207     
  1.750000000000000E-002    0.728131576664315     
  1.760000000000000E-002    0.730101017194768     
  1.770000000000000E-002    0.731781549287420     
  1.780000000000000E-002    0.733175450366753     
  1.790000000000000E-002    0.734285226845177     
  1.800000000000000E-002    0.735113511891069     
  1.810000000000000E-002    0.735663160557126     
  1.820000000000000E-002    0.735937153612148     
  1.830000000000000E-002    0.735938682494820     
  1.840000000000000E-002    0.735670958008207     
  1.850000000000000E-002    0.735137481531893     
  1.860000000000000E-002    0.734341862356181     
  1.870000000000000E-002    0.733287778891722     