 -4.000000000000000E-002    0.000000000000000E+000
 -3.990000000000000E-002    0.000000000000000E+000
 -3.980000000000000E-002    0.000000000000000E+000
 -3.970000000000000E-002    0.000000000000000E+000
 -3.960000000000000E-002    0.000000000000000E+000
 -3.950000000000000E-002    0.000000000000000E+000
 -3.940000000000000E-002    0.000000000000000E+000
 -3.930000000000000E-002    0.000000000000000E+000
 -3.920000000000000E-002    0.000000000000000E+000
 -3.910000000000000E-002    0.000000000000000E+000
 -3.900000000000000E-002    0.000000000000000E+000
 -3.890000000000000E-002    0.000000000000000E+000
 -3.880000000000000E-002    0.000000000000000E+000
 -3.870000000000000E-002    0.000000000000000E+000
 -3.860000000000000E-002    2.718025409781285E-043
 -3.850000000000000E-002    7.745318891344824E-042
 -3.840000000000000E-002    1.119249841257574E-040
 -3.830000000000000E-002    1.093613639709436E-039
 -3.820000000000000E-002    8.124243622848364E-039
 -3.810000000000000E-002    4.890646540185106E-038
 -3.800000000000000E-002    2.482356978361206E-037
 -3.790000000000000E-002    1.091200578259027E-036
 -3.780000000000000E-002    4.233383785610871E-036
 -3.770000000000000E-002    1.469317487839020E-035
 -3.760000000000000E-002    4.606803937031195E-035
 -3.750000000000000E-002    1.313306773404521E-034
 -3.740000000000000E-002    3.416150961284117E-034
 -3.730000000000000E-002    8.108960912413991E-034
 -3.720000000000000E-002    1.748497177964925E-033
 -3.710000000000000E-002    3.381645374982592E-033
 -3.700000000000000E-002    5.690283553157446E-033
 -3.690000000000000E-002    7.662543018210498E-033
 -3.680000000000000E-002    5.620252862766301E-033
 -3.670000000000000E-002   -9.992769288133998E-033
 -3.660000000000000E-002   -5.991939497559262E-032
 -3.650000000000000E-002   -1.834449787012924E-031
 -3.640000000000000E-002   -4.460101409036217E-031
 -3.630000000000000E-002   -9.417035168514214E-031
 -3.620000000000000E-002   -1.779215856964142E-030
 -3.610000000000000E-002   -3.031404399823110E-030
 -3.600000000000000E-002   -4.619467056298888E-030
 -3.590000000000000E-002   -6.097387985912285E-030
 -3.580000000000000E-002   -6.309365108940448E-030
 -3.570000000000000E-002   -2.925523248886075E-030
 -3.560000000000000E-002    8.064460798825205E-030
 -3.550000000000000E-002    3.268936658256991E-029
 -3.540000000000000E-002    7.876478428124515E-029
 -3.530000000000000E-002    1.544610037434454E-028
 -3.520000000000000E-002    2.648362407479559E-028
 -3.510000000000000E-002    4.054474749938022E-028
 -3.500000000000000E-002    5.524355887402042E-028
 -3.490000000000000E-002    6.493404989302742E-028
 -3.480000000000000E-002    5.925604426437881E-028
 -3.470000000000000E-002    2.199458539297140E-028
 -3.460000000000000E-002   -6.896464794788211E-028
 -3.450000000000000E-002   -2.394519287856801E-027
 -3.440000000000000E-002   -5.132261573542012E-027
 -3.430000000000000E-002   -9.012609910633767E-027
 -3.420000000000000E-002   -1.385371185425569E-026
 -3.410000000000000E-002   -1.896825023641455E-026
 -3.400000000000000E-002   -2.292917635725387E-026
 -3.390000000000000E-002   -2.337720290874535E-026
 -3.380000000000000E-002   -1.696964525208571E-026
 -3.370000000000000E-002    3.963353580528277E-028
 -3.360000000000000E-002    3.293810151187200E-026
 -3.350000000000000E-002    8.379446603019512E-026
 -3.340000000000000E-002    1.532415924355107E-025
 -3.330000000000000E-002    2.364309317598357E-025
 -3.320000000000000E-002    3.209965052433498E-025
 -3.310000000000000E-002    3.851711675068911E-025
 -3.300000000000000E-002    3.973472800102910E-025
 -3.290000000000000E-002    3.182251151600253E-025
 -3.280000000000000E-002    1.066844601308364E-025
 -3.270000000000000E-002   -2.698528352421005E-025
 -3.260000000000000E-002   -8.206543771377324E-025
 -3.250000000000000E-002   -1.513989991296332E-024
 -3.240000000000000E-002   -2.259884789118784E-024
 -3.230000000000000E-002   -2.898755713749877E-024
 -3.220000000000000E-002   -3.203166500875184E-024
 -3.210000000000000E-002   -2.900715006836699E-024
 -3.200000000000000E-002   -1.724951266075492E-024
 -3.190000000000000E-002    5.026544542160197E-025
 -3.180000000000000E-002    3.763884613035734E-024
 -3.170000000000000E-002    7.722820068869518E-024
 -3.160000000000000E-002    1.162033039505080E-023
 -3.150000000000000E-002    1.422449632809192E-023
 -3.140000000000000E-002    1.388684534944383E-023
 -3.130000000000000E-002    8.755461553976222E-024
 -3.120000000000000E-002   -2.816162329145837E-024
 -3.110000000000000E-002   -2.165564834941986E-023
 -3.100000000000000E-002   -4.699468328752164E-023
 -3.090000000000000E-002   -7.563745653034651E-023
 -3.080000000000000E-002   -1.012621157508182E-022
 -3.070000000000000E-002   -1.141171399112760E-022
 -3.060000000000000E-002   -1.014240547377176E-022
 -3.050000000000000E-002   -4.879664352690353E-023
 -3.040000000000000E-002    5.709137869979131E-023
 -3.030000000000000E-002    2.245342105343882E-022
 -3.020000000000000E-002    4.517426914852607E-022
 -3.010000000000000E-002    7.213117808427727E-022
 -3.000000000000000E-002    9.952276298061760E-022
 -2.990000000000000E-002    1.211833714869658E-021
 -2.980000000000000E-002    1.286449452795864E-021
 -2.970000000000000E-002    1.117364302191538E-021
 -2.960000000000000E-002    5.985970960886863E-022
 -2.950000000000000E-002   -3.599772967752863E-022
 -2.940000000000000E-002   -1.805800779273893E-021
 -2.930000000000000E-002   -3.712464189143913E-021
 -2.920000000000000E-002   -5.948499466618450E-021
 -2.910000000000000E-002   -8.252316550042475E-021
 -2.900000000000000E-002   -1.022090213910069E-020
 -2.890000000000000E-002   -1.132040085517246E-020
 -2.880000000000000E-002   -1.092580572681476E-020
 -2.870000000000000E-002   -8.394369583567024E-021
 -2.860000000000000E-002   -3.172858083905501E-021
 -2.850000000000000E-002    5.067426442716081E-021
 -2.840000000000000E-002    1.628119134590181E-020
 -2.830000000000000E-002    2.990601711438129E-020
 -2.820000000000000E-002    4.475248649283906E-020
 -2.810000000000000E-002    5.895798660682294E-020
 -2.800000000000000E-002    7.003388306263288E-020
 -2.790000000000000E-002    7.502959975846366E-020
 -2.780000000000000E-002    7.082534521379386E-020
 -2.770000000000000E-002    5.454770752489772E-020
 -2.760000000000000E-002    2.408117478665221E-020
 -2.750000000000000E-002   -2.137389782573161E-020
 -2.740000000000000E-002   -8.076688373593200E-020
 -2.730000000000000E-002   -1.507703678163116E-019
 -2.720000000000000E-002   -2.255505732656520E-019
 -2.710000000000000E-002   -2.968159306316119E-019
 -2.700000000000000E-002   -3.542035317437819E-019
 -2.690000000000000E-002   -3.860290553225621E-019
 -2.680000000000000E-002   -3.803822596506012E-019
 -2.670000000000000E-002   -3.265029154258630E-019
 -2.660000000000000E-002   -2.163267052746511E-019
 -2.650000000000000E-002   -4.605694014212113E-020
 -2.640000000000000E-002    1.824020564370634E-019
 -2.630000000000000E-002    4.603137858904432E-019
 -2.620000000000000E-002    7.714260411429972E-019
 -2.610000000000000E-002    1.091847737897405E-018
 -2.600000000000000E-002    1.390558848791235E-018
 -2.590000000000000E-002    1.630589357654471E-018
 -2.580000000000000E-002    1.770877643245692E-018
 -2.570000000000000E-002    1.768808019431101E-018
 -2.560000000000000E-002    1.583434042287995E-018
 -2.550000000000000E-002    1.179403111929764E-018
 -2.540000000000000E-002    5.315956142351928E-019
 -2.530000000000000E-002   -3.695479802979251E-019
 -2.520000000000000E-002   -1.512139809456000E-018
 -2.510000000000000E-002   -2.856706847737161E-018
 -2.500000000000000E-002   -4.330377484730370E-018
 -2.490000000000000E-002   -5.822297724827443E-018
 -2.480000000000000E-002   -7.181528111675254E-018
 -2.470000000000000E-002   -8.218956697612695E-018
 -2.460000000000000E-002   -8.714892927977958E-018
 -2.450000000000000E-002   -8.433854996598481E-018
 -2.440000000000000E-002   -7.147563142398870E-018
 -2.430000000000000E-002   -4.666192172530273E-018
 -2.420000000000000E-002   -8.765873177200326E-019
 -2.410000000000000E-002    4.215559978811778E-018
 -2.400000000000000E-002    1.044441961321095E-017
 -2.390000000000000E-002    1.745015055233002E-017
 -2.380000000000000E-002    2.466017842057435E-017
 -2.370000000000000E-002    3.129365088687560E-017
 -2.360000000000000E-002    3.639615733511269E-017
 -2.350000000000000E-002    3.890940886999768E-017
 -2.340000000000000E-002    3.777665781002367E-017
 -2.330000000000000E-002    3.207943191527874E-017
 -2.320000000000000E-002    2.119513527152516E-017
 -2.310000000000000E-002    4.959061497489544E-018
 -2.300000000000000E-002   -1.619074382567193E-017
 -2.290000000000000E-002   -4.111044541221510E-017
 -2.280000000000000E-002   -6.791394284119909E-017
 -2.270000000000000E-002   -9.402412098476318E-017
 -2.260000000000000E-002   -1.163253342214351E-016
 -2.250000000000000E-002   -1.314193741194035E-016
 -2.240000000000000E-002   -1.359731043711155E-016
 -2.230000000000000E-002   -1.271308132540664E-016
 -2.220000000000000E-002   -1.029502535658352E-016
 -2.210000000000000E-002   -6.281042228318969E-017
 -2.200000000000000E-002   -7.733829685129903E-018
 -2.190000000000000E-002    5.943188612646437E-017
 -2.180000000000000E-002    1.340181443123467E-016
 -2.170000000000000E-002    2.097526264282733E-016
 -2.160000000000000E-002    2.791924528113861E-016
 -2.150000000000000E-002    3.343487175337379E-016
 -2.140000000000000E-002    3.674505670630107E-016
 -2.130000000000000E-002    3.717735894586394E-016
 -2.120000000000000E-002    3.424434800976255E-016
 -2.110000000000000E-002    2.771217101617607E-016
 -2.100000000000000E-002    1.764898739499116E-016
 -2.090000000000000E-002    4.447088232406034E-017
 -2.080000000000000E-002   -1.118443306608151E-016
 -2.070000000000000E-002   -2.825596051064725E-016
 -2.060000000000000E-002   -4.555862901162603E-016
 -2.050000000000000E-002   -6.174384533583125E-016
 -2.040000000000000E-002   -7.541269865386829E-016
 -2.030000000000000E-002   -8.520689183614076E-016
 -2.020000000000000E-002   -8.989433993910776E-016
 -2.010000000000000E-002   -8.844530606095078E-016
 -2.000000000000000E-002   -8.009841581639449E-016
 -1.990000000000000E-002   -6.441908443324088E-016
 -1.980000000000000E-002   -4.135493889000056E-016
 -1.970000000000000E-002   -1.129296590405869E-016
 -1.960000000000000E-002    2.487916106786671E-016
 -1.950000000000000E-002    6.570996418587273E-016
 -1.940000000000000E-002    1.091282186044131E-015
 -1.930000000000000E-002    1.524104448341735E-015
 -1.920000000000000E-002    1.921945918714081E-015
 -1.910000000000000E-002    2.245657733611551E-015
 -1.900000000000000E-002    2.452391574174338E-015
 -1.890000000000000E-002    2.498572988268794E-015
 -1.880000000000000E-002    2.344060407487619E-015
 -1.870000000000000E-002    1.957334445203991E-015
 -1.860000000000000E-002    1.321332405325241E-015
 -1.850000000000000E-002    4.393096171295390E-016
 -1.840000000000000E-002   -6.600900702953761E-016
 -1.830000000000000E-002   -1.919489055436989E-015
 -1.820000000000000E-002   -3.252089259705344E-015
 -1.810000000000000E-002   -4.544424043334286E-015
 -1.800000000000000E-002   -5.663025135880261E-015
 -1.790000000000000E-002   -6.465032994491826E-015
 -1.780000000000000E-002   -6.812224980538383E-015
 -1.770000000000000E-002   -6.587368877812178E-015
 -1.760000000000000E-002   -5.711258549553847E-015
 -1.750000000000000E-002   -4.158408100727931E-015
 -1.740000000000000E-002   -1.969191651278880E-015
 -1.730000000000000E-002    7.436761948836517E-016
 -1.720000000000000E-002    3.796015635292132E-015
 -1.710000000000000E-002    6.941413690860707E-015
 -1.700000000000000E-002    9.888878371886077E-015
 -1.690000000000000E-002    1.232791854021208E-014
 -1.680000000000000E-002    1.395900680130634E-014
 -1.670000000000000E-002    1.452645650968777E-014
 -1.660000000000000E-002    1.385015958013004E-014
 -1.650000000000000E-002    1.185240309736776E-014
 -1.640000000000000E-002    8.576226261150812E-015
 -1.630000000000000E-002    4.192551866713607E-015
 -1.620000000000000E-002   -1.005605806721971E-015
 -1.610000000000000E-002   -6.622095712080588E-015
 -1.600000000000000E-002   -1.218851134727454E-014
 -1.590000000000000E-002   -1.720431289148152E-014
 -1.580000000000000E-002   -2.118238372067577E-014
 -1.570000000000000E-002   -2.369548421967029E-014
 -1.560000000000000E-002   -2.441891637205306E-014
 -1.550000000000000E-002   -2.316506057324834E-014
 -1.540000000000000E-002   -1.990635583192287E-014
 -1.530000000000000E-002   -1.478450875802324E-014
 -1.520000000000000E-002   -8.105178678371767E-015
 -1.510000000000000E-002   -3.188113578619819E-016
 -1.500000000000000E-002    8.010469549307234E-015
 -1.490000000000000E-002    1.624509412639228E-014
 -1.480000000000000E-002    2.372010045179627E-014
 -1.470000000000000E-002    2.979163907529034E-014
 -1.460000000000000E-002    3.388480949596045E-014
 -1.450000000000000E-002    3.553820338962789E-014
 -1.440000000000000E-002    3.444301841943251E-014
 -1.430000000000000E-002    3.047507826713076E-014
 -1.420000000000000E-002    2.371825973298184E-014
 -1.410000000000000E-002    1.447785056231008E-014
 -1.400000000000000E-002    3.282151823928086E-015
 -1.390000000000000E-002   -9.129603268050679E-015
 -1.380000000000000E-002   -2.183503183688650E-014
 -1.370000000000000E-002   -3.377384485046047E-014
 -1.360000000000000E-002   -4.381151476524615E-014
 -1.350000000000000E-002   -5.082086897500200E-014
 -1.340000000000000E-002   -5.377907720917501E-014
 -1.330000000000000E-002   -5.187490316236838E-014
 -1.320000000000000E-002   -4.461847584053044E-014
 -1.310000000000000E-002   -3.194315672448937E-014
 -1.300000000000000E-002   -1.428745045308301E-014
 -1.290000000000000E-002    7.356007579945214E-015
 -1.280000000000000E-002    3.143649021163498E-014
 -1.270000000000000E-002    5.589600810576899E-014
 -1.260000000000000E-002    7.828058515696127E-014
 -1.250000000000000E-002    9.591215184437022E-014
 -1.240000000000000E-002    1.061146878909505E-013
 -1.230000000000000E-002    1.064814186084388E-013
 -1.220000000000000E-002    9.516315849731980E-014
 -1.210000000000000E-002    7.115276373750658E-014
 -1.200000000000000E-002    3.453650232435048E-014
 -1.190000000000000E-002   -1.331760326170254E-014
 -1.180000000000000E-002   -6.966348447095133E-014
 -1.170000000000000E-002   -1.303972185574002E-013
 -1.160000000000000E-002   -1.902111085693713E-013
 -1.150000000000000E-002   -2.428894432110888E-013
 -1.140000000000000E-002   -2.817420349224279E-013
 -1.130000000000000E-002   -3.001584962857237E-013
 -1.120000000000000E-002   -2.922527575069319E-013
 -1.110000000000000E-002   -2.535539770790164E-013
 -1.100000000000000E-002   -1.816883318619175E-013
 -1.090000000000000E-002   -7.698727444308024E-014
 -1.080000000000000E-002    5.704737109768224E-014
 -1.070000000000000E-002    2.134904736192176E-013
 -1.060000000000000E-002    3.820151531446877E-013
 -1.050000000000000E-002    5.492372536160038E-013
 -1.040000000000000E-002    6.994094716302364E-013
 -1.030000000000000E-002    8.154632024099814E-013
 -1.020000000000000E-002    8.803612572364415E-013
 -1.010000000000000E-002    8.786883319899561E-013
 -1.000000000000000E-002    7.983661889783801E-013
 -9.899999999999999E-003    6.323494245033135E-013
 -9.800000000000000E-003    3.801328315380747E-013
 -9.699999999999999E-003    4.889021217321994E-014
 -9.599999999999999E-003   -3.459268601824156E-013
 -9.500000000000000E-003   -7.806761977296406E-013
 -9.399999999999999E-003   -1.224394941996212E-012
 -9.299999999999999E-003   -1.640484989231598E-012
 -9.200000000000000E-003   -1.989166488574752E-012
 -9.099999999999999E-003   -2.230567419367680E-012
 -8.999999999999999E-003   -2.328235723282401E-012
 -8.900000000000000E-003   -2.252790379108865E-012
 -8.799999999999999E-003   -1.985382200637618E-012
 -8.699999999999999E-003   -1.520619149029960E-012
 -8.600000000000000E-003   -8.686305640411263E-013
 -8.499999999999999E-003   -5.599749057633695E-014
 -8.399999999999999E-003    8.746322154271880E-013
 -8.300000000000000E-003    1.866316897548853E-012
 -8.199999999999999E-003    2.850927079424122E-012
 -8.100000000000000E-003    3.753406056359393E-012
 -8.000000000000000E-003    4.496896984561221E-012
 -7.899999999999999E-003    5.008363116835097E-012
 -7.800000000000000E-003    5.224283697066583E-012
 -7.699999999999999E-003    5.095998295191038E-012
 -7.599999999999999E-003    4.594304426090027E-012
 -7.499999999999999E-003    3.712980558026950E-012
 -7.399999999999999E-003    2.470989822853494E-012
 -7.299999999999999E-003    9.132142868321395E-013
 -7.199999999999999E-003   -8.903319406479859E-013
 -7.100000000000000E-003   -2.846793096652190E-012
 -6.999999999999999E-003   -4.844183171073743E-012
 -6.899999999999999E-003   -6.756398980300674E-012
 -6.800000000000000E-003   -8.449391678698343E-012
 -6.699999999999999E-003   -9.788334780274953E-012
 -6.599999999999999E-003   -1.064559688364116E-011
 -6.499999999999999E-003   -1.090927892526976E-011
 -6.399999999999999E-003   -1.049200453299325E-011
 -6.299999999999999E-003   -9.339548482284550E-012
 -6.199999999999999E-003   -7.438760927724072E-012
 -6.100000000000000E-003   -4.824137758635808E-012
 -5.999999999999999E-003   -1.582275966240084E-012
 -5.899999999999999E-003    2.146579500669356E-012
 -5.800000000000000E-003    6.170643531538278E-012
 -5.699999999999999E-003    1.025294870390113E-011
 -5.599999999999999E-003    1.412227144770838E-011
 -5.499999999999999E-003    1.748855333831446E-011
 -5.399999999999999E-003    2.006226191233147E-011
 -5.299999999999999E-003    2.157663367509213E-011
 -5.199999999999999E-003    2.181121106245324E-011
 -5.099999999999999E-003    2.061469688323086E-011
 -4.999999999999999E-003    1.792489708677674E-011
 -4.899999999999999E-003    1.378346850604187E-011
 -4.799999999999999E-003    8.343445802636986E-012
 -4.699999999999999E-003    1.867979744119507E-012
 -4.599999999999999E-003   -5.280516455411254E-012
 -4.499999999999999E-003   -1.266075392468602E-011
 -4.399999999999999E-003   -1.978139765519779E-011
 -4.299999999999999E-003   -2.613632357387913E-011
 -4.199999999999999E-003   -3.124345514381508E-011
 -4.099999999999999E-003   -3.468378396282428E-011
 -3.999999999999999E-003   -3.613698560177863E-011
 -3.899999999999999E-003   -3.541019157578111E-011
 -3.799999999999999E-003   -3.245706228161046E-011
 -3.699999999999999E-003   -2.738519333372099E-011
 -3.599999999999999E-003   -2.045102731666215E-011
 -3.499999999999999E-003   -1.204264526663139E-011
 -3.399999999999999E-003   -2.652060186563014E-012
 -3.299999999999999E-003    7.160426672607066E-012
 -3.199999999999999E-003    1.680649168654611E-011
 -3.099999999999999E-003    2.571108276665241E-011
 -2.999999999999999E-003    3.335122226919824E-011
 -2.899999999999999E-003    3.928929139239960E-011
 -2.799999999999999E-003    4.319851347582377E-011
 -2.699999999999999E-003    4.487931783917150E-011
 -2.599999999999999E-003    4.426624362055250E-011
 -2.499999999999999E-003    4.142590078751784E-011
 -2.399999999999999E-003    3.654722595158473E-011
 -2.299999999999999E-003    2.992560122531860E-011
 -2.199999999999999E-003    2.194254361867184E-011
 -2.099999999999999E-003    1.304250823626305E-011
 -1.999999999999999E-003    3.708001793656787E-012
 -1.899999999999999E-003   -5.566145550110279E-012
 -1.799999999999999E-003   -1.429883167762449E-011
 -1.699999999999999E-003   -2.204869016240325E-011
 -1.599999999999999E-003   -2.843958865391595E-011
 -1.499999999999999E-003   -3.318484302575359E-011
 -1.399999999999999E-003   -3.610889732018944E-011
 -1.299999999999999E-003   -3.716464736729584E-011
 -1.199999999999999E-003   -3.644413425290462E-011
 -1.099999999999999E-003   -3.418010600835704E-011
 -9.999999999999989E-004   -3.073619854943666E-011
 -8.999999999999990E-004   -2.658399905550322E-011
 -7.999999999999990E-004   -2.226660475370771E-011
 -6.999999999999989E-004   -1.834964624716508E-011
 -5.999999999999990E-004   -1.536273662976661E-011
 -4.999999999999989E-004   -1.373600392619854E-011
 -3.999999999999989E-004   -1.373793377108490E-011
 -2.999999999999989E-004   -1.542173874475950E-011
 -1.999999999999989E-004   -1.858759268452344E-011
 -9.999999999999892E-005   -2.276735504233608E-011
  1.084202172485504E-018   -2.723658504834528E-011
  1.000000000000011E-004   -3.105613902733930E-011
  2.000000000000011E-004   -3.314233721310915E-011
  3.000000000000011E-004   -3.236138128181132E-011
  4.000000000000011E-004   -2.764034402324386E-011
  5.000000000000011E-004   -1.808463775578606E-011
  6.000000000000011E-004   -3.090140120891137E-012
  7.000000000000011E-004    1.756188408572458E-011
  8.000000000000011E-004    4.363780225098146E-011
  9.000000000000012E-004    7.442076406419826E-011
  1.000000000000001E-003    1.087203382505871E-010
  1.100000000000001E-003    1.449228214874530E-010
  1.200000000000001E-003    1.810776718183144E-010
  1.300000000000001E-003    2.150116414074103E-010
  1.400000000000001E-003    2.444587119950159E-010
  1.500000000000001E-003    2.671928278485866E-010
  1.600000000000001E-003    2.811494383685649E-010
  1.700000000000001E-003    2.845245206944600E-010
  1.800000000000001E-003    2.758422091761876E-010
  1.900000000000001E-003    2.539868153120052E-010
  2.000000000000001E-003    2.182001456755240E-010
  2.100000000000001E-003    1.680497694729716E-010
  2.200000000000001E-003    1.033785041978037E-010
  2.300000000000001E-003    2.424850343635151E-011
  2.400000000000001E-003   -6.910523507644542E-011
  2.500000000000001E-003   -1.762970271664212E-010
  2.600000000000001E-003   -2.967762691922895E-010
  2.700000000000001E-003   -4.297677914607184E-010
  2.800000000000001E-003   -5.741638481566845E-010
  2.900000000000001E-003   -7.283699383952847E-010
  3.000000000000001E-003   -8.901135356848167E-010
  3.100000000000001E-003   -1.056230512312580E-009
  3.200000000000001E-003   -1.222448659784753E-009
  3.300000000000001E-003   -1.383192212677354E-009
  3.400000000000001E-003   -1.531432425984346E-009
  3.500000000000001E-003   -1.658610598400489E-009
  3.600000000000001E-003   -1.754658833149636E-009
  3.700000000000001E-003   -1.808139058760370E-009
  3.800000000000001E-003   -1.806520740021834E-009
  3.900000000000001E-003   -1.736607233517489E-009
  4.000000000000001E-003   -1.585118611195676E-009
  4.100000000000001E-003   -1.339428838819004E-009
  4.200000000000001E-003   -9.884495620379653E-010
  4.300000000000001E-003   -5.236429619938774E-010
  4.400000000000001E-003    5.986015836738484E-011
  4.500000000000001E-003    7.620712697998763E-010
  4.600000000000002E-003    1.576923423190201E-009
  4.700000000000001E-003    2.491065140768307E-009
  4.800000000000001E-003    3.482723322049493E-009
  4.900000000000002E-003    4.520688097038167E-009
  5.000000000000001E-003    5.563479642921705E-009
  5.100000000000001E-003    6.558746597960164E-009
  5.200000000000001E-003    7.442952669571060E-009
  5.300000000000002E-003    8.141385777168560E-009
  5.400000000000001E-003    8.568525713094610E-009
  5.500000000000001E-003    8.628778701217429E-009
  5.600000000000002E-003    8.217581259654736E-009
  5.700000000000001E-003    7.222850355149293E-009
  5.800000000000001E-003    5.526736848791589E-009
  5.900000000000002E-003    3.007622113845915E-009
  6.000000000000001E-003   -4.577174760449495E-010
  6.100000000000001E-003   -4.991872025729742E-009
  6.200000000000002E-003   -1.071458756859007E-008
  6.300000000000002E-003   -1.774069329192620E-008
  6.400000000000001E-003   -2.617825561303689E-008
  6.500000000000001E-003   -3.612708947677106E-008
  6.600000000000002E-003   -4.767767915541953E-008
  6.700000000000001E-003   -6.091059364767009E-008
  6.800000000000001E-003   -7.589643447491562E-008
  6.900000000000002E-003   -9.269634715548092E-008
  7.000000000000001E-003   -1.113630464779969E-007
  7.100000000000001E-003   -1.319424023339275E-007
  7.200000000000002E-003   -1.544753797572395E-007
  7.300000000000002E-003   -1.790004235327076E-007
  7.400000000000001E-003   -2.055560235851651E-007
  7.500000000000001E-003   -2.341835092092468E-007
  7.600000000000002E-003   -2.649297555115513E-007
  7.700000000000001E-003   -2.978498065550070E-007
  7.800000000000001E-003   -3.330093962967898E-007
  7.900000000000001E-003   -3.704870794154942E-007
  8.000000000000002E-003   -4.103759767781901E-007
  8.100000000000001E-003   -4.527852563033128E-007
  8.200000000000001E-003   -4.978409725217941E-007
  8.300000000000002E-003   -5.456866720127928E-007
  8.400000000000001E-003   -5.964834809539103E-007
  8.500000000000002E-003   -6.504099188771759E-007
  8.600000000000002E-003   -7.076614374120175E-007
  8.700000000000001E-003   -7.684497489743425E-007
  8.800000000000002E-003   -8.330021085256130E-007
  8.900000000000002E-003   -9.015604021360725E-007
  9.000000000000001E-003   -9.743806220126648E-007
  9.100000000000002E-003   -1.051732184406705E-006
  9.200000000000002E-003   -1.133897627421740E-006
  9.300000000000001E-003   -1.221172349221901E-006
  9.400000000000002E-003   -1.313865145704607E-006
  9.500000000000001E-003   -1.412298354145686E-006
  9.600000000000001E-003   -1.516808949353641E-006
  9.700000000000002E-003   -1.627749296310775E-006
  9.800000000000001E-003   -1.745488763676437E-006
  9.900000000000001E-003   -1.870415086164919E-006
  1.000000000000000E-002   -2.002936244574975E-006
  1.010000000000000E-002   -2.143482138692944E-006
  1.020000000000000E-002   -2.292506490494832E-006
  1.030000000000000E-002   -2.450488624507332E-006
  1.040000000000000E-002   -2.617935765789369E-006
  1.050000000000000E-002   -2.795384363507976E-006
  1.060000000000000E-002   -2.983401563809026E-006
  1.070000000000000E-002   -3.182587046939339E-006
  1.080000000000000E-002   -3.393574281236970E-006
  1.090000000000000E-002   -3.617031461057394E-006
  1.100000000000000E-002   -3.853662853576187E-006
  1.110000000000000E-002   -4.104209531326986E-006
  1.120000000000000E-002   -4.369450878524378E-006
  1.130000000000000E-002   -4.650204474369283E-006
  1.140000000000000E-002   -4.947329067368378E-006
  1.150000000000000E-002   -5.261723444042635E-006
  1.160000000000000E-002   -5.594329850970361E-006
  1.170000000000000E-002   -5.946134596158670E-006
  1.180000000000000E-002   -6.318168678696568E-006
  1.190000000000000E-002   -6.711511920116462E-006
  1.200000000000000E-002   -7.127292610843806E-006
  1.210000000000000E-002   -7.566691408395286E-006
  1.220000000000000E-002   -8.030942455735875E-006
  1.230000000000000E-002   -8.521335415167724E-006
  1.240000000000000E-002   -9.039219100263868E-006
  1.250000000000000E-002   -9.586001699081115E-006
  1.260000000000000E-002   -1.016315600180513E-005
  1.270000000000000E-002   -1.077222129188081E-005
  1.280000000000000E-002   -1.141480604510062E-005
  1.290000000000000E-002   -1.209259168191626E-005
  1.300000000000000E-002   -1.280733798414184E-005
  1.310000000000000E-002   -1.356088525168776E-005
  1.320000000000000E-002   -1.435516142381638E-005
  1.330000000000000E-002   -1.519218656230122E-005
  1.340000000000000E-002   -1.607408206499394E-005
  1.350000000000000E-002   -1.700306857283171E-005
  1.360000000000000E-002   -1.798148188298424E-005
  1.370000000000000E-002   -1.901177605916088E-005
  1.380000000000000E-002   -2.009652362331898E-005
  1.390000000000000E-002   -2.123842724150600E-005
  1.400000000000000E-002   -2.244032259346996E-005
  1.410000000000000E-002   -2.370518171092296E-005
  1.420000000000000E-002   -2.503611328921917E-005
  1.430000000000000E-002   -2.643637101246962E-005
  1.440000000000000E-002   -2.790935007117281E-005
  1.450000000000000E-002   -2.945858895433803E-005
  1.460000000000000E-002   -3.108776947782720E-005
  1.470000000000000E-002   -3.280072309841577E-005
  1.480000000000000E-002   -3.460142564424303E-005
  1.490000000000000E-002   -3.649400328453452E-005
  1.500000000000000E-002   -3.848273205303541E-005
  1.510000000000000E-002   -4.057205255549023E-005
  1.520000000000000E-002   -4.276656351768248E-005
  1.530000000000000E-002   -4.507103475701121E-005
  1.540000000000000E-002   -4.749041595982580E-005
  1.550000000000000E-002   -5.002984704772779E-005
  1.560000000000000E-002   -5.269466201596513E-005
  1.570000000000000E-002   -5.549039780699884E-005
  1.580000000000000E-002   -5.842281063075811E-005
  1.590000000000000E-002   -6.149788081399207E-005
  1.600000000000000E-002   -6.472182028854338E-005
  1.610000000000000E-002   -6.810107880064471E-005
  1.620000000000000E-002   -7.164234929563903E-005
  1.630000000000000E-002   -7.535258685026724E-005
  1.640000000000000E-002   -7.923900629927212E-005
  1.650000000000000E-002   -8.330908438853744E-005
  1.660000000000000E-002   -8.757057200523554E-005
  1.670000000000000E-002   -9.203149901850542E-005
  1.680000000000000E-002   -9.670020263959599E-005
  1.690000000000000E-002   -1.015853141814694E-004
  1.700000000000000E-002   -1.066957865978982E-004
  1.710000000000000E-002   -1.120409026734752E-004
  1.720000000000000E-002   -1.176302906602489E-004
  1.730000000000000E-002   -1.234739287765286E-004
  1.740000000000000E-002   -1.295821739632189E-004
  1.750000000000000E-002   -1.359657698063355E-004
  1.760000000000000E-002   -1.426358266546700E-004
  1.770000000000000E-002   -1.496038799207587E-004
  1.780000000000000E-002   -1.568818535245834E-004
  1.790000000000000E-002   -1.644820938906457E-004
  1.800000000000000E-002   -1.724173311259733E-004
  1.810000000000000E-002   -1.807007321286108E-004
  1.820000000000000E-002   -1.893458661703148E-004
  1.830000000000000E-002   -1.983667182302874E-004
  1.840000000000000E-002   -2.077776838742601E-004
  1.850000000000000E-002   -2.175935784644321E-004
  1.860000000000000E-002   -2.278296579327826E-004
  1.870000000000000E-002   -2.385016092746663E-004