 -4.000000000000000E-002    0.000000000000000E+000
 -3.990000000000000E-002    0.000000000000000E+000
 -3.980000000000000E-002    0.000000000000000E+000
 -3.970000000000000E-002    0.000000000000000E+000
 -3.960000000000000E-002    0.000000000000000E+000
 -3.950000000000000E-002    0.000000000000000E+000
 -3.940000000000000E-002    0.000000000000000E+000
 -3.930000000000000E-002    0.000000000000000E+000
 -3.920000000000000E-002    0.000000000000000E+000
 -3.910000000000000E-002    0.000000000000000E+000
 -3.900000000000000E-002    0.000000000000000E+000
 -3.890000000000000E-002    0.000000000000000E+000
 -3.880000000000000E-002   -6.897484785215952E-039
 -3.870000000000000E-002   -2.397889762877506E-037
 -3.860000000000000E-002   -3.797625793187736E-036
 -3.850000000000000E-002   -3.849447114836795E-035
 -3.840000000000000E-002   -2.872845270136785E-034
 -3.830000000000000E-002   -1.702429959222221E-033
 -3.820000000000000E-002   -8.392870684723710E-033
 -3.810000000000000E-002   -3.550989659060615E-032
 -3.800000000000000E-002   -1.317829225702350E-031
 -3.790000000000000E-002   -4.357675964457070E-031
 -3.780000000000000E-002   -1.298534159390433E-030
 -3.770000000000000E-002   -3.514640718969246E-030
 -3.760000000000000E-002   -8.682565757561377E-030
 -3.750000000000000E-002   -1.961115448697068E-029
 -3.740000000000000E-002   -4.040920547041381E-029
 -3.730000000000000E-002   -7.532504893629274E-029
 -3.720000000000000E-002   -1.244552467945541E-028
 -3.710000000000000E-002   -1.731853000423344E-028
 -3.700000000000000E-002   -1.710971016605239E-028
 -3.690000000000000E-002    3.843602853283697E-030
 -3.680000000000000E-002    5.967593152905647E-028
 -3.670000000000000E-002    2.034678133425106E-027
 -3.660000000000000E-002    4.965966059457422E-027
 -3.650000000000000E-002    1.022405448136491E-026
 -3.640000000000000E-002    1.862016534039100E-026
 -3.630000000000000E-002    3.043061219743970E-026
 -3.620000000000000E-002    4.442569545184969E-026
 -3.610000000000000E-002    5.632380552598539E-026
 -3.600000000000000E-002    5.669283872601821E-026
 -3.590000000000000E-002    2.861109740237152E-026
 -3.580000000000000E-002   -5.412665230298024E-026
 -3.570000000000000E-002   -2.268316467659406E-025
 -3.560000000000000E-002   -5.296446352923751E-025
 -3.550000000000000E-002   -9.965048127581801E-025
 -3.540000000000000E-002   -1.634734844802606E-024
 -3.530000000000000E-002   -2.393696645558494E-024
 -3.520000000000000E-002   -3.123652608374850E-024
 -3.510000000000000E-002   -3.530623340916442E-024
 -3.500000000000000E-002   -3.139638884161470E-024
 -3.490000000000000E-002   -1.286544170283666E-024
 -3.480000000000000E-002    2.834337259993673E-024
 -3.470000000000000E-002    1.003587416943990E-023
 -3.460000000000000E-002    2.089043356788870E-023
 -3.450000000000000E-002    3.535809553764103E-023
 -3.440000000000000E-002    5.231149438231137E-023
 -3.430000000000000E-002    6.902542755965923E-023
 -3.420000000000000E-002    8.075910092209984E-023
 -3.410000000000000E-002    8.062002486971145E-023
 -3.400000000000000E-002    5.994325256408181E-023
 -3.390000000000000E-002    9.422850437495408E-024
 -3.380000000000000E-002   -7.883379854084508E-023
 -3.370000000000000E-002   -2.083173342484313E-022
 -3.360000000000000E-002   -3.744458256912902E-022
 -3.350000000000000E-002   -5.608173794699882E-022
 -3.340000000000000E-002   -7.363831390213049E-022
 -3.330000000000000E-002   -8.548780195462774E-022
 -3.320000000000000E-002   -8.580016776178825E-022
 -3.310000000000000E-002   -6.836621992813291E-022
 -3.300000000000000E-002   -2.799333564482908E-022
 -3.290000000000000E-002    3.758549594575713E-022
 -3.280000000000000E-002    1.255247403243561E-021
 -3.270000000000000E-002    2.258494514835979E-021
 -3.260000000000000E-002    3.202644049098006E-021
 -3.250000000000000E-002    3.825883621808327E-021
 -3.240000000000000E-002    3.816159874066212E-021
 -3.230000000000000E-002    2.869971113150990E-021
 -3.220000000000000E-002    7.823395801234283E-022
 -3.210000000000000E-002   -2.438844901073353E-021
 -3.200000000000000E-002   -6.451147420694281E-021
 -3.190000000000000E-002   -1.047685718613582E-020
 -3.180000000000000E-002   -1.326138695184056E-020
 -3.170000000000000E-002   -1.313431378735923E-020
 -3.160000000000000E-002   -8.213793199442744E-021
 -3.150000000000000E-002    3.219232966686180E-021
 -3.140000000000000E-002    2.217853597266380E-020
 -3.130000000000000E-002    4.830460781223651E-020
 -3.120000000000000E-002    7.916537018979299E-020
 -3.110000000000000E-002    1.096736339624321E-019
 -3.100000000000000E-002    1.318148018603072E-019
 -3.090000000000000E-002    1.349008330873186E-019
 -3.080000000000000E-002    1.065511290195381E-019
 -3.070000000000000E-002    3.453516322631931E-020
 -3.060000000000000E-002   -9.051297900379381E-020
 -3.050000000000000E-002   -2.716772559635738E-019
 -3.040000000000000E-002   -5.020286184488487E-019
 -3.030000000000000E-002   -7.611988378532984E-019
 -3.020000000000000E-002   -1.013074539498769E-018
 -3.010000000000000E-002   -1.205535466665290E-018
 -3.000000000000000E-002   -1.273132420570704E-018
 -2.990000000000000E-002   -1.143380163506682E-018
 -2.980000000000000E-002   -7.469167203077531E-019
 -2.970000000000000E-002   -3.114992562485756E-020
 -2.960000000000000E-002    1.023761199608434E-018
 -2.950000000000000E-002    2.388571599443090E-018
 -2.940000000000000E-002    3.970982811421604E-018
 -2.930000000000000E-002    5.607248142790509E-018
 -2.920000000000000E-002    7.062633348090741E-018
 -2.910000000000000E-002    8.043531086281972E-018
 -2.900000000000000E-002    8.222911378966084E-018
 -2.890000000000000E-002    7.279106196500694E-018
 -2.880000000000000E-002    4.945721528391827E-018
 -2.870000000000000E-002    1.068124906962485E-018
 -2.860000000000000E-002   -4.340299991217941E-018
 -2.850000000000000E-002   -1.105058376113221E-017
 -2.840000000000000E-002   -1.858844387465480E-017
 -2.830000000000000E-002   -2.623095284944728E-017
 -2.820000000000000E-002   -3.303609705509313E-017
 -2.810000000000000E-002   -3.790826742868268E-017
 -2.800000000000000E-002   -3.969822089928917E-017
 -2.790000000000000E-002   -3.733094261133575E-017
 -2.780000000000000E-002   -2.995009438084663E-017
 -2.770000000000000E-002   -1.706387538807547E-017
 -2.760000000000000E-002    1.324905477584660E-018
 -2.750000000000000E-002    2.462142902449197E-017
 -2.740000000000000E-002    5.158846822361304E-017
 -2.730000000000000E-002    8.035253154096458E-017
 -2.720000000000000E-002    1.084699512729409E-016
 -2.710000000000000E-002    1.330500624637757E-016
 -2.700000000000000E-002    1.509272446307389E-016
 -2.690000000000000E-002    1.588702652346207E-016
 -2.680000000000000E-002    1.538170593362359E-016
 -2.670000000000000E-002    1.331253518862156E-016
 -2.660000000000000E-002    9.483367906638071E-017
 -2.650000000000000E-002    3.793210438150917E-017
 -2.640000000000000E-002   -3.735579401494279E-017
 -2.630000000000000E-002   -1.292796934111352E-016
 -2.620000000000000E-002   -2.342662324502076E-016
 -2.610000000000000E-002   -3.466430090230640E-016
 -2.600000000000000E-002   -4.584270162633206E-016
 -2.590000000000000E-002   -5.592458159394572E-016
 -2.580000000000000E-002   -6.364804821095283E-016
 -2.570000000000000E-002   -6.757318245252903E-016
 -2.560000000000000E-002   -6.617056245486600E-016
 -2.550000000000000E-002   -5.795850668376487E-016
 -2.540000000000000E-002   -4.169021193264131E-016
 -2.530000000000000E-002   -1.658378155969618E-016
 -2.520000000000000E-002    1.742218338642619E-016
 -2.510000000000000E-002    5.941580087413380E-016
 -2.500000000000000E-002    1.073004342149582E-015
 -2.490000000000000E-002    1.576699820622182E-015
 -2.480000000000000E-002    2.058179342342402E-015
 -2.470000000000000E-002    2.459214787534717E-015
 -2.460000000000000E-002    2.714279169613707E-015
 -2.450000000000000E-002    2.756478957385356E-015
 -2.440000000000000E-002    2.525310718311868E-015
 -2.430000000000000E-002    1.975661519720646E-015
 -2.420000000000000E-002    1.087149707092855E-015
 -2.410000000000000E-002   -1.273653436701777E-016
 -2.400000000000000E-002   -1.615431865232549E-015
 -2.390000000000000E-002   -3.282130445062262E-015
 -2.380000000000000E-002   -4.991793411884163E-015
 -2.370000000000000E-002   -6.575035892048936E-015
 -2.360000000000000E-002   -7.841237334437867E-015
 -2.350000000000000E-002   -8.595910306266566E-015
 -2.340000000000000E-002   -8.661655773528303E-015
 -2.330000000000000E-002   -7.900726361745839E-015
 -2.320000000000000E-002   -6.236708027345076E-015
 -2.310000000000000E-002   -3.672603544888446E-015
 -2.300000000000000E-002   -3.026813559328976E-016
 -2.290000000000000E-002    3.684062230840639E-015
 -2.280000000000000E-002    8.010207998887401E-015
 -2.270000000000000E-002    1.232629005102574E-014
 -2.260000000000000E-002    1.623637739373811E-014
 -2.250000000000000E-002    1.933083048953682E-014
 -2.240000000000000E-002    2.122324924866174E-014
 -2.230000000000000E-002    2.158800518745071E-014
 -2.220000000000000E-002    2.019457568944432E-014
 -2.210000000000000E-002    1.693521805115821E-014
 -2.200000000000000E-002    1.184326027102970E-014
 -2.190000000000000E-002    5.100388151178840E-015
 -2.180000000000000E-002   -2.967461057714399E-015
 -2.170000000000000E-002   -1.190478182273220E-014
 -2.160000000000000E-002   -2.115000535903058E-014
 -2.150000000000000E-002   -3.006551795524447E-014
 -2.140000000000000E-002   -3.797181700637473E-014
 -2.130000000000000E-002   -4.418382799926168E-014
 -2.120000000000000E-002   -4.804812429009910E-014
 -2.110000000000000E-002   -4.898066105552532E-014
 -2.100000000000000E-002   -4.650525571899438E-014
 -2.090000000000000E-002   -4.029346228159725E-014
 -2.080000000000000E-002   -3.020599806469930E-014
 -2.070000000000000E-002   -1.633498480821019E-014
 -2.060000000000000E-002    9.554986676433483E-016
 -2.050000000000000E-002    2.099505098908974E-014
 -2.040000000000000E-002    4.278533138045258E-014
 -2.030000000000000E-002    6.499929502886635E-014
 -2.020000000000000E-002    8.600984496171649E-014
 -2.010000000000000E-002    1.039555067593789E-013
 -2.000000000000000E-002    1.168479520834435E-013
 -1.990000000000000E-002    1.227217807337219E-013
 -1.980000000000000E-002    1.198209533525412E-013
 -1.970000000000000E-002    1.068095899993950E-013
 -1.960000000000000E-002    8.298836594510911E-014
 -1.950000000000000E-002    4.849215013182010E-014
 -1.940000000000000E-002    4.441535058440576E-015
 -1.930000000000000E-002   -4.697909066003628E-014
 -1.920000000000000E-002   -1.025405050780618E-013
 -1.910000000000000E-002   -1.581006042601683E-013
 -1.900000000000000E-002   -2.088543046537875E-013
 -1.890000000000000E-002   -2.496928706959949E-013
 -1.880000000000000E-002   -2.756501703123598E-013
 -1.870000000000000E-002   -2.823996351509241E-013
 -1.860000000000000E-002   -2.667554454203650E-013
 -1.850000000000000E-002   -2.271249421486921E-013
 -1.840000000000000E-002   -1.638589403242631E-013
 -1.830000000000000E-002   -7.945181776288802E-014
 -1.820000000000000E-002    2.144459690354990E-014
 -1.810000000000000E-002    1.322133718747829E-013
 -1.800000000000000E-002    2.446705753150326E-013
 -1.790000000000000E-002    3.496477271277755E-013
 -1.780000000000000E-002    4.377167324602042E-013
 -1.770000000000000E-002    4.999991332486988E-013
 -1.760000000000000E-002    5.289892339860201E-013
 -1.750000000000000E-002    5.193165812251902E-013
 -1.740000000000000E-002    4.683744731209061E-013
 -1.730000000000000E-002    3.767506835167046E-013
 -1.720000000000000E-002    2.484120551510763E-013
 -1.710000000000000E-002    9.061301742520988E-014
 -1.700000000000000E-002   -8.647820554221660E-014
 -1.690000000000000E-002   -2.704196391789487E-013
 -1.680000000000000E-002   -4.473631511542819E-013
 -1.670000000000000E-002   -6.030909356561482E-013
 -1.660000000000000E-002   -7.241467172466829E-013
 -1.650000000000000E-002   -7.989760915557360E-013
 -1.640000000000000E-002   -8.189847790713978E-013
 -1.630000000000000E-002   -7.794244171641018E-013
 -1.620000000000000E-002   -6.800222795461434E-013
 -1.610000000000000E-002   -5.252854191527652E-013
 -1.600000000000000E-002   -3.244290322433562E-013
 -1.590000000000000E-002   -9.090615113131962E-014
 -1.580000000000000E-002    1.584540526933366E-013
 -1.570000000000000E-002    4.046572431619975E-013
 -1.560000000000000E-002    6.280278822537391E-013
 -1.550000000000000E-002    8.098575399896348E-013
 -1.540000000000000E-002    9.340830750095903E-013
 -1.530000000000000E-002    9.888450605633066E-013
 -1.520000000000000E-002    9.677742211725635E-013
 -1.510000000000000E-002    8.708651979887279E-013
 -1.500000000000000E-002    7.048273767166549E-013
 -1.490000000000000E-002    4.828427502102156E-013
 -1.480000000000000E-002    2.237147561592820E-013
 -1.470000000000000E-002   -4.954906955457228E-014
 -1.460000000000000E-002   -3.116220410023625E-013
 -1.450000000000000E-002   -5.370616841248362E-013
 -1.440000000000000E-002   -7.026477764684718E-013
 -1.430000000000000E-002   -7.896539238463447E-013
 -1.420000000000000E-002   -7.858534600799131E-013
 -1.410000000000000E-002   -6.870847261615351E-013
 -1.400000000000000E-002   -4.982341345534188E-013
 -1.390000000000000E-002   -2.335458846764826E-013
 -1.380000000000000E-002    8.378658578047186E-014
 -1.370000000000000E-002    4.227455680959707E-013
 -1.360000000000000E-002    7.462916256439741E-013
 -1.350000000000000E-002    1.013777384154706E-012
 -1.340000000000000E-002    1.183886460743690E-012
 -1.330000000000000E-002    1.217996478676760E-012
 -1.320000000000000E-002    1.083843029049421E-012
 -1.310000000000000E-002    7.593331246921651E-013
 -1.300000000000000E-002    2.363086700758210E-013
 -1.290000000000000E-002   -4.760006110291131E-013
 -1.280000000000000E-002   -1.348166885375204E-012
 -1.270000000000000E-002   -2.328800644228155E-012
 -1.260000000000000E-002   -3.344286088011076E-012
 -1.250000000000000E-002   -4.300473681741524E-012
 -1.240000000000000E-002   -5.086733422576535E-012
 -1.230000000000000E-002   -5.582627084577050E-012
 -1.220000000000000E-002   -5.667235946661445E-012
 -1.210000000000000E-002   -5.230861204264762E-012
 -1.200000000000000E-002   -4.188444567218593E-012
 -1.190000000000000E-002   -2.493669825339701E-012
 -1.180000000000000E-002   -1.523422206073459E-013
 -1.170000000000000E-002    2.766615750203732E-012
 -1.160000000000000E-002    6.124315557829158E-012
 -1.150000000000000E-002    9.710868498281361E-012
 -1.140000000000000E-002    1.325148482808600E-011
 -1.130000000000000E-002    1.642045144350970E-011
 -1.120000000000000E-002    1.886295213304393E-011
 -1.110000000000000E-002    2.022377790907967E-011
 -1.100000000000000E-002    2.018102365200473E-011
 -1.090000000000000E-002    1.848200214792580E-011
 -1.080000000000000E-002    1.497794503878270E-011
 -1.070000000000000E-002    9.653716567039339E-012
 -1.060000000000000E-002    2.648841524297238E-012
 -1.050000000000000E-002   -5.733360640637196E-012
 -1.040000000000000E-002   -1.503081372976706E-011
 -1.030000000000000E-002   -2.464292308965338E-011
 -1.020000000000000E-002   -3.386550842059421E-011
 -1.010000000000000E-002   -4.193843489832536E-011
 -1.000000000000000E-002   -4.810249388154319E-011
 -9.899999999999999E-003   -5.166095321941485E-011
 -9.800000000000000E-003   -5.204055934344619E-011
 -9.699999999999999E-003   -4.884664836123385E-011
 -9.599999999999999E-003   -4.190733085014609E-011
 -9.500000000000000E-003   -3.130281047079052E-011
 -9.399999999999999E-003   -1.737707902762665E-011
 -9.299999999999999E-003   -7.308340608202005E-013
 -9.200000000000000E-003    1.780393894196809E-011
 -9.099999999999999E-003    3.720587450647658E-011
 -8.999999999999999E-003    5.631963066124015E-011
 -8.900000000000000E-003    7.392102798176970E-011
 -8.799999999999999E-003    8.878792323270049E-011
 -8.699999999999999E-003    9.977280568110682E-011
 -8.600000000000000E-003    1.058734978884985E-010
 -8.499999999999999E-003    1.062988917493198E-010
 -8.399999999999999E-003    1.005269244586460E-010
 -8.300000000000000E-003    8.835259262771895E-011
 -8.199999999999999E-003    6.992370014882161E-011
 -8.100000000000000E-003    4.576215571747325E-011
 -8.000000000000000E-003    1.676832901656357E-011
 -7.899999999999999E-003   -1.579409861695722E-011
 -7.800000000000000E-003   -5.033520327695315E-011
 -7.699999999999999E-003   -8.499971561281696E-011
 -7.599999999999999E-003   -1.177525080323799E-010
 -7.499999999999999E-003   -1.464875355933368E-010
 -7.399999999999999E-003   -1.691568301521196E-010
 -7.299999999999999E-003   -1.839132107633884E-010
 -7.199999999999999E-003   -1.892575772115851E-010
 -7.100000000000000E-003   -1.841791550386838E-010
 -6.999999999999999E-003   -1.682751792546730E-010
 -6.899999999999999E-003   -1.418362877819712E-010
 -6.800000000000000E-003   -1.058847655838331E-010
 -6.699999999999999E-003   -6.215577329171052E-011
 -6.599999999999999E-003   -1.301604625027828E-011
 -6.499999999999999E-003    3.867960382290402E-011
 -6.399999999999999E-003    8.978700383776156E-011
 -6.299999999999999E-003    1.371130460654810E-010
 -6.199999999999999E-003    1.776783725970008E-010
 -6.100000000000000E-003    2.089784210516313E-010
 -5.999999999999999E-003    2.292171681381041E-010
 -5.899999999999999E-003    2.374882517743886E-010
 -5.800000000000000E-003    2.338815172458617E-010
 -5.699999999999999E-003    2.194995924411451E-010
 -5.599999999999999E-003    1.963767561723070E-010
 -5.499999999999999E-003    1.673021667023734E-010
 -5.399999999999999E-003    1.355589398710403E-010
 -5.299999999999999E-003    1.045996283360577E-010
 -5.199999999999999E-003    7.768570724203819E-011
 -5.099999999999999E-003    5.752289756840497E-011
 -4.999999999999999E-003    4.592571027095227E-011
 -4.899999999999999E-003    4.354269580188992E-011
 -4.799999999999999E-003    4.966908108866828E-011
 -4.699999999999999E-003    6.216648252080843E-011
 -4.599999999999999E-003    7.750043458354516E-011
 -4.499999999999999E-003    9.089807751993377E-011
 -4.399999999999999E-003    9.661878734598685E-011
 -4.299999999999999E-003    8.832325846365398E-011
 -4.199999999999999E-003    5.952085520470928E-011
 -4.099999999999999E-003    4.070388717195085E-012
 -3.999999999999999E-003   -8.329196224888252E-011
 -3.899999999999999E-003   -2.064251604869814E-010
 -3.799999999999999E-003   -3.672828977326948E-010
 -3.699999999999999E-003   -5.654663430408939E-010
 -3.599999999999999E-003   -7.978541890974053E-010
 -3.499999999999999E-003   -1.058333752892641E-009
 -3.399999999999999E-003   -1.337654772498436E-009
 -3.299999999999999E-003   -1.623427055258287E-009
 -3.199999999999999E-003   -1.900280154689405E-009
 -3.099999999999999E-003   -2.150200509760793E-009
 -2.999999999999999E-003   -2.353057632719788E-009
 -2.899999999999999E-003   -2.487320794176778E-009
 -2.799999999999999E-003   -2.530964395268485E-009
 -2.699999999999999E-003   -2.462543334842690E-009
 -2.599999999999999E-003   -2.262414041660114E-009
 -2.499999999999999E-003   -1.914061537112611E-009
 -2.399999999999999E-003   -1.405484724203468E-009
 -2.299999999999999E-003   -7.305836635251038E-010
 -2.199999999999999E-003    1.095101273316105E-010
 -2.099999999999999E-003    1.105221970895967E-009
 -1.999999999999999E-003    2.237493576482173E-009
 -1.899999999999999E-003    3.476960769291578E-009
 -1.799999999999999E-003    4.783380225513128E-009
 -1.699999999999999E-003    6.105323232985084E-009
 -1.599999999999999E-003    7.380139267613576E-009
 -1.499999999999999E-003    8.534172010489356E-009
 -1.399999999999999E-003    9.483206079993842E-009
 -1.299999999999999E-003    1.013310966992608E-008
 -1.199999999999999E-003    1.038063428747313E-008
 -1.099999999999999E-003    1.011433674349653E-008
 -9.999999999999989E-004    9.215593902214990E-009
 -8.999999999999990E-004    7.559682987917162E-009
 -7.999999999999990E-004    5.016917993158999E-009
 -6.999999999999989E-004    1.453834374679742E-009
 -5.999999999999990E-004   -3.265573464753872E-009
 -4.999999999999989E-004   -9.278564573445077E-009
 -3.999999999999989E-004   -1.672230807058351E-008
 -2.999999999999989E-004   -2.573247734997707E-008
 -1.999999999999989E-004   -3.644183252803008E-008
 -9.999999999999892E-005   -4.897878671551967E-008
  1.084202172485504E-018   -6.346599957457775E-008
  1.000000000000011E-004   -8.001913131065620E-008
  2.000000000000011E-004   -9.874571022628104E-008
  3.000000000000011E-004   -1.197443076826632E-007
  4.000000000000011E-004   -1.431040650884360E-007
  5.000000000000011E-004   -1.689046331761456E-007
  6.000000000000011E-004   -1.972166105467288E-007
  7.000000000000011E-004   -2.281025660068765E-007
  8.000000000000011E-004   -2.616185897596932E-007
  9.000000000000012E-004   -2.978164432849421E-007
  1.000000000000001E-003   -3.367462565582274E-007
  1.100000000000001E-003   -3.784596752779822E-007
  1.200000000000001E-003   -4.230133947510767E-007
  1.300000000000001E-003   -4.704728768583305E-007
  1.400000000000001E-003   -5.209163925112611E-007
  1.500000000000001E-003   -5.744387645096257E-007
  1.600000000000001E-003   -6.311550594901055E-007
  1.700000000000001E-003   -6.912037657615704E-007
  1.800000000000001E-003   -7.547497576684519E-007
  1.900000000000001E-003   -8.219864694405591E-007
  2.000000000000001E-003   -8.931372187600115E-007
  2.100000000000001E-003   -9.684558589079328E-007
  2.200000000000001E-003   -1.048227081848329E-006
  2.300000000000001E-003   -1.132765059263711E-006
  2.400000000000001E-003   -1.222412493848009E-006
  2.500000000000001E-003   -1.317538048870483E-006
  2.600000000000001E-003   -1.418534306398698E-006
  2.700000000000001E-003   -1.525814998170321E-006
  2.800000000000001E-003   -1.639812305325917E-006
  2.900000000000001E-003   -1.760974368518276E-006
  3.000000000000001E-003   -1.889763171967805E-006
  3.100000000000001E-003   -2.026653268804251E-006
  3.200000000000001E-003   -2.172130279271957E-006
  3.300000000000001E-003   -2.326691666948967E-006
  3.400000000000001E-003   -2.490846983352225E-006
  3.500000000000001E-003   -2.665120073409729E-006
  3.600000000000001E-003   -2.850050819055396E-006
  3.700000000000001E-003   -3.046199666459779E-006
  3.800000000000001E-003   -3.254150399792940E-006
  3.900000000000001E-003   -3.474514631791824E-006
  4.000000000000001E-003   -3.707936875285759E-006
  4.100000000000001E-003   -3.955099314257012E-006
  4.200000000000001E-003   -4.216725759736654E-006
  4.300000000000001E-003   -4.493586941673108E-006
  4.400000000000001E-003   -4.786503515724048E-006
  4.500000000000001E-003   -5.096350521997302E-006
  4.600000000000002E-003   -5.424059779517240E-006
  4.700000000000001E-003   -5.770622822634284E-006
  4.800000000000001E-003   -6.137092778695594E-006
  4.900000000000002E-003   -6.524584988473056E-006
  5.000000000000001E-003   -6.934278433879434E-006
  5.100000000000001E-003   -7.367416210038336E-006
  5.200000000000001E-003   -7.825305988967326E-006
  5.300000000000002E-003   -8.309317864998425E-006
  5.400000000000001E-003   -8.820887430039508E-006
  5.500000000000001E-003   -9.361512729421373E-006
  5.600000000000002E-003   -9.932756629913741E-006
  5.700000000000001E-003   -1.053624468385563E-005
  5.800000000000001E-003   -1.117366764367140E-005
  5.900000000000002E-003   -1.184678127130391E-005
  6.000000000000001E-003   -1.255740954626522E-005
  6.100000000000001E-003   -1.330744658464447E-005
  6.200000000000002E-003   -1.409885911251148E-005
  6.300000000000002E-003   -1.493369152947625E-005
  6.400000000000001E-003   -1.581407163235618E-005
  6.500000000000001E-003   -1.674221819405153E-005
  6.600000000000002E-003   -1.772044331191161E-005
  6.700000000000001E-003   -1.875116690860488E-005
  6.800000000000001E-003   -1.983691969958895E-005
  6.900000000000002E-003   -2.098035722434635E-005
  7.000000000000001E-003   -2.218426760560001E-005
  7.100000000000001E-003   -2.345157789633804E-005
  7.200000000000002E-003   -2.478536757146080E-005
  7.300000000000002E-003   -2.618887498738795E-005
  7.400000000000001E-003   -2.766550411040325E-005
  7.500000000000001E-003   -2.921883262981395E-005
  7.600000000000002E-003   -3.085261881353225E-005
  7.700000000000001E-003   -3.257079884787896E-005
  7.800000000000001E-003   -3.437749422187170E-005
  7.900000000000001E-003   -3.627701374780615E-005
  8.000000000000002E-003   -3.827384853857930E-005
  8.100000000000001E-003   -4.037267631584693E-005
  8.200000000000001E-003   -4.257836239621973E-005
  8.300000000000002E-003   -4.489595274320975E-005
  8.400000000000001E-003   -4.733068454504165E-005
  8.500000000000002E-003   -4.988798078060048E-005
  8.600000000000002E-003   -5.257345849606110E-005
  8.700000000000001E-003   -5.539293342192828E-005
  8.800000000000002E-003   -5.835242488877518E-005
  8.900000000000002E-003   -6.145817195972502E-005
  9.000000000000001E-003   -6.471664375537278E-005
  9.100000000000002E-003   -6.813454498295565E-005
  9.200000000000002E-003   -7.171884120407811E-005
  9.300000000000001E-003   -7.547676170835751E-005
  9.400000000000002E-003   -7.941583081144225E-005
  9.500000000000001E-003   -8.354386360942912E-005
  9.600000000000001E-003   -8.786899952689077E-005
  9.700000000000002E-003   -9.239968931911057E-005
  9.800000000000001E-003   -9.714471804683964E-005
  9.900000000000001E-003   -1.021132237767793E-004
  1.000000000000000E-002   -1.073146775117260E-004
  1.010000000000000E-002   -1.127589090077911E-004
  1.020000000000000E-002   -1.184561060104002E-004
  1.030000000000000E-002   -1.244168057313057E-004
  1.040000000000000E-002   -1.306519362931848E-004
  1.050000000000000E-002   -1.371727770123900E-004
  1.060000000000000E-002   -1.439909855133663E-004
  1.070000000000000E-002   -1.511186054310625E-004
  1.080000000000000E-002   -1.585680907728100E-004
  1.090000000000000E-002   -1.663522998300757E-004
  1.100000000000000E-002   -1.744845084819829E-004
  1.110000000000000E-002   -1.829784536661923E-004
  1.120000000000000E-002   -1.918483220994716E-004
  1.130000000000000E-002   -2.011087806919055E-004
  1.140000000000000E-002   -2.107749912195377E-004
  1.150000000000000E-002   -2.208626355201283E-004
  1.160000000000000E-002   -2.313879131360740E-004
  1.170000000000000E-002   -2.423675633920478E-004
  1.180000000000000E-002   -2.538189046683508E-004
  1.190000000000000E-002   -2.657597675560356E-004
  1.200000000000000E-002   -2.782085781750633E-004
  1.210000000000000E-002   -2.911842882062419E-004
  1.220000000000000E-002   -3.047064427479043E-004
  1.230000000000000E-002   -3.187951324426298E-004
  1.240000000000000E-002   -3.334710367237946E-004
  1.250000000000000E-002   -3.487554166723878E-004
  1.260000000000000E-002   -3.646700695461273E-004
  1.270000000000000E-002   -3.812374228991509E-004
  1.280000000000000E-002   -3.984805192742952E-004
  1.290000000000000E-002   -4.164230056560094E-004
  1.300000000000000E-002   -4.350892035217279E-004
  1.310000000000000E-002   -4.545040312317364E-004
  1.320000000000000E-002   -4.746931204817181E-004
  1.330000000000000E-002   -4.956828181929383E-004
  1.340000000000000E-002   -5.175001902142697E-004
  1.350000000000000E-002   -5.401729281821608E-004
  1.360000000000000E-002   -5.637295507058718E-004
  1.370000000000000E-002   -5.881993358945138E-004
  1.380000000000000E-002   -6.136121925774593E-004
  1.390000000000000E-002   -6.399988284004641E-004
  1.400000000000000E-002   -6.673907162297253E-004
  1.410000000000000E-002   -6.958199461883336E-004
  1.420000000000000E-002   -7.253195006362286E-004
  1.430000000000000E-002   -7.559229409243682E-004
  1.440000000000000E-002   -7.876646250635270E-004
  1.450000000000000E-002   -8.205796338604110E-004
  1.460000000000000E-002   -8.547037704324811E-004
  1.470000000000000E-002   -8.900736491356787E-004
  1.480000000000000E-002   -9.267265264132716E-004
  1.490000000000000E-002   -9.647005221128849E-004
  1.500000000000000E-002   -1.004034455843925E-003
  1.510000000000000E-002   -1.044767944707529E-003
  1.520000000000000E-002   -1.086941310766590E-003
  1.530000000000000E-002   -1.130595876012101E-003
  1.540000000000000E-002   -1.175773464674063E-003
  1.550000000000000E-002   -1.222516905029840E-003
  1.560000000000000E-002   -1.270869643887988E-003
  1.570000000000000E-002   -1.320875852434763E-003
  1.580000000000000E-002   -1.372580461634978E-003
  1.590000000000000E-002   -1.426029109862551E-003
  1.600000000000000E-002   -1.481268126551075E-003
  1.610000000000000E-002   -1.538344472488295E-003
  1.620000000000000E-002   -1.597305793167214E-003
  1.630000000000000E-002   -1.658200333393522E-003
  1.640000000000000E-002   -1.721077155274350E-003
  1.650000000000000E-002   -1.785985718471179E-003
  1.660000000000000E-002   -1.852976250508962E-003
  1.670000000000000E-002   -1.922099525752623E-003
  1.680000000000000E-002   -1.993407016389649E-003
  1.690000000000000E-002   -2.066950713053769E-003
  1.700000000000000E-002   -2.142782957395503E-003
  1.710000000000000E-002   -2.220956975809021E-003
  1.720000000000000E-002   -2.301526150329402E-003
  1.730000000000000E-002   -2.384544427557703E-003
  1.740000000000000E-002   -2.470066230565435E-003
  1.750000000000000E-002   -2.558146335136304E-003
  1.760000000000000E-002   -2.648839427766169E-003
  1.770000000000000E-002   -2.742201030168908E-003
  1.780000000000000E-002   -2.838286396848623E-003
  1.790000000000000E-002   -2.937151357653790E-003
  1.800000000000000E-002   -3.038851739224940E-003
  1.810000000000000E-002   -3.143443422580264E-003
  1.820000000000000E-002   -3.250982103805524E-003
  1.830000000000000E-002   -3.361524130810286E-003
  1.840000000000000E-002   -3.475125638564731E-003
  1.850000000000000E-002   -3.591842544242495E-003
  1.860000000000000E-002   -3.711730933542004E-003
  1.870000000000000E-002   -3.834846736894040E-003