 -4.000000000000000E-002    0.000000000000000E+000
 -3.990000000000000E-002    0.000000000000000E+000
 -3.980000000000000E-002    0.000000000000000E+000
 -3.970000000000000E-002    0.000000000000000E+000
 -3.960000000000000E-002    0.000000000000000E+000
 -3.950000000000000E-002    0.000000000000000E+000
 -3.940000000000000E-002    0.000000000000000E+000
 -3.930000000000000E-002    0.000000000000000E+000
 -3.920000000000000E-002    0.000000000000000E+000
 -3.910000000000000E-002    0.000000000000000E+000
 -3.900000000000000E-002    0.000000000000000E+000
 -3.890000000000000E-002    0.000000000000000E+000
 -3.880000000000000E-002    0.000000000000000E+000
 -3.870000000000000E-002    0.000000000000000E+000
 -3.860000000000000E-002    0.000000000000000E+000
 -3.850000000000000E-002    0.000000000000000E+000
 -3.840000000000000E-002    0.000000000000000E+000
 -3.830000000000000E-002    0.000000000000000E+000
 -3.820000000000000E-002    0.000000000000000E+000
 -3.810000000000000E-002    0.000000000000000E+000
 -3.800000000000000E-002    0.000000000000000E+000
 -3.790000000000000E-002    9.180702080249142E-048
 -3.780000000000000E-002   -1.127790198347630E-046
 -3.770000000000000E-002    1.893840382910888E-046
 -3.760000000000000E-002    1.148384054796358E-044
 -3.750000000000000E-002    9.877663525817142E-044
 -3.740000000000000E-002    5.700848745928632E-043
 -3.730000000000000E-002    2.711733689021958E-042
 -3.720000000000000E-002    1.119322892543619E-041
 -3.710000000000000E-002    4.117441212638246E-041
 -3.700000000000000E-002    1.371311824235774E-040
 -3.690000000000000E-002    4.178342146353012E-040
 -3.680000000000000E-002    1.172672157925214E-039
 -3.670000000000000E-002    3.043846968866528E-039
 -3.660000000000000E-002    7.318645201575563E-039
 -3.650000000000000E-002    1.628034964904386E-038
 -3.640000000000000E-002    3.333242240925811E-038
 -3.630000000000000E-002    6.206196560153371E-038
 -3.620000000000000E-002    1.023360837174858E-037
 -3.610000000000000E-002    1.397508119036842E-037
 -3.600000000000000E-002    1.223622174534266E-037
 -3.590000000000000E-002   -8.356639324978974E-038
 -3.580000000000000E-002   -7.667836793929302E-037
 -3.570000000000000E-002   -2.473749849694130E-036
 -3.560000000000000E-002   -6.118747296828747E-036
 -3.550000000000000E-002   -1.303068204611609E-035
 -3.540000000000000E-002   -2.477979830139767E-035
 -3.530000000000000E-002   -4.249933734047109E-035
 -3.520000000000000E-002   -6.526220384362164E-035
 -3.510000000000000E-002   -8.694705622523801E-035
 -3.500000000000000E-002   -9.105435273957893E-035
 -3.490000000000000E-002   -4.332094523915747E-035
 -3.480000000000000E-002    1.169685951512123E-034
 -3.470000000000000E-002    4.840246123295893E-034
 -3.460000000000000E-002    1.184695316338094E-033
 -3.450000000000000E-002    2.358982211336740E-033
 -3.440000000000000E-002    4.106347139678901E-033
 -3.430000000000000E-002    6.378934970203441E-033
 -3.420000000000000E-002    8.804606114620304E-033
 -3.410000000000000E-002    1.043467410261259E-032
 -3.400000000000000E-002    9.439716474911976E-033
 -3.390000000000000E-002    2.827489082983933E-033
 -3.380000000000000E-002   -1.366824521691280E-032
 -3.370000000000000E-002   -4.528686547550387E-032
 -3.360000000000000E-002   -9.719792182292454E-032
 -3.350000000000000E-002   -1.723409551085412E-031
 -3.340000000000000E-002   -2.678349882641289E-031
 -3.330000000000000E-002   -3.698933490978295E-031
 -3.320000000000000E-002   -4.476968495744830E-031
 -3.310000000000000E-002   -4.475157998229780E-031
 -3.300000000000000E-002   -2.895016044103563E-031
 -3.290000000000000E-002    1.291709128784854E-031
 -3.280000000000000E-002    9.201002965417632E-031
 -3.270000000000000E-002    2.173469364377611E-030
 -3.260000000000000E-002    3.908335118397012E-030
 -3.250000000000000E-002    6.003720583295241E-030
 -3.240000000000000E-002    8.117836797886788E-030
 -3.230000000000000E-002    9.613030351328323E-030
 -3.220000000000000E-002    9.516602835133340E-030
 -3.210000000000000E-002    6.559913092395995E-030
 -3.200000000000000E-002   -6.543806511425121E-031
 -3.190000000000000E-002   -1.331082374578038E-029
 -3.180000000000000E-002   -3.184176299535815E-029
 -3.170000000000000E-002   -5.521444904756209E-029
 -3.160000000000000E-002   -8.014596616338144E-029
 -3.150000000000000E-002   -1.004494373088439E-028
 -3.140000000000000E-002   -1.068268647896727E-028
 -3.130000000000000E-002   -8.751635003394104E-029
 -3.120000000000000E-002   -3.022878823740146E-029
 -3.110000000000000E-002    7.428472260517331E-029
 -3.100000000000000E-002    2.269673711007193E-028
 -3.090000000000000E-002    4.139220972114107E-028
 -3.080000000000000E-002    5.997590206678498E-028
 -3.070000000000000E-002    7.228575028924200E-028
 -3.060000000000000E-002    6.954563991300585E-028
 -3.050000000000000E-002    4.120975822912579E-028
 -3.040000000000000E-002   -2.300835315856771E-028
 -3.030000000000000E-002   -1.296824259151053E-027
 -3.020000000000000E-002   -2.768129980143030E-027
 -3.010000000000000E-002   -4.480031425315687E-027
 -3.000000000000000E-002   -6.066991192417870E-027
 -2.990000000000000E-002   -6.922067147461015E-027
 -2.980000000000000E-002   -6.198447300033774E-027
 -2.970000000000000E-002   -2.880153244819749E-027
 -2.960000000000000E-002    4.050974614754614E-027
 -2.950000000000000E-002    1.533333128550180E-026
 -2.940000000000000E-002    3.102854666680389E-026
 -2.930000000000000E-002    5.003935219047259E-026
 -2.920000000000000E-002    6.961268853747530E-026
 -2.910000000000000E-002    8.494504797776983E-026
 -2.900000000000000E-002    8.905184995160008E-026
 -2.890000000000000E-002    7.309335858670805E-026
 -2.880000000000000E-002    2.735112982696474E-026
 -2.870000000000000E-002   -5.699515051745315E-026
 -2.860000000000000E-002   -1.852441810969530E-025
 -2.850000000000000E-002   -3.558269384554650E-025
 -2.840000000000000E-002   -5.565944173807002E-025
 -2.830000000000000E-002   -7.613680261583197E-025
 -2.820000000000000E-002   -9.276545268270446E-025
 -2.810000000000000E-002   -9.966374853141902E-025
 -2.800000000000000E-002   -8.966327826278319E-025
 -2.790000000000000E-002   -5.510514861474179E-025
 -2.780000000000000E-002    1.085179115455775E-025
 -2.770000000000000E-002    1.124255990574394E-024
 -2.760000000000000E-002    2.490314862971093E-024
 -2.750000000000000E-002    4.129816551416862E-024
 -2.740000000000000E-002    5.874571647010382E-024
 -2.730000000000000E-002    7.452650029459483E-024
 -2.720000000000000E-002    8.489662544772584E-024
 -2.710000000000000E-002    8.529502214362151E-024
 -2.700000000000000E-002    7.079082098939935E-024
 -2.690000000000000E-002    3.679055669389532E-024
 -2.680000000000000E-002   -2.001377451014580E-024
 -2.670000000000000E-002   -1.005245944146809E-023
 -2.660000000000000E-002   -2.020713418274067E-023
 -2.650000000000000E-002   -3.173743202112469E-023
 -2.640000000000000E-002   -4.338600989502604E-023
 -2.630000000000000E-002   -5.335678504050104E-023
 -2.620000000000000E-002   -5.938707974624662E-023
 -2.610000000000000E-002   -5.891818677495871E-023
 -2.600000000000000E-002   -4.937143326860098E-023
 -2.590000000000000E-002   -2.852305107780475E-023
 -2.580000000000000E-002    5.045389655448061E-024
 -2.570000000000000E-002    5.146150075440981E-023
 -2.560000000000000E-002    1.090980967665013E-022
 -2.550000000000000E-002    1.741991995728477E-022
 -2.540000000000000E-002    2.406697771146286E-022
 -2.530000000000000E-002    3.001009201719836E-022
 -2.520000000000000E-002    3.420899645915403E-022
 -2.510000000000000E-002    3.548959273353071E-022
 -2.500000000000000E-002    3.264433978069566E-022
 -2.490000000000000E-002    2.456564747778005E-022
 -2.480000000000000E-002    1.040708670095333E-022
 -2.470000000000000E-002   -1.023618464696773E-022
 -2.460000000000000E-002   -3.713969216162106E-022
 -2.450000000000000E-002   -6.926985735462795E-022
 -2.440000000000000E-002   -1.046308064816517E-021
 -2.430000000000000E-002   -1.401601743679181E-021
 -2.420000000000000E-002   -1.717003628652822E-021
 -2.410000000000000E-002   -1.940756794644206E-021
 -2.400000000000000E-002   -2.013089183978219E-021
 -2.390000000000000E-002   -1.870113889265733E-021
 -2.380000000000000E-002   -1.449758659526999E-021
 -2.370000000000000E-002   -6.998986760277247E-022
 -2.360000000000000E-002    4.113620913896935E-022
 -2.350000000000000E-002    1.883668661245146E-021
 -2.340000000000000E-002    3.671543045742918E-021
 -2.330000000000000E-002    5.672133700056696E-021
 -2.320000000000000E-002    7.715685119640229E-021
 -2.310000000000000E-002    9.561377396125148E-021
 -2.300000000000000E-002    1.090154321935310E-020
 -2.290000000000000E-002    1.137724144716297E-020
 -2.280000000000000E-002    1.060759735317356E-020
 -2.270000000000000E-002    8.234095394788813E-021
 -2.260000000000000E-002    3.979028105727285E-021
 -2.250000000000000E-002   -2.285326006988304E-021
 -2.240000000000000E-002   -1.046332995886337E-020
 -2.230000000000000E-002   -2.016812798468324E-020
 -2.220000000000000E-002   -3.067174521585629E-020
 -2.210000000000000E-002   -4.088721977680337E-020
 -2.200000000000000E-002   -4.939672554901250E-020
 -2.190000000000000E-002   -5.453716739605527E-020
 -2.180000000000000E-002   -5.454948374569927E-020
 -2.170000000000000E-002   -4.779010014128624E-020
 -2.160000000000000E-002   -3.299273312813914E-020
 -2.150000000000000E-002   -9.557410115541081E-021
 -2.140000000000000E-002    2.216746719836977E-020
 -2.130000000000000E-002    6.065317804739613E-020
 -2.120000000000000E-002    1.030565729429182E-019
 -2.110000000000000E-002    1.452300533738681E-019
 -2.100000000000000E-002    1.819127914961979E-019
 -2.090000000000000E-002    2.071231742894970E-019
 -2.080000000000000E-002    2.147481781663534E-019
 -2.070000000000000E-002    1.992955817438351E-019
 -2.060000000000000E-002    1.567436040887192E-019
 -2.050000000000000E-002    8.539417331470437E-020
 -2.040000000000000E-002   -1.338492460941629E-020
 -2.030000000000000E-002   -1.346517129903381E-019
 -2.020000000000000E-002   -2.697296191235720E-019
 -2.010000000000000E-002   -4.064824151348072E-019
 -2.000000000000000E-002   -5.300679636172172E-019
 -1.990000000000000E-002   -6.241559181938058E-019
 -1.980000000000000E-002   -6.725299621826801E-019
 -1.970000000000000E-002   -6.609323567309069E-019
 -1.960000000000000E-002   -5.789576436376120E-019
 -1.950000000000000E-002   -4.217726336783705E-019
 -1.940000000000000E-002   -1.914395911201843E-019
 -1.930000000000000E-002    1.023499195836960E-019
 -1.920000000000000E-002    4.422612429115635E-019
 -1.910000000000000E-002    8.040703211324529E-019
 -1.900000000000000E-002    1.158137009258277E-018
 -1.890000000000000E-002    1.471462227784268E-018
 -1.880000000000000E-002    1.710123938919395E-018
 -1.870000000000000E-002    1.841855613209915E-018
 -1.860000000000000E-002    1.838539556623860E-018
 -1.850000000000000E-002    1.678441376073158E-018
 -1.840000000000000E-002    1.348095599952740E-018
 -1.830000000000000E-002    8.438498355834790E-019
 -1.820000000000000E-002    1.731560607162690E-019
 -1.810000000000000E-002   -6.442576222188164E-019
 -1.800000000000000E-002   -1.575229127914449E-018
 -1.790000000000000E-002   -2.572012707777923E-018
 -1.780000000000000E-002   -3.571309890262281E-018
 -1.770000000000000E-002   -4.493872944689398E-018
 -1.760000000000000E-002   -5.245304453054557E-018
 -1.750000000000000E-002   -5.718839961985815E-018
 -1.740000000000000E-002   -5.800939037966599E-018
 -1.730000000000000E-002   -5.380361016858088E-018
 -1.720000000000000E-002   -4.361016749195219E-018
 -1.710000000000000E-002   -2.678267612796273E-018
 -1.700000000000000E-002   -3.175397519771989E-019
 -1.690000000000000E-002    2.666787029908823E-018
 -1.680000000000000E-002    6.135094821154363E-018
 -1.670000000000000E-002    9.852345223694348E-018
 -1.660000000000000E-002    1.348768279889987E-017
 -1.650000000000000E-002    1.662712224909471E-017
 -1.640000000000000E-002    1.880152406952366E-017
 -1.630000000000000E-002    1.953031626211243E-017
 -1.620000000000000E-002    1.837906720557549E-017
 -1.610000000000000E-002    1.502636850822076E-017
 -1.600000000000000E-002    9.332870139632608E-018
 -1.590000000000000E-002    1.403171640555723E-018
 -1.580000000000000E-002   -8.369907354702966E-018
 -1.570000000000000E-002   -1.928899711110631E-017
 -1.560000000000000E-002   -3.037232175470194E-017
 -1.550000000000000E-002   -4.041538740942526E-017
 -1.540000000000000E-002   -4.809436925646040E-017
 -1.530000000000000E-002   -5.210536579328881E-017
 -1.520000000000000E-002   -5.132754492884012E-017
 -1.510000000000000E-002   -4.499257816830754E-017
 -1.500000000000000E-002   -3.283887764155809E-017
 -1.490000000000000E-002   -1.522756233943681E-017
 -1.480000000000000E-002    6.801203532704692E-018
 -1.470000000000000E-002    3.154796489961574E-017
 -1.460000000000000E-002    5.675819025660882E-017
 -1.450000000000000E-002    7.980897596826016E-017
 -1.440000000000000E-002    9.796477922225799E-017
 -1.430000000000000E-002    1.086777769165117E-016
 -1.420000000000000E-002    1.098996556760619E-016
 -1.410000000000000E-002    1.003666722009599E-016
 -1.400000000000000E-002    7.981964875927296E-017
 -1.390000000000000E-002    4.912590756414210E-017
 -1.380000000000000E-002    1.028080540815169E-017
 -1.370000000000000E-002   -3.371929199465206E-017
 -1.360000000000000E-002   -7.912392721199427E-017
 -1.350000000000000E-002   -1.217704716177841E-016
 -1.340000000000000E-002   -1.574826590576497E-016
 -1.330000000000000E-002   -1.824790735944886E-016
 -1.320000000000000E-002   -1.937431566662384E-016
 -1.310000000000000E-002   -1.893123508415061E-016
 -1.300000000000000E-002   -1.684561450277192E-016
 -1.290000000000000E-002   -1.317299761594177E-016
 -1.280000000000000E-002   -8.091139197488397E-017
 -1.270000000000000E-002   -1.884198053122462E-017
 -1.260000000000000E-002    5.078873281942665E-017
 -1.250000000000000E-002    1.236764050779249E-016
 -1.240000000000000E-002    1.951157322292712E-016
 -1.230000000000000E-002    2.601719632927492E-016
 -1.220000000000000E-002    3.138073958644020E-016
 -1.210000000000000E-002    3.509829431452214E-016
 -1.200000000000000E-002    3.667755387585341E-016
 -1.190000000000000E-002    3.565647922505802E-016
 -1.180000000000000E-002    3.163422425239785E-016
 -1.170000000000000E-002    2.431812651632633E-016
 -1.160000000000000E-002    1.358737974660132E-016
 -1.150000000000000E-002   -4.304316670260017E-018
 -1.140000000000000E-002   -1.727884622825452E-016
 -1.130000000000000E-002   -3.610192016343147E-016
 -1.120000000000000E-002   -5.560089861560527E-016
 -1.110000000000000E-002   -7.403687584440650E-016
 -1.100000000000000E-002   -8.929626558277716E-016
 -1.090000000000000E-002   -9.903053391016434E-016
 -1.080000000000000E-002   -1.008726108746244E-015
 -1.070000000000000E-002   -9.272094466194755E-016
 -1.060000000000000E-002   -7.306889214824878E-016
 -1.050000000000000E-002   -4.134472170458406E-016
 -1.040000000000000E-002    1.782684766481490E-017
 -1.030000000000000E-002    5.418279571118361E-016
 -1.020000000000000E-002    1.121765353506581E-015
 -1.010000000000000E-002    1.706248257521468E-015
 -1.000000000000000E-002    2.232181506096155E-015
 -9.899999999999999E-003    2.629707447231712E-015
 -9.800000000000000E-003    2.828964382678728E-015
 -9.699999999999999E-003    2.768154966673185E-015
 -9.599999999999999E-003    2.402166684156611E-015
 -9.500000000000000E-003    1.710786055285405E-015
 -9.399999999999999E-003    7.054614834426630E-016
 -9.299999999999999E-003   -5.664228557928339E-016
 -9.200000000000000E-003   -2.020633432931780E-015
 -9.099999999999999E-003   -3.539135242121667E-015
 -8.999999999999999E-003   -4.977312104749263E-015
 -8.900000000000000E-003   -6.175116700365930E-015
 -8.799999999999999E-003   -6.971435805153618E-015
 -8.699999999999999E-003   -7.220516077365932E-015
 -8.600000000000000E-003   -6.808944758679597E-015
 -8.499999999999999E-003   -5.671480089009059E-015
 -8.399999999999999E-003   -3.803961547996783E-015
 -8.300000000000000E-003   -1.271703835672177E-015
 -8.199999999999999E-003    1.787919034120717E-015
 -8.100000000000000E-003    5.169507830599443E-015
 -8.000000000000000E-003    8.610502182449879E-015
 -7.899999999999999E-003    1.180845949734754E-014
 -7.800000000000000E-003    1.444368857518753E-014
 -7.699999999999999E-003    1.620563595776872E-014
 -7.599999999999999E-003    1.682096914423291E-014
 -7.499999999999999E-003    1.608107318821727E-014
 -7.399999999999999E-003    1.386658009524748E-014
 -7.299999999999999E-003    1.016671090265046E-014
 -7.199999999999999E-003    5.091501869404370E-015
 -7.100000000000000E-003   -1.124499620418551E-015
 -6.999999999999999E-003   -8.127928399440975E-015
 -6.899999999999999E-003   -1.546185496042605E-014
 -6.800000000000000E-003   -2.259009297753286E-014
 -6.699999999999999E-003   -2.892942649078483E-014
 -6.599999999999999E-003   -3.388802631814772E-014
 -6.499999999999999E-003   -3.690786314652114E-014
 -6.399999999999999E-003   -3.750860170560629E-014
 -6.299999999999999E-003   -3.533023818038755E-014
 -6.199999999999999E-003   -3.017169918747063E-014
 -6.100000000000000E-003   -2.202272180450562E-014
 -5.999999999999999E-003   -1.108648603689876E-014
 -5.899999999999999E-003    2.209150724716744E-015
 -5.800000000000000E-003    1.721361957524206E-014
 -5.699999999999999E-003    3.307007971972595E-014
 -5.599999999999999E-003    4.874707352436596E-014
 -5.499999999999999E-003    6.308544567710347E-014
 -5.399999999999999E-003    7.485988482246380E-014
 -5.299999999999999E-003    8.285356408452993E-014
 -5.199999999999999E-003    8.594339365331978E-014
 -5.099999999999999E-003    8.319233172286167E-014
 -4.999999999999999E-003    7.394402882613119E-014
 -4.899999999999999E-003    5.791383843149475E-014
 -4.799999999999999E-003    3.526913546149704E-014
 -4.699999999999999E-003    6.690896747369661E-015
 -4.599999999999999E-003   -2.659193374133264E-014
 -4.499999999999999E-003   -6.280369641437462E-014
 -4.399999999999999E-003   -9.966635507597611E-014
 -4.299999999999999E-003   -1.344923181136281E-013
 -4.199999999999999E-003   -1.643280143549405E-013
 -4.099999999999999E-003   -1.861463103980472E-013
 -3.999999999999999E-003   -1.970805125235134E-013
 -3.899999999999999E-003   -1.946870789352698E-013
 -3.799999999999999E-003   -1.772183078420772E-013
 -3.699999999999999E-003   -1.438812666264364E-013
 -3.599999999999999E-003   -9.505575730328722E-014
 -3.499999999999999E-003   -3.244260365948343E-014
 -3.399999999999999E-003    4.088422234646319E-014
 -3.299999999999999E-003    1.205432935115121E-013
 -3.199999999999999E-003    2.010421324235018E-013
 -3.099999999999999E-003    2.761053274381508E-013
 -2.999999999999999E-003    3.391216668667387E-013
 -2.899999999999999E-003    3.836825505179262E-013
 -2.799999999999999E-003    4.041703570489082E-013
 -2.699999999999999E-003    3.963440215366355E-013
 -2.599999999999999E-003    3.578624561092939E-013
 -2.499999999999999E-003    2.886860820496767E-013
 -2.399999999999999E-003    1.913026399838432E-013
 -2.299999999999999E-003    7.073750878570087E-014
 -2.199999999999999E-003   -6.567280762248188E-014
 -2.099999999999999E-003   -2.087405661849130E-013
 -1.999999999999999E-003   -3.480913072411489E-013
 -1.899999999999999E-003   -4.729797289074523E-013
 -1.799999999999999E-003   -5.731837353424576E-013
 -1.699999999999999E-003   -6.398903278530625E-013
 -1.599999999999999E-003   -6.664848209631208E-013
 -1.499999999999999E-003   -6.491615369760448E-013
 -1.399999999999999E-003   -5.872919056945319E-013
 -1.299999999999999E-003   -4.835122670576146E-013
 -1.199999999999999E-003   -3.435243555508575E-013
 -1.099999999999999E-003   -1.756341838629702E-013
 -9.999999999999989E-004    9.916135474324391E-015
 -8.999999999999990E-004    2.017471587046316E-013
 -7.999999999999990E-004    3.881840021496168E-013
 -6.999999999999989E-004    5.580551344927574E-013
 -5.999999999999990E-004    7.013746897914948E-013
 -4.999999999999989E-004    8.098584205130955E-013
 -3.999999999999989E-004    8.772526702706009E-013
 -2.999999999999989E-004    8.994855179899984E-013
 -1.999999999999989E-004    8.746755438114127E-013
 -9.999999999999892E-005    8.030506744298503E-013
  1.084202172485504E-018    6.868330305573447E-013
  1.000000000000011E-004    5.301377350067693E-013
  2.000000000000011E-004    3.389104801137360E-013
  3.000000000000011E-004    1.209002400176898E-013
  4.000000000000011E-004   -1.143687522886960E-013
  5.000000000000011E-004   -3.556888620468089E-013
  6.000000000000011E-004   -5.904020160184064E-013
  7.000000000000011E-004   -8.048487530715896E-013
  8.000000000000011E-004   -9.850848799780437E-013
  9.000000000000012E-004   -1.117874891976840E-012
  1.000000000000001E-003   -1.191914504807119E-012
  1.100000000000001E-003   -1.199170940172756E-012
  1.200000000000001E-003   -1.136174020977623E-012
  1.300000000000001E-003   -1.005048734125971E-012
  1.400000000000001E-003   -8.140715010240158E-013
  1.500000000000001E-003   -5.775561898097072E-013
  1.600000000000001E-003   -3.149412122748338E-013
  1.700000000000001E-003   -4.904892414497498E-014
  1.800000000000001E-003    1.963860680960356E-013
  1.900000000000001E-003    3.996914661770559E-013
  2.000000000000001E-003    5.443843655577406E-013
  2.100000000000001E-003    6.220152588248605E-013
  2.200000000000001E-003    6.342600389444639E-013
  2.300000000000001E-003    5.938253260459923E-013
  2.400000000000001E-003    5.238404574201285E-013
  2.500000000000001E-003    4.555820660172945E-013
  2.600000000000001E-003    4.246001549857940E-013
  2.700000000000001E-003    4.655616768721512E-013
  2.800000000000001E-003    6.063610604114716E-013
  2.900000000000001E-003    8.622336939173380E-013
  3.000000000000001E-003    1.230715848170517E-012
  3.100000000000001E-003    1.688290867919420E-012
  3.200000000000001E-003    2.189443995753303E-012
  3.300000000000001E-003    2.668609108687335E-012
  3.400000000000001E-003    3.045163165925290E-012
  3.500000000000001E-003    3.231234474224993E-012
  3.600000000000001E-003    3.141690979589542E-012
  3.700000000000001E-003    2.705326010920257E-012
  3.800000000000001E-003    1.875995461920292E-012
  3.900000000000001E-003    6.423459797773563E-013
  4.000000000000001E-003   -9.651767221506470E-013
  4.100000000000001E-003   -2.871139398424348E-012
  4.200000000000001E-003   -4.956477320014836E-012
  4.300000000000001E-003   -7.064638396848345E-012
  4.400000000000001E-003   -9.012230439630313E-012
  4.500000000000001E-003   -1.060335432068302E-011
  4.600000000000002E-003   -1.164637370610452E-011
  4.700000000000001E-003   -1.197156496859035E-011
  4.800000000000001E-003   -1.144797044026463E-011
  4.900000000000002E-003   -9.997842093132371E-012
  5.000000000000001E-003   -7.607326468792466E-012
  5.100000000000001E-003   -4.332427353943269E-012
  5.200000000000001E-003   -2.997735381023206E-013
  5.300000000000002E-003    4.297776544188365E-012
  5.400000000000001E-003    9.210216526725301E-012
  5.500000000000001E-003    1.414333870827098E-011
  5.600000000000002E-003    1.877452123397934E-011
  5.700000000000001E-003    2.277030706230187E-011
  5.800000000000001E-003    2.580480168267342E-011
  5.900000000000002E-003    2.757814021481073E-011
  6.000000000000001E-003    2.783446188390552E-011
  6.100000000000001E-003    2.637905292697776E-011
  6.200000000000002E-003    2.309437645271243E-011
  6.300000000000002E-003    1.795468324057975E-011
  6.400000000000001E-003    1.103869853370995E-011
  6.500000000000001E-003    2.539575318671103E-012
  6.600000000000002E-003   -7.229075559467670E-012
  6.700000000000001E-003   -1.783258837379087E-011
  6.800000000000001E-003   -2.872176966753170E-011
  6.900000000000002E-003   -3.924821996411891E-011
  7.000000000000001E-003   -4.868973743971578E-011
  7.100000000000001E-003   -5.628640376200363E-011
  7.200000000000002E-003   -6.128691509803760E-011
  7.300000000000002E-003   -6.300340608865120E-011
  7.400000000000001E-003   -6.087168782880539E-011
  7.500000000000001E-003   -5.451244544383049E-011
  7.600000000000002E-003   -4.378795148714118E-011
  7.700000000000001E-003   -2.884815737128279E-011
  7.800000000000001E-003   -1.016020370850233E-011
  7.900000000000001E-003    1.148398657392570E-011
  8.000000000000002E-003    3.498583437574441E-011
  8.100000000000001E-003    5.898569745042850E-011
  8.200000000000001E-003    8.193509987361165E-011
  8.300000000000002E-003    1.021920787821152E-010
  8.400000000000001E-003    1.181335002273722E-010
  8.500000000000002E-003    1.282759555407612E-010
  8.600000000000002E-003    1.313955343855300E-010
  8.700000000000001E-003    1.266360321792936E-010
  8.800000000000002E-003    1.135958894392526E-010
  8.900000000000002E-003    9.238546593349443E-011
  9.000000000000001E-003    6.364901677273319E-011
  9.100000000000002E-003    2.854843108252912E-011
  9.200000000000002E-003   -1.129041632243234E-011
  9.300000000000001E-003   -5.386480624582575E-011
  9.400000000000002E-003   -9.690886793416769E-011
  9.500000000000001E-003   -1.380248247120502E-010
  9.600000000000001E-003   -1.748215753466045E-010
  9.700000000000002E-003   -2.050504525479252E-010
  9.800000000000001E-003   -2.267287913195869E-010
  9.900000000000001E-003   -2.382438061184584E-010
  1.000000000000000E-002   -2.384318870218393E-010
  1.010000000000000E-002   -2.266305128928832E-010
  1.020000000000000E-002   -2.027033307104337E-010
  1.030000000000000E-002   -1.670401845834989E-010
  1.040000000000000E-002   -1.205360705106522E-010
  1.050000000000000E-002   -6.455326572265845E-011
  1.060000000000000E-002   -8.710143381411139E-013
  1.070000000000000E-002    6.837348838873404E-011
  1.080000000000000E-002    1.407502034290805E-010
  1.090000000000000E-002    2.136058273179465E-010
  1.100000000000000E-002    2.841373340223678E-010
  1.110000000000000E-002    3.494694045679994E-010
  1.120000000000000E-002    4.067357873318450E-010
  1.130000000000000E-002    4.531640823349625E-010
  1.140000000000000E-002    4.861624004649841E-010
  1.150000000000000E-002    5.034053189516754E-010
  1.160000000000000E-002    5.029154992322270E-010
  1.170000000000000E-002    4.831362049625379E-010
  1.180000000000000E-002    4.429906044559287E-010
  1.190000000000000E-002    3.819239172726652E-010
  1.200000000000000E-002    2.999265912331391E-010
  1.210000000000000E-002    1.975384430453469E-010
  1.220000000000000E-002    7.583725346967057E-011
  1.230000000000000E-002   -6.358286154458301E-011
  1.240000000000000E-002   -2.186350888516322E-010
  1.250000000000000E-002   -3.867569456690784E-010
  1.260000000000000E-002   -5.649116762359804E-010
  1.270000000000000E-002   -7.495675532737571E-010
  1.280000000000000E-002   -9.366525650915898E-010
  1.290000000000000E-002   -1.121486384330424E-009
  1.300000000000000E-002   -1.298697726010296E-009
  1.310000000000000E-002   -1.462142329419742E-009
  1.320000000000000E-002   -1.604840534297105E-009
  1.330000000000000E-002   -1.718959187745105E-009
  1.340000000000000E-002   -1.795861756120732E-009
  1.350000000000000E-002   -1.826251356196610E-009
  1.360000000000000E-002   -1.800425048228999E-009
  1.370000000000000E-002   -1.708650830605203E-009
  1.380000000000000E-002   -1.541667980166025E-009
  1.390000000000000E-002   -1.291301311114288E-009
  1.400000000000000E-002   -9.511661227525045E-010
  1.410000000000000E-002   -5.174313176576153E-010
  1.420000000000000E-002    1.040086471952879E-011
  1.430000000000000E-002    6.287448970980769E-010
  1.440000000000000E-002    1.329258150352125E-009
  1.450000000000000E-002    2.098286557218144E-009
  1.460000000000000E-002    2.916466366582792E-009
  1.470000000000000E-002    3.758500488588032E-009
  1.480000000000000E-002    4.593126357721719E-009
  1.490000000000000E-002    5.383260438770199E-009
  1.500000000000000E-002    6.086308593538000E-009
  1.510000000000000E-002    6.654603412533451E-009
  1.520000000000000E-002    7.035936650934147E-009
  1.530000000000000E-002    7.174134735267853E-009
  1.540000000000000E-002    7.009641702638260E-009
  1.550000000000000E-002    6.480071764600604E-009
  1.560000000000000E-002    5.520699481589165E-009
  1.570000000000000E-002    4.064874758756729E-009
  1.580000000000000E-002    2.044356145363272E-009
  1.590000000000000E-002   -6.104292909190587E-010
  1.600000000000000E-002   -3.970185322798671E-009
  1.610000000000000E-002   -8.106583859121056E-009
  1.620000000000000E-002   -1.309210947999572E-008
  1.630000000000000E-002   -1.899989875331708E-008
  1.640000000000000E-002   -2.590355162626152E-008
  1.650000000000000E-002   -3.387688929642919E-008
  1.660000000000000E-002   -4.299370110531264E-008
  1.670000000000000E-002   -5.332742058796119E-008
  1.680000000000000E-002   -6.495083320628381E-008
  1.690000000000000E-002   -7.793573646559121E-008
  1.700000000000000E-002   -9.235267499769754E-008
  1.710000000000000E-002   -1.082706988232766E-007
  1.720000000000000E-002   -1.257572429739555E-007
  1.730000000000000E-002   -1.448780497217147E-007
  1.740000000000000E-002   -1.656972893803281E-007
  1.750000000000000E-002   -1.882777437331536E-007
  1.760000000000000E-002   -2.126812101634486E-007
  1.770000000000000E-002   -2.389690101721692E-007
  1.780000000000000E-002   -2.672027470030805E-007
  1.790000000000000E-002   -2.974451164995779E-007
  1.800000000000000E-002   -3.297610799786012E-007
  1.810000000000000E-002   -3.642191227474376E-007
  1.820000000000000E-002   -4.008927759916866E-007
  1.830000000000000E-002   -4.398622815547675E-007
  1.840000000000000E-002   -4.812164574062538E-007
  1.850000000000000E-002   -5.250547935102602E-007
  1.860000000000000E-002   -5.714894968260656E-007
  1.870000000000000E-002   -6.206476058840792E-007