 -4.000000000000000E-002    0.000000000000000E+000
 -3.990000000000000E-002    0.000000000000000E+000
 -3.980000000000000E-002    0.000000000000000E+000
 -3.970000000000000E-002   -5.082153206206566E-014
 -3.960000000000000E-002   -3.052120958120276E-013
 -3.950000000000000E-002   -1.017906861696476E-012
 -3.940000000000000E-002   -2.462465793151714E-012
 -3.930000000000000E-002   -4.763739861714110E-012
 -3.920000000000000E-002   -7.678230036155883E-012
 -3.910000000000000E-002   -1.038132805894205E-011
 -3.900000000000000E-002   -1.133346273255046E-011
 -3.890000000000000E-002   -8.292752485162440E-012
 -3.880000000000000E-002    1.480178445107946E-012
 -3.870000000000000E-002    2.081533457954767E-011
 -3.860000000000000E-002    5.205763407126506E-011
 -3.850000000000000E-002    9.639750469939202E-011
 -3.840000000000000E-002    1.532153553206134E-010
 -3.830000000000000E-002    2.195630977261616E-010
 -3.820000000000000E-002    2.899004942704581E-010
 -3.810000000000000E-002    3.561769675422659E-010
 -3.800000000000000E-002    4.083038921961299E-010
 -3.790000000000000E-002    4.350055010360758E-010
 -3.780000000000000E-002    4.249765169746675E-010
 -3.770000000000000E-002    3.682233079818271E-010
 -3.760000000000000E-002    2.574288632519856E-010
 -3.750000000000000E-002    8.917026086217719E-011
 -3.740000000000000E-002   -1.351713402267817E-010
 -3.730000000000000E-002   -4.089316902106871E-010
 -3.720000000000000E-002   -7.201847609069181E-010
 -3.710000000000000E-002   -1.052270671530984E-009
 -3.700000000000000E-002   -1.384774315042268E-009
 -3.690000000000000E-002   -1.694845922006211E-009
 -3.680000000000000E-002   -1.958721061990349E-009
 -3.670000000000000E-002   -2.153285074696216E-009
 -3.660000000000000E-002   -2.257538035621149E-009
 -3.650000000000000E-002   -2.253847323112622E-009
 -3.640000000000000E-002   -2.128917067372524E-009
 -3.630000000000000E-002   -1.874454399780365E-009
 -3.620000000000000E-002   -1.487556751274232E-009
 -3.610000000000000E-002   -9.708788427482748E-010
 -3.600000000000000E-002   -3.326578919404908E-010
 -3.590000000000000E-002    4.133254291044038E-010
 -3.580000000000000E-002    1.247791523676743E-009
 -3.570000000000000E-002    2.145983140055577E-009
 -3.560000000000000E-002    3.077678677282681E-009
 -3.550000000000000E-002    4.007254199525875E-009
 -3.540000000000000E-002    4.893891336602044E-009
 -3.530000000000000E-002    5.692053263753683E-009
 -3.520000000000000E-002    6.352362179007287E-009
 -3.510000000000000E-002    6.822997566801775E-009
 -3.500000000000000E-002    7.051704994377769E-009
 -3.490000000000000E-002    6.988444051195582E-009
 -3.480000000000000E-002    6.588637905838300E-009
 -3.470000000000000E-002    5.816894673640771E-009
 -3.460000000000000E-002    4.650987111853015E-009
 -3.450000000000000E-002    3.085796280231409E-009
 -3.440000000000000E-002    1.136858814348662E-009
 -3.430000000000000E-002   -1.156873406154759E-009
 -3.420000000000000E-002   -3.731447346584009E-009
 -3.410000000000000E-002   -6.497838533412840E-009
 -3.400000000000000E-002   -9.343641344391126E-009
 -3.390000000000000E-002   -1.213663889596961E-008
 -3.380000000000000E-002   -1.473020858920008E-008
 -3.370000000000000E-002   -1.697034476415212E-008
 -3.360000000000000E-002   -1.870392573275493E-008
 -3.350000000000000E-002   -1.978770118495212E-008
 -3.340000000000000E-002   -2.009739830922159E-008
 -3.330000000000000E-002   -1.953628609735011E-008
 -3.320000000000000E-002   -1.804260265568762E-008
 -3.310000000000000E-002   -1.559529799239599E-008
 -3.300000000000000E-002   -1.221771422868669E-008
 -3.290000000000000E-002   -7.978984873245146E-009
 -3.280000000000000E-002   -2.993100300408023E-009
 -3.270000000000000E-002    2.584222770250488E-009
 -3.260000000000000E-002    8.560623012033541E-009
 -3.250000000000000E-002    1.471378814355445E-008
 -3.240000000000000E-002    2.079938853634630E-008
 -3.230000000000000E-002    2.655989721366121E-008
 -3.220000000000000E-002    3.173398787941016E-008
 -3.210000000000000E-002    3.606627763692548E-008
 -3.200000000000000E-002    3.931722339204761E-008
 -3.190000000000000E-002    4.127305703196564E-008
 -3.180000000000000E-002    4.175561254466976E-008
 -3.170000000000000E-002    4.063191931053318E-008
 -3.160000000000000E-002    3.782329979671714E-008
 -3.150000000000000E-002    3.331371157324657E-008
 -3.140000000000000E-002    2.715691171155535E-008
 -3.130000000000000E-002    1.948198904974573E-008
 -3.120000000000000E-002    1.049674017435700E-008
 -3.110000000000000E-002    4.883986989677035E-010
 -3.100000000000000E-002   -1.017873353001243E-008
 -3.090000000000000E-002   -2.106903458587470E-008
 -3.080000000000000E-002   -3.168483429979898E-008
 -3.070000000000000E-002   -4.147909343185835E-008
 -3.060000000000000E-002   -4.987111701372860E-008
 -3.050000000000000E-002   -5.626467962913101E-008
 -3.040000000000000E-002   -6.006769566593914E-008
 -3.030000000000000E-002   -6.071231173804077E-008
 -3.020000000000000E-002   -5.767419519123935E-008
 -3.010000000000000E-002   -5.048969990020910E-008
 -3.000000000000000E-002   -3.876962574601999E-008
 -2.990000000000000E-002   -2.220842288777939E-008
 -2.980000000000000E-002   -5.879832471708542E-010
 -2.970000000000000E-002    2.622446098029455E-008
 -2.960000000000000E-002    5.828431504681231E-008
 -2.950000000000000E-002    9.558290970934719E-008
 -2.940000000000000E-002    1.380650397492101E-007
 -2.930000000000000E-002    1.856489611196274E-007
 -2.920000000000000E-002    2.382470011625340E-007
 -2.910000000000000E-002    2.957844365019145E-007
 -2.900000000000000E-002    3.582145442822708E-007
 -2.890000000000000E-002    4.255280784096423E-007
 -2.880000000000000E-002    4.977556828230469E-007
 -2.870000000000000E-002    5.749633208688887E-007
 -2.860000000000000E-002    6.572409240190104E-007
 -2.850000000000000E-002    7.446859068059588E-007
 -2.840000000000000E-002    8.373842386845795E-007
 -2.830000000000000E-002    9.353917116559655E-007
 -2.820000000000000E-002    1.038718971419008E-006
 -2.810000000000000E-002    1.147323060522186E-006
 -2.800000000000000E-002    1.261108360288557E-006
 -2.790000000000000E-002    1.379937460816904E-006
 -2.780000000000000E-002    1.503652968008195E-006
 -2.770000000000000E-002    1.632107516384623E-006
 -2.760000000000000E-002    1.765201617385255E-006
 -2.750000000000000E-002    1.902922678304525E-006
 -2.740000000000000E-002    2.045383642285695E-006
 -2.730000000000000E-002    2.192856352612921E-006
 -2.720000000000000E-002    2.345795235752937E-006
 -2.710000000000000E-002    2.504850310119943E-006
 -2.700000000000000E-002    2.670866567405035E-006
 -2.690000000000000E-002    2.844871745460163E-006
 -2.680000000000000E-002    3.028053156808627E-006
 -2.670000000000000E-002    3.221726472039991E-006
 -2.660000000000000E-002    3.427299463240093E-006
 -2.650000000000000E-002    3.646236529506269E-006
 -2.640000000000000E-002    3.880021824592716E-006
 -2.630000000000000E-002    4.130130833343769E-006
 -2.620000000000000E-002    4.398005488397548E-006
 -2.610000000000000E-002    4.685036436386399E-006
 -2.600000000000000E-002    4.992552589836430E-006
 -2.590000000000000E-002    5.321815688464937E-006
 -2.580000000000000E-002    5.674019907063055E-006
 -2.570000000000000E-002    6.050296705103342E-006
 -2.560000000000000E-002    6.451721266048922E-006
 -2.550000000000000E-002    6.879327233902620E-006
 -2.540000000000000E-002    7.334121214008999E-006
 -2.530000000000000E-002    7.817107240196557E-006
 -2.520000000000000E-002    8.329312069096223E-006
 -2.510000000000000E-002    8.871823097472670E-006
 -2.500000000000000E-002    9.445822517017761E-006
 -2.490000000000000E-002    1.005262832193111E-005
 -2.480000000000000E-002    1.069373600001899E-005
 -2.470000000000000E-002    1.137085169839144E-005
 -2.460000000000000E-002    1.208591943027889E-005
 -2.450000000000000E-002    1.284113460533589E-005
 -2.440000000000000E-002    1.363894939347842E-005
 -2.430000000000000E-002    1.448205643371802E-005
 -2.420000000000000E-002    1.537336520253011E-005
 -2.410000000000000E-002    1.631596353228107E-005
 -2.400000000000000E-002    1.731307839658319E-005
 -2.390000000000000E-002    1.836803066711824E-005
 -2.380000000000000E-002    1.948420324666108E-005
 -2.370000000000000E-002    2.066500980153667E-005
 -2.360000000000000E-002    2.191388397383259E-005
 -2.350000000000000E-002    2.323427550500330E-005
 -2.340000000000000E-002    2.462966656880001E-005
 -2.330000000000000E-002    2.610360119337067E-005
 -2.320000000000000E-002    2.765970648590928E-005
 -2.310000000000000E-002    2.930174181240136E-005
 -2.300000000000000E-002    3.103361782116307E-005
 -2.290000000000000E-002    3.285942691534440E-005
 -2.280000000000000E-002    3.478346080973387E-005
 -2.270000000000000E-002    3.681021940946832E-005
 -2.260000000000000E-002    3.894441515227335E-005
 -2.250000000000000E-002    4.119097006839077E-005
 -2.240000000000000E-002    4.355500620191338E-005
 -2.230000000000000E-002    4.604186085125749E-005
 -2.220000000000000E-002    4.865708294247233E-005
 -2.210000000000000E-002    5.140644919110256E-005
 -2.200000000000000E-002    5.429600028488069E-005
 -2.190000000000000E-002    5.733204825548434E-005
 -2.180000000000000E-002    6.052122775651270E-005
 -2.170000000000000E-002    6.387052562833456E-005
 -2.160000000000000E-002    6.738730919630664E-005
 -2.150000000000000E-002    7.107934174866017E-005
 -2.140000000000000E-002    7.495481017799171E-005
 -2.130000000000000E-002    7.902232359839247E-005
 -2.120000000000000E-002    8.329089864891967E-005
 -2.110000000000000E-002    8.776995627945714E-005
 -2.100000000000000E-002    9.246932645495865E-005
 -2.090000000000000E-002    9.739921443221143E-005
 -2.080000000000000E-002    1.025701822060032E-004
 -2.070000000000000E-002    1.079931742530480E-004
 -2.060000000000000E-002    1.136794693534311E-004
 -2.050000000000000E-002    1.196407314990895E-004
 -2.040000000000000E-002    1.258889888643376E-004
 -2.030000000000000E-002    1.324366614739570E-004
 -2.020000000000000E-002    1.392965342483373E-004
 -2.010000000000000E-002    1.464818100270699E-004
 -2.000000000000000E-002    1.540060936685921E-004
 -1.990000000000000E-002    1.618834475757376E-004
 -1.980000000000000E-002    1.701283547923257E-004
 -1.970000000000000E-002    1.787558165543645E-004
 -1.960000000000000E-002    1.877813234301726E-004
 -1.950000000000000E-002    1.972209259065022E-004
 -1.940000000000000E-002    2.070912900680263E-004
 -1.930000000000000E-002    2.174097485806221E-004
 -1.920000000000000E-002    2.281943381405197E-004
 -1.910000000000000E-002    2.394638528095726E-004
 -1.900000000000000E-002    2.512378929822911E-004
 -1.890000000000000E-002    2.635369073727986E-004
 -1.880000000000000E-002    2.763821790515743E-004
 -1.870000000000000E-002    2.897958189564059E-004
 -1.860000000000000E-002    3.038008169895352E-004
 -1.850000000000000E-002    3.184208890785766E-004
 -1.840000000000000E-002    3.336805927744901E-004
 -1.830000000000000E-002    3.496052138445210E-004
 -1.820000000000000E-002    3.662207165513473E-004
 -1.810000000000000E-002    3.835538192934574E-004
 -1.800000000000000E-002    4.016319117021376E-004
 -1.790000000000000E-002    4.204831340648675E-004
 -1.780000000000000E-002    4.401363646360606E-004
 -1.770000000000000E-002    4.606212025213641E-004
 -1.760000000000000E-002    4.819681445544319E-004
 -1.750000000000000E-002    5.042085639818323E-004
 -1.740000000000000E-002    5.273746543084971E-004
 -1.730000000000000E-002    5.514996899631075E-004
 -1.720000000000000E-002    5.766178038454156E-004
 -1.710000000000000E-002    6.027642309871949E-004
 -1.700000000000000E-002    6.299752116897587E-004
 -1.690000000000000E-002    6.582880309003812E-004
 -1.680000000000000E-002    6.877410787591214E-004
 -1.670000000000000E-002    7.183738159138587E-004
 -1.660000000000000E-002    7.502267679092228E-004
 -1.650000000000000E-002    7.833415621294002E-004
 -1.640000000000000E-002    8.177608602821245E-004
 -1.630000000000000E-002    8.535284058269830E-004
 -1.620000000000000E-002    8.906889757231665E-004
 -1.610000000000000E-002    9.292882297749795E-004
 -1.600000000000000E-002    9.693728951731654E-004
 -1.590000000000000E-002    1.010990592939937E-003
 -1.580000000000000E-002    1.054189952823231E-003
 -1.570000000000000E-002    1.099020293669663E-003
 -1.560000000000000E-002    1.145532066373469E-003
 -1.550000000000000E-002    1.193776550304690E-003
 -1.540000000000000E-002    1.243806120114135E-003
 -1.530000000000000E-002    1.295674022148112E-003
 -1.520000000000000E-002    1.349434726145384E-003
 -1.510000000000000E-002    1.405143789275946E-003
 -1.500000000000000E-002    1.462858045699125E-003
 -1.490000000000000E-002    1.522635576511473E-003
 -1.480000000000000E-002    1.584535694073491E-003
 -1.470000000000000E-002    1.648618819166935E-003
 -1.460000000000000E-002    1.714946927396033E-003
 -1.450000000000000E-002    1.783582974451037E-003
 -1.440000000000000E-002    1.854590979428220E-003
 -1.430000000000000E-002    1.928036054730271E-003
 -1.420000000000000E-002    2.003984357983306E-003
 -1.410000000000000E-002    2.082503100552633E-003
 -1.400000000000000E-002    2.163660412527747E-003
 -1.390000000000000E-002    2.247525523197973E-003
 -1.380000000000000E-002    2.334168119148035E-003
 -1.370000000000000E-002    2.423659305026790E-003
 -1.360000000000000E-002    2.516070649100473E-003
 -1.350000000000000E-002    2.611474948455001E-003
 -1.340000000000000E-002    2.709945326779235E-003
 -1.330000000000000E-002    2.811556178990676E-003
 -1.320000000000000E-002    2.916382253004293E-003
 -1.310000000000000E-002    3.024498808689083E-003
 -1.300000000000000E-002    3.135981756316877E-003
 -1.290000000000000E-002    3.250906687995649E-003
 -1.280000000000000E-002    3.369350156815616E-003
 -1.270000000000000E-002    3.491388368779225E-003
 -1.260000000000000E-002    3.617097792675719E-003
 -1.250000000000000E-002    3.746555200582096E-003
 -1.240000000000000E-002    3.879837551268187E-003
 -1.230000000000000E-002    4.017021417114336E-003
 -1.220000000000000E-002    4.158184056259187E-003
 -1.210000000000000E-002    4.303402538764163E-003
 -1.200000000000000E-002    4.452753903789684E-003
 -1.190000000000000E-002    4.606315452110966E-003
 -1.180000000000000E-002    4.764164131710085E-003
 -1.170000000000000E-002    4.926376794260327E-003
 -1.160000000000000E-002    5.093029570679591E-003
 -1.150000000000000E-002    5.264198494590305E-003
 -1.140000000000000E-002    5.439958552807741E-003
 -1.130000000000000E-002    5.620383910151346E-003
 -1.120000000000000E-002    5.805547527125295E-003
 -1.110000000000000E-002    5.995521252466616E-003
 -1.100000000000000E-002    6.190376116670253E-003
 -1.090000000000000E-002    6.390181420285398E-003
 -1.080000000000000E-002    6.595004806425555E-003
 -1.070000000000000E-002    6.804913216429738E-003
 -1.060000000000000E-002    7.019971218768198E-003
 -1.050000000000000E-002    7.240241404570992E-003
 -1.040000000000000E-002    7.465784690955575E-003
 -1.030000000000000E-002    7.696659615820734E-003
 -1.020000000000000E-002    7.932921409866643E-003
 -1.010000000000000E-002    8.174623700459188E-003
 -1.000000000000000E-002    8.421816117076876E-003
 -9.899999999999999E-003    8.674546154084783E-003
 -9.800000000000000E-003    8.932857336924876E-003
 -9.699999999999999E-003    9.196789828633967E-003
 -9.599999999999999E-003    9.466379675086074E-003
 -9.500000000000000E-003    9.741660079321385E-003
 -9.399999999999999E-003    1.002266060742245E-002
 -9.299999999999999E-003    1.030940561649615E-002
 -9.200000000000000E-003    1.060191620370719E-002
 -9.099999999999999E-003    1.090020805118056E-002
 -8.999999999999999E-003    1.120429424448224E-002
 -8.900000000000000E-003    1.151418128453275E-002
 -8.799999999999999E-003    1.182987129088323E-002
 -8.699999999999999E-003    1.215136099458816E-002
 -8.600000000000000E-003    1.247864176657317E-002
 -8.499999999999999E-003    1.281169964213461E-002
 -8.399999999999999E-003    1.315051341549920E-002
 -8.300000000000000E-003    1.349505664221096E-002
 -8.199999999999999E-003    1.384529501814913E-002
 -8.100000000000000E-003    1.420118983482016E-002
 -8.000000000000000E-003    1.456269366107967E-002
 -7.899999999999999E-003    1.492975321245542E-002
 -7.800000000000000E-003    1.530230774634543E-002
 -7.699999999999999E-003    1.568028706985853E-002
 -7.599999999999999E-003    1.606361565373679E-002
 -7.499999999999999E-003    1.645220683344416E-002
 -7.399999999999999E-003    1.684596751709230E-002
 -7.299999999999999E-003    1.724479525049607E-002
 -7.199999999999999E-003    1.764857729805662E-002
 -7.100000000000000E-003    1.805719237526494E-002
 -6.999999999999999E-003    1.847051011308060E-002
 -6.899999999999999E-003    1.888838785558231E-002
 -6.800000000000000E-003    1.931067502097358E-002
 -6.699999999999999E-003    1.973720977706175E-002
 -6.599999999999999E-003    2.016781944608700E-002
 -6.499999999999999E-003    2.060231976926810E-002
 -6.399999999999999E-003    2.104051826544283E-002
 -6.299999999999999E-003    2.148220834002161E-002
 -6.199999999999999E-003    2.192717511962006E-002
 -6.100000000000000E-003    2.237518920775620E-002
 -5.999999999999999E-003    2.282601112698126E-002
 -5.899999999999999E-003    2.327938791150471E-002
 -5.800000000000000E-003    2.373505622127579E-002
 -5.699999999999999E-003    2.419273919230800E-002
 -5.599999999999999E-003    2.465214669451867E-002
 -5.499999999999999E-003    2.511297534469400E-002
 -5.399999999999999E-003    2.557490941163339E-002
 -5.299999999999999E-003    2.603762020965484E-002
 -5.199999999999999E-003    2.650076318858430E-002
 -5.099999999999999E-003    2.696398439369015E-002
 -4.999999999999999E-003    2.742691259066087E-002
 -4.899999999999999E-003    2.788916294726015E-002
 -4.799999999999999E-003    2.835033843088693E-002
 -4.699999999999999E-003    2.881002471651956E-002
 -4.599999999999999E-003    2.926779773501986E-002
 -4.499999999999999E-003    2.972321429362465E-002
 -4.399999999999999E-003    3.017581813839174E-002
 -4.299999999999999E-003    3.062513853747683E-002
 -4.199999999999999E-003    3.107069024092688E-002
 -4.099999999999999E-003    3.151197112636388E-002
 -3.999999999999999E-003    3.194846680535427E-002
 -3.899999999999999E-003    3.237964863212425E-002
 -3.799999999999999E-003    3.280496681044825E-002
 -3.699999999999999E-003    3.322386216537042E-002
 -3.599999999999999E-003    3.363576065409310E-002
 -3.499999999999999E-003    3.404007361534891E-002
 -3.399999999999999E-003    3.443619222843314E-002
 -3.299999999999999E-003    3.482349973040225E-002
 -3.199999999999999E-003    3.520135704590627E-002
 -3.099999999999999E-003    3.556911684414517E-002
 -2.999999999999999E-003    3.592611416332728E-002
 -2.899999999999999E-003    3.627167303695484E-002
 -2.799999999999999E-003    3.660509907759442E-002
 -2.699999999999999E-003    3.692568287926805E-002
 -2.599999999999999E-003    3.723270705880989E-002
 -2.499999999999999E-003    3.752543675910057E-002
 -2.399999999999999E-003    3.780312316043629E-002
 -2.299999999999999E-003    3.806500717871699E-002
 -2.199999999999999E-003    3.831031908453896E-002
 -2.099999999999999E-003    3.853827226933221E-002
 -1.999999999999999E-003    3.874806880319863E-002
 -1.899999999999999E-003    3.893890003609675E-002
 -1.799999999999999E-003    3.910994431814312E-002
 -1.699999999999999E-003    3.926037417971506E-002
 -1.599999999999999E-003    3.938934412157153E-002
 -1.499999999999999E-003    3.949599918836603E-002
 -1.399999999999999E-003    3.957948099394357E-002
 -1.299999999999999E-003    3.963891744428043E-002
 -1.199999999999999E-003    3.967342695378536E-002
 -1.099999999999999E-003    3.968211942975609E-002
 -9.999999999999989E-004    3.966410161038725E-002
 -8.999999999999990E-004    3.961847037720340E-002
 -7.999999999999990E-004    3.954431706950574E-002
 -6.999999999999989E-004    3.944072347572648E-002
 -5.999999999999990E-004    3.930677432283892E-002
 -4.999999999999989E-004    3.914153876834344E-002
 -3.999999999999989E-004    3.894408915099414E-002
 -2.999999999999989E-004    3.871349542105821E-002
 -1.999999999999989E-004    3.844882002118259E-002
 -9.999999999999892E-005    3.814912876259519E-002
  1.084202172485504E-018    3.781348280059500E-002
  1.000000000000011E-004    3.744094908782854E-002
  2.000000000000011E-004    3.703058907046711E-002
  3.000000000000011E-004    3.658146998919967E-002
  4.000000000000011E-004    3.609266108894402E-002
  5.000000000000011E-004    3.556323469377103E-002
  6.000000000000011E-004    3.499226747118028E-002
  7.000000000000011E-004    3.437884359292906E-002
  8.000000000000011E-004    3.372205150078873E-002
  9.000000000000012E-004    3.302098922953144E-002
  1.000000000000001E-003    3.227476292143550E-002
  1.100000000000001E-003    3.148248615275532E-002
  1.200000000000001E-003    3.064328602628107E-002
  1.300000000000001E-003    2.975629655715691E-002
  1.400000000000001E-003    2.882066932815302E-002
  1.500000000000001E-003    2.783556705622503E-002
  1.600000000000001E-003    2.680016770400773E-002
  1.700000000000001E-003    2.571366565229423E-002
  1.800000000000001E-003    2.457527030496431E-002
  1.900000000000001E-003    2.338421523603108E-002
  2.000000000000001E-003    2.213974733921357E-002
  2.100000000000001E-003    2.084113858695022E-002
  2.200000000000001E-003    1.948767970645719E-002
  2.300000000000001E-003    1.807868647137315E-002
  2.400000000000001E-003    1.661349630562763E-002
  2.500000000000001E-003    1.509147368773902E-002
  2.600000000000001E-003    1.351200852503495E-002
  2.700000000000001E-003    1.187451840574136E-002
  2.800000000000001E-003    1.017844919513352E-002
  2.900000000000001E-003    8.423277606863844E-003
  3.000000000000001E-003    6.608509662392039E-003
  3.100000000000001E-003    4.733685679628145E-003
  3.200000000000001E-003    2.798377568804580E-003
  3.300000000000001E-003    8.021927609053797E-004
  3.400000000000001E-003   -1.255226761195823E-003
  3.500000000000001E-003   -3.374199999709142E-003
  3.600000000000001E-003   -5.555011744867978E-003
  3.700000000000001E-003   -7.797904523385333E-003
  3.800000000000001E-003   -1.010308212906306E-002
  3.900000000000001E-003   -1.247070520919642E-002
  4.000000000000001E-003   -1.490089609762346E-002
  4.100000000000001E-003   -1.739372963974808E-002
  4.200000000000001E-003   -1.994923812425931E-002
  4.300000000000001E-003   -2.256740871367075E-002
  4.400000000000001E-003   -2.524817989428387E-002
  4.500000000000001E-003   -2.799144490700234E-002
  4.600000000000002E-003   -3.079704697142949E-002
  4.700000000000001E-003   -3.366477848811840E-002
  4.800000000000001E-003   -3.659438413593099E-002
  4.900000000000002E-003   -3.958555451044043E-002
  5.000000000000001E-003   -4.263793087512592E-002
  5.100000000000001E-003   -4.575110704559433E-002
  5.200000000000001E-003   -4.892461523744658E-002
  5.300000000000002E-003   -5.215793584193052E-002
  5.400000000000001E-003   -5.545049969415079E-002
  5.500000000000001E-003   -5.880167250380774E-002
  5.600000000000002E-003   -6.221077377930363E-002
  5.700000000000001E-003   -6.567706586997284E-002
  5.800000000000001E-003   -6.919974915548079E-002
  5.900000000000002E-003   -7.277797498720402E-002
  6.000000000000001E-003   -7.641082713910441E-002
  6.100000000000001E-003   -8.009733704145426E-002
  6.200000000000002E-003   -8.383648492390793E-002
  6.300000000000002E-003   -8.762717858045001E-002
  6.400000000000001E-003   -9.146827336809131E-002
  6.500000000000001E-003   -9.535857416580169E-002
  6.600000000000002E-003   -9.929681474583585E-002
  6.700000000000001E-003   -0.103281675259569     
  6.800000000000001E-003   -0.107311777242839     
  6.900000000000002E-003   -0.111385682884809     
  7.000000000000001E-003   -0.115501904034124     
  7.100000000000001E-003   -0.119658881678017     
  7.200000000000002E-003   -0.123854998959953     
  7.300000000000002E-003   -0.128088598185017     
  7.400000000000001E-003   -0.132357943882947     
  7.500000000000001E-003   -0.136661256027654     
  7.600000000000002E-003   -0.140996696019804     
  7.700000000000001E-003   -0.145362364826886     
  7.800000000000001E-003   -0.149756311039251     
  7.900000000000001E-003   -0.154176542175185     
  8.000000000000002E-003   -0.158620995854051     
  8.100000000000001E-003   -0.163087563349811     
  8.200000000000001E-003   -0.167574086355096     
  8.300000000000002E-003   -0.172078342976918     
  8.400000000000001E-003   -0.176598078666387     
  8.500000000000002E-003   -0.181130988449034     
  8.600000000000002E-003   -0.185674720709063     
  8.700000000000001E-003   -0.190226862407366     
  8.800000000000002E-003   -0.194784974145884     
  8.900000000000002E-003   -0.199346572824436     
  9.000000000000001E-003   -0.203909111475372     
  9.100000000000002E-003   -0.208470032907869     
  9.200000000000002E-003   -0.213026726168379     
  9.300000000000001E-003   -0.217576544343828     
  9.400000000000002E-003   -0.222116819909372     
  9.500000000000001E-003   -0.226644826533225     
  9.600000000000001E-003   -0.231157833414935     
  9.700000000000002E-003   -0.235653072023025     
  9.800000000000001E-003   -0.240127708601354     
  9.900000000000001E-003   -0.244578953680326     
  1.000000000000000E-002   -0.249003949293150     
  1.010000000000000E-002   -0.253399805863033     
  1.020000000000000E-002   -0.257763646272728     
  1.030000000000000E-002   -0.262092551163217     
  1.040000000000000E-002   -0.266383605721690     
  1.050000000000000E-002   -0.270633851243762     
  1.060000000000000E-002   -0.274840366062932     
  1.070000000000000E-002   -0.279000195741588     
  1.080000000000000E-002   -0.283110368822684     
  1.090000000000000E-002   -0.287167928755456     
  1.100000000000000E-002   -0.291169906534957     
  1.110000000000000E-002   -0.295113339089344     
  1.120000000000000E-002   -0.298995269073179     
  1.130000000000000E-002   -0.302812756961661     
  1.140000000000000E-002   -0.306562835481700     
  1.150000000000000E-002   -0.310242584487291     
  1.160000000000000E-002   -0.313849097964649     
  1.170000000000000E-002   -0.317379474859537     
  1.180000000000000E-002   -0.320830815558349     
  1.190000000000000E-002   -0.324200277855274     
  1.200000000000000E-002   -0.327485047873348     
  1.210000000000000E-002   -0.330682283153215     
  1.220000000000000E-002   -0.333789237901410     
  1.230000000000000E-002   -0.336803181346419     
  1.240000000000000E-002   -0.339721373514609     
  1.250000000000000E-002   -0.342541163671421     
  1.260000000000000E-002   -0.345259946479584     
  1.270000000000000E-002   -0.347875103299411     
  1.280000000000000E-002   -0.350384104653220     
  1.290000000000000E-002   -0.352784481538601     
  1.300000000000000E-002   -0.355073788716461     
  1.310000000000000E-002   -0.357249633890108     
  1.320000000000000E-002   -0.359309692679986     
  1.330000000000000E-002   -0.361251694699199     
  1.340000000000000E-002   -0.363073434195652     
  1.350000000000000E-002   -0.364772744499221     
  1.360000000000000E-002   -0.366347568226909     
  1.370000000000000E-002   -0.367795910421047     
  1.380000000000000E-002   -0.369115791171921     
  1.390000000000000E-002   -0.370305354131573     
  1.400000000000000E-002   -0.371362798545164     
  1.410000000000000E-002   -0.372286405497566     
  1.420000000000000E-002   -0.373074541756247     
  1.430000000000000E-002   -0.373725630500617     
  1.440000000000000E-002   -0.374238192605852     
  1.450000000000000E-002   -0.374610827295898     
  1.460000000000000E-002   -0.374842240741722     
  1.470000000000000E-002   -0.374931200038950     
  1.480000000000000E-002   -0.374876565541769     
  1.490000000000000E-002   -0.374677293586830     
  1.500000000000000E-002   -0.374332404681985     
  1.510000000000000E-002   -0.373841076807063     
  1.520000000000000E-002   -0.373202504157912     
  1.530000000000000E-002   -0.372416037679243     
  1.540000000000000E-002   -0.371481087226920     
  1.550000000000000E-002   -0.370397196405544     
  1.560000000000000E-002   -0.369163958412762     
  1.570000000000000E-002   -0.367781102585206     
  1.580000000000000E-002   -0.366248431074868     
  1.590000000000000E-002   -0.364565884945219     
  1.600000000000000E-002   -0.362733481854785     
  1.610000000000000E-002   -0.360751323864775     
  1.620000000000000E-002   -0.358619639058789     
  1.630000000000000E-002   -0.356338760803132     
  1.640000000000000E-002   -0.353909094305690     
  1.650000000000000E-002   -0.351331189819745     
  1.660000000000000E-002   -0.348605657911257     
  1.670000000000000E-002   -0.345733232864580     
  1.680000000000000E-002   -0.342714750861950     
  1.690000000000000E-002   -0.339551115856381     
  1.700000000000000E-002   -0.336243378385489     
  1.710000000000000E-002   -0.332792663006219     
  1.720000000000000E-002   -0.329200195365316     
  1.730000000000000E-002   -0.325467311751794     
  1.740000000000000E-002   -0.321595435518753     
  1.750000000000000E-002   -0.317586079966964     
  1.760000000000000E-002   -0.313440875406474     
  1.770000000000000E-002   -0.309161520298273     
  1.780000000000000E-002   -0.304749825583070     
  1.790000000000000E-002   -0.300207668580580     
  1.800000000000000E-002   -0.295537051295512     
  1.810000000000000E-002   -0.290740021177075     
  1.820000000000000E-002   -0.285818759581871     
  1.830000000000000E-002   -0.280775508353666     
  1.840000000000000E-002   -0.275612582517870     
  1.850000000000000E-002   -0.270332386233463     
  1.860000000000000E-002   -0.264937423973440     
  1.870000000000000E-002   -0.259430240414995     