 -4.000000000000000E-002    0.000000000000000E+000
 -3.990000000000000E-002    0.000000000000000E+000
 -3.980000000000000E-002    0.000000000000000E+000
 -3.970000000000000E-002    0.000000000000000E+000
 -3.960000000000000E-002    0.000000000000000E+000
 -3.950000000000000E-002    0.000000000000000E+000
 -3.940000000000000E-002    0.000000000000000E+000
 -3.930000000000000E-002    0.000000000000000E+000
 -3.920000000000000E-002    0.000000000000000E+000
 -3.910000000000000E-002    0.000000000000000E+000
 -3.900000000000000E-002    0.000000000000000E+000
 -3.890000000000000E-002    0.000000000000000E+000
 -3.880000000000000E-002    0.000000000000000E+000
 -3.870000000000000E-002    2.149601552665683E-040
 -3.860000000000000E-002    5.011783951230234E-039
 -3.850000000000000E-002    5.924442958537379E-038
 -3.840000000000000E-002    4.719356322642819E-037
 -3.830000000000000E-002    2.838074757906018E-036
 -3.820000000000000E-002    1.366432294128295E-035
 -3.810000000000000E-002    5.440502814092134E-035
 -3.800000000000000E-002    1.817993924936344E-034
 -3.790000000000000E-002    5.081453691334088E-034
 -3.780000000000000E-002    1.146104900473749E-033
 -3.770000000000000E-002    1.804826575370003E-033
 -3.760000000000000E-002    2.888238290776888E-034
 -3.750000000000000E-002   -1.178806608301694E-032
 -3.740000000000000E-002   -5.926373143541334E-032
 -3.730000000000000E-002   -2.046018907019544E-031
 -3.720000000000000E-002   -5.855650979419270E-031
 -3.710000000000000E-002   -1.471293647580115E-030
 -3.700000000000000E-002   -3.324826949282089E-030
 -3.690000000000000E-002   -6.827702169003771E-030
 -3.680000000000000E-002   -1.276294551672308E-029
 -3.670000000000000E-002   -2.156456689747043E-029
 -3.660000000000000E-002   -3.224081646075786E-029
 -3.650000000000000E-002   -4.031552043659925E-029
 -3.640000000000000E-002   -3.450846988271715E-029
 -3.630000000000000E-002    7.750932434043249E-030
 -3.620000000000000E-002    1.250210038505220E-028
 -3.610000000000000E-002    3.742977250126226E-028
 -3.600000000000000E-002    8.266337477171009E-028
 -3.590000000000000E-002    1.548983845019776E-027
 -3.580000000000000E-002    2.563711703094704E-027
 -3.570000000000000E-002    3.777999197740123E-027
 -3.560000000000000E-002    4.880958167567126E-027
 -3.550000000000000E-002    5.219001772870806E-027
 -3.540000000000000E-002    3.681476965089088E-027
 -3.530000000000000E-002   -1.342423131292749E-027
 -3.520000000000000E-002   -1.184359624683845E-026
 -3.510000000000000E-002   -2.979721985564199E-026
 -3.500000000000000E-002   -5.638669093530637E-026
 -3.490000000000000E-002   -9.080211155952220E-026
 -3.480000000000000E-002   -1.286991855825884E-025
 -3.470000000000000E-002   -1.606138143091494E-025
 -3.460000000000000E-002   -1.708946576494987E-025
 -3.450000000000000E-002   -1.379777874111877E-025
 -3.440000000000000E-002   -3.697122892770016E-026
 -3.430000000000000E-002    1.546122228719339E-025
 -3.420000000000000E-002    4.477045642595035E-025
 -3.410000000000000E-002    8.299755045387916E-025
 -3.400000000000000E-002    1.254101291557634E-024
 -3.390000000000000E-002    1.630508925828776E-024
 -3.380000000000000E-002    1.830792001342049E-024
 -3.370000000000000E-002    1.708534950406015E-024
 -3.360000000000000E-002    1.142540099477530E-024
 -3.350000000000000E-002    1.023675399936298E-025
 -3.340000000000000E-002   -1.272938668880055E-024
 -3.330000000000000E-002   -2.604565986913757E-024
 -3.320000000000000E-002   -3.247561322676543E-024
 -3.310000000000000E-002   -2.354863979984413E-024
 -3.300000000000000E-002    9.197354669536137E-025
 -3.290000000000000E-002    7.045490331614892E-024
 -3.280000000000000E-002    1.556861048393375E-023
 -3.270000000000000E-002    2.446305454218887E-023
 -3.260000000000000E-002    2.953212773622557E-023
 -3.250000000000000E-002    2.411163437476126E-023
 -3.240000000000000E-002   -5.928903317811376E-025
 -3.230000000000000E-002   -5.417252980875437E-023
 -3.220000000000000E-002   -1.443875176390519E-022
 -3.210000000000000E-002   -2.731495844437264E-022
 -3.200000000000000E-002   -4.313782514407391E-022
 -3.190000000000000E-002   -5.935056208256446E-022
 -3.180000000000000E-002   -7.130064388874777E-022
 -3.170000000000000E-002   -7.209008978262952E-022
 -3.160000000000000E-002   -5.295401704889270E-022
 -3.150000000000000E-002   -4.392033675735812E-023
 -3.140000000000000E-002    8.179431128126292E-022
 -3.130000000000000E-002    2.095565715957045E-021
 -3.120000000000000E-002    3.749794222627939E-021
 -3.110000000000000E-002    5.625171754829130E-021
 -3.100000000000000E-002    7.419352679426026E-021
 -3.090000000000000E-002    8.670723989809490E-021
 -3.080000000000000E-002    8.776614478604396E-021
 -3.070000000000000E-002    7.053294713585012E-021
 -3.060000000000000E-002    2.844586240619886E-021
 -3.050000000000000E-002   -4.322120374365279E-021
 -3.040000000000000E-002   -1.454491800081600E-020
 -3.030000000000000E-002   -2.734726554367085E-020
 -3.020000000000000E-002   -4.150753615774779E-020
 -3.010000000000000E-002   -5.496682559005573E-020
 -3.000000000000000E-002   -6.486650692774729E-020
 -2.990000000000000E-002   -6.775984975669776E-020
 -2.980000000000000E-002   -6.002263492803837E-020
 -2.970000000000000E-002   -3.845607942447800E-020
 -2.960000000000000E-002   -1.033968662532558E-021
 -2.950000000000000E-002    5.229930720545590E-020
 -2.940000000000000E-002    1.189137954933854E-019
 -2.930000000000000E-002    1.930220867189039E-019
 -2.920000000000000E-002    2.656116108771410E-019
 -2.910000000000000E-002    3.249116699899547E-019
 -2.900000000000000E-002    3.574593201800454E-019
 -2.890000000000000E-002    3.497341004305391E-019
 -2.880000000000000E-002    2.902168206029563E-019
 -2.870000000000000E-002    1.716177971755644E-019
 -2.860000000000000E-002   -7.064062166635491E-021
 -2.850000000000000E-002   -2.390235917005866E-019
 -2.840000000000000E-002   -5.090089033856777E-019
 -2.830000000000000E-002   -7.937815347770836E-019
 -2.820000000000000E-002   -1.063723559782448E-018
 -2.810000000000000E-002   -1.285424143559588E-018
 -2.800000000000000E-002   -1.424872733459057E-018
 -2.790000000000000E-002   -1.450741854699473E-018
 -2.780000000000000E-002   -1.337214919747656E-018
 -2.770000000000000E-002   -1.065929001088289E-018
 -2.760000000000000E-002   -6.268678901885959E-019
 -2.750000000000000E-002   -1.841783292461191E-020
 -2.740000000000000E-002    7.528069179260186E-019
 -2.730000000000000E-002    1.671450195441259E-018
 -2.720000000000000E-002    2.711210482897095E-018
 -2.710000000000000E-002    3.830201183185086E-018
 -2.700000000000000E-002    4.963768549796783E-018
 -2.690000000000000E-002    6.015676655851119E-018
 -2.680000000000000E-002    6.849785772079157E-018
 -2.670000000000000E-002    7.285528538973706E-018
 -2.660000000000000E-002    7.101293539858888E-018
 -2.650000000000000E-002    6.049835972682897E-018
 -2.640000000000000E-002    3.888806339577289E-018
 -2.630000000000000E-002    4.272056665164068E-019
 -2.620000000000000E-002   -4.414867603724266E-018
 -2.610000000000000E-002   -1.053998017964164E-017
 -2.600000000000000E-002   -1.761170630628259E-017
 -2.590000000000000E-002   -2.501196673897766E-017
 -2.580000000000000E-002   -3.183319408900337E-017
 -2.570000000000000E-002   -3.691969569174387E-017
 -2.560000000000000E-002   -3.896765695809781E-017
 -2.550000000000000E-002   -3.668479664414734E-017
 -2.540000000000000E-002   -2.899951301521194E-017
 -2.530000000000000E-002   -1.529701462192597E-017
 -2.520000000000000E-002    4.351568143423089E-018
 -2.510000000000000E-002    2.900884671200987E-017
 -2.500000000000000E-002    5.678333890145775E-017
 -2.490000000000000E-002    8.487173220723907E-017
 -2.480000000000000E-002    1.097543282045125E-016
 -2.470000000000000E-002    1.275447385627826E-016
 -2.460000000000000E-002    1.344674817701047E-016
 -2.450000000000000E-002    1.274098977573734E-016
 -2.440000000000000E-002    1.044714996573088E-016
 -2.430000000000000E-002    6.542097227683897E-017
 -2.420000000000000E-002    1.197296737865471E-017
 -2.410000000000000E-002   -5.218480197260918E-017
 -2.400000000000000E-002   -1.216487364098811E-016
 -2.390000000000000E-002   -1.898288008630228E-016
 -2.380000000000000E-002   -2.496873904873743E-016
 -2.370000000000000E-002   -2.945785489624636E-016
 -2.360000000000000E-002   -3.190494872677279E-016
 -2.350000000000000E-002   -3.194611406899670E-016
 -2.340000000000000E-002   -2.943089698232611E-016
 -2.330000000000000E-002   -2.441798478910235E-016
 -2.320000000000000E-002   -1.713570106623531E-016
 -2.310000000000000E-002   -7.916990180215340E-017
 -2.300000000000000E-002    2.873913835591485E-017
 -2.290000000000000E-002    1.490126892691226E-016
 -2.280000000000000E-002    2.788217715878225E-016
 -2.270000000000000E-002    4.155912113815664E-016
 -2.260000000000000E-002    5.561529088672238E-016
 -2.250000000000000E-002    6.954234180672752E-016
 -2.240000000000000E-002    8.248692255431288E-016
 -2.230000000000000E-002    9.311673805289444E-016
 -2.220000000000000E-002    9.955558356271443E-016
 -2.210000000000000E-002    9.943612961451770E-016
 -2.200000000000000E-002    9.010692446864116E-016
 -2.190000000000000E-002    6.900618082904949E-016
 -2.180000000000000E-002    3.418172564625582E-016
 -2.170000000000000E-002   -1.510128342736626E-016
 -2.160000000000000E-002   -7.775862537780774E-016
 -2.150000000000000E-002   -1.504102168473346E-015
 -2.140000000000000E-002   -2.271549013583438E-015
 -2.130000000000000E-002   -2.997080176250259E-015
 -2.120000000000000E-002   -3.579727615787518E-015
 -2.110000000000000E-002   -3.910544155615737E-015
 -2.100000000000000E-002   -3.886490716591187E-015
 -2.090000000000000E-002   -3.426588529499359E-015
 -2.080000000000000E-002   -2.488176046273545E-015
 -2.070000000000000E-002   -1.080682621117176E-015
 -2.060000000000000E-002    7.257001233287239E-016
 -2.050000000000000E-002    2.798658643475790E-015
 -2.040000000000000E-002    4.951056303221431E-015
 -2.030000000000000E-002    6.957014818972355E-015
 -2.020000000000000E-002    8.575504155996269E-015
 -2.010000000000000E-002    9.578793515281790E-015
 -2.000000000000000E-002    9.782043715402602E-015
 -1.990000000000000E-002    9.069770909998092E-015
 -1.980000000000000E-002    7.415021486569885E-015
 -1.970000000000000E-002    4.887970093077060E-015
 -1.960000000000000E-002    1.652135449967642E-015
 -1.950000000000000E-002   -2.051640042542389E-015
 -1.940000000000000E-002   -5.931246518128607E-015
 -1.930000000000000E-002   -9.675414938622666E-015
 -1.920000000000000E-002   -1.298672020847607E-014
 -1.910000000000000E-002   -1.561005823561911E-014
 -1.900000000000000E-002   -1.735198553212170E-014
 -1.890000000000000E-002   -1.808802844225574E-014
 -1.880000000000000E-002   -1.775760672731135E-014
 -1.870000000000000E-002   -1.634893515175713E-014
 -1.860000000000000E-002   -1.387872067075396E-014
 -1.850000000000000E-002   -1.037316073018739E-014
 -1.840000000000000E-002   -5.857044983082378E-015
 -1.830000000000000E-002   -3.565606085127380E-016
 -1.820000000000000E-002    6.081285714989330E-015
 -1.810000000000000E-002    1.335360186461169E-014
 -1.800000000000000E-002    2.125624314666819E-014
 -1.790000000000000E-002    2.943748036113266E-014
 -1.780000000000000E-002    3.736288928524383E-014
 -1.770000000000000E-002    4.430432379269961E-014
 -1.760000000000000E-002    4.936410901192119E-014
 -1.750000000000000E-002    5.154111363616746E-014
 -1.740000000000000E-002    4.983883285536401E-014
 -1.730000000000000E-002    4.340751692536362E-014
 -1.720000000000000E-002    3.170450190917494E-014
 -1.710000000000000E-002    1.465034281030916E-014
 -1.700000000000000E-002   -7.245498001246587E-015
 -1.690000000000000E-002   -3.281523974129975E-014
 -1.680000000000000E-002   -6.024101783635564E-014
 -1.670000000000000E-002   -8.715313632869755E-014
 -1.660000000000000E-002   -1.108183409050464E-013
 -1.650000000000000E-002   -1.284046873964726E-013
 -1.640000000000000E-002   -1.372958734498641E-013
 -1.630000000000000E-002   -1.354176111553034E-013
 -1.620000000000000E-002   -1.215329631178327E-013
 -1.610000000000000E-002   -9.546392214474070E-014
 -1.600000000000000E-002   -5.820377557733519E-014
 -1.590000000000000E-002   -1.189809697725656E-014
 -1.580000000000000E-002    4.031003525500118E-014
 -1.570000000000000E-002    9.455573476363182E-014
 -1.560000000000000E-002    1.466158634747901E-013
 -1.550000000000000E-002    1.923132753911204E-013
 -1.540000000000000E-002    2.279085958770616E-013
 -1.530000000000000E-002    2.504267149279190E-013
 -1.520000000000000E-002    2.578767935715405E-013
 -1.510000000000000E-002    2.493413769399668E-013
 -1.500000000000000E-002    2.249327574112477E-013
 -1.490000000000000E-002    1.856376701087117E-013
 -1.480000000000000E-002    1.330916139174128E-013
 -1.470000000000000E-002    6.933624350848888E-014
 -1.460000000000000E-002   -3.383018742195460E-015
 -1.450000000000000E-002   -8.273148380338411E-014
 -1.440000000000000E-002   -1.662820426952356E-013
 -1.430000000000000E-002   -2.513924379427191E-013
 -1.420000000000000E-002   -3.349904407409122E-013
 -1.410000000000000E-002   -4.133229077368084E-013
 -1.400000000000000E-002   -4.817456574062612E-013
 -1.390000000000000E-002   -5.346379876734292E-013
 -1.380000000000000E-002   -5.655182932927225E-013
 -1.370000000000000E-002   -5.674135818988056E-013
 -1.360000000000000E-002   -5.334968392200206E-013
 -1.350000000000000E-002   -4.579578047288847E-013
 -1.340000000000000E-002   -3.370247400692325E-013
 -1.330000000000000E-002   -1.700109310314472E-013
 -1.320000000000000E-002    3.976995967773176E-014
 -1.310000000000000E-002    2.843817979952362E-013
 -1.300000000000000E-002    5.510828292536801E-013
 -1.290000000000000E-002    8.226824953304535E-013
 -1.280000000000000E-002    1.078481359580922E-012
 -1.270000000000000E-002    1.295750802695313E-012
 -1.260000000000000E-002    1.451641766638702E-012
 -1.250000000000000E-002    1.525331666852652E-012
 -1.240000000000000E-002    1.500181197641532E-012
 -1.230000000000000E-002    1.365647038718505E-012
 -1.220000000000000E-002    1.118720532113099E-012
 -1.210000000000000E-002    7.647119949405278E-013
 -1.200000000000000E-002    3.172836354707813E-013
 -1.190000000000000E-002   -2.022726536659371E-013
 -1.180000000000000E-002   -7.664130692229384E-013
 -1.170000000000000E-002   -1.343195403883367E-012
 -1.160000000000000E-002   -1.898370797078953E-012
 -1.150000000000000E-002   -2.397467985147984E-012
 -1.140000000000000E-002   -2.807642052099610E-012
 -1.130000000000000E-002   -3.099149292971491E-012
 -1.120000000000000E-002   -3.246377311936258E-012
 -1.110000000000000E-002   -3.228498529170634E-012
 -1.100000000000000E-002   -3.029884183531181E-012
 -1.090000000000000E-002   -2.640499015650092E-012
 -1.080000000000000E-002   -2.056495343009670E-012
 -1.070000000000000E-002   -1.281191045064038E-012
 -1.060000000000000E-002   -3.265037021602300E-013
 -1.050000000000000E-002    7.852251067462212E-013
 -1.040000000000000E-002    2.019252435792721E-012
 -1.030000000000000E-002    3.326705817354836E-012
 -1.020000000000000E-002    4.643596276425354E-012
 -1.010000000000000E-002    5.891142354692881E-012
 -1.000000000000000E-002    6.977866435130293E-012
 -9.899999999999999E-003    7.803811981418972E-012
 -9.800000000000000E-003    8.266949920069245E-012
 -9.699999999999999E-003    8.271534017754649E-012
 -9.599999999999999E-003    7.737822425580202E-012
 -9.500000000000000E-003    6.612279181471136E-012
 -9.399999999999999E-003    4.877136459377341E-012
 -9.299999999999999E-003    2.558108920308758E-012
 -9.200000000000000E-003   -2.708834005208294E-013
 -9.099999999999999E-003   -3.486920349955297E-012
 -8.999999999999999E-003   -6.921724603932838E-012
 -8.900000000000000E-003   -1.036984412278030E-011
 -8.799999999999999E-003   -1.360086778723086E-011
 -8.699999999999999E-003   -1.637473827378888E-011
 -8.600000000000000E-003   -1.845883715018079E-011
 -8.499999999999999E-003   -1.964523982005610E-011
 -8.399999999999999E-003   -1.976659142993264E-011
 -8.300000000000000E-003   -1.870919566914383E-011
 -8.199999999999999E-003   -1.642228494661328E-011
 -8.100000000000000E-003   -1.292293016095607E-011
 -8.000000000000000E-003   -8.296591765966830E-012
 -7.899999999999999E-003   -2.693775662328125E-012
 -7.800000000000000E-003    3.676354562862031E-012
 -7.699999999999999E-003    1.055443917160620E-011
 -7.599999999999999E-003    1.764042749237707E-011
 -7.499999999999999E-003    2.460341387300859E-011
 -7.399999999999999E-003    3.109141009576724E-011
 -7.299999999999999E-003    3.674114392216328E-011
 -7.199999999999999E-003    4.118831267033404E-011
 -7.100000000000000E-003    4.407902243714866E-011
 -6.999999999999999E-003    4.508320881311621E-011
 -6.899999999999999E-003    4.391056754044109E-011
 -6.800000000000000E-003    4.032916375831438E-011
 -6.699999999999999E-003    3.418623184058627E-011
 -6.599999999999999E-003    2.542995089188959E-011
 -6.499999999999999E-003    1.413038442746724E-011
 -6.399999999999999E-003    4.972154661047339E-013
 -6.299999999999999E-003   -1.510821717831663E-011
 -6.199999999999999E-003   -3.216889264118237E-011
 -6.100000000000000E-003   -5.001785902655628E-011
 -5.999999999999999E-003   -6.785473674217286E-011
 -5.899999999999999E-003   -8.477268602279249E-011
 -5.800000000000000E-003   -9.979465100802206E-011
 -5.699999999999999E-003   -1.119164657834783E-010
 -5.599999999999999E-003   -1.201540029240015E-010
 -5.499999999999999E-003   -1.235910377580697E-010
 -5.399999999999999E-003   -1.214249731879473E-010
 -5.299999999999999E-003   -1.130080935242754E-010
 -5.199999999999999E-003   -9.788326346058361E-011
 -5.099999999999999E-003   -7.581375443467902E-011
 -4.999999999999999E-003   -4.680858317978256E-011
 -4.899999999999999E-003   -1.114501443088592E-011
 -4.799999999999999E-003    3.061000424259797E-011
 -4.699999999999999E-003    7.757752227106826E-011
 -4.599999999999999E-003    1.285433465865543E-010
 -4.499999999999999E-003    1.819350428367904E-010
 -4.399999999999999E-003    2.358026496483005E-010
 -4.299999999999999E-003    2.878085038195043E-010
 -4.199999999999999E-003    3.352335274670749E-010
 -4.099999999999999E-003    3.750080428245375E-010
 -3.999999999999999E-003    4.037755790836854E-010
 -3.899999999999999E-003    4.179963207323255E-010
 -3.799999999999999E-003    4.140952228077985E-010
 -3.699999999999999E-003    3.886554360677192E-010
 -3.599999999999999E-003    3.386535886952449E-010
 -3.499999999999999E-003    2.617285118798670E-010
 -3.399999999999999E-003    1.564704381233607E-010
 -3.299999999999999E-003    2.271273800769692E-011
 -3.199999999999999E-003   -1.381942180297450E-010
 -3.099999999999999E-003   -3.231494786834414E-010
 -2.999999999999999E-003   -5.271313766851542E-010
 -2.899999999999999E-003   -7.431118480856926E-010
 -2.799999999999999E-003   -9.620738805183462E-010
 -2.699999999999999E-003   -1.173145514648509E-009
 -2.599999999999999E-003   -1.363860128862617E-009
 -2.499999999999999E-003   -1.520544632474933E-009
 -2.399999999999999E-003   -1.628833214834256E-009
 -2.299999999999999E-003   -1.674295971586030E-009
 -2.199999999999999E-003   -1.643167621855485E-009
 -2.099999999999999E-003   -1.523153172132683E-009
 -1.999999999999999E-003   -1.304285078402785E-009
 -1.899999999999999E-003   -9.797986389046046E-010
 -1.799999999999999E-003   -5.469881897081028E-010
 -1.699999999999999E-003   -8.004010125147205E-012
 -1.599999999999999E-003    6.294554311400515E-010
 -1.499999999999999E-003    1.351602826240792E-009
 -1.399999999999999E-003    2.138221036601142E-009
 -1.299999999999999E-003    2.962568163276500E-009
 -1.199999999999999E-003    3.791571743161840E-009
 -1.099999999999999E-003    4.586349106521485E-009
 -9.999999999999989E-004    5.303080658968573E-009
 -8.999999999999990E-004    5.894250974457723E-009
 -7.999999999999990E-004    6.310256331017656E-009
 -6.999999999999989E-004    6.501361794102941E-009
 -5.999999999999990E-004    6.419970252368505E-009
 -4.999999999999989E-004    6.023150431472503E-009
 -3.999999999999989E-004    5.275352407741439E-009
 -2.999999999999989E-004    4.151221764808943E-009
 -1.999999999999989E-004    2.638419682535641E-009
 -9.999999999999892E-005    7.403385361598300E-010
  1.084202172485504E-018   -1.521383316803700E-009
  1.000000000000011E-004   -4.104663257468531E-009
  2.000000000000011E-004   -6.945180580096654E-009
  3.000000000000011E-004   -9.955070008269721E-009
  4.000000000000011E-004   -1.302218636406663E-008
  5.000000000000011E-004   -1.600997847306517E-008
  6.000000000000011E-004   -1.875802488530193E-008
  7.000000000000011E-004   -2.108324285418852E-008
  8.000000000000011E-004   -2.278176636911886E-008
  9.000000000000012E-004   -2.363148444861450E-008
  1.000000000000001E-003   -2.339518923481495E-008
  1.100000000000001E-003   -2.182430083428145E-008
  1.200000000000001E-003   -1.866306151339999E-008
  1.300000000000001E-003   -1.365314179019405E-008
  1.400000000000001E-003   -6.538515716973974E-009
  1.500000000000001E-003    2.929532488836348E-009
  1.600000000000001E-003    1.498740542362108E-008
  1.700000000000001E-003    2.985433474977660E-008
  1.800000000000001E-003    4.772794191845209E-008
  1.900000000000001E-003    6.878031396908290E-008
  2.000000000000001E-003    9.315483663900399E-008
  2.100000000000001E-003    1.209638972860900E-007
  2.200000000000001E-003    1.522877706348557E-007
  2.300000000000001E-003    1.871746166977192E-007
  2.400000000000001E-003    2.256418056905956E-007
  2.500000000000001E-003    2.676787011349065E-007
  2.600000000000001E-003    3.132506115794471E-007
  2.700000000000001E-003    3.623041190537731E-007
  2.800000000000001E-003    4.147735839455398E-007
  2.900000000000001E-003    4.705886660613905E-007
  3.000000000000001E-003    5.296823375377834E-007
  3.100000000000001E-003    5.919997177660424E-007
  3.200000000000001E-003    6.575067578398347E-007
  3.300000000000001E-003    7.261988072007703E-007
  3.400000000000001E-003    7.981088767123142E-007
  3.500000000000001E-003    8.733148270506339E-007
  3.600000000000001E-003    9.519453897963882E-007
  3.700000000000001E-003    1.034184939129231E-006
  3.800000000000001E-003    1.120276986453023E-006
  3.900000000000001E-003    1.210525008712784E-006
  4.000000000000001E-003    1.305292569421088E-006
  4.100000000000001E-003    1.405001068468469E-006
  4.200000000000001E-003    1.510125855172770E-006
  4.300000000000001E-003    1.621191141983406E-006
  4.400000000000001E-003    1.738763518030424E-006
  4.500000000000001E-003    1.863444233109694E-006
  4.600000000000002E-003    1.995861940179038E-006
  4.700000000000001E-003    2.136663992882382E-006
  4.800000000000001E-003    2.286509261620841E-006
  4.900000000000002E-003    2.446061064761525E-006
  5.000000000000001E-003    2.615981239032162E-006
  5.100000000000001E-003    2.796925578593529E-006
  5.200000000000001E-003    2.989541765103412E-006
  5.300000000000002E-003    3.194467739667233E-006
  5.400000000000001E-003    3.412334064024336E-006
  5.500000000000001E-003    3.643766520457601E-006
  5.600000000000002E-003    3.889391108037811E-006
  5.700000000000001E-003    4.149841775125597E-006
  5.800000000000001E-003    4.425768326832913E-006
  5.900000000000002E-003    4.717845700547137E-006
  6.000000000000001E-003    5.026784393492640E-006
  6.100000000000001E-003    5.353341350536546E-006
  6.200000000000002E-003    5.698330101215189E-006
  6.300000000000002E-003    6.062630484698336E-006
  6.400000000000001E-003    6.447197972897391E-006
  6.500000000000001E-003    6.853073500507316E-006
  6.600000000000002E-003    7.281387454955836E-006
  6.700000000000001E-003    7.733368009666022E-006
  6.800000000000001E-003    8.210342157814755E-006
  6.900000000000002E-003    8.713739245512372E-006
  7.000000000000001E-003    9.245090622070226E-006
  7.100000000000001E-003    9.806028517204910E-006
  7.200000000000002E-003    1.039828375128312E-005
  7.300000000000002E-003    1.102368212127344E-005
  7.400000000000001E-003    1.168413723714726E-005
  7.500000000000001E-003    1.238164702690170E-005
  7.600000000000002E-003    1.311828812242658E-005
  7.700000000000001E-003    1.389620956474587E-005
  7.800000000000001E-003    1.471762883700668E-005
  7.900000000000001E-003    1.558482886857054E-005
  8.000000000000002E-003    1.650015512712735E-005
  8.100000000000001E-003    1.746601494595881E-005
  8.200000000000001E-003    1.848488466178940E-005
  8.300000000000002E-003    1.955930797040804E-005
  8.400000000000001E-003    2.069190943808185E-005
  8.500000000000002E-003    2.188539910058373E-005
  8.600000000000002E-003    2.314259165023563E-005
  8.700000000000001E-003    2.446641363252007E-005
  8.800000000000002E-003    2.585992232524063E-005
  8.900000000000002E-003    2.732631802748799E-005
  9.000000000000001E-003    2.886896607140783E-005
  9.100000000000002E-003    3.049140543858711E-005
  9.200000000000002E-003    3.219736999013690E-005
  9.300000000000001E-003    3.399079422966337E-005
  9.400000000000002E-003    3.587582983189268E-005
  9.500000000000001E-003    3.785685108238391E-005
  9.600000000000001E-003    3.993845896274751E-005
  9.700000000000002E-003    4.212548695022003E-005
  9.800000000000001E-003    4.442300632288248E-005
  9.900000000000001E-003    4.683632574574803E-005
  1.000000000000000E-002    4.937097901633576E-005
  1.010000000000000E-002    5.203273974254674E-005
  1.020000000000000E-002    5.482760613611285E-005
  1.030000000000000E-002    5.776180995964673E-005
  1.040000000000000E-002    6.084180675206264E-005
  1.050000000000000E-002    6.407427916395750E-005
  1.060000000000000E-002    6.746613606571914E-005
  1.070000000000000E-002    7.102451580062223E-005
  1.080000000000000E-002    7.475679075963014E-005
  1.090000000000000E-002    7.867057035922355E-005
  1.100000000000000E-002    8.277370803986531E-005
  1.110000000000000E-002    8.707431414197201E-005
  1.120000000000000E-002    9.158076572358716E-005
  1.130000000000000E-002    9.630171305448701E-005
  1.140000000000000E-002    1.012461020123458E-004
  1.150000000000000E-002    1.064231769735688E-004
  1.160000000000000E-002    1.118425163415799E-004
  1.170000000000000E-002    1.175140327282152E-004
  1.180000000000000E-002    1.234480170597085E-004
  1.190000000000000E-002    1.296551205089876E-004
  1.200000000000000E-002    1.361464069050402E-004
  1.210000000000000E-002    1.429333651298412E-004
  1.220000000000000E-002    1.500279397271244E-004
  1.230000000000000E-002    1.574425179761025E-004
  1.240000000000000E-002    1.651899796069387E-004
  1.250000000000000E-002    1.732836794552706E-004
  1.260000000000000E-002    1.817374818072660E-004
  1.270000000000000E-002    1.905657752317929E-004
  1.280000000000000E-002    1.997834397496201E-004
  1.290000000000000E-002    2.094058793651115E-004
  1.300000000000000E-002    2.194490203912933E-004
  1.310000000000000E-002    2.299292814399350E-004
  1.320000000000000E-002    2.408635883462542E-004
  1.330000000000000E-002    2.522693781619354E-004
  1.340000000000000E-002    2.641645662554537E-004
  1.350000000000000E-002    2.765675659969071E-004
  1.360000000000000E-002    2.894972836697091E-004
  1.370000000000000E-002    3.029731057752437E-004
  1.380000000000000E-002    3.170148900078254E-004
  1.390000000000000E-002    3.316430559650944E-004
  1.400000000000000E-002    3.468785206313622E-004
  1.410000000000000E-002    3.627427013299202E-004
  1.420000000000000E-002    3.792576634697573E-004
  1.430000000000000E-002    3.964459952458917E-004
  1.440000000000000E-002    4.143309328681594E-004
  1.450000000000000E-002    4.329363650345247E-004
  1.460000000000000E-002    4.522868208787980E-004
  1.470000000000000E-002    4.724075558565282E-004
  1.480000000000000E-002    4.933244858743093E-004
  1.490000000000000E-002    5.150643460825664E-004
  1.500000000000000E-002    5.376545544790954E-004
  1.510000000000000E-002    5.611233151952182E-004
  1.520000000000000E-002    5.854995280861648E-004
  1.530000000000000E-002    6.108129098971608E-004
  1.540000000000000E-002    6.370938560819336E-004
  1.550000000000000E-002    6.643735660643708E-004
  1.560000000000000E-002    6.926838465687647E-004
  1.570000000000000E-002    7.220572727868057E-004
  1.580000000000000E-002    7.525271160761925E-004
  1.590000000000000E-002    7.841273430223632E-004
  1.600000000000000E-002    8.168924611301881E-004
  1.610000000000000E-002    8.508577476864494E-004
  1.620000000000000E-002    8.860590718383170E-004
  1.630000000000000E-002    9.225329774099386E-004
  1.640000000000000E-002    9.603166274248451E-004
  1.650000000000000E-002    9.994479315425945E-004
  1.660000000000000E-002    1.039965312098100E-003
  1.670000000000000E-002    1.081907953560528E-003
  1.680000000000000E-002    1.125315714899837E-003
  1.690000000000000E-002    1.170229088582009E-003
  1.700000000000000E-002    1.216689222510475E-003
  1.710000000000000E-002    1.264737959649329E-003
  1.720000000000000E-002    1.314417948998612E-003
  1.730000000000000E-002    1.365772406345864E-003
  1.740000000000000E-002    1.418845270565182E-003
  1.750000000000000E-002    1.473681122311474E-003
  1.760000000000000E-002    1.530325152842063E-003
  1.770000000000000E-002    1.588823247275799E-003
  1.780000000000000E-002    1.649221964700368E-003
  1.790000000000000E-002    1.711568286158124E-003
  1.800000000000000E-002    1.775909852834159E-003
  1.810000000000000E-002    1.842294837995684E-003
  1.820000000000000E-002    1.910771845167212E-003
  1.830000000000000E-002    1.981389903052105E-003
  1.840000000000000E-002    2.054198443285401E-003
  1.850000000000000E-002    2.129247366139748E-003
  1.860000000000000E-002    2.206586618733331E-003
  1.870000000000000E-002    2.286266522911415E-003