 -4.000000000000000E-002    0.000000000000000E+000
 -3.990000000000000E-002    0.000000000000000E+000
 -3.980000000000000E-002    0.000000000000000E+000
 -3.970000000000000E-002    0.000000000000000E+000
 -3.960000000000000E-002    0.000000000000000E+000
 -3.950000000000000E-002    0.000000000000000E+000
 -3.940000000000000E-002    0.000000000000000E+000
 -3.930000000000000E-002    0.000000000000000E+000
 -3.920000000000000E-002    0.000000000000000E+000
 -3.910000000000000E-002    0.000000000000000E+000
 -3.900000000000000E-002    0.000000000000000E+000
 -3.890000000000000E-002    0.000000000000000E+000
 -3.880000000000000E-002    2.010992838337844E-038
 -3.870000000000000E-002    5.605668776728717E-037
 -3.860000000000000E-002    7.790009526094858E-036
 -3.850000000000000E-002    7.236431417383511E-035
 -3.840000000000000E-002    5.070744717238429E-034
 -3.830000000000000E-002    2.863300941660572E-033
 -3.820000000000000E-002    1.357855104978969E-032
 -3.810000000000000E-002    5.560932241125503E-032
 -3.800000000000000E-002    2.005892008126718E-031
 -3.790000000000000E-002    6.464050606495220E-031
 -3.780000000000000E-002    1.880019594036773E-030
 -3.770000000000000E-002    4.969193512476221E-030
 -3.760000000000000E-002    1.198310808513128E-029
 -3.750000000000000E-002    2.637953648589603E-029
 -3.740000000000000E-002    5.280726108315954E-029
 -3.730000000000000E-002    9.504217936954101E-029
 -3.720000000000000E-002    1.496717477948056E-028
 -3.710000000000000E-002    1.918910112970843E-028
 -3.700000000000000E-002    1.491105998791024E-028
 -3.690000000000000E-002   -1.404871178660460E-028
 -3.680000000000000E-002   -9.813955069448180E-028
 -3.670000000000000E-002   -2.869919148309717E-027
 -3.660000000000000E-002   -6.499843268782989E-027
 -3.650000000000000E-002   -1.265377311600412E-026
 -3.640000000000000E-002   -2.187557203942306E-026
 -3.630000000000000E-002   -3.380014132647567E-026
 -3.620000000000000E-002   -4.604034511449919E-026
 -3.610000000000000E-002   -5.263498161868975E-026
 -3.600000000000000E-002   -4.228462947958528E-026
 -3.590000000000000E-002    3.037027881183787E-027
 -3.580000000000000E-002    1.080375751423048E-025
 -3.570000000000000E-002    3.010941399939125E-025
 -3.560000000000000E-002    6.064810014275612E-025
 -3.550000000000000E-002    1.030307653227213E-024
 -3.540000000000000E-002    1.539798948487068E-024
 -3.530000000000000E-002    2.037915401685404E-024
 -3.520000000000000E-002    2.338923605573726E-024
 -3.510000000000000E-002    2.154953615146971E-024
 -3.500000000000000E-002    1.107670466220329E-024
 -3.490000000000000E-002   -1.218991606851886E-024
 -3.480000000000000E-002   -5.172059615641218E-024
 -3.470000000000000E-002   -1.086609126330213E-023
 -3.460000000000000E-002   -1.797971743833632E-023
 -3.450000000000000E-002   -2.555614249650380E-023
 -3.440000000000000E-002   -3.188226700317023E-023
 -3.430000000000000E-002   -3.454569290585167E-023
 -3.420000000000000E-002   -3.077297508215429E-023
 -3.410000000000000E-002   -1.811977617670066E-023
 -3.400000000000000E-002    4.500639547270184E-024
 -3.390000000000000E-002    3.560473113299537E-023
 -3.380000000000000E-002    7.008068016666866E-023
 -3.370000000000000E-002    9.881408569621910E-023
 -3.360000000000000E-002    1.096561203897350E-022
 -3.350000000000000E-002    9.036998139383984E-023
 -3.340000000000000E-002    3.391802590760873E-023
 -3.330000000000000E-002   -5.415001358504259E-023
 -3.320000000000000E-002   -1.473933780101832E-022
 -3.310000000000000E-002   -1.916422395450973E-022
 -3.300000000000000E-002   -1.032170572108168E-022
 -3.290000000000000E-002    2.233736828860301E-022
 -3.280000000000000E-002    8.939050028871223E-022
 -3.270000000000000E-002    1.976239490061605E-021
 -3.260000000000000E-002    3.446032670759852E-021
 -3.250000000000000E-002    5.122296011544975E-021
 -3.240000000000000E-002    6.605741149418504E-021
 -3.230000000000000E-002    7.240216062409908E-021
 -3.220000000000000E-002    6.123460025466403E-021
 -3.210000000000000E-002    2.195320752623976E-021
 -3.200000000000000E-002   -5.573252569947223E-021
 -3.190000000000000E-002   -1.788108192495288E-020
 -3.180000000000000E-002   -3.470215747551588E-020
 -3.170000000000000E-002   -5.484327472033390E-020
 -3.160000000000000E-002   -7.553945586558464E-020
 -3.150000000000000E-002   -9.220804488949501E-020
 -3.140000000000000E-002   -9.850491499229397E-020
 -3.130000000000000E-002   -8.682427392464823E-020
 -3.120000000000000E-002   -4.934663010402240E-020
 -3.110000000000000E-002    2.033984917290415E-020
 -3.100000000000000E-002    1.251395686531003E-019
 -3.090000000000000E-002    2.621171864325655E-019
 -3.080000000000000E-002    4.203374828477177E-019
 -3.070000000000000E-002    5.794145354278907E-019
 -3.060000000000000E-002    7.093739793156022E-019
 -3.050000000000000E-002    7.723911725749374E-019
 -3.040000000000000E-002    7.267912681073894E-019
 -3.030000000000000E-002    5.333693708774829E-019
 -3.020000000000000E-002    1.636377559656786E-019
 -3.010000000000000E-002   -3.909231702278593E-019
 -3.000000000000000E-002   -1.110041385283311E-018
 -2.990000000000000E-002   -1.938071144021868E-018
 -2.980000000000000E-002   -2.781589901500241E-018
 -2.970000000000000E-002   -3.512889033131236E-018
 -2.960000000000000E-002   -3.980437161659062E-018
 -2.950000000000000E-002   -4.026370600757189E-018
 -2.940000000000000E-002   -3.509768153175578E-018
 -2.930000000000000E-002   -2.333087258003233E-018
 -2.920000000000000E-002   -4.679525438949066E-019
 -2.910000000000000E-002    2.024206688509914E-018
 -2.900000000000000E-002    4.981140682152055E-018
 -2.890000000000000E-002    8.141910804020294E-018
 -2.880000000000000E-002    1.116389777236163E-017
 -2.870000000000000E-002    1.365392548342621E-017
 -2.860000000000000E-002    1.521007081886391E-017
 -2.850000000000000E-002    1.546834906426769E-017
 -2.840000000000000E-002    1.414703849297346E-017
 -2.830000000000000E-002    1.108148034200001E-017
 -2.820000000000000E-002    6.243923998016925E-018
 -2.810000000000000E-002   -2.536247218000810E-019
 -2.800000000000000E-002   -8.171222964354053E-018
 -2.790000000000000E-002   -1.716072468327477E-017
 -2.780000000000000E-002   -2.678351809860940E-017
 -2.770000000000000E-002   -3.651563311482036E-017
 -2.760000000000000E-002   -4.573250017517119E-017
 -2.750000000000000E-002   -5.367204944797033E-017
 -2.740000000000000E-002   -5.938459132413435E-017
 -2.730000000000000E-002   -6.168875619649940E-017
 -2.720000000000000E-002   -5.916244986446952E-017
 -2.710000000000000E-002   -5.020268807786426E-017
 -2.700000000000000E-002   -3.318554867210419E-017
 -2.690000000000000E-002   -6.744819338880098E-018
 -2.680000000000000E-002    2.983481107554971E-017
 -2.670000000000000E-002    7.614548862626565E-017
 -2.660000000000000E-002    1.301747414855734E-016
 -2.650000000000000E-002    1.879163938287044E-016
 -2.640000000000000E-002    2.431942727129677E-016
 -2.630000000000000E-002    2.878189410667756E-016
 -2.620000000000000E-002    3.121703631968284E-016
 -2.610000000000000E-002    3.062440067571010E-016
 -2.600000000000000E-002    2.611180002930035E-016
 -2.590000000000000E-002    1.707037146063316E-016
 -2.580000000000000E-002    3.354790504536887E-017
 -2.570000000000000E-002   -1.456188315630507E-016
 -2.560000000000000E-002   -3.549260620068353E-016
 -2.550000000000000E-002   -5.753139807596369E-016
 -2.540000000000000E-002   -7.816147166575199E-016
 -2.530000000000000E-002   -9.448350541692580E-016
 -2.520000000000000E-002   -1.035512326669446E-015
 -2.510000000000000E-002   -1.027798558432028E-015
 -2.500000000000000E-002   -9.037334272264427E-016
 -2.490000000000000E-002   -6.570373613562603E-016
 -2.480000000000000E-002   -2.957287872306064E-016
 -2.470000000000000E-002    1.570318449397660E-016
 -2.460000000000000E-002    6.642415906680185E-016
 -2.450000000000000E-002    1.178534095683325E-015
 -2.440000000000000E-002    1.647488531497183E-015
 -2.430000000000000E-002    2.020039430955711E-015
 -2.420000000000000E-002    2.252979030860737E-015
 -2.410000000000000E-002    2.316420904848661E-015
 -2.400000000000000E-002    2.197193476498380E-015
 -2.390000000000000E-002    1.899452736240870E-015
 -2.380000000000000E-002    1.442321948536178E-015
 -2.370000000000000E-002    8.549988324440261E-016
 -2.360000000000000E-002    1.703888253760775E-016
 -2.350000000000000E-002   -5.811986678257275E-016
 -2.340000000000000E-002   -1.376563237647495E-015
 -2.330000000000000E-002   -2.200785354660080E-015
 -2.320000000000000E-002   -3.044094643264656E-015
 -2.310000000000000E-002   -3.894411207853876E-015
 -2.300000000000000E-002   -4.726673723181822E-015
 -2.290000000000000E-002   -5.491212459053473E-015
 -2.280000000000000E-002   -6.104293157150555E-015
 -2.270000000000000E-002   -6.444310701788607E-015
 -2.260000000000000E-002   -6.356763683975329E-015
 -2.250000000000000E-002   -5.670004297862812E-015
 -2.240000000000000E-002   -4.221904934496873E-015
 -2.230000000000000E-002   -1.895274067025580E-015
 -2.220000000000000E-002    1.342581755567104E-015
 -2.210000000000000E-002    5.402772545319319E-015
 -2.200000000000000E-002    1.004802503643843E-014
 -2.190000000000000E-002    1.488387495966234E-014
 -2.180000000000000E-002    1.937397481956745E-014
 -2.170000000000000E-002    2.288257921609643E-014
 -2.160000000000000E-002    2.474301647748916E-014
 -2.150000000000000E-002    2.434628472134169E-014
 -2.140000000000000E-002    2.123919251994992E-014
 -2.130000000000000E-002    1.521818053982510E-014
 -2.120000000000000E-002    6.403267117581517E-015
 -2.110000000000000E-002   -4.722437929952352E-015
 -2.100000000000000E-002   -1.731876318010186E-014
 -2.090000000000000E-002   -3.024517634584486E-014
 -2.080000000000000E-002   -4.216583492959629E-014
 -2.070000000000000E-002   -5.169270403570576E-014
 -2.060000000000000E-002   -5.754933347298393E-014
 -2.050000000000000E-002   -5.873307936282834E-014
 -2.040000000000000E-002   -5.465210526012989E-014
 -2.030000000000000E-002   -4.521577067643898E-014
 -2.020000000000000E-002   -3.086349393060361E-014
 -2.010000000000000E-002   -1.252626713004346E-014
 -2.000000000000000E-002    8.474066607660692E-015
 -1.990000000000000E-002    3.057200306790492E-014
 -1.980000000000000E-002    5.212815203713039E-014
 -1.970000000000000E-002    7.159332011406654E-014
 -1.960000000000000E-002    8.763982806088423E-014
 -1.950000000000000E-002    9.923921348787682E-014
 -1.940000000000000E-002    1.056765295058294E-013
 -1.930000000000000E-002    1.065050275356589E-013
 -1.920000000000000E-002    1.014593813975524E-013
 -1.910000000000000E-002    9.035627877026612E-014
 -1.900000000000000E-002    7.301763676834912E-014
 -1.890000000000000E-002    4.925012305772265E-014
 -1.880000000000000E-002    1.890541096608610E-014
 -1.870000000000000E-002   -1.797073295537216E-014
 -1.860000000000000E-002   -6.091346805049169E-014
 -1.850000000000000E-002   -1.087731996366765E-013
 -1.840000000000000E-002   -1.594631125612523E-013
 -1.830000000000000E-002   -2.097853300179144E-013
 -1.820000000000000E-002   -2.554012718094821E-013
 -1.810000000000000E-002   -2.909989760445051E-013
 -1.800000000000000E-002   -3.106852060496270E-013
 -1.790000000000000E-002   -3.085947940127725E-013
 -1.780000000000000E-002   -2.796699925610517E-013
 -1.770000000000000E-002   -2.205232549193339E-013
 -1.760000000000000E-002   -1.302669749194112E-013
 -1.750000000000000E-002   -1.117902733994171E-014
 -1.740000000000000E-002    1.309244337810028E-013
 -1.730000000000000E-002    2.867113649054399E-013
 -1.720000000000000E-002    4.438086580579155E-013
 -1.710000000000000E-002    5.877285350451227E-013
 -1.700000000000000E-002    7.031782491187756E-013
 -1.690000000000000E-002    7.756245091515555E-013
 -1.680000000000000E-002    7.929338188067339E-013
 -1.670000000000000E-002    7.468855625012790E-013
 -1.660000000000000E-002    6.343561187385680E-013
 -1.650000000000000E-002    4.580070888965007E-013
 -1.640000000000000E-002    2.263699170488539E-013
 -1.630000000000000E-002   -4.670169780025974E-014
 -1.620000000000000E-002   -3.431531451934039E-013
 -1.610000000000000E-002   -6.422839996138623E-013
 -1.600000000000000E-002   -9.225382195570437E-013
 -1.590000000000000E-002   -1.163299052632598E-012
 -1.580000000000000E-002   -1.346463473775691E-012
 -1.570000000000000E-002   -1.457618684725414E-012
 -1.560000000000000E-002   -1.486715559859836E-012
 -1.550000000000000E-002   -1.428225631074262E-012
 -1.540000000000000E-002   -1.280868966556897E-012
 -1.530000000000000E-002   -1.047075867721219E-012
 -1.520000000000000E-002   -7.323934885116941E-013
 -1.510000000000000E-002   -3.450560088443390E-013
 -1.500000000000000E-002    1.041144478190286E-013
 -1.490000000000000E-002    6.013931464625990E-013
 -1.480000000000000E-002    1.129460867234835E-012
 -1.470000000000000E-002    1.666506601300387E-012
 -1.460000000000000E-002    2.185404090923183E-012
 -1.450000000000000E-002    2.653322881398228E-012
 -1.440000000000000E-002    3.032135371450393E-012
 -1.430000000000000E-002    3.279937834056569E-012
 -1.420000000000000E-002    3.353844275372086E-012
 -1.410000000000000E-002    3.214030603583719E-012
 -1.400000000000000E-002    2.828766788524893E-012
 -1.390000000000000E-002    2.179938989997896E-012
 -1.380000000000000E-002    1.268373788661406E-012
 -1.370000000000000E-002    1.181645310676002E-013
 -1.360000000000000E-002   -1.220808823974223E-012
 -1.350000000000000E-002   -2.672848016814454E-012
 -1.340000000000000E-002   -4.139339439593517E-012
 -1.330000000000000E-002   -5.504684598309854E-012
 -1.320000000000000E-002   -6.644978983370387E-012
 -1.310000000000000E-002   -7.438739957667830E-012
 -1.300000000000000E-002   -7.778667452291923E-012
 -1.290000000000000E-002   -7.583186976149111E-012
 -1.280000000000000E-002   -6.806476538361890E-012
 -1.270000000000000E-002   -5.445772729907757E-012
 -1.260000000000000E-002   -3.545038319987259E-012
 -1.250000000000000E-002   -1.194489950706678E-012
 -1.240000000000000E-002    1.474047969595408E-012
 -1.230000000000000E-002    4.295492051822482E-012
 -1.220000000000000E-002    7.082690509177232E-012
 -1.210000000000000E-002    9.639281081879459E-012
 -1.200000000000000E-002    1.177300838531283E-011
 -1.190000000000000E-002    1.330831150681059E-011
 -1.180000000000000E-002    1.409733681345935E-011
 -1.170000000000000E-002    1.402882351498524E-011
 -1.160000000000000E-002    1.303477049204779E-011
 -1.150000000000000E-002    1.109514213034676E-011
 -1.140000000000000E-002    8.241037002561432E-012
 -1.130000000000000E-002    4.556831669573326E-012
 -1.120000000000000E-002    1.815865483611398E-013
 -1.110000000000000E-002   -4.690355335759445E-012
 -1.100000000000000E-002   -9.810087735274011E-012
 -1.090000000000000E-002   -1.487721376348360E-011
 -1.080000000000000E-002   -1.954660225068836E-011
 -1.070000000000000E-002   -2.344034593788189E-011
 -1.060000000000000E-002   -2.616607835461861E-011
 -1.050000000000000E-002   -2.734238361129460E-011
 -1.040000000000000E-002   -2.663092111611336E-011
 -1.030000000000000E-002   -2.377388263265404E-011
 -1.020000000000000E-002   -1.863389587429553E-011
 -1.010000000000000E-002   -1.123249987747914E-011
 -1.000000000000000E-002   -1.782365468420307E-012
 -9.899999999999999E-003    9.291883368195638E-012
 -9.800000000000000E-003    2.134911666445645E-011
 -9.699999999999999E-003    3.354724375592858E-011
 -9.599999999999999E-003    4.488105482979126E-011
 -9.500000000000000E-003    5.424230305751850E-011
 -9.399999999999999E-003    6.049971388390939E-011
 -9.299999999999999E-003    6.259396003630090E-011
 -9.200000000000000E-003    5.964053111038687E-011
 -9.099999999999999E-003    5.103205303374719E-011
 -8.999999999999999E-003    3.653076853029863E-011
 -8.900000000000000E-003    1.634199418817377E-011
 -8.799999999999999E-003   -8.839359246836243E-012
 -8.699999999999999E-003   -3.781543753216030E-011
 -8.600000000000000E-003   -6.890890005301748E-011
 -8.499999999999999E-003   -1.000243101602463E-010
 -8.399999999999999E-003   -1.287455861058494E-010
 -8.300000000000000E-003   -1.524656133295981E-010
 -8.199999999999999E-003   -1.685416432149770E-010
 -8.100000000000000E-003   -1.744690527898635E-010
 -8.000000000000000E-003   -1.680650151193945E-010
 -7.899999999999999E-003   -1.476530391088490E-010
 -7.800000000000000E-003   -1.122394103930034E-010
 -7.699999999999999E-003   -6.167232907544875E-011
 -7.599999999999999E-003    3.225445501034786E-012
 -7.499999999999999E-003    8.055975346409612E-011
 -7.399999999999999E-003    1.673133615335376E-010
 -7.299999999999999E-003    2.593489781765993E-010
 -7.199999999999999E-003    3.514758035147676E-010
 -7.100000000000000E-003    4.375874461856508E-010
 -6.999999999999999E-003    5.108770610756225E-010
 -6.899999999999999E-003    5.641318477350636E-010
 -6.800000000000000E-003    5.901048802790970E-010
 -6.699999999999999E-003    5.819559088239587E-010
 -6.599999999999999E-003    5.337465727218886E-010
 -6.499999999999999E-003    4.409684138040843E-010
 -6.399999999999999E-003    3.010746581150574E-010
 -6.299999999999999E-003    1.139821333006301E-010
 -6.199999999999999E-003   -1.174953673635945E-010
 -6.100000000000000E-003   -3.873212137504613E-010
 -5.999999999999999E-003   -6.860560515749263E-010
 -5.899999999999999E-003   -1.000858087411285E-009
 -5.800000000000000E-003   -1.315688472950829E-009
 -5.699999999999999E-003   -1.611739510635785E-009
 -5.599999999999999E-003   -1.868088576393138E-009
 -5.499999999999999E-003   -2.062569581933373E-009
 -5.399999999999999E-003   -2.172839257521939E-009
 -5.299999999999999E-003   -2.177601924233795E-009
 -5.199999999999999E-003   -2.057946905870228E-009
 -5.099999999999999E-003   -1.798740702303283E-009
 -4.999999999999999E-003   -1.390009991658095E-009
 -4.899999999999999E-003   -8.282451952000557E-010
 -4.799999999999999E-003   -1.175539688339973E-010
 -4.699999999999999E-003    7.294094143202916E-010
 -4.599999999999999E-003    1.690805439119101E-009
 -4.499999999999999E-003    2.735330783850782E-009
 -4.399999999999999E-003    3.822352447485133E-009
 -4.299999999999999E-003    4.902507956128721E-009
 -4.199999999999999E-003    5.918803629359481E-009
 -4.099999999999999E-003    6.808230874010699E-009
 -3.999999999999999E-003    7.503905964651209E-009
 -3.899999999999999E-003    7.937707725655510E-009
 -3.799999999999999E-003    8.043374368317948E-009
 -3.699999999999999E-003    7.759986393263795E-009
 -3.599999999999999E-003    7.035738196308382E-009
 -3.499999999999999E-003    5.831881947263189E-009
 -3.399999999999999E-003    4.126695627040117E-009
 -3.299999999999999E-003    1.919314426075513E-009
 -3.199999999999999E-003   -7.667433058417722E-010
 -3.099999999999999E-003   -3.880534961581213E-009
 -2.999999999999999E-003   -7.341301336846436E-009
 -2.899999999999999E-003   -1.103687583053740E-008
 -2.799999999999999E-003   -1.482301664407602E-008
 -2.699999999999999E-003   -1.852376297408655E-008
 -2.599999999999999E-003   -2.193284927105869E-008
 -2.499999999999999E-003   -2.481620081757564E-008
 -2.399999999999999E-003   -2.691545190237871E-008
 -2.299999999999999E-003   -2.795242060442309E-008
 -2.199999999999999E-003   -2.763437637363712E-008
 -2.099999999999999E-003   -2.565997427335038E-008
 -1.999999999999999E-003   -2.172563522118595E-008
 -1.899999999999999E-003   -1.553217338143150E-008
 -1.799999999999999E-003   -6.791387916378069E-009
 -1.699999999999999E-003    4.767494279506113E-009
 -1.599999999999999E-003    1.939197914367767E-008
 -1.499999999999999E-003    3.730100651608897E-008
 -1.399999999999999E-003    5.868067097609459E-008
 -1.299999999999999E-003    8.368098407502706E-008
 -1.199999999999999E-003    1.124139223748075E-007
 -1.099999999999999E-003    1.449528214010079E-007
 -9.999999999999989E-004    1.813332953698970E-007
 -8.999999999999990E-004    2.215555935488918E-007
 -7.999999999999990E-004    2.655885468333994E-007
 -6.999999999999989E-004    3.133749053172635E-007
 -5.999999999999990E-004    3.648380839574751E-007
 -4.999999999999989E-004    4.198899147653889E-007
 -3.999999999999989E-004    4.784393637126251E-007
 -2.999999999999989E-004    5.404018892906116E-007
 -1.999999999999989E-004    6.057090706313709E-007
 -9.999999999999892E-005    6.743182129045418E-007
  1.084202172485504E-018    7.462213519911774E-007
  1.000000000000011E-004    8.214538124939084E-007
  2.000000000000011E-004    9.001012578017350E-007
  3.000000000000011E-004    9.823057480961668E-007
  4.000000000000011E-004    1.068269730929905E-006
  5.000000000000011E-004    1.158258788741609E-006
  6.000000000000011E-004    1.252602152723069E-006
  7.000000000000011E-004    1.351691417300745E-006
  8.000000000000011E-004    1.455978079644237E-006
  9.000000000000012E-004    1.565968531307024E-006
  1.000000000000001E-003    1.682218472076271E-006
  1.100000000000001E-003    1.805326511419995E-006
  1.200000000000001E-003    1.935925828868255E-006
  1.300000000000001E-003    2.074677150671373E-006
  1.400000000000001E-003    2.222259982530558E-006
  1.500000000000001E-003    2.379365861381253E-006
  1.600000000000001E-003    2.546691007324596E-006
  1.700000000000001E-003    2.724930941044890E-006
  1.800000000000001E-003    2.914776005175751E-006
  1.900000000000001E-003    3.116908117591002E-006
  2.000000000000001E-003    3.332000972283388E-006
  2.100000000000001E-003    3.560720367286546E-006
  2.200000000000001E-003    3.803728057472380E-006
  2.300000000000001E-003    4.061685990920663E-006
  2.400000000000001E-003    4.335265203058698E-006
  2.500000000000001E-003    4.625153232453247E-006
  2.600000000000001E-003    4.932065117581661E-006
  2.700000000000001E-003    5.256754882349457E-006
  2.800000000000001E-003    5.600027452107990E-006
  2.900000000000001E-003    5.962749991444510E-006
  3.000000000000001E-003    6.345863869059865E-006
  3.100000000000001E-003    6.750393992924191E-006
  3.200000000000001E-003    7.177457750780441E-006
  3.300000000000001E-003    7.628271609106349E-006
  3.400000000000001E-003    8.104153640325269E-006
  3.500000000000001E-003    8.606527706772442E-006
  3.600000000000001E-003    9.136920441699227E-006
  3.700000000000001E-003    9.696960523790746E-006
  3.800000000000001E-003    1.028837220329218E-005
  3.900000000000001E-003    1.091297153968802E-005
  4.000000000000001E-003    1.157265909387263E-005
  4.100000000000001E-003    1.226941423497320E-005
  4.200000000000001E-003    1.300528941796925E-005
  4.300000000000001E-003    1.378240736334363E-005
  4.400000000000001E-003    1.460295723943558E-005
  4.500000000000001E-003    1.546919410801343E-005
  4.600000000000002E-003    1.638344637812152E-005
  4.700000000000001E-003    1.734811488499841E-005
  4.800000000000001E-003    1.836568438862342E-005
  4.900000000000002E-003    1.943873113313080E-005
  5.000000000000001E-003    2.056993460250932E-005
  5.100000000000001E-003    2.176209074278824E-005
  5.200000000000001E-003    2.301812153203817E-005
  5.300000000000002E-003    2.434109081556040E-005
  5.400000000000001E-003    2.573421569945415E-005
  5.500000000000001E-003    2.720087794004323E-005
  5.600000000000002E-003    2.874463057880164E-005
  5.700000000000001E-003    3.036921051459095E-005
  5.800000000000001E-003    3.207854177945623E-005
  5.900000000000002E-003    3.387674130725858E-005
  6.000000000000001E-003    3.576812251371797E-005
  6.100000000000001E-003    3.775719856180756E-005
  6.200000000000002E-003    3.984867786051022E-005
  6.300000000000002E-003    4.204747814826806E-005
  6.400000000000001E-003    4.435871084684344E-005
  6.500000000000001E-003    4.678769879189753E-005
  6.600000000000002E-003    4.933996219471230E-005
  6.700000000000001E-003    5.202123377604439E-005
  6.800000000000001E-003    5.483746398206263E-005
  6.900000000000002E-003    5.779482163638937E-005
  7.000000000000001E-003    6.089970675354301E-005
  7.100000000000001E-003    6.415875132857202E-005
  7.200000000000002E-003    6.757883843150796E-005
  7.300000000000002E-003    7.116711914056768E-005
  7.400000000000001E-003    7.493100860413249E-005
  7.500000000000001E-003    7.887821388662916E-005
  7.600000000000002E-003    8.301674804621181E-005
  7.700000000000001E-003    8.735491974910059E-005
  7.800000000000001E-003    9.190137152387037E-005
  7.900000000000001E-003    9.666509742124991E-005
  8.000000000000002E-003    1.016554284895620E-004
  8.100000000000001E-003    1.068820576702857E-004
  8.200000000000001E-003    1.123550572662568E-004
  8.300000000000002E-003    1.180848851885718E-004
  8.400000000000001E-003    1.240823983740939E-004
  8.500000000000002E-003    1.303588405773606E-004
  8.600000000000002E-003    1.369258826356831E-004
  8.700000000000001E-003    1.437956187113719E-004
  8.800000000000002E-003    1.509805524258224E-004
  8.900000000000002E-003    1.584936319025709E-004
  9.000000000000001E-003    1.663482468696433E-004
  9.100000000000002E-003    1.745582297414358E-004
  9.200000000000002E-003    1.831378807857116E-004
  9.300000000000001E-003    1.921019365760581E-004
  9.400000000000002E-003    2.014656125685355E-004
  9.500000000000001E-003    2.112445826097096E-004
  9.600000000000001E-003    2.214550267632627E-004
  9.700000000000002E-003    2.321136115348574E-004
  9.800000000000001E-003    2.432375051964783E-004
  9.900000000000001E-003    2.548443793383302E-004
  1.000000000000000E-002    2.669524881119873E-004
  1.010000000000000E-002    2.795806095205280E-004
  1.020000000000000E-002    2.927481103826605E-004
  1.030000000000000E-002    3.064749496994223E-004
  1.040000000000000E-002    3.207817134297689E-004
  1.050000000000000E-002    3.356896172585157E-004
  1.060000000000000E-002    3.512205581770253E-004
  1.070000000000000E-002    3.673970837117097E-004
  1.080000000000000E-002    3.842424579452674E-004
  1.090000000000000E-002    4.017805821670612E-004
  1.100000000000000E-002    4.200361230438001E-004
  1.110000000000000E-002    4.390344089575897E-004
  1.120000000000000E-002    4.588014694142250E-004
  1.130000000000000E-002    4.793640717609250E-004
  1.140000000000000E-002    5.007496795583109E-004
  1.150000000000000E-002    5.229863740457153E-004
  1.160000000000000E-002    5.461029715318517E-004
  1.170000000000000E-002    5.701289712040201E-004
  1.180000000000000E-002    5.950945479158815E-004
  1.190000000000000E-002    6.210306051885324E-004
  1.200000000000000E-002    6.479687258851471E-004
  1.210000000000000E-002    6.759411956541240E-004
  1.220000000000000E-002    7.049810762264152E-004
  1.230000000000000E-002    7.351221293986043E-004
  1.240000000000000E-002    7.663989023786837E-004
  1.250000000000000E-002    7.988466566397688E-004
  1.260000000000000E-002    8.325015457492589E-004
  1.270000000000000E-002    8.674005152469321E-004
  1.280000000000000E-002    9.035812787590257E-004
  1.290000000000000E-002    9.410824326120597E-004
  1.300000000000000E-002    9.799433545073766E-004
  1.310000000000000E-002    1.020204297025557E-003
  1.320000000000000E-002    1.061906265545429E-003
  1.330000000000000E-002    1.105091018524414E-003
  1.340000000000000E-002    1.149801147617718E-003
  1.350000000000000E-002    1.196079932222362E-003
  1.360000000000000E-002    1.243971562013550E-003
  1.370000000000000E-002    1.293520743887761E-003
  1.380000000000000E-002    1.344772994243086E-003
  1.390000000000000E-002    1.397774421705516E-003
  1.400000000000000E-002    1.452571956473234E-003
  1.410000000000000E-002    1.509212940114122E-003
  1.420000000000000E-002    1.567745496032359E-003
  1.430000000000000E-002    1.628218344064311E-003
  1.440000000000000E-002    1.690680836252841E-003
  1.450000000000000E-002    1.755182893110662E-003
  1.460000000000000E-002    1.821775127180473E-003
  1.470000000000000E-002    1.890508559746924E-003
  1.480000000000000E-002    1.961434944210301E-003
  1.490000000000000E-002    2.034606457441622E-003
  1.500000000000000E-002    2.110075825068098E-003
  1.510000000000000E-002    2.187896265135476E-003
  1.520000000000000E-002    2.268121465013693E-003
  1.530000000000000E-002    2.350805595015278E-003
  1.540000000000000E-002    2.436003225170482E-003
  1.550000000000000E-002    2.523769332120845E-003
  1.560000000000000E-002    2.614159016737581E-003
  1.570000000000000E-002    2.707227868595812E-003
  1.580000000000000E-002    2.803031758132561E-003
  1.590000000000000E-002    2.901626650624453E-003
  1.600000000000000E-002    3.003068665779577E-003
  1.610000000000000E-002    3.107413983864142E-003
  1.620000000000000E-002    3.214718622704731E-003
  1.630000000000000E-002    3.325038761630665E-003
  1.640000000000000E-002    3.438430662645620E-003
  1.650000000000000E-002    3.554949765220795E-003
  1.660000000000000E-002    3.674651987647730E-003
  1.670000000000000E-002    3.797592423443569E-003
  1.680000000000000E-002    3.923826286812914E-003
  1.690000000000000E-002    4.053407885903894E-003
  1.700000000000000E-002    4.186391297640327E-003
  1.710000000000000E-002    4.322830031829334E-003
  1.720000000000000E-002    4.462776996664261E-003
  1.730000000000000E-002    4.606284339142839E-003
  1.740000000000000E-002    4.753403659072277E-003
  1.750000000000000E-002    4.904185651056151E-003
  1.760000000000000E-002    5.058679802210582E-003
  1.770000000000000E-002    5.216935110183823E-003
  1.780000000000000E-002    5.378999066931419E-003
  1.790000000000000E-002    5.544918728753784E-003
  1.800000000000000E-002    5.714738801035819E-003
  1.810000000000000E-002    5.888503053093116E-003
  1.820000000000000E-002    6.066254080305205E-003
  1.830000000000000E-002    6.248033030213111E-003
  1.840000000000000E-002    6.433879013269643E-003
  1.850000000000000E-002    6.623829285361007E-003
  1.860000000000000E-002    6.817919885034649E-003
  1.870000000000000E-002    7.016184130479692E-003