 -4.000000000000000E-002    0.000000000000000E+000
 -3.990000000000000E-002    0.000000000000000E+000
 -3.980000000000000E-002    0.000000000000000E+000
 -3.970000000000000E-002    0.000000000000000E+000
 -3.960000000000000E-002    0.000000000000000E+000
 -3.950000000000000E-002    0.000000000000000E+000
 -3.940000000000000E-002    0.000000000000000E+000
 -3.930000000000000E-002    0.000000000000000E+000
 -3.920000000000000E-002    0.000000000000000E+000
 -3.910000000000000E-002    0.000000000000000E+000
 -3.900000000000000E-002    0.000000000000000E+000
 -3.890000000000000E-002    0.000000000000000E+000
 -3.880000000000000E-002    0.000000000000000E+000
 -3.870000000000000E-002   -9.301792098911219E-040
 -3.860000000000000E-002   -2.264795539398953E-038
 -3.850000000000000E-002   -2.827413644331820E-037
 -3.840000000000000E-002   -2.408340334552305E-036
 -3.830000000000000E-002   -1.571483313724980E-035
 -3.820000000000000E-002   -8.362297075617072E-035
 -3.810000000000000E-002   -3.772148548403786E-034
 -3.800000000000000E-002   -1.480335389498549E-033
 -3.790000000000000E-002   -5.146475639240407E-033
 -3.780000000000000E-002   -1.605544945128067E-032
 -3.770000000000000E-002   -4.534978704404964E-032
 -3.760000000000000E-002   -1.166285691873189E-031
 -3.750000000000000E-002   -2.737275648616007E-031
 -3.740000000000000E-002   -5.853115473801943E-031
 -3.730000000000000E-002   -1.131474579824381E-030
 -3.720000000000000E-002   -1.939411600556042E-030
 -3.710000000000000E-002   -2.807905086607464E-030
 -3.700000000000000E-002   -2.929103589169751E-030
 -3.690000000000000E-002   -1.988039442734090E-031
 -3.680000000000000E-002    9.858456873667742E-030
 -3.670000000000000E-002    3.547174639635908E-029
 -3.660000000000000E-002    8.988275050228657E-029
 -3.650000000000000E-002    1.914132092262128E-028
 -3.640000000000000E-002    3.603242195935891E-028
 -3.630000000000000E-002    6.093107331638818E-028
 -3.620000000000000E-002    9.235266432177108E-028
 -3.610000000000000E-002    1.226044970975265E-027
 -3.600000000000000E-002    1.326817023664963E-027
 -3.590000000000000E-002    8.590360221705893E-028
 -3.580000000000000E-002   -7.822083579192364E-028
 -3.570000000000000E-002   -4.467273986409480E-027
 -3.560000000000000E-002   -1.127217083316049E-026
 -3.550000000000000E-002   -2.225692555596670E-026
 -3.540000000000000E-002   -3.799465485604130E-026
 -3.530000000000000E-002   -5.777388357363156E-026
 -3.520000000000000E-002   -7.844705651292070E-026
 -3.510000000000000E-002   -9.300712182898518E-026
 -3.500000000000000E-002   -8.915289976190915E-026
 -3.490000000000000E-002   -4.834873173195240E-026
 -3.480000000000000E-002    5.383725505770914E-026
 -3.470000000000000E-002    2.450874345828044E-025
 -3.460000000000000E-002    5.502523430810101E-025
 -3.450000000000000E-002    9.808917978681007E-025
 -3.440000000000000E-002    1.520134058951955E-024
 -3.430000000000000E-002    2.103751830943942E-024
 -3.420000000000000E-002    2.600162329069785E-024
 -3.410000000000000E-002    2.794336038798410E-024
 -3.400000000000000E-002    2.382993940206838E-024
 -3.390000000000000E-002    9.903562987027005E-025
 -3.380000000000000E-002   -1.785764457254207E-024
 -3.370000000000000E-002   -6.289548042325874E-024
 -3.360000000000000E-002   -1.268148318152238E-023
 -3.350000000000000E-002   -2.077723572197497E-023
 -3.340000000000000E-002   -2.986912486783790E-023
 -3.330000000000000E-002   -3.856269068174761E-023
 -3.320000000000000E-002   -4.467486087765318E-023
 -3.310000000000000E-002   -4.525021784161202E-023
 -3.300000000000000E-002   -3.675321683702658E-023
 -3.290000000000000E-002   -1.548283961504238E-023
 -3.280000000000000E-002    2.177122539088757E-023
 -3.270000000000000E-002    7.685508192985673E-023
 -3.260000000000000E-002    1.492399133887913E-022
 -3.250000000000000E-002    2.350140262897243E-022
 -3.240000000000000E-002    3.260689922698796E-022
 -3.230000000000000E-002    4.096989370772984E-022
 -3.220000000000000E-002    4.688213962949912E-022
 -3.210000000000000E-002    4.829694959082909E-022
 -3.200000000000000E-002    4.300982021132142E-022
 -3.190000000000000E-002    2.891065617531668E-022
 -3.180000000000000E-002    4.282805081555215E-023
 -3.170000000000000E-002   -3.188722961891595E-022
 -3.160000000000000E-002   -7.962933346580051E-022
 -3.150000000000000E-002   -1.377704755274607E-021
 -3.140000000000000E-002   -2.037875758755926E-021
 -3.130000000000000E-002   -2.737122460366862E-021
 -3.120000000000000E-002   -3.420326283879077E-021
 -3.110000000000000E-002   -4.015131114991453E-021
 -3.100000000000000E-002   -4.428539906292820E-021
 -3.090000000000000E-002   -4.541568742653734E-021
 -3.080000000000000E-002   -4.202598420017620E-021
 -3.070000000000000E-002   -3.221583632596127E-021
 -3.060000000000000E-002   -1.369188712014642E-021
 -3.050000000000000E-002    1.613190728631562E-021
 -3.040000000000000E-002    5.985265592353544E-021
 -3.030000000000000E-002    1.195437824487915E-020
 -3.020000000000000E-002    1.959177712334718E-020
 -3.010000000000000E-002    2.871874630620414E-020
 -3.000000000000000E-002    3.877070900244964E-020
 -2.990000000000000E-002    4.865804886097817E-020
 -2.980000000000000E-002    5.665420100847420E-020
 -2.970000000000000E-002    6.035242769976133E-020
 -2.960000000000000E-002    5.673942817409378E-020
 -2.950000000000000E-002    4.243316829256915E-020
 -2.940000000000000E-002    1.412059007381627E-020
 -2.930000000000000E-002   -3.079395632510201E-020
 -2.920000000000000E-002   -9.335706804377706E-020
 -2.910000000000000E-002   -1.721283154547818E-019
 -2.900000000000000E-002   -2.622672798953831E-019
 -2.890000000000000E-002   -3.548275413296416E-019
 -2.880000000000000E-002   -4.364743080359608E-019
 -2.870000000000000E-002   -4.898484632011524E-019
 -2.860000000000000E-002   -4.947658638589753E-019
 -2.850000000000000E-002   -4.303590702379679E-019
 -2.840000000000000E-002   -2.781386559241138E-019
 -2.830000000000000E-002   -2.578221677666054E-020
 -2.820000000000000E-002    3.287309846949983E-019
 -2.810000000000000E-002    7.732024387933412E-019
 -2.800000000000000E-002    1.278213925299628E-018
 -2.790000000000000E-002    1.795799765779943E-018
 -2.780000000000000E-002    2.260488139520104E-018
 -2.770000000000000E-002    2.593216570996180E-018
 -2.760000000000000E-002    2.708300189695381E-018
 -2.750000000000000E-002    2.523199159017697E-018
 -2.740000000000000E-002    1.970337754864976E-018
 -2.730000000000000E-002    1.009757029242120E-018
 -2.720000000000000E-002   -3.589965919498311E-019
 -2.710000000000000E-002   -2.087527999080761E-018
 -2.700000000000000E-002   -4.073514283120586E-018
 -2.690000000000000E-002   -6.161262542103987E-018
 -2.680000000000000E-002   -8.148662279305898E-018
 -2.670000000000000E-002   -9.800485245151329E-018
 -2.660000000000000E-002   -1.086710625186192E-017
 -2.650000000000000E-002   -1.110692267709709E-017
 -2.640000000000000E-002   -1.031020575964265E-017
 -2.630000000000000E-002   -8.321940347011428E-018
 -2.620000000000000E-002   -5.061495501203343E-018
 -2.610000000000000E-002   -5.376669007196839E-019
 -2.600000000000000E-002    5.141369149694537E-018
 -2.590000000000000E-002    1.176260679759533E-017
 -2.580000000000000E-002    1.900587590919074E-017
 -2.570000000000000E-002    2.644298012764067E-017
 -2.560000000000000E-002    3.353723105287219E-017
 -2.550000000000000E-002    3.964373432344752E-017
 -2.540000000000000E-002    4.401300657284806E-017
 -2.530000000000000E-002    4.580310209738692E-017
 -2.520000000000000E-002    4.410778090846443E-017
 -2.510000000000000E-002    3.800957443861645E-017
 -2.500000000000000E-002    2.666604335174613E-017
 -2.490000000000000E-002    9.434409953812626E-018
 -2.480000000000000E-002   -1.396630433083827E-017
 -2.470000000000000E-002   -4.326519689876630E-017
 -2.460000000000000E-002   -7.744161178000502E-017
 -2.450000000000000E-002   -1.145504475655498E-016
 -2.440000000000000E-002   -1.516105885993433E-016
 -2.430000000000000E-002   -1.846009846580798E-016
 -2.420000000000000E-002   -2.086069206546278E-016
 -2.410000000000000E-002   -2.181485100758207E-016
 -2.400000000000000E-002   -2.077037201309120E-016
 -2.390000000000000E-002   -1.724104567755859E-016
 -2.380000000000000E-002   -1.088984250069773E-016
 -2.370000000000000E-002   -1.616659613110207E-017
 -2.360000000000000E-002    1.036087640242938E-016
 -2.350000000000000E-002    2.444708743693208E-016
 -2.340000000000000E-002    3.964228978278774E-016
 -2.330000000000000E-002    5.456342050634699E-016
 -2.320000000000000E-002    6.751941689865711E-016
 -2.310000000000000E-002    7.664343662272694E-016
 -2.300000000000000E-002    8.007629392584086E-016
 -2.290000000000000E-002    7.618713148760993E-016
 -2.280000000000000E-002    6.380949727771736E-016
 -2.270000000000000E-002    4.246504129248558E-016
 -2.260000000000000E-002    1.254405186740177E-016
 -2.250000000000000E-002   -2.458682447159591E-016
 -2.240000000000000E-002   -6.657383321008511E-016
 -2.230000000000000E-002   -1.101768821767906E-015
 -2.220000000000000E-002   -1.514833519038236E-015
 -2.210000000000000E-002   -1.862220221194708E-015
 -2.200000000000000E-002   -2.101499712111614E-015
 -2.190000000000000E-002   -2.194738879181501E-015
 -2.180000000000000E-002   -2.112602415750476E-015
 -2.170000000000000E-002   -1.837881681169263E-015
 -2.160000000000000E-002   -1.368045180119780E-015
 -2.150000000000000E-002   -7.165250449898253E-016
 -2.140000000000000E-002    8.738569929612176E-017
 -2.130000000000000E-002    9.999703327138561E-016
 -2.120000000000000E-002    1.965642234974876E-015
 -2.110000000000000E-002    2.920273323441990E-015
 -2.100000000000000E-002    3.794906329677571E-015
 -2.090000000000000E-002    4.519487403740793E-015
 -2.080000000000000E-002    5.026362130254213E-015
 -2.070000000000000E-002    5.253440715453378E-015
 -2.060000000000000E-002    5.147118199809062E-015
 -2.050000000000000E-002    4.665193380260680E-015
 -2.040000000000000E-002    3.780107900841395E-015
 -2.030000000000000E-002    2.482798500030205E-015
 -2.020000000000000E-002    7.872906637342389E-016
 -2.010000000000000E-002   -1.264130744734384E-015
 -2.000000000000000E-002   -3.595715418037395E-015
 -1.990000000000000E-002   -6.093945574456152E-015
 -1.980000000000000E-002   -8.605423179715939E-015
 -1.970000000000000E-002   -1.093839963705411E-014
 -1.960000000000000E-002   -1.286935008799516E-014
 -1.950000000000000E-002   -1.415561560887137E-014
 -1.940000000000000E-002   -1.455447723916851E-014
 -1.930000000000000E-002   -1.384807114987786E-014
 -1.920000000000000E-002   -1.187245572809845E-014
 -1.910000000000000E-002   -8.548040280546083E-015
 -1.900000000000000E-002   -3.907640780409444E-015
 -1.890000000000000E-002    1.882135477148206E-015
 -1.880000000000000E-002    8.510463496930089E-015
 -1.870000000000000E-002    1.552654189993588E-014
 -1.860000000000000E-002    2.236088152796543E-014
 -1.850000000000000E-002    2.836418065480389E-014
 -1.840000000000000E-002    3.286205204615637E-014
 -1.830000000000000E-002    3.522150600482263E-014
 -1.820000000000000E-002    3.492294933712349E-014
 -1.810000000000000E-002    3.162984886584740E-014
 -1.800000000000000E-002    2.524751863384445E-014
 -1.790000000000000E-002    1.596276014237994E-014
 -1.780000000000000E-002    4.257633330760857E-015
 -1.770000000000000E-002   -9.106946223701846E-015
 -1.760000000000000E-002   -2.313878668331650E-014
 -1.750000000000000E-002   -3.669049715693524E-014
 -1.740000000000000E-002   -4.855780544625787E-014
 -1.730000000000000E-002   -5.759086159324688E-014
 -1.720000000000000E-002   -6.280721276842838E-014
 -1.710000000000000E-002   -6.349445590702760E-014
 -1.700000000000000E-002   -5.929131251441138E-014
 -1.690000000000000E-002   -5.023796834325009E-014
 -1.680000000000000E-002   -3.678977388210958E-014
 -1.670000000000000E-002   -1.979232064731660E-014
 -1.660000000000000E-002   -4.200260609276434E-016
 -1.650000000000000E-002    1.991591793299346E-014
 -1.640000000000000E-002    3.968137014336092E-014
 -1.630000000000000E-002    5.734427338135419E-014
 -1.620000000000000E-002    7.149969364371316E-014
 -1.610000000000000E-002    8.098444827329656E-014
 -1.600000000000000E-002    8.497243954753447E-014
 -1.590000000000000E-002    8.304420916768073E-014
 -1.580000000000000E-002    7.522652710948248E-014
 -1.570000000000000E-002    6.200033147013236E-014
 -1.560000000000000E-002    4.427704196646903E-014
 -1.550000000000000E-002    2.334470533750552E-014
 -1.540000000000000E-002    7.864970467249968E-016
 -1.530000000000000E-002   -2.162543421817181E-014
 -1.520000000000000E-002   -4.205674300476808E-014
 -1.510000000000000E-002   -5.875332414504304E-014
 -1.500000000000000E-002   -7.019270688111094E-014
 -1.490000000000000E-002   -7.523558390661923E-014
 -1.480000000000000E-002   -7.326629772499961E-014
 -1.470000000000000E-002   -6.430878277303471E-014
 -1.460000000000000E-002   -4.910297821741593E-014
 -1.450000000000000E-002   -2.912670097920724E-014
 -1.440000000000000E-002   -6.549728757449978E-015
 -1.430000000000000E-002    1.588900968741694E-014
 -1.420000000000000E-002    3.508374874579427E-014
 -1.410000000000000E-002    4.783817518188685E-014
 -1.400000000000000E-002    5.120058767929103E-014
 -1.390000000000000E-002    4.283341452926261E-014
 -1.380000000000000E-002    2.138435896148498E-014
 -1.370000000000000E-002   -1.317948930319233E-014
 -1.360000000000000E-002   -5.931556323158432E-014
 -1.350000000000000E-002   -1.137670191312464E-013
 -1.340000000000000E-002   -1.715745686712009E-013
 -1.330000000000000E-002   -2.262622046288034E-013
 -1.320000000000000E-002   -2.702069315434520E-013
 -1.310000000000000E-002   -2.951872654248368E-013
 -1.300000000000000E-002   -2.930887897103660E-013
 -1.290000000000000E-002   -2.567292614160252E-013
 -1.280000000000000E-002   -1.807506096200498E-013
 -1.270000000000000E-002   -6.251277558801138E-014
 -1.260000000000000E-002    9.708595702810615E-014
 -1.250000000000000E-002    2.929438562077083E-013
 -1.240000000000000E-002    5.153304835519546E-013
 -1.230000000000000E-002    7.497833080791537E-013
 -1.220000000000000E-002    9.774006296920633E-013
 -1.210000000000000E-002    1.175588986875065E-012
 -1.200000000000000E-002    1.319299252837633E-012
 -1.190000000000000E-002    1.382751433493745E-012
 -1.180000000000000E-002    1.341603445088552E-012
 -1.170000000000000E-002    1.175467033131442E-012
 -1.160000000000000E-002    8.706161958828056E-013
 -1.150000000000000E-002    4.226741798892297E-013
 -1.140000000000000E-002   -1.609839668713754E-013
 -1.130000000000000E-002   -8.594136177484964E-013
 -1.120000000000000E-002   -1.637174594927149E-012
 -1.110000000000000E-002   -2.444584784980224E-012
 -1.100000000000000E-002   -3.219373244128534E-012
 -1.090000000000000E-002   -3.889858492121752E-012
 -1.080000000000000E-002   -4.379630684002781E-012
 -1.070000000000000E-002   -4.613557951140900E-012
 -1.060000000000000E-002   -4.524755879632340E-012
 -1.050000000000000E-002   -4.061997982475524E-012
 -1.040000000000000E-002   -3.196903746801879E-012
 -1.030000000000000E-002   -1.930165863588906E-012
 -1.020000000000000E-002   -2.960582863245437E-013
 -1.010000000000000E-002    1.635446184063697E-012
 -1.000000000000000E-002    3.759475432467229E-012
 -9.899999999999999E-003    5.940256999232398E-012
 -9.800000000000000E-003    8.018316110693785E-012
 -9.699999999999999E-003    9.820550549434408E-012
 -9.599999999999999E-003    1.117255357597224E-011
 -9.500000000000000E-003    1.191229498515742E-011
 -9.399999999999999E-003    1.190408338338223E-011
 -9.299999999999999E-003    1.105165134066073E-011
 -9.200000000000000E-003    9.309235698339362E-012
 -9.099999999999999E-003    6.689671143143055E-012
 -8.999999999999999E-003    3.268755462403351E-012
 -8.900000000000000E-003   -8.145599061214702E-013
 -8.799999999999999E-003   -5.362264072707523E-012
 -8.699999999999999E-003   -1.012546621242407E-011
 -8.600000000000000E-003   -1.481619429419160E-011
 -8.499999999999999E-003   -1.912215167415125E-011
 -8.399999999999999E-003   -2.272365687861709E-011
 -8.300000000000000E-003   -2.531197474621922E-011
 -8.199999999999999E-003   -2.660824364474780E-011
 -8.100000000000000E-003   -2.638227729101578E-011
 -8.000000000000000E-003   -2.447051104458888E-011
 -7.899999999999999E-003   -2.079241803795630E-011
 -7.800000000000000E-003   -1.536457123349953E-011
 -7.699999999999999E-003   -8.311485467839027E-012
 -7.599999999999999E-003    1.278337839264804E-013
 -7.499999999999999E-003    9.598793893669864E-012
 -7.399999999999999E-003    1.963681683917736E-011
 -7.299999999999999E-003    2.968076653934278E-011
 -7.199999999999999E-003    3.909502121246727E-011
 -7.100000000000000E-003    4.720050181604672E-011
 -6.999999999999999E-003    5.331417579850627E-011
 -6.899999999999999E-003    5.679559456315509E-011
 -6.800000000000000E-003    5.709797646184684E-011
 -6.699999999999999E-003    5.382035160014932E-011
 -6.599999999999999E-003    4.675633481768019E-011
 -6.499999999999999E-003    3.593474896227761E-011
 -6.399999999999999E-003    2.164710787645336E-011
 -6.299999999999999E-003    4.457650457736728E-012
 -6.199999999999999E-003   -1.480739833697687E-011
 -6.100000000000000E-003   -3.509292302205925E-011
 -5.999999999999999E-003   -5.516997551040291E-011
 -5.899999999999999E-003   -7.371015185125918E-011
 -5.800000000000000E-003   -8.937448120137718E-011
 -5.699999999999999E-003   -1.009101871316856E-010
 -5.599999999999999E-003   -1.072474346044798E-010
 -5.499999999999999E-003   -1.075877114925557E-010
 -5.399999999999999E-003   -1.014758720824343E-010
 -5.299999999999999E-003   -8.884922860868047E-011
 -5.199999999999999E-003   -7.005892939985913E-011
 -5.099999999999999E-003   -4.586167453514781E-011
 -4.999999999999999E-003   -1.738233680365405E-011
 -4.899999999999999E-003    1.394917942705136E-011
 -4.799999999999999E-003    4.648126263151096E-011
 -4.699999999999999E-003    7.843713196445363E-011
 -4.599999999999999E-003    1.080168899758017E-010
 -4.499999999999999E-003    1.334977239905733E-010
 -4.399999999999999E-003    1.533259202040774E-010
 -4.299999999999999E-003    1.661959748288322E-010
 -4.199999999999999E-003    1.711141620861418E-010
 -4.099999999999999E-003    1.674455300163920E-010
 -3.999999999999999E-003    1.549450676579396E-010
 -3.899999999999999E-003    1.337745279975553E-010
 -3.799999999999999E-003    1.045065143306888E-010
 -3.699999999999999E-003    6.811721642783685E-011
 -3.599999999999999E-003    2.596781887543115E-011
 -3.499999999999999E-003   -2.022638131862298E-011
 -3.399999999999999E-003   -6.844113315212792E-011
 -3.299999999999999E-003   -1.164054339596576E-010
 -3.199999999999999E-003   -1.616831400502358E-010
 -3.099999999999999E-003   -2.017750980300071E-010
 -2.999999999999999E-003   -2.342410129731704E-010
 -2.899999999999999E-003   -2.568372266833631E-010
 -2.799999999999999E-003   -2.676635382163838E-010
 -2.699999999999999E-003   -2.653090594027508E-010
 -2.599999999999999E-003   -2.489850502085113E-010
 -2.499999999999999E-003   -2.186312753764887E-010
 -2.399999999999999E-003   -1.749832783084827E-010
 -2.299999999999999E-003   -1.195901717584534E-010
 -2.199999999999999E-003   -5.477604897240385E-011
 -2.099999999999999E-003    1.645604360836856E-011
 -1.999999999999999E-003    9.057364596684132E-011
 -1.899999999999999E-003    1.637077845647928E-010
 -1.799999999999999E-003    2.318747791729968E-010
 -1.699999999999999E-003    2.912091056452530E-010
 -1.599999999999999E-003    3.381886772709897E-010
 -1.499999999999999E-003    3.698352927496582E-010
 -1.399999999999999E-003    3.838763999381734E-010
 -1.299999999999999E-003    3.788597286213522E-010
 -1.199999999999999E-003    3.542181746322018E-010
 -1.099999999999999E-003    3.102885035646398E-010
 -9.999999999999989E-004    2.482925254135294E-010
 -8.999999999999990E-004    1.702919147334248E-010
 -7.999999999999990E-004    7.912900732919044E-011
 -6.999999999999989E-004   -2.163685469927845E-011
 -5.999999999999990E-004   -1.277920635518210E-010
 -4.999999999999989E-004   -2.345311488828928E-010
 -3.999999999999989E-004   -3.365268149917175E-010
 -2.999999999999989E-004   -4.280207803860406E-010
 -1.999999999999989E-004   -5.029530525897307E-010
 -9.999999999999892E-005   -5.551480741250211E-010
  1.084202172485504E-018   -5.785728336852960E-010
  1.000000000000011E-004   -5.676757840043838E-010
  2.000000000000011E-004   -5.178042670363802E-010
  3.000000000000011E-004   -4.256858103769599E-010
  4.000000000000011E-004   -2.899448658775813E-010
  5.000000000000011E-004   -1.116133478620109E-010
  6.000000000000011E-004    1.054165916576974E-010
  7.000000000000011E-004    3.540544169302547E-010
  8.000000000000011E-004    6.238453182372397E-010
  9.000000000000012E-004    9.010273018208022E-010
  1.000000000000001E-003    1.168850160951695E-009
  1.100000000000001E-003    1.408177905036246E-009
  1.200000000000001E-003    1.598374968945824E-009
  1.300000000000001E-003    1.718454574373194E-009
  1.400000000000001E-003    1.748445601954109E-009
  1.500000000000001E-003    1.670915390209515E-009
  1.600000000000001E-003    1.472571337119998E-009
  1.700000000000001E-003    1.145856217887692E-009
  1.800000000000001E-003    6.904491676036656E-010
  1.900000000000001E-003    1.145882473678381E-010
  2.000000000000001E-003   -5.638584791949324E-010
  2.100000000000001E-003   -1.316636309655319E-009
  2.200000000000001E-003   -2.104704144921133E-009
  2.300000000000001E-003   -2.878221890218491E-009
  2.400000000000001E-003   -3.576932856212482E-009
  2.500000000000001E-003   -4.130937667596190E-009
  2.600000000000001E-003   -4.461838678730372E-009
  2.700000000000001E-003   -4.484223295876906E-009
  2.800000000000001E-003   -4.107440978265307E-009
  2.900000000000001E-003   -3.237618794882791E-009
  3.000000000000001E-003   -1.779849198496700E-009
  3.100000000000001E-003    3.595268606391779E-010
  3.200000000000001E-003    3.270627847555215E-009
  3.300000000000001E-003    7.037835363158857E-009
  3.400000000000001E-003    1.173778023692369E-008
  3.500000000000001E-003    1.743764760881467E-008
  3.600000000000001E-003    2.419387589896926E-008
  3.700000000000001E-003    3.205137986664996E-008
  3.800000000000001E-003    4.104335600618311E-008
  3.900000000000001E-003    5.119172936308658E-008
  4.000000000000001E-003    6.250829105080706E-008
  4.100000000000001E-003    7.499646710641904E-008
  4.200000000000001E-003    8.865371518578836E-008
  4.300000000000001E-003    1.034743832123803E-007
  4.400000000000001E-003    1.194529618469214E-007
  4.500000000000001E-003    1.365875069865698E-007
  4.600000000000002E-003    1.548830650816741E-007
  4.700000000000001E-003    1.743548856666856E-007
  4.800000000000001E-003    1.950312760596337E-007
  4.900000000000002E-003    2.169558751995541E-007
  5.000000000000001E-003    2.401892897799172E-007
  5.100000000000001E-003    2.648099240230843E-007
  5.200000000000001E-003    2.909139955977347E-007
  5.300000000000002E-003    3.186149113733706E-007
  5.400000000000001E-003    3.480418125031816E-007
  5.500000000000001E-003    3.793376970889764E-007
  5.600000000000002E-003    4.126570890564763E-007
  5.700000000000001E-003    4.481634355262434E-007
  5.800000000000001E-003    4.860265882967736E-007
  5.900000000000002E-003    5.264203083281554E-007
  6.000000000000001E-003    5.695201433488261E-007
  6.100000000000001E-003    6.155017470173013E-007
  6.200000000000002E-003    6.645395644410567E-007
  6.300000000000002E-003    7.168062470223608E-007
  6.400000000000001E-003    7.724726857429452E-007
  6.500000000000001E-003    8.317085220922029E-007
  6.600000000000002E-003    8.946834458355803E-007
  6.700000000000001E-003    9.615688402582731E-007
  6.800000000000001E-003    1.032539906635267E-006
  6.900000000000002E-003    1.107778469533509E-006
  7.000000000000001E-003    1.187475914118101E-006
  7.100000000000001E-003    1.271836706293086E-006
  7.200000000000002E-003    1.361081670764845E-006
  7.300000000000002E-003    1.455451689889033E-006
  7.400000000000001E-003    1.555211132250141E-006
  7.500000000000001E-003    1.660651546865557E-006
  7.600000000000002E-003    1.772094570313151E-006
  7.700000000000001E-003    1.889894300878196E-006
  7.800000000000001E-003    2.014439799934015E-006
  7.900000000000001E-003    2.146156202506798E-006
  8.000000000000002E-003    2.285504572563845E-006
  8.100000000000001E-003    2.432982428713162E-006
  8.200000000000001E-003    2.589121790490285E-006
  8.300000000000002E-003    2.754486957106673E-006
  8.400000000000001E-003    2.929672249760931E-006
  8.500000000000002E-003    3.115299034368351E-006
  8.600000000000002E-003    3.312011722185737E-006
  8.700000000000001E-003    3.520475152554102E-006
  8.800000000000002E-003    3.741371182246092E-006
  8.900000000000002E-003    3.975397484776598E-006
  9.000000000000001E-003    4.223265850485549E-006
  9.100000000000002E-003    4.485702216633627E-006
  9.200000000000002E-003    4.763447256224514E-006
  9.300000000000001E-003    5.057259411328094E-006
  9.400000000000002E-003    5.367916831190256E-006
  9.500000000000001E-003    5.696222582069970E-006
  9.600000000000001E-003    6.043009063237727E-006
  9.700000000000002E-003    6.409142405254697E-006
  9.800000000000001E-003    6.795527924671432E-006
  9.900000000000001E-003    7.203115680959234E-006
  1.000000000000000E-002    7.632905479810422E-006
  1.010000000000000E-002    8.085950679884534E-006
  1.020000000000000E-002    8.563364156760484E-006
  1.030000000000000E-002    9.066319402476614E-006
  1.040000000000000E-002    9.596057133892575E-006
  1.050000000000000E-002    1.015388821811449E-005
  1.060000000000000E-002    1.074119703465182E-005
  1.070000000000000E-002    1.135944428397756E-005
  1.080000000000000E-002    1.201017277963586E-005
  1.090000000000000E-002    1.269500913491209E-005
  1.100000000000000E-002    1.341566925273913E-005
  1.110000000000000E-002    1.417396173978174E-005
  1.120000000000000E-002    1.497178761801980E-005
  1.130000000000000E-002    1.581114697493024E-005
  1.140000000000000E-002    1.669413848222462E-005
  1.150000000000000E-002    1.762295598315604E-005
  1.160000000000000E-002    1.859989351142699E-005
  1.170000000000000E-002    1.962733930366929E-005
  1.180000000000000E-002    2.070777279283607E-005
  1.190000000000000E-002    2.184376322038962E-005
  1.200000000000000E-002    2.303796326885502E-005
  1.210000000000000E-002    2.429310723653321E-005
  1.220000000000000E-002    2.561200627856757E-005
  1.230000000000000E-002    2.699755231580261E-005
  1.240000000000000E-002    2.845271131931209E-005
  1.250000000000000E-002    2.998053214642588E-005
  1.260000000000000E-002    3.158414915270382E-005
  1.270000000000000E-002    3.326678853807659E-005
  1.280000000000000E-002    3.503178150135554E-005
  1.290000000000000E-002    3.688257960599238E-005
  1.300000000000000E-002    3.882275912820340E-005
  1.310000000000000E-002    4.085604121829210E-005
  1.320000000000000E-002    4.298631175304136E-005
  1.330000000000000E-002    4.521762831222905E-005
  1.340000000000000E-002    4.755423714494624E-005
  1.350000000000000E-002    5.000058915016464E-005
  1.360000000000000E-002    5.256134405942312E-005
  1.370000000000000E-002    5.524138462607531E-005
  1.380000000000000E-002    5.804581329620969E-005
  1.390000000000000E-002    6.097996797132819E-005
  1.400000000000000E-002    6.404941450420220E-005
  1.410000000000000E-002    6.725994491053088E-005
  1.420000000000000E-002    7.061757955756843E-005
  1.430000000000000E-002    7.412854865003417E-005
  1.440000000000000E-002    7.779931086475983E-005
  1.450000000000000E-002    8.163652211537934E-005
  1.460000000000000E-002    8.564705406939669E-005
  1.470000000000000E-002    8.983798210802839E-005
  1.480000000000000E-002    9.421658747248837E-005
  1.490000000000000E-002    9.879035928906890E-005
  1.500000000000000E-002    1.035670005893960E-004
  1.510000000000000E-002    1.085544363729754E-004
  1.520000000000000E-002    1.137608107043058E-004
  1.530000000000000E-002    1.191945164152061E-004
  1.540000000000000E-002    1.248641978538632E-004
  1.550000000000000E-002    1.307787663153192E-004
  1.560000000000000E-002    1.369474099544161E-004
  1.570000000000000E-002    1.433796129040175E-004
  1.580000000000000E-002    1.500851740678950E-004
  1.590000000000000E-002    1.570741776847428E-004
  1.600000000000000E-002    1.643570526817401E-004
  1.610000000000000E-002    1.719445458406655E-004
  1.620000000000000E-002    1.798477217803821E-004
  1.630000000000000E-002    1.880779998356132E-004
  1.640000000000000E-002    1.966471101040811E-004
  1.650000000000000E-002    2.055671131967499E-004
  1.660000000000000E-002    2.148504244684503E-004
  1.670000000000000E-002    2.245097696756564E-004
  1.680000000000000E-002    2.345582107777875E-004
  1.690000000000000E-002    2.450091455199740E-004
  1.700000000000000E-002    2.558763523224498E-004
  1.710000000000000E-002    2.671739615182594E-004
  1.720000000000000E-002    2.789164496036409E-004
  1.730000000000000E-002    2.911186670801898E-004
  1.740000000000000E-002    3.037958699438924E-004
  1.750000000000000E-002    3.169637389474555E-004
  1.760000000000000E-002    3.306383293297508E-004
  1.770000000000000E-002    3.448361486088196E-004
  1.780000000000000E-002    3.595740829169269E-004
  1.790000000000000E-002    3.748694776362858E-004
  1.800000000000000E-002    3.907400960639497E-004
  1.810000000000000E-002    4.072040907139848E-004
  1.820000000000000E-002    4.242800625719884E-004
  1.830000000000000E-002    4.419870014849392E-004
  1.840000000000000E-002    4.603442633885047E-004
  1.850000000000000E-002    4.793716577810647E-004
  1.860000000000000E-002    4.990893093370059E-004
  1.870000000000000E-002    5.195177989274465E-004