 -4.000000000000000E-002    0.000000000000000E+000
 -3.990000000000000E-002    0.000000000000000E+000
 -3.980000000000000E-002    0.000000000000000E+000
 -3.970000000000000E-002    0.000000000000000E+000
 -3.960000000000000E-002    0.000000000000000E+000
 -3.950000000000000E-002    0.000000000000000E+000
 -3.940000000000000E-002    0.000000000000000E+000
 -3.930000000000000E-002    0.000000000000000E+000
 -3.920000000000000E-002    0.000000000000000E+000
 -3.910000000000000E-002    0.000000000000000E+000
 -3.900000000000000E-002    0.000000000000000E+000
 -3.890000000000000E-002    0.000000000000000E+000
 -3.880000000000000E-002    0.000000000000000E+000
 -3.870000000000000E-002    0.000000000000000E+000
 -3.860000000000000E-002    0.000000000000000E+000
 -3.850000000000000E-002    0.000000000000000E+000
 -3.840000000000000E-002    0.000000000000000E+000
 -3.830000000000000E-002    0.000000000000000E+000
 -3.820000000000000E-002    0.000000000000000E+000
 -3.810000000000000E-002    0.000000000000000E+000
 -3.800000000000000E-002    0.000000000000000E+000
 -3.790000000000000E-002    0.000000000000000E+000
 -3.780000000000000E-002    0.000000000000000E+000
 -3.770000000000000E-002    0.000000000000000E+000
 -3.760000000000000E-002    0.000000000000000E+000
 -3.750000000000000E-002    0.000000000000000E+000
 -3.740000000000000E-002    0.000000000000000E+000
 -3.730000000000000E-002    0.000000000000000E+000
 -3.720000000000000E-002    0.000000000000000E+000
 -3.710000000000000E-002    0.000000000000000E+000
 -3.700000000000000E-002    0.000000000000000E+000
 -3.690000000000000E-002    0.000000000000000E+000
 -3.680000000000000E-002    0.000000000000000E+000
 -3.670000000000000E-002    0.000000000000000E+000
 -3.660000000000000E-002    0.000000000000000E+000
 -3.650000000000000E-002    0.000000000000000E+000
 -3.640000000000000E-002    0.000000000000000E+000
 -3.630000000000000E-002    0.000000000000000E+000
 -3.620000000000000E-002    0.000000000000000E+000
 -3.610000000000000E-002    0.000000000000000E+000
 -3.600000000000000E-002    0.000000000000000E+000
 -3.590000000000000E-002    0.000000000000000E+000
 -3.580000000000000E-002    0.000000000000000E+000
 -3.570000000000000E-002    0.000000000000000E+000
 -3.560000000000000E-002    6.414635304221270E-048
 -3.550000000000000E-002    1.931064346411026E-047
 -3.540000000000000E-002    5.786519284088434E-047
 -3.530000000000000E-002    9.641974221765841E-047
 -3.520000000000000E-002    1.049725892899534E-046
 -3.510000000000000E-002    1.115479167420036E-046
 -3.500000000000000E-002   -7.123614327843403E-048
 -3.490000000000000E-002   -5.163239587225537E-046
 -3.480000000000000E-002   -1.480226686529276E-045
 -3.470000000000000E-002   -3.836471707488675E-045
 -3.460000000000000E-002   -9.030216967415317E-045
 -3.450000000000000E-002   -1.924019483922325E-044
 -3.440000000000000E-002   -3.581257168730341E-044
 -3.430000000000000E-002   -5.959902743680699E-044
 -3.420000000000000E-002   -8.944925850813109E-044
 -3.410000000000000E-002   -1.122735449351269E-043
 -3.400000000000000E-002   -9.824647025628628E-044
 -3.390000000000000E-002    1.842347958759000E-044
 -3.380000000000000E-002    3.497989099324269E-043
 -3.370000000000000E-002    1.071264252299358E-042
 -3.360000000000000E-002    2.418360755614250E-042
 -3.350000000000000E-002    4.634540767729880E-042
 -3.340000000000000E-002    7.843378718039857E-042
 -3.330000000000000E-002    1.178786901927347E-041
 -3.320000000000000E-002    1.540001059399294E-041
 -3.310000000000000E-002    1.618606340940505E-041
 -3.300000000000000E-002    9.521737099012600E-042
 -3.290000000000000E-002   -1.190498876296354E-041
 -3.280000000000000E-002   -5.800637029939374E-041
 -3.270000000000000E-002   -1.397830843045304E-040
 -3.260000000000000E-002   -2.653474930389808E-040
 -3.250000000000000E-002   -4.324301469668684E-040
 -3.240000000000000E-002   -6.168204411000344E-040
 -3.230000000000000E-002   -7.575912290955044E-040
 -3.220000000000000E-002   -7.425694456344159E-040
 -3.210000000000000E-002   -4.014652034721948E-040
 -3.200000000000000E-002    4.812254606493426E-040
 -3.190000000000000E-002    2.117352085304679E-039
 -3.180000000000000E-002    4.613678732808036E-039
 -3.170000000000000E-002    7.808775139572063E-039
 -3.160000000000000E-002    1.105992306102823E-038
 -3.150000000000000E-002    1.303042939991926E-038
 -3.140000000000000E-002    1.158532225528896E-038
 -3.130000000000000E-002    3.972521242533073E-039
 -3.120000000000000E-002   -1.247397942924879E-038
 -3.110000000000000E-002   -3.886198531576927E-038
 -3.100000000000000E-002   -7.235183907690543E-038
 -3.090000000000000E-002   -1.029817472376754E-037
 -3.080000000000000E-002   -1.103674756547861E-037
 -3.070000000000000E-002   -6.173679551603282E-038
 -3.060000000000000E-002    8.624158641103417E-038
 -3.050000000000000E-002    3.784077923397227E-037
 -3.040000000000000E-002    8.409392959337925E-037
 -3.030000000000000E-002    1.446879092928755E-036
 -3.020000000000000E-002    2.067003360175968E-036
 -3.010000000000000E-002    2.411509375622618E-036
 -3.000000000000000E-002    1.977439987094600E-036
 -2.990000000000000E-002    2.952995616832374E-038
 -2.980000000000000E-002   -4.343597753222850E-036
 -2.970000000000000E-002   -1.204429677652855E-035
 -2.960000000000000E-002   -2.359589202686177E-035
 -2.950000000000000E-002   -3.854823672948143E-035
 -2.940000000000000E-002   -5.466479235315415E-035
 -2.930000000000000E-002   -6.698143129434597E-035
 -2.920000000000000E-002   -6.695353787236461E-035
 -2.910000000000000E-002   -4.206899181056613E-035
 -2.900000000000000E-002    2.352586466912219E-035
 -2.890000000000000E-002    1.467113169226630E-034
 -2.880000000000000E-002    3.407004447033324E-034
 -2.870000000000000E-002    6.074740944094198E-034
 -2.860000000000000E-002    9.273608117320623E-034
 -2.850000000000000E-002    1.246679500139859E-033
 -2.840000000000000E-002    1.465669978983290E-033
 -2.830000000000000E-002    1.430567033748695E-033
 -2.820000000000000E-002    9.353610912761759E-034
 -2.810000000000000E-002   -2.599005714295698E-034
 -2.800000000000000E-002   -2.387130406474496E-033
 -2.790000000000000E-002   -5.598914180036629E-033
 -2.780000000000000E-002   -9.866414911315082E-033
 -2.770000000000000E-002   -1.485226968891778E-032
 -2.760000000000000E-002   -1.977489255094146E-032
 -2.750000000000000E-002   -2.329380601072232E-032
 -2.740000000000000E-002   -2.345966182988540E-032
 -2.730000000000000E-002   -1.778432423216568E-032
 -2.720000000000000E-002   -3.491627232820689E-033
 -2.710000000000000E-002    2.199718628878863E-032
 -2.700000000000000E-002    6.031264429904380E-032
 -2.690000000000000E-002    1.111344381355903E-031
 -2.680000000000000E-002    1.710168491133113E-031
 -2.670000000000000E-002    2.322071095143080E-031
 -2.660000000000000E-002    2.817166663029177E-031
 -2.650000000000000E-002    3.009945476907436E-031
 -2.640000000000000E-002    2.666133694547544E-031
 -2.630000000000000E-002    1.523866535204286E-031
 -2.620000000000000E-002   -6.673801585106046E-032
 -2.610000000000000E-002   -4.088440296210612E-031
 -2.600000000000000E-002   -8.774006984081310E-031
 -2.590000000000000E-002   -1.452352726285533E-030
 -2.580000000000000E-002   -2.080997037831419E-030
 -2.570000000000000E-002   -2.670252348010838E-030
 -2.560000000000000E-002   -3.082449585610498E-030
 -2.550000000000000E-002   -3.137175667094827E-030
 -2.540000000000000E-002   -2.621868084150562E-030
 -2.530000000000000E-002   -1.313665881445317E-030
 -2.520000000000000E-002    9.856448879323192E-031
 -2.510000000000000E-002    4.401013518038132E-030
 -2.500000000000000E-002    8.923189419932851E-030
 -2.490000000000000E-002    1.433949559866707E-029
 -2.480000000000000E-002    2.016367420628510E-029
 -2.470000000000000E-002    2.557617143945275E-029
 -2.460000000000000E-002    2.939039495792278E-029
 -2.450000000000000E-002    3.006458115837249E-029
 -2.440000000000000E-002    2.578181116932973E-029
 -2.430000000000000E-002    1.462141719247157E-029
 -2.420000000000000E-002   -5.158107394840950E-030
 -2.410000000000000E-002   -3.471351508452886E-029
 -2.400000000000000E-002   -7.409375158163666E-029
 -2.390000000000000E-002   -1.216301501147343E-028
 -2.380000000000000E-002   -1.733054700860216E-028
 -2.370000000000000E-002   -2.222094031198980E-028
 -2.360000000000000E-002   -2.582338962677243E-028
 -2.350000000000000E-002   -2.682013113786051E-028
 -2.340000000000000E-002   -2.366414436152297E-028
 -2.330000000000000E-002   -1.474232452127198E-028
 -2.320000000000000E-002    1.361196514394958E-029
 -2.310000000000000E-002    2.549931545631656E-028
 -2.300000000000000E-002    5.751113649072130E-028
 -2.290000000000000E-002    9.573010176006988E-028
 -2.280000000000000E-002    1.365265134595096E-027
 -2.270000000000000E-002    1.739919386299885E-027
 -2.260000000000000E-002    1.998989616082063E-027
 -2.250000000000000E-002    2.040807225541134E-027
 -2.240000000000000E-002    1.753614814359351E-027
 -2.230000000000000E-002    1.031225269696286E-027
 -2.220000000000000E-002   -2.049882926467885E-028
 -2.210000000000000E-002   -1.979053822372036E-027
 -2.200000000000000E-002   -4.231180838312375E-027
 -2.190000000000000E-002   -6.790931597156242E-027
 -2.180000000000000E-002   -9.358909605133044E-027
 -2.170000000000000E-002   -1.150408397288390E-026
 -2.160000000000000E-002   -1.268387485932666E-026
 -2.150000000000000E-002   -1.229274447380286E-026
 -2.140000000000000E-002   -9.741956551154043E-027
 -2.130000000000000E-002   -4.568361714895874E-027
 -2.120000000000000E-002    3.436204406496464E-027
 -2.110000000000000E-002    1.409036496934471E-026
 -2.100000000000000E-002    2.670567533854327E-026
 -2.090000000000000E-002    4.001328126795691E-026
 -2.080000000000000E-002    5.216355124288301E-026
 -2.070000000000000E-002    6.082431262890705E-026
 -2.060000000000000E-002    6.339426603916331E-026
 -2.050000000000000E-002    5.733320028955962E-026
 -2.040000000000000E-002    4.059029770887059E-026
 -2.030000000000000E-002    1.208887457309489E-026
 -2.020000000000000E-002   -2.779668597857652E-026
 -2.010000000000000E-002   -7.685363994753894E-026
 -2.000000000000000E-002   -1.308229200934644E-025
 -1.990000000000000E-002   -1.834542326125872E-025
 -1.980000000000000E-002   -2.268853885582486E-025
 -1.970000000000000E-002   -2.523682708458363E-025
 -1.960000000000000E-002   -2.513109387707875E-025
 -1.950000000000000E-002   -2.165461751612319E-025
 -1.940000000000000E-002   -1.436798696432938E-025
 -1.930000000000000E-002   -3.232933864860527E-026
 -1.920000000000000E-002    1.129563105817132E-025
 -1.910000000000000E-002    2.822867792519812E-025
 -1.900000000000000E-002    4.606734021823245E-025
 -1.890000000000000E-002    6.289807030015020E-025
 -1.880000000000000E-002    7.655359320050923E-025
 -1.870000000000000E-002    8.482358630172760E-025
 -1.860000000000000E-002    8.568990821365926E-025
 -1.850000000000000E-002    7.755615016491577E-025
 -1.840000000000000E-002    5.944237348280895E-025
 -1.830000000000000E-002    3.112330754797267E-025
 -1.820000000000000E-002   -6.798562122718460E-026
 -1.810000000000000E-002   -5.287751966901271E-025
 -1.800000000000000E-002   -1.048443293075057E-024
 -1.790000000000000E-002   -1.596300159210992E-024
 -1.780000000000000E-002   -2.133644686957760E-024
 -1.770000000000000E-002   -2.613367917094411E-024
 -1.760000000000000E-002   -2.979338734465837E-024
 -1.750000000000000E-002   -3.166133275610054E-024
 -1.740000000000000E-002   -3.100072848669701E-024
 -1.730000000000000E-002   -2.702830278275125E-024
 -1.720000000000000E-002   -1.898905764437892E-024
 -1.710000000000000E-002   -6.279287750109716E-025
 -1.700000000000000E-002    1.138066652492864E-024
 -1.690000000000000E-002    3.373498650042979E-024
 -1.680000000000000E-002    5.976917864855135E-024
 -1.670000000000000E-002    8.751853296182380E-024
 -1.660000000000000E-002    1.139647848991986E-023
 -1.650000000000000E-002    1.350834273447585E-023
 -1.640000000000000E-002    1.460980375177899E-023
 -1.630000000000000E-002    1.419766639416888E-023
 -1.620000000000000E-002    1.181689902736919E-023
 -1.610000000000000E-002    7.153292466036403E-024
 -1.600000000000000E-002    1.342528674225823E-025
 -1.590000000000000E-002   -8.978460742745919E-024
 -1.580000000000000E-002   -1.952406440869660E-023
 -1.570000000000000E-002   -3.042719571944711E-023
 -1.560000000000000E-002   -4.024958324597979E-023
 -1.550000000000000E-002   -4.731957586124537E-023
 -1.540000000000000E-002   -4.993844985694916E-023
 -1.530000000000000E-002   -4.664742240315970E-023
 -1.520000000000000E-002   -3.652327118448242E-023
 -1.510000000000000E-002   -1.945653030182119E-023
 -1.500000000000000E-002    3.642642794848958E-024
 -1.490000000000000E-002    3.076592543720904E-023
 -1.480000000000000E-002    5.890014106127609E-023
 -1.470000000000000E-002    8.431494696982356E-023
 -1.460000000000000E-002    1.030356368166699E-022
 -1.450000000000000E-002    1.114540482271851E-022
 -1.440000000000000E-002    1.069932762252183E-022
 -1.430000000000000E-002    8.871296648202940E-023
 -1.420000000000000E-002    5.772826567195669E-023
 -1.410000000000000E-002    1.732516066818512E-023
 -1.400000000000000E-002   -2.731000411361038E-023
 -1.390000000000000E-002   -6.976944780169295E-023
 -1.380000000000000E-002   -1.034557126544962E-022
 -1.370000000000000E-002   -1.228276878675230E-022
 -1.360000000000000E-002   -1.246479711181715E-022
 -1.350000000000000E-002   -1.089737939430837E-022
 -1.340000000000000E-002   -7.963218694390017E-023
 -1.330000000000000E-002   -4.397203095784213E-023
 -1.320000000000000E-002   -1.179523258583709E-023
 -1.310000000000000E-002    6.477929808403140E-024
 -1.300000000000000E-002    2.176950241021122E-024
 -1.290000000000000E-002   -2.911654466058878E-023
 -1.280000000000000E-002   -8.545152324829736E-023
 -1.270000000000000E-002   -1.573306666819149E-022
 -1.260000000000000E-002   -2.279538969833431E-022
 -1.250000000000000E-002   -2.751665461908828E-022
 -1.240000000000000E-002   -2.750944307796751E-022
 -1.230000000000000E-002   -2.070807095853587E-022
 -1.220000000000000E-002   -5.916710079009672E-023
 -1.210000000000000E-002    1.669295781318514E-022
 -1.200000000000000E-002    4.525328636431734E-022
 -1.190000000000000E-002    7.615148527161248E-022
 -1.180000000000000E-002    1.043355206015522E-021
 -1.170000000000000E-002    1.239926957950597E-021
 -1.160000000000000E-002    1.295430244187589E-021
 -1.150000000000000E-002    1.168089983728843E-021
 -1.140000000000000E-002    8.415432923403903E-022
 -1.130000000000000E-002    3.334324962828697E-022
 -1.120000000000000E-002   -3.012459601876228E-022
 -1.110000000000000E-002   -9.739254002499737E-022
 -1.100000000000000E-002   -1.574172102424383E-021
 -1.090000000000000E-002   -1.988575413625936E-021
 -1.080000000000000E-002   -2.124372625012183E-021
 -1.070000000000000E-002   -1.933761209969833E-021
 -1.060000000000000E-002   -1.433753382963738E-021
 -1.050000000000000E-002   -7.161679479973008E-022
 -1.040000000000000E-002    5.681259622595644E-023
 -1.030000000000000E-002    6.740849547897309E-022
 -1.020000000000000E-002    9.136083968799440E-022
 -1.010000000000000E-002    5.928136709274885E-022
 -1.000000000000000E-002   -3.763409974292822E-022
 -9.899999999999999E-003   -1.938345934581016E-021
 -9.800000000000000E-003   -3.863228139149058E-021
 -9.699999999999999E-003   -5.745041556858205E-021
 -9.599999999999999E-003   -7.037780390187744E-021
 -9.500000000000000E-003   -7.131067432071056E-021
 -9.399999999999999E-003   -5.460475606812383E-021
 -9.299999999999999E-003   -1.639187225037023E-021
 -9.200000000000000E-003    4.409710491810330E-021
 -9.099999999999999E-003    1.234601338426403E-020
 -8.999999999999999E-003    2.135704772420556E-020
 -8.900000000000000E-003    3.017713613042221E-020
 -8.799999999999999E-003    3.719574275778497E-020
 -8.699999999999999E-003    4.065448171563669E-020
 -8.600000000000000E-003    3.891676774882007E-020
 -8.499999999999999E-003    3.077704835571495E-020
 -8.399999999999999E-003    1.576272391894884E-020
 -8.300000000000000E-003   -5.626009413888346E-021
 -8.199999999999999E-003   -3.179231407371286E-020
 -8.100000000000000E-003   -6.007787666336879E-020
 -8.000000000000000E-003   -8.697937049263438E-020
 -7.899999999999999E-003   -1.085400881756674E-019
 -7.800000000000000E-003   -1.208784720242363E-019
 -7.699999999999999E-003   -1.207850653149745E-019
 -7.599999999999999E-003   -1.062966483571898E-019
 -7.499999999999999E-003   -7.714712322692597E-020
 -7.399999999999999E-003   -3.500236937217287E-020
 -7.299999999999999E-003    1.658757699043063E-020
 -7.199999999999999E-003    7.254344228398983E-020
 -7.100000000000000E-003    1.268901756883683E-019
 -6.999999999999999E-003    1.735856353929392E-019
 -6.899999999999999E-003    2.074143353740881E-019
 -6.800000000000000E-003    2.247882157098072E-019
 -6.699999999999999E-003    2.242952955324623E-019
 -6.599999999999999E-003    2.068670599785261E-019
 -6.499999999999999E-003    1.754961764277766E-019
 -6.399999999999999E-003    1.345186343227922E-019
 -6.299999999999999E-003    8.856785250164542E-020
 -6.199999999999999E-003    4.139313597490388E-020
 -6.100000000000000E-003   -5.205166237319537E-021
 -5.999999999999999E-003   -5.205487488654935E-020
 -5.899999999999999E-003   -1.026725401048666E-019
 -5.800000000000000E-003   -1.625637874643112E-019
 -5.699999999999999E-003   -2.377593807933767E-019
 -5.599999999999999E-003   -3.327485662644661E-019
 -5.499999999999999E-003   -4.481340807933487E-019
 -5.399999999999999E-003   -5.784643192971527E-019
 -5.299999999999999E-003   -7.107615459753097E-019
 -5.199999999999999E-003   -8.242398709938999E-019
 -5.099999999999999E-003   -8.915772821575880E-019
 -4.999999999999999E-003   -8.818861308396944E-019
 -4.899999999999999E-003   -7.652279380036013E-019
 -4.799999999999999E-003   -5.182027595898386E-019
 -4.699999999999999E-003   -1.298489892709618E-019
 -4.599999999999999E-003    3.931141735691389E-019
 -4.499999999999999E-003    1.022738189231753E-018
 -4.399999999999999E-003    1.708917170377631E-018
 -4.299999999999999E-003    2.381721517816479E-018
 -4.199999999999999E-003    2.957189321286727E-018
 -4.099999999999999E-003    3.346228533070046E-018
 -3.999999999999999E-003    3.465722983119130E-018
 -3.899999999999999E-003    3.250452379066641E-018
 -3.799999999999999E-003    2.664131268065808E-018
 -3.699999999999999E-003    1.707814198008636E-018
 -3.599999999999999E-003    4.241533107171046E-019
 -3.499999999999999E-003   -1.103497667421793E-018
 -3.399999999999999E-003   -2.757391464332605E-018
 -3.299999999999999E-003   -4.396525002479890E-018
 -3.199999999999999E-003   -5.871199908403695E-018
 -3.099999999999999E-003   -7.038957853505675E-018
 -2.999999999999999E-003   -7.779522121204040E-018
 -2.899999999999999E-003   -8.006457047320911E-018
 -2.799999999999999E-003   -7.673773116087872E-018
 -2.699999999999999E-003   -6.776592069502299E-018
 -2.599999999999999E-003   -5.346114678394111E-018
 -2.499999999999999E-003   -3.440289234476129E-018
 -2.399999999999999E-003   -1.132576474366233E-018
 -2.299999999999999E-003    1.498251466692641E-018
 -2.199999999999999E-003    4.374337623321871E-018
 -2.099999999999999E-003    7.418720081255804E-018
 -1.999999999999999E-003    1.054808352406219E-017
 -1.899999999999999E-003    1.365901463384647E-017
 -1.799999999999999E-003    1.661033876275327E-017
 -1.699999999999999E-003    1.920583350816764E-017
 -1.599999999999999E-003    2.118265907586424E-017
 -1.499999999999999E-003    2.221104232253839E-017
 -1.399999999999999E-003    2.190985341813689E-017
 -1.299999999999999E-003    1.988070339083864E-017
 -1.199999999999999E-003    1.576017741859197E-017
 -1.099999999999999E-003    9.286393948435908E-018
 -9.999999999999989E-004    3.724371120213224E-019
 -8.999999999999990E-004   -1.082358138268301E-017
 -7.999999999999990E-004   -2.384382862852606E-017
 -6.999999999999989E-004   -3.790344944294738E-017
 -5.999999999999990E-004   -5.190079207434730E-017
 -4.999999999999989E-004   -6.447122647316857E-017
 -3.999999999999989E-004   -7.408575299109866E-017
 -2.999999999999989E-004   -7.918890978426959E-017
 -1.999999999999989E-004   -7.836468443299545E-017
 -9.999999999999892E-005   -7.051368253968494E-017
  1.084202172485504E-018   -5.502158523939191E-017
  1.000000000000011E-004   -3.189789661713046E-017
  2.000000000000011E-004   -1.866048071092626E-018
  3.000000000000011E-004    3.360955322133996E-017
  4.000000000000011E-004    7.236723548780112E-017
  5.000000000000011E-004    1.116623396513190E-016
  6.000000000000011E-004    1.483437258491429E-016
  7.000000000000011E-004    1.790776989785746E-016
  8.000000000000011E-004    2.005992837621114E-016
  9.000000000000012E-004    2.099692889506429E-016
  1.000000000000001E-003    2.048164251713807E-016
  1.100000000000001E-003    1.835471845170461E-016
  1.200000000000001E-003    1.455117122417857E-016
  1.300000000000001E-003    9.111980729905384E-017
  1.400000000000001E-003    2.190608850492215E-017
  1.500000000000001E-003   -5.945309551546745E-017
  1.600000000000001E-003   -1.491678411714839E-016
  1.700000000000001E-003   -2.424064941442071E-016
  1.800000000000001E-003   -3.334136941645954E-016
  1.900000000000001E-003   -4.156833807174317E-016
  2.000000000000001E-003   -4.821980996062503E-016
  2.100000000000001E-003   -5.257491945430404E-016
  2.200000000000001E-003   -5.393491803896345E-016
  2.300000000000001E-003   -5.167411017139973E-016
  2.400000000000001E-003   -4.529957309286250E-016
  2.500000000000001E-003   -3.451702744049016E-016
  2.600000000000001E-003   -1.929830026463570E-016
  2.700000000000001E-003    5.622116334509381E-019
  2.800000000000001E-003    2.286809614881703E-016
  2.900000000000001E-003    4.805335857460199E-016
  3.000000000000001E-003    7.412563892148973E-016
  3.100000000000001E-003    9.923703628455823E-016
  3.200000000000001E-003    1.212614454808721E-015
  3.300000000000001E-003    1.379207811693766E-015
  3.400000000000001E-003    1.469504305429719E-015
  3.500000000000001E-003    1.462950058160564E-015
  3.600000000000001E-003    1.343209407892905E-015
  3.700000000000001E-003    1.100285336355663E-015
  3.800000000000001E-003    7.324358237129680E-016
  3.900000000000001E-003    2.476776042722082E-016
  4.000000000000001E-003   -3.353157128562445E-016
  4.100000000000001E-003   -9.870853583491966E-016
  4.200000000000001E-003   -1.668139124760009E-015
  4.300000000000001E-003   -2.330637005807665E-015
  4.400000000000001E-003   -2.920975799035822E-015
  4.500000000000001E-003   -3.383178891775934E-015
  4.600000000000002E-003   -3.662908023922714E-015
  4.700000000000001E-003   -3.711862270218912E-015
  4.800000000000001E-003   -3.492269249987109E-015
  4.900000000000002E-003   -2.981144878879276E-015
  5.000000000000001E-003   -2.173986390302147E-015
  5.100000000000001E-003   -1.087567840959044E-015
  5.200000000000001E-003    2.384619666225906E-016
  5.300000000000002E-003    1.741424753938501E-015
  5.400000000000001E-003    3.337083348070761E-015
  5.500000000000001E-003    4.922825588846731E-015
  5.600000000000002E-003    6.382561346854480E-015
  5.700000000000001E-003    7.593197256688402E-015
  5.800000000000001E-003    8.432450709873483E-015
  5.900000000000002E-003    8.787638071725485E-015
  6.000000000000001E-003    8.564969700615054E-015
  6.100000000000001E-003    7.698762859671114E-015
  6.200000000000002E-003    6.159933093697816E-015
  6.300000000000002E-003    3.963075425868934E-015
  6.400000000000001E-003    1.171451826250419E-015
  6.500000000000001E-003   -2.100749925066599E-015
  6.600000000000002E-003   -5.689414608862586E-015
  6.700000000000001E-003   -9.385149795969166E-015
  6.800000000000001E-003   -1.294172900269551E-014
  6.900000000000002E-003   -1.608831161054789E-014
  7.000000000000001E-003   -1.854505738277922E-014
  7.100000000000001E-003   -2.004156194617985E-014
  7.200000000000002E-003   -2.033720143268651E-014
  7.300000000000002E-003   -1.924223704075538E-014
  7.400000000000001E-003   -1.663833008942798E-014
  7.500000000000001E-003   -1.249695472421772E-014
  7.600000000000002E-003   -6.894093810552334E-015
  7.700000000000001E-003   -1.969872010717951E-017
  7.800000000000001E-003    7.819577561170877E-015
  7.900000000000001E-003    1.620554414152301E-014
  8.000000000000002E-003    2.462229776424194E-014
  8.100000000000001E-003    3.247910651170681E-014
  8.200000000000001E-003    3.914199291883500E-014
  8.300000000000002E-003    4.397307880000537E-014
  8.400000000000001E-003    4.637593339339893E-014
  8.500000000000002E-003    4.584448940027418E-014
  8.600000000000002E-003    4.201242972838123E-014
  8.700000000000001E-003    3.469933951051066E-014
  8.800000000000002E-003    2.394968967630498E-014
  8.900000000000002E-003    1.006063950996314E-014
  9.000000000000001E-003   -6.405110411254708E-015
  9.100000000000002E-003   -2.462440755349476E-014
  9.200000000000002E-003   -4.353889759121550E-014
  9.300000000000001E-003   -6.190103657833772E-014
  9.400000000000002E-003   -7.834017945123698E-014
  9.500000000000001E-003   -9.144619527987308E-014
  9.600000000000001E-003   -9.986629945917296E-014
  9.700000000000002E-003   -1.024097217383781E-013
  9.800000000000001E-003   -9.815284716261233E-014
  9.900000000000001E-003   -8.653737157748144E-014
  1.000000000000000E-002   -6.745351805190459E-014
  1.010000000000000E-002   -4.130056830320787E-014
  1.020000000000000E-002   -9.018165787263586E-015
  1.030000000000000E-002    2.791659843221048E-014
  1.040000000000000E-002    6.752976715119804E-014
  1.050000000000000E-002    1.074293381337758E-013
  1.060000000000000E-002    1.449206651180477E-013
  1.070000000000000E-002    1.771547501621733E-013
  1.080000000000000E-002    2.013023529188740E-013
  1.090000000000000E-002    2.147458104683912E-013
  1.100000000000000E-002    2.152779511015990E-013
  1.110000000000000E-002    2.012964989141945E-013
  1.120000000000000E-002    1.719814747707196E-013
  1.130000000000000E-002    1.274424839234490E-013
  1.140000000000000E-002    6.882345836502369E-014
  1.150000000000000E-002   -1.646937024881128E-015
  1.160000000000000E-002   -8.066971249765276E-014
  1.170000000000000E-002   -1.639616139905596E-013
  1.180000000000000E-002   -2.464178693952777E-013
  1.190000000000000E-002   -3.223514777870918E-013
  1.200000000000000E-002   -3.858038369309588E-013
  1.210000000000000E-002   -4.309161810140471E-013
  1.220000000000000E-002   -4.523447201836569E-013
  1.230000000000000E-002   -4.456968529251977E-013
  1.240000000000000E-002   -4.079601880902895E-013
  1.250000000000000E-002   -3.378919712611349E-013
  1.260000000000000E-002   -2.363345143737018E-013
  1.270000000000000E-002   -1.064225298611251E-013
  1.280000000000000E-002    4.634821545188871E-014
  1.290000000000000E-002    2.142153581471742E-013
  1.300000000000000E-002    3.874212540125348E-013
  1.310000000000000E-002    5.546655338129462E-013
  1.320000000000000E-002    7.037242540571426E-013
  1.330000000000000E-002    8.222117357268343E-013
  1.340000000000000E-002    8.984423758959306E-013
  1.350000000000000E-002    9.223395758647382E-013
  1.360000000000000E-002    8.863288359629747E-013
  1.370000000000000E-002    7.861471928870951E-013
  1.380000000000000E-002    6.215003492071716E-013
  1.390000000000000E-002    3.965057089361872E-013
  1.400000000000000E-002    1.198683301437797E-013
  1.410000000000000E-002   -1.952471392624498E-013
  1.420000000000000E-002   -5.316659444180694E-013
  1.430000000000000E-002   -8.689719624525917E-013
  1.440000000000000E-002   -1.184568794060338E-012
  1.450000000000000E-002   -1.454988837907465E-012
  1.460000000000000E-002   -1.657382201396629E-012
  1.470000000000000E-002   -1.771103364880268E-012
  1.480000000000000E-002   -1.779301097466678E-012
  1.490000000000000E-002   -1.670410338128880E-012
  1.500000000000000E-002   -1.439441652291429E-012
  1.510000000000000E-002   -1.088968888180243E-012
  1.520000000000000E-002   -6.297240927812343E-013
  1.530000000000000E-002   -8.072405263030187E-014
  1.540000000000000E-002    5.311268106322758E-013
  1.550000000000000E-002    1.171986755339484E-012
  1.560000000000000E-002    1.802578909704295E-012
  1.570000000000000E-002    2.380207158443070E-012
  1.580000000000000E-002    2.861220524296946E-012
  1.590000000000000E-002    3.203806580940474E-012
  1.600000000000000E-002    3.370971160250617E-012
  1.610000000000000E-002    3.333525142886499E-012
  1.620000000000000E-002    3.072875358825952E-012
  1.630000000000000E-002    2.583402330266189E-012
  1.640000000000000E-002    1.874211596684072E-012
  1.650000000000000E-002    9.700612267292939E-013
  1.660000000000000E-002   -8.869203145928221E-014
  1.670000000000000E-002   -1.247239334530201E-012
  1.680000000000000E-002   -2.438593054793403E-012
  1.690000000000000E-002   -3.586948143751583E-012
  1.700000000000000E-002   -4.611993939915432E-012
  1.710000000000000E-002   -5.433971932832200E-012
  1.720000000000000E-002   -5.979177782646415E-012
  1.730000000000000E-002   -6.185554560479705E-012
  1.740000000000000E-002   -6.007986077845716E-012
  1.750000000000000E-002   -5.422878431178308E-012
  1.760000000000000E-002   -4.431648552428893E-012
  1.770000000000000E-002   -3.062780020912551E-012
  1.780000000000000E-002   -1.372192158228437E-012
  1.790000000000000E-002    5.582299031349185E-013
  1.800000000000000E-002    2.623975233286458E-012
  1.810000000000000E-002    4.703024802049141E-012
  1.820000000000000E-002    6.662511497510580E-012
  1.830000000000000E-002    8.366583822377111E-012
  1.840000000000000E-002    9.685026118727237E-012
  1.850000000000000E-002    1.050212341835171E-011
  1.860000000000000E-002    1.072520808944811E-011
  1.870000000000000E-002    1.029231118331923E-011