 -4.000000000000000E-002    0.000000000000000E+000
 -3.990000000000000E-002    0.000000000000000E+000
 -3.980000000000000E-002    0.000000000000000E+000
 -3.970000000000000E-002    0.000000000000000E+000
 -3.960000000000000E-002    0.000000000000000E+000
 -3.950000000000000E-002    0.000000000000000E+000
 -3.940000000000000E-002    0.000000000000000E+000
 -3.930000000000000E-002    0.000000000000000E+000
 -3.920000000000000E-002    0.000000000000000E+000
 -3.910000000000000E-002    0.000000000000000E+000
 -3.900000000000000E-002    0.000000000000000E+000
 -3.890000000000000E-002    0.000000000000000E+000
 -3.880000000000000E-002    0.000000000000000E+000
 -3.870000000000000E-002    0.000000000000000E+000
 -3.860000000000000E-002    0.000000000000000E+000
 -3.850000000000000E-002    0.000000000000000E+000
 -3.840000000000000E-002    0.000000000000000E+000
 -3.830000000000000E-002    0.000000000000000E+000
 -3.820000000000000E-002    0.000000000000000E+000
 -3.810000000000000E-002    0.000000000000000E+000
 -3.800000000000000E-002    0.000000000000000E+000
 -3.790000000000000E-002    0.000000000000000E+000
 -3.780000000000000E-002    0.000000000000000E+000
 -3.770000000000000E-002    0.000000000000000E+000
 -3.760000000000000E-002    0.000000000000000E+000
 -3.750000000000000E-002    0.000000000000000E+000
 -3.740000000000000E-002    0.000000000000000E+000
 -3.730000000000000E-002    0.000000000000000E+000
 -3.720000000000000E-002    0.000000000000000E+000
 -3.710000000000000E-002    0.000000000000000E+000
 -3.700000000000000E-002    0.000000000000000E+000
 -3.690000000000000E-002    0.000000000000000E+000
 -3.680000000000000E-002    0.000000000000000E+000
 -3.670000000000000E-002    0.000000000000000E+000
 -3.660000000000000E-002    0.000000000000000E+000
 -3.650000000000000E-002    0.000000000000000E+000
 -3.640000000000000E-002    0.000000000000000E+000
 -3.630000000000000E-002    0.000000000000000E+000
 -3.620000000000000E-002    0.000000000000000E+000
 -3.610000000000000E-002    6.414635304221270E-048
 -3.600000000000000E-002    1.836587823550677E-046
 -3.590000000000000E-002    6.512448704653942E-046
 -3.580000000000000E-002    1.541514599556498E-045
 -3.570000000000000E-002    3.492883569485332E-045
 -3.560000000000000E-002    7.337889791605007E-045
 -3.550000000000000E-002    1.295285664165261E-044
 -3.540000000000000E-002    2.162731111484758E-044
 -3.530000000000000E-002    3.148933772987041E-044
 -3.520000000000000E-002    3.026744762004836E-044
 -3.510000000000000E-002   -8.881944350489967E-045
 -3.500000000000000E-002   -1.471328359781698E-043
 -3.490000000000000E-002   -5.054156552064445E-043
 -3.480000000000000E-002   -1.292059069848720E-042
 -3.470000000000000E-002   -2.823917072485463E-042
 -3.460000000000000E-002   -5.494844557732301E-042
 -3.450000000000000E-002   -9.633353823639314E-042
 -3.440000000000000E-002   -1.511231992059913E-041
 -3.430000000000000E-002   -2.054641688211689E-041
 -3.420000000000000E-002   -2.187486882423973E-041
 -3.410000000000000E-002   -1.018560414121081E-041
 -3.400000000000000E-002    3.110391372625255E-041
 -3.390000000000000E-002    1.290168263118840E-040
 -3.380000000000000E-002    3.219742369812997E-040
 -3.370000000000000E-002    6.555135003240876E-040
 -3.360000000000000E-002    1.167149831520389E-039
 -3.350000000000000E-002    1.852562647204700E-039
 -3.340000000000000E-002    2.604138939568094E-039
 -3.330000000000000E-002    3.114901773080429E-039
 -3.320000000000000E-002    2.749066504687709E-039
 -3.310000000000000E-002    3.987301676205113E-040
 -3.300000000000000E-002   -5.621716614982923E-039
 -3.290000000000000E-002   -1.754431492066392E-038
 -3.280000000000000E-002   -3.782066527180313E-038
 -3.270000000000000E-002   -6.828197756586085E-038
 -3.260000000000000E-002   -1.085373308164480E-037
 -3.250000000000000E-002   -1.534017474015853E-037
 -3.240000000000000E-002   -1.893185065648230E-037
 -3.230000000000000E-002   -1.901146749647820E-037
 -3.220000000000000E-002   -1.130650128955086E-037
 -3.210000000000000E-002    1.028484687305348E-037
 -3.200000000000000E-002    5.334806834547756E-037
 -3.190000000000000E-002    1.256782718741104E-036
 -3.180000000000000E-002    2.326046082998573E-036
 -3.170000000000000E-002    3.724855990614496E-036
 -3.160000000000000E-002    5.301854595312975E-036
 -3.150000000000000E-002    6.688610956192792E-036
 -3.140000000000000E-002    7.212572281153297E-036
 -3.130000000000000E-002    5.829341405459291E-036
 -3.120000000000000E-002    1.113363167680686E-036
 -3.110000000000000E-002   -8.639074521674986E-036
 -3.100000000000000E-002   -2.513039677423656E-035
 -3.090000000000000E-002   -4.954264957086303E-035
 -3.080000000000000E-002   -8.173562058607321E-035
 -3.070000000000000E-002   -1.191663334701471E-034
 -3.060000000000000E-002   -1.556143754137880E-034
 -3.050000000000000E-002   -1.799119200549898E-034
 -3.040000000000000E-002   -1.750176100631128E-034
 -3.030000000000000E-002   -1.179216409242860E-034
 -3.020000000000000E-002    1.900653606017694E-035
 -3.010000000000000E-002    2.645587856792270E-034
 -3.000000000000000E-002    6.425060227894867E-034
 -2.990000000000000E-002    1.162304312558745E-033
 -2.980000000000000E-002    1.806723067704204E-033
 -2.970000000000000E-002    2.517067975732414E-033
 -2.960000000000000E-002    3.177510055648782E-033
 -2.950000000000000E-002    3.601024236961734E-033
 -2.940000000000000E-002    3.520515906425180E-033
 -2.930000000000000E-002    2.589785501232963E-033
 -2.920000000000000E-002    3.999632377389691E-034
 -2.910000000000000E-002   -3.482136822183107E-033
 -2.900000000000000E-002   -9.446755036096284E-033
 -2.890000000000000E-002   -1.773795881729979E-032
 -2.880000000000000E-002   -2.830819903954281E-032
 -2.870000000000000E-002   -4.062684785637810E-032
 -2.860000000000000E-002   -5.344427630691509E-032
 -2.850000000000000E-002   -6.452319135906613E-032
 -2.840000000000000E-002   -7.036612658312439E-032
 -2.830000000000000E-002   -6.599436441284342E-032
 -2.820000000000000E-002   -4.487036865188172E-032
 -2.810000000000000E-002    8.987004401153657E-034
 -2.800000000000000E-002    7.989037663483003E-032
 -2.790000000000000E-002    2.000046954161875E-031
 -2.780000000000000E-002    3.661781232837068E-031
 -2.770000000000000E-002    5.769928277294600E-031
 -2.760000000000000E-002    8.201463632904015E-031
 -2.750000000000000E-002    1.067020315918517E-030
 -2.740000000000000E-002    1.267009705956172E-030
 -2.730000000000000E-002    1.342845096626397E-030
 -2.720000000000000E-002    1.188806148350412E-030
 -2.710000000000000E-002    6.743806203427370E-031
 -2.700000000000000E-002   -3.436164645672766E-031
 -2.690000000000000E-002   -1.997437984646390E-030
 -2.680000000000000E-002   -4.371028468880100E-030
 -2.670000000000000E-002   -7.448388124158401E-030
 -2.660000000000000E-002   -1.105027498766946E-029
 -2.650000000000000E-002   -1.476625481349125E-029
 -2.640000000000000E-002   -1.789460522897914E-029
 -2.630000000000000E-002   -1.940848416598757E-029
 -2.620000000000000E-002   -1.797195059200622E-029
 -2.610000000000000E-002   -1.203224229315545E-029
 -2.600000000000000E-002   -1.321713575051781E-032
 -2.590000000000000E-002    1.937296378910508E-029
 -2.580000000000000E-002    4.669471391160468E-029
 -2.570000000000000E-002    8.127386304750527E-029
 -2.560000000000000E-002    1.206184507276453E-028
 -2.550000000000000E-002    1.599090167787352E-028
 -2.540000000000000E-002    1.916691944441365E-028
 -2.530000000000000E-002    2.057802816996475E-028
 -2.520000000000000E-002    1.900103921615103E-028
 -2.510000000000000E-002    1.312112888581224E-028
 -2.500000000000000E-002    1.728050107261730E-029
 -2.490000000000000E-002   -1.601124195471002E-028
 -2.480000000000000E-002   -4.021787298078279E-028
 -2.470000000000000E-002   -6.993624161949401E-028
 -2.460000000000000E-002   -1.027903020672965E-027
 -2.450000000000000E-002   -1.347301437705839E-027
 -2.440000000000000E-002   -1.599510562463705E-027
 -2.430000000000000E-002   -1.710713235843093E-027
 -2.420000000000000E-002   -1.596460915775689E-027
 -2.410000000000000E-002   -1.170699710019740E-027
 -2.400000000000000E-002   -3.587915260894614E-028
 -2.390000000000000E-002    8.859413925460703E-028
 -2.380000000000000E-002    2.563321190194262E-027
 -2.370000000000000E-002    4.606999858472862E-027
 -2.360000000000000E-002    6.867380029414485E-027
 -2.350000000000000E-002    9.100014943246863E-027
 -2.340000000000000E-002    1.096306837625288E-026
 -2.330000000000000E-002    1.202741002895977E-026
 -2.320000000000000E-002    1.180249474110076E-026
 -2.310000000000000E-002    9.780255017210682E-027
 -2.300000000000000E-002    5.497832679523230E-027
 -2.290000000000000E-002   -1.381947979403644E-027
 -2.280000000000000E-002   -1.097586735590413E-026
 -2.270000000000000E-002   -2.307771390500410E-026
 -2.260000000000000E-002   -3.705740114032375E-026
 -2.250000000000000E-002   -5.177489491505132E-026
 -2.240000000000000E-002   -6.552564300646191E-026
 -2.230000000000000E-002   -7.603734635904592E-026
 -2.220000000000000E-002   -8.054025666855840E-026
 -2.210000000000000E-002   -7.593354574079217E-026
 -2.200000000000000E-002   -5.906762698161500E-026
 -2.190000000000000E-002   -2.715529930893755E-026
 -2.180000000000000E-002    2.168843865411721E-026
 -2.170000000000000E-002    8.779761336329837E-026
 -2.160000000000000E-002    1.692441922506898E-025
 -2.150000000000000E-002    2.611438404109087E-025
 -2.140000000000000E-002    3.550931921330872E-025
 -2.130000000000000E-002    4.388863814598020E-025
 -2.120000000000000E-002    4.966814097118319E-025
 -2.110000000000000E-002    5.097909884741826E-025
 -2.100000000000000E-002    4.582466197618094E-025
 -2.090000000000000E-002    3.232212388375321E-025
 -2.080000000000000E-002    9.028864988516744E-026
 -2.070000000000000E-002   -2.466519517727570E-025
 -2.060000000000000E-002   -6.811414862963245E-025
 -2.050000000000000E-002   -1.190168733804812E-024
 -2.040000000000000E-002   -1.731153059108516E-024
 -2.030000000000000E-002   -2.240760167695284E-024
 -2.020000000000000E-002   -2.636434717981433E-024
 -2.010000000000000E-002   -2.821417866761972E-024
 -2.000000000000000E-002   -2.693730217867691E-024
 -1.990000000000000E-002   -2.159129695086871E-024
 -1.980000000000000E-002   -1.147419797747484E-024
 -1.970000000000000E-002    3.692614716598813E-025
 -1.960000000000000E-002    2.358302350298633E-024
 -1.950000000000000E-002    4.711413960588681E-024
 -1.940000000000000E-002    7.235554410646183E-024
 -1.930000000000000E-002    9.653187606578682E-024
 -1.920000000000000E-002    1.161458740692455E-023
 -1.910000000000000E-002    1.272385216005511E-023
 -1.900000000000000E-002    1.257868855856199E-023
 -1.890000000000000E-002    1.082201327258808E-023
 -1.880000000000000E-002    7.201205167095137E-024
 -1.870000000000000E-002    1.628747119702670E-024
 -1.860000000000000E-002   -5.763644103570351E-024
 -1.850000000000000E-002   -1.458609261900689E-023
 -1.840000000000000E-002   -2.417522535255873E-023
 -1.830000000000000E-002   -3.360923130970028E-023
 -1.820000000000000E-002   -4.175729471477231E-023
 -1.810000000000000E-002   -4.736359296637357E-023
 -1.800000000000000E-002   -4.916171954491157E-023
 -1.790000000000000E-002   -4.601112898760816E-023
 -1.780000000000000E-002   -3.704372887987966E-023
 -1.770000000000000E-002   -2.180655685952319E-023
 -1.760000000000000E-002   -3.861243502223731E-025
 -1.750000000000000E-002    2.649866025289606E-023
 -1.740000000000000E-002    5.744510745504361E-023
 -1.730000000000000E-002    9.036328048221661E-023
 -1.720000000000000E-002    1.225231703888957E-022
 -1.710000000000000E-002    1.506526864913800E-022
 -1.700000000000000E-002    1.710857771415406E-022
 -1.690000000000000E-002    1.799614001111572E-022
 -1.680000000000000E-002    1.734768392865855E-022
 -1.670000000000000E-002    1.482019093136207E-022
 -1.660000000000000E-002    1.014617644769748E-022
 -1.650000000000000E-002    3.179241603165230E-023
 -1.640000000000000E-002   -6.053720305323003E-023
 -1.630000000000000E-002   -1.729619538046411E-022
 -1.620000000000000E-002   -3.000684046487291E-022
 -1.610000000000000E-002   -4.331397935664609E-022
 -1.600000000000000E-002   -5.599168411063653E-022
 -1.590000000000000E-002   -6.647198770866797E-022
 -1.580000000000000E-002   -7.290852511913997E-022
 -1.570000000000000E-002   -7.330504939142790E-022
 -1.560000000000000E-002   -6.571673635811269E-022
 -1.550000000000000E-002   -4.852275045432716E-022
 -1.540000000000000E-002   -2.075540051625484E-022
 -1.530000000000000E-002    1.754434649224992E-022
 -1.520000000000000E-002    6.499132938521239E-022
 -1.510000000000000E-002    1.186003991444116E-021
 -1.500000000000000E-002    1.736779251316053E-021
 -1.490000000000000E-002    2.239265239443784E-021
 -1.480000000000000E-002    2.618154066241678E-021
 -1.470000000000000E-002    2.792420554613231E-021
 -1.460000000000000E-002    2.684716698745440E-021
 -1.450000000000000E-002    2.232922395679208E-021
 -1.440000000000000E-002    1.402712963542240E-021
 -1.430000000000000E-002    1.995305192670679E-022
 -1.420000000000000E-002   -1.321986359818709E-021
 -1.410000000000000E-002   -3.053159808546472E-021
 -1.400000000000000E-002   -4.832853525624979E-021
 -1.390000000000000E-002   -6.456758805692455E-021
 -1.380000000000000E-002   -7.694772184382228E-021
 -1.370000000000000E-002   -8.315699858110231E-021
 -1.360000000000000E-002   -8.117244840646911E-021
 -1.350000000000000E-002   -6.958002578359410E-021
 -1.340000000000000E-002   -4.787263033821661E-021
 -1.330000000000000E-002   -1.667947486131465E-021
 -1.320000000000000E-002    2.211777240459674E-021
 -1.310000000000000E-002    6.541711104505161E-021
 -1.300000000000000E-002    1.090949744054063E-020
 -1.290000000000000E-002    1.483675709095939E-020
 -1.280000000000000E-002    1.782856658660506E-020
 -1.270000000000000E-002    1.943095888687050E-020
 -1.260000000000000E-002    1.928926080290876E-020
 -1.250000000000000E-002    1.719916550197659E-020
 -1.240000000000000E-002    1.314275400869173E-020
 -1.230000000000000E-002    7.303360274431109E-021
 -1.220000000000000E-002    5.609537796210901E-023
 -1.210000000000000E-002   -8.065395097100772E-021
 -1.200000000000000E-002   -1.642133337531045E-020
 -1.190000000000000E-002   -2.432923720544720E-020
 -1.180000000000000E-002   -3.112801117599768E-020
 -1.170000000000000E-002   -3.623196964573361E-020
 -1.160000000000000E-002   -3.916603707045793E-020
 -1.150000000000000E-002   -3.957747076815453E-020
 -1.140000000000000E-002   -3.722525374820033E-020
 -1.130000000000000E-002   -3.195472012818972E-020
 -1.120000000000000E-002   -2.367058566135009E-020
 -1.110000000000000E-002   -1.232493002212915E-020
 -1.100000000000000E-002    2.063597759404692E-021
 -1.090000000000000E-002    1.934785475220481E-020
 -1.080000000000000E-002    3.914539211484907E-020
 -1.070000000000000E-002    6.069754178374091E-020
 -1.060000000000000E-002    8.271977492790590E-020
 -1.050000000000000E-002    1.032820927175727E-019
 -1.040000000000000E-002    1.197670110968960E-019
 -1.030000000000000E-002    1.289534780546870E-019
 -1.020000000000000E-002    1.272656171593873E-019
 -1.010000000000000E-002    1.112039850185771E-019
 -1.000000000000000E-002    7.794547834381888E-020
 -9.899999999999999E-003    2.605937829858468E-020
 -9.800000000000000E-003   -4.375331614502793E-020
 -9.699999999999999E-003   -1.280240998676862E-019
 -9.599999999999999E-003   -2.201315767647745E-019
 -9.500000000000000E-003   -3.103118098559799E-019
 -9.399999999999999E-003   -3.861806923161189E-019
 -9.299999999999999E-003   -4.338276538693190E-019
 -9.200000000000000E-003   -4.394570990352440E-019
 -9.099999999999999E-003   -3.914552001949216E-019
 -8.999999999999999E-003   -2.826575162807586E-019
 -8.900000000000000E-003   -1.125054276006924E-019
 -8.799999999999999E-003    1.112755568919990E-019
 -8.699999999999999E-003    3.718478056548539E-019
 -8.600000000000000E-003    6.436007944179752E-019
 -8.499999999999999E-003    8.938548785361740E-019
 -8.399999999999999E-003    1.085951548820546E-018
 -8.300000000000000E-003    1.183537807993544E-018
 -8.199999999999999E-003    1.155629289126404E-018
 -8.100000000000000E-003    9.818394151473398E-019
 -8.000000000000000E-003    6.570280262114806E-019
 -7.899999999999999E-003    1.945864831751733E-019
 -7.800000000000000E-003   -3.723427858686276E-019
 -7.699999999999999E-003   -9.922063807230252E-019
 -7.599999999999999E-003   -1.599116448682753E-018
 -7.499999999999999E-003   -2.119447565098115E-018
 -7.399999999999999E-003   -2.480325027300889E-018
 -7.299999999999999E-003   -2.619006183169453E-018
 -7.199999999999999E-003   -2.491900981765912E-018
 -7.100000000000000E-003   -2.081891350630436E-018
 -6.999999999999999E-003   -1.402732072575452E-018
 -6.899999999999999E-003   -4.996544434474247E-019
 -6.800000000000000E-003    5.541934610700246E-019
 -6.699999999999999E-003    1.665198181008665E-018
 -6.599999999999999E-003    2.729701810097938E-018
 -6.499999999999999E-003    3.645922707932163E-018
 -6.399999999999999E-003    4.325552704077875E-018
 -6.299999999999999E-003    4.703166456822071E-018
 -6.199999999999999E-003    4.741865480290341E-018
 -6.100000000000000E-003    4.434207102496582E-018
 -5.999999999999999E-003    3.798333402771725E-018
 -5.899999999999999E-003    2.870203371443375E-018
 -5.800000000000000E-003    1.693747074940359E-018
 -5.699999999999999E-003    3.114043093875601E-019
 -5.599999999999999E-003   -1.242269606230026E-018
 -5.499999999999999E-003   -2.941604971079731E-018
 -5.399999999999999E-003   -4.764028481565595E-018
 -5.299999999999999E-003   -6.677515475617721E-018
 -5.199999999999999E-003   -8.623040592016316E-018
 -5.099999999999999E-003   -1.049551256833236E-017
 -4.999999999999999E-003   -1.212803351552607E-017
 -4.899999999999999E-003   -1.328498382251940E-017
 -4.799999999999999E-003   -1.366906355018512E-017
 -4.699999999999999E-003   -1.294593019814227E-017
 -4.599999999999999E-003   -1.078745407391070E-017
 -4.499999999999999E-003   -6.931127363181425E-018
 -4.399999999999999E-003   -1.249376988650426E-018
 -4.299999999999999E-003    6.181085801822566E-018
 -4.199999999999999E-003    1.502229766086871E-017
 -4.099999999999999E-003    2.464378723368851E-017
 -3.999999999999999E-003    3.412910377895816E-017
 -3.899999999999999E-003    4.232856495417628E-017
 -3.799999999999999E-003    4.796075700616734E-017
 -3.699999999999999E-003    4.975785932584276E-017
 -3.599999999999999E-003    4.664169531876877E-017
 -3.499999999999999E-003    3.790989046081504E-017
 -3.399999999999999E-003    2.340604376209472E-017
 -3.299999999999999E-003    3.645525909360610E-018
 -3.199999999999999E-003   -2.012944454927631E-017
 -3.099999999999999E-003   -4.598536683595512E-017
 -2.999999999999999E-003   -7.143278684334071E-017
 -2.899999999999999E-003   -9.365675289161359E-017
 -2.799999999999999E-003   -1.098227468845470E-016
 -2.699999999999999E-003   -1.174242834160605E-016
 -2.599999999999999E-003   -1.146279107208096E-016
 -2.499999999999999E-003   -1.005662755301964E-016
 -2.399999999999999E-003   -7.553223690786908E-017
 -2.299999999999999E-003   -4.103695953285164E-017
 -2.199999999999999E-003    2.881624351980306E-019
 -2.099999999999999E-003    4.494377549569920E-017
 -1.999999999999999E-003    8.894311212037805E-017
 -1.899999999999999E-003    1.282727612676290E-016
 -1.799999999999999E-003    1.593691738565214E-016
 -1.699999999999999E-003    1.795393157353798E-016
 -1.599999999999999E-003    1.872581303129272E-016
 -1.499999999999999E-003    1.822914842644974E-016
 -1.399999999999999E-003    1.656199741894016E-016
 -1.299999999999999E-003    1.391721962365623E-016
 -1.199999999999999E-003    1.054109679925809E-016
 -1.099999999999999E-003    6.684632382698147E-017
 -9.999999999999989E-004    2.556893636187003E-017
 -8.999999999999990E-004   -1.709818323476169E-017
 -7.999999999999990E-004   -6.074557275458731E-017
 -6.999999999999989E-004   -1.057684548297203E-016
 -5.999999999999990E-004   -1.529965155064224E-016
 -4.999999999999989E-004   -2.031090763036079E-016
 -3.999999999999989E-004   -2.559340993675869E-016
 -2.999999999999989E-004   -3.097696934235491E-016
 -1.999999999999989E-004   -3.608863037307387E-016
 -9.999999999999892E-005   -4.033597930416371E-016
  1.084202172485504E-018   -4.293477866470631E-016
  1.000000000000011E-004   -4.298562887593963E-016
  2.000000000000011E-004   -3.959585360377252E-016
  3.000000000000011E-004   -3.203374904341907E-016
  4.000000000000011E-004   -1.989387861017829E-016
  5.000000000000011E-004   -3.246612634167429E-017
  6.000000000000011E-004    1.725698325633268E-016
  7.000000000000011E-004    4.035053956645907E-016
  8.000000000000011E-004    6.420580608429211E-016
  9.000000000000012E-004    8.657952301945366E-016
  1.000000000000001E-003    1.050441200674773E-015
  1.100000000000001E-003    1.172772093575828E-015
  1.200000000000001E-003    1.213716732248742E-015
  1.300000000000001E-003    1.161197527257667E-015
  1.400000000000001E-003    1.012232431901315E-015
  1.500000000000001E-003    7.738860734406245E-016
  1.600000000000001E-003    4.628074231243531E-016
  1.700000000000001E-003    1.033022761644760E-016
  1.800000000000001E-003   -2.758626415412515E-016
  1.900000000000001E-003   -6.454844532943548E-016
  2.000000000000001E-003   -9.801426595335940E-016
  2.100000000000001E-003   -1.261870378232861E-015
  2.200000000000001E-003   -1.482549998875602E-015
  2.300000000000001E-003   -1.644452911936588E-015
  2.400000000000001E-003   -1.758614193786875E-015
  2.500000000000001E-003   -1.841098765531929E-015
  2.600000000000001E-003   -1.907621721455681E-015
  2.700000000000001E-003   -1.967368202724180E-015
  2.800000000000001E-003   -2.017141596136833E-015
  2.900000000000001E-003   -2.037095535527250E-015
  3.000000000000001E-003   -1.989224503632541E-015
  3.100000000000001E-003   -1.819488485885116E-015
  3.200000000000001E-003   -1.463949260359032E-015
  3.300000000000001E-003   -8.586567415778226E-016
  3.400000000000001E-003    4.767174690927623E-017
  3.500000000000001E-003    1.279770798937786E-015
  3.600000000000001E-003    2.822806741563090E-015
  3.700000000000001E-003    4.612481600365038E-015
  3.800000000000001E-003    6.530393204630979E-015
  3.900000000000001E-003    8.406301818678802E-015
  4.000000000000001E-003    1.002815248580729E-014
  4.100000000000001E-003    1.115968258269941E-014
  4.200000000000001E-003    1.156433339453579E-014
  4.300000000000001E-003    1.103314069998764E-014
  4.400000000000001E-003    9.413493246145092E-015
  4.500000000000001E-003    6.635228822013944E-015
  4.600000000000002E-003    2.730595050735876E-015
  4.700000000000001E-003   -2.154850306317446E-015
  4.800000000000001E-003   -7.762320694778746E-015
  4.900000000000002E-003   -1.373150975812002E-014
  5.000000000000001E-003   -1.962312636416047E-014
  5.100000000000001E-003   -2.495014877080437E-014
  5.200000000000001E-003   -2.921466583158636E-014
  5.300000000000002E-003   -3.194660338910572E-014
  5.400000000000001E-003   -3.274066452140195E-014
  5.500000000000001E-003   -3.128833564635477E-014
  5.600000000000002E-003   -2.740283643235901E-014
  5.700000000000001E-003   -2.103612071807465E-014
  5.800000000000001E-003   -1.228825944521136E-014
  5.900000000000002E-003   -1.410525095843446E-015
  6.000000000000001E-003    1.119605632603328E-014
  6.100000000000001E-003    2.498510707406146E-014
  6.200000000000002E-003    3.927144360979502E-014
  6.300000000000002E-003    5.324030978824091E-014
  6.400000000000001E-003    6.596141934349597E-014
  6.500000000000001E-003    7.641125931768940E-014
  6.600000000000002E-003    8.350812990798278E-014
  6.700000000000001E-003    8.616418182949943E-014
  6.800000000000001E-003    8.335759981768098E-014
  6.900000000000002E-003    7.422553058901625E-014
  7.000000000000001E-003    5.817473844622807E-014
  7.100000000000001E-003    3.500265344989269E-014
  7.200000000000002E-003    5.017166899472690E-015
  7.300000000000002E-003   -3.086040713825497E-014
  7.400000000000001E-003   -7.102689800619706E-014
  7.500000000000001E-003   -1.131813836551094E-013
  7.600000000000002E-003   -1.543773628642333E-013
  7.700000000000001E-003   -1.911533524943360E-013
  7.800000000000001E-003   -2.197446851857991E-013
  7.900000000000001E-003   -2.363697375402505E-013
  8.000000000000002E-003   -2.375737143995527E-013
  8.100000000000001E-003   -2.206034335364433E-013
  8.200000000000001E-003   -1.837785834633436E-013
  8.300000000000002E-003   -1.268202743153426E-013
  8.400000000000001E-003   -5.109731546177054E-014
  8.500000000000002E-003    4.024596489486832E-014
  8.600000000000002E-003    1.423075847007405E-013
  8.700000000000001E-003    2.486069152769591E-013
  8.800000000000002E-003    3.514253119861136E-013
  8.900000000000002E-003    4.422929195283764E-013
  9.000000000000001E-003    5.125914552101037E-013
  9.100000000000002E-003    5.542299033068207E-013
  9.200000000000002E-003    5.603415669960605E-013
  9.300000000000001E-003    5.259464667292018E-013
  9.400000000000002E-003    4.485248986164776E-013
  9.500000000000001E-003    3.284534887087248E-013
  9.600000000000001E-003    1.692645966841320E-013
  9.700000000000002E-003   -2.229713853100102E-014
  9.800000000000001E-003   -2.364345746195479E-013
  9.900000000000001E-003   -4.606736940209738E-013
  1.000000000000000E-002   -6.804429071546486E-013
  1.010000000000000E-002   -8.798338761120739E-013
  1.020000000000000E-002   -1.042513043419532E-012
  1.030000000000000E-002   -1.152746060386265E-012
  1.040000000000000E-002   -1.196491945606882E-012
  1.050000000000000E-002   -1.162515764258382E-012
  1.060000000000000E-002   -1.043464479881264E-012
  1.070000000000000E-002   -8.368404785691212E-013
  1.080000000000000E-002   -5.458015944400860E-013
  1.090000000000000E-002   -1.797110416568077E-013
  1.100000000000000E-002    2.456416719549626E-013
  1.110000000000000E-002    7.082247140215281E-013
  1.120000000000000E-002    1.180413768931918E-012
  1.130000000000000E-002    1.630147883363542E-012
  1.140000000000000E-002    2.022598279581827E-012
  1.150000000000000E-002    2.322312218919230E-012
  1.160000000000000E-002    2.495747213483294E-012
  1.170000000000000E-002    2.514053015360143E-012
  1.180000000000000E-002    2.355915964357023E-012
  1.190000000000000E-002    2.010231831555028E-012
  1.200000000000000E-002    1.478357023185731E-012
  1.210000000000000E-002    7.756791598252883E-013
  1.220000000000000E-002   -6.772401747904768E-014
  1.230000000000000E-002   -1.007522126026607E-012
  1.240000000000000E-002   -1.986772072954554E-012
  1.250000000000000E-002   -2.938774121757424E-012
  1.260000000000000E-002   -3.791048437932026E-012
  1.270000000000000E-002   -4.470227124257032E-012
  1.280000000000000E-002   -4.907553427050682E-012
  1.290000000000000E-002   -5.044599780608038E-012
  1.300000000000000E-002   -4.838762378144504E-012
  1.310000000000000E-002   -4.268070786021324E-012
  1.320000000000000E-002   -3.334872281522174E-012
  1.330000000000000E-002   -2.068016322780871E-012
  1.340000000000000E-002   -5.232490700609731E-013
  1.350000000000000E-002    1.218339720662459E-012
  1.360000000000000E-002    3.053843242118309E-012
  1.370000000000000E-002    4.863920472324509E-012
  1.380000000000000E-002    6.519770849337522E-012
  1.390000000000000E-002    7.891321667791857E-012
  1.400000000000000E-002    8.856144708105249E-012
  1.410000000000000E-002    9.308550823726338E-012
  1.420000000000000E-002    9.168269692449085E-012
  1.430000000000000E-002    8.388125566245504E-012
  1.440000000000000E-002    6.960140734666660E-012
  1.450000000000000E-002    4.919560703944667E-012
  1.460000000000000E-002    2.346387925816824E-012
  1.470000000000000E-002   -6.358822367681675E-013
  1.480000000000000E-002   -3.864484234393016E-012
  1.490000000000000E-002   -7.144573590204931E-012
  1.500000000000000E-002   -1.025920961125564E-011
  1.510000000000000E-002   -1.298177506400512E-011
  1.520000000000000E-002   -1.509027594535157E-011
  1.530000000000000E-002   -1.638278318549294E-011
  1.540000000000000E-002   -1.669311557857846E-011
  1.550000000000000E-002   -1.590571028236056E-011
  1.560000000000000E-002   -1.396859078261081E-011
  1.570000000000000E-002   -1.090328709317210E-011
  1.580000000000000E-002   -6.810674636192478E-012
  1.590000000000000E-002   -1.871854852486695E-012
  1.600000000000000E-002    3.656540072297862E-012
  1.610000000000000E-002    9.452885035515547E-012
  1.620000000000000E-002    1.514679181827659E-011
  1.630000000000000E-002    2.034042839359743E-011
  1.640000000000000E-002    2.463387310237317E-011
  1.650000000000000E-002    2.765300631780113E-011
  1.660000000000000E-002    2.907812699752823E-011
  1.670000000000000E-002    2.867123154066934E-011
  1.680000000000000E-002    2.629981308597889E-011
  1.690000000000000E-002    2.195512941547774E-011
  1.700000000000000E-002    1.576315916013941E-011
  1.710000000000000E-002    7.986840145321419E-012
  1.720000000000000E-002   -9.811966870579043E-013
  1.730000000000000E-002   -1.063558194810952E-011
  1.740000000000000E-002   -2.038430836159767E-011
  1.750000000000000E-002   -2.958273368177360E-011
  1.760000000000000E-002   -3.757359639275590E-011
  1.770000000000000E-002   -4.373065197522121E-011
  1.780000000000000E-002   -4.750311174322512E-011
  1.790000000000000E-002   -4.845792015627846E-011
  1.800000000000000E-002   -4.631686185896404E-011
  1.810000000000000E-002   -4.098574306175653E-011
  1.820000000000000E-002   -3.257324666811618E-011
  1.830000000000000E-002   -2.139764600707333E-011
  1.840000000000000E-002   -7.980237426036307E-012
  1.850000000000000E-002    6.974829724001147E-012
  1.860000000000000E-002    2.261385140673016E-011
  1.870000000000000E-002    3.797861704913338E-011