 -4.000000000000000E-002    0.000000000000000E+000
 -3.990000000000000E-002    0.000000000000000E+000
 -3.980000000000000E-002   -2.295360625428587E-012
 -3.970000000000000E-002   -1.464292138808614E-011
 -3.960000000000000E-002   -5.419736173110680E-011
 -3.950000000000000E-002   -1.498115539883378E-010
 -3.940000000000000E-002   -3.409795485904918E-010
 -3.930000000000000E-002   -6.727169194058030E-010
 -3.920000000000000E-002   -1.186766922676796E-009
 -3.910000000000000E-002   -1.910467786678072E-009
 -3.900000000000000E-002   -2.845249779926073E-009
 -3.890000000000000E-002   -3.956960207426376E-009
 -3.880000000000000E-002   -5.170022877385875E-009
 -3.870000000000000E-002   -6.366893849729060E-009
 -3.860000000000000E-002   -7.393483039139424E-009
 -3.850000000000000E-002   -8.070330957489215E-009
 -3.840000000000000E-002   -8.208498556478266E-009
 -3.830000000000000E-002   -7.628493509697459E-009
 -3.820000000000000E-002   -6.180179643497366E-009
 -3.810000000000000E-002   -3.761536407590256E-009
 -3.800000000000000E-002   -3.343524849014089E-010
 -3.790000000000000E-002    4.064673446553677E-009
 -3.780000000000000E-002    9.318422281216115E-009
 -3.770000000000000E-002    1.522987412337764E-008
 -3.760000000000000E-002    2.152862509222245E-008
 -3.750000000000000E-002    2.788294969175201E-008
 -3.740000000000000E-002    3.391668810811791E-008
 -3.730000000000000E-002    3.922998432334793E-008
 -3.720000000000000E-002    4.342277830653911E-008
 -3.710000000000000E-002    4.611979270692466E-008
 -3.700000000000000E-002    4.699556866989287E-008
 -3.690000000000000E-002    4.579802116297344E-008
 -3.680000000000000E-002    4.236883398436009E-008
 -3.670000000000000E-002    3.665907228691482E-008
 -3.660000000000000E-002    2.873856134854427E-008
 -3.650000000000000E-002    1.879795102943366E-008
 -3.640000000000000E-002    7.143003914117230E-009
 -3.630000000000000E-002   -5.818655253788796E-009
 -3.620000000000000E-002   -1.959726772401176E-008
 -3.610000000000000E-002   -3.364540839827053E-008
 -3.600000000000000E-002   -4.738494125510011E-008
 -3.590000000000000E-002   -6.023403311680363E-008
 -3.580000000000000E-002   -7.163199214873928E-008
 -3.570000000000000E-002   -8.106024290157365E-008
 -3.560000000000000E-002   -8.805855460245885E-008
 -3.550000000000000E-002   -9.223653801744761E-008
 -3.540000000000000E-002   -9.328124818364258E-008
 -3.530000000000000E-002   -9.096223410466260E-008
 -3.520000000000000E-002   -8.513563661962459E-008
 -3.510000000000000E-002   -7.574849876517053E-008
 -3.500000000000000E-002   -6.284390592077793E-008
 -3.490000000000000E-002   -4.656653804798865E-008
 -3.480000000000000E-002   -2.716734830112252E-008
 -3.470000000000000E-002   -5.005234218889524E-009
 -3.460000000000000E-002    1.945673703880925E-008
 -3.450000000000000E-002    4.566284480100145E-008
 -3.440000000000000E-002    7.298552973550998E-008
 -3.430000000000000E-002    1.007558889735440E-007
 -3.420000000000000E-002    1.283027777707953E-007
 -3.410000000000000E-002    1.549978930698122E-007
 -3.400000000000000E-002    1.803032430294744E-007
 -3.390000000000000E-002    2.038163918581320E-007
 -3.380000000000000E-002    2.253092392805636E-007
 -3.370000000000000E-002    2.447561849825125E-007
 -3.360000000000000E-002    2.623492265760021E-007
 -3.350000000000000E-002    2.784986153506846E-007
 -3.340000000000000E-002    2.938197283643544E-007
 -3.330000000000000E-002    3.091078080477721E-007
 -3.320000000000000E-002    3.253038544883611E-007
 -3.310000000000000E-002    3.434550117875467E-007
 -3.300000000000000E-002    3.646732413086355E-007
 -3.290000000000000E-002    3.900956486175655E-007
 -3.280000000000000E-002    4.208489785994730E-007
 -3.270000000000000E-002    4.580201783945636E-007
 -3.260000000000000E-002    5.026342370673784E-007
 -3.250000000000000E-002    5.556395217663932E-007
 -3.240000000000000E-002    6.179012561067400E-007
 -3.230000000000000E-002    6.902019676494303E-007
 -3.220000000000000E-002    7.732491051621183E-007
 -3.210000000000000E-002    8.676885162934671E-007
 -3.200000000000000E-002    9.741223705446576E-007
 -3.190000000000000E-002    1.093129391594626E-006
 -3.180000000000000E-002    1.225285511971371E-006
 -3.170000000000000E-002    1.371181737591483E-006
 -3.160000000000000E-002    1.531435715485919E-006
 -3.150000000000000E-002    1.706695153404041E-006
 -3.140000000000000E-002    1.897630925344435E-006
 -3.130000000000000E-002    2.104920272270667E-006
 -3.120000000000000E-002    2.329220052877639E-006
 -3.110000000000000E-002    2.571135297160472E-006
 -3.100000000000000E-002    2.831186515350694E-006
 -3.090000000000000E-002    3.109782580771520E-006
 -3.080000000000000E-002    3.407204396723591E-006
 -3.070000000000000E-002    3.723605560796963E-006
 -3.060000000000000E-002    4.059031604318990E-006
 -3.050000000000000E-002    4.413459864308768E-006
 -3.040000000000000E-002    4.786858130420832E-006
 -3.030000000000000E-002    5.179255030882297E-006
 -3.020000000000000E-002    5.590817153441964E-006
 -3.010000000000000E-002    6.021925513822142E-006
 -3.000000000000000E-002    6.473240651331587E-006
 -2.990000000000000E-002    6.945749813205021E-006
 -2.980000000000000E-002    7.440795523957533E-006
 -2.970000000000000E-002    7.960077735156360E-006
 -2.960000000000000E-002    8.505635765646929E-006
 -2.950000000000000E-002    9.079806724509913E-006
 -2.940000000000000E-002    9.685174515686888E-006
 -2.930000000000000E-002    1.032450497348937E-005
 -2.920000000000000E-002    1.100067964289534E-005
 -2.910000000000000E-002    1.171663151155930E-005
 -2.900000000000000E-002    1.247528518684540E-005
 -2.890000000000000E-002    1.327950583226669E-005
 -2.880000000000000E-002    1.413205524960773E-005
 -2.870000000000000E-002    1.503555980396862E-005
 -2.860000000000000E-002    1.599248794507557E-005
 -2.850000000000000E-002    1.700514395560898E-005
 -2.840000000000000E-002    1.807566429353869E-005
 -2.830000000000000E-002    1.920603517998669E-005
 -2.820000000000000E-002    2.039811987154244E-005
 -2.810000000000000E-002    2.165370379098216E-005
 -2.800000000000000E-002    2.297454742712003E-005
 -2.790000000000000E-002    2.436245001401970E-005
 -2.780000000000000E-002    2.581932233376506E-005
 -2.770000000000000E-002    2.734725639380429E-005
 -2.760000000000000E-002    2.894859642244169E-005
 -2.750000000000000E-002    3.062600281191052E-005
 -2.740000000000000E-002    3.238250533385507E-005
 -2.730000000000000E-002    3.422153973073793E-005
 -2.720000000000000E-002    3.614698853622524E-005
 -2.710000000000000E-002    3.816320065492327E-005
 -2.700000000000000E-002    4.027500609719704E-005
 -2.690000000000000E-002    4.248774216808255E-005
 -2.680000000000000E-002    4.480724986632701E-005
 -2.670000000000000E-002    4.723989459691160E-005
 -2.660000000000000E-002    4.979256784557131E-005
 -2.650000000000000E-002    5.247267471705375E-005
 -2.640000000000000E-002    5.528812056750876E-005
 -2.630000000000000E-002    5.824727113078259E-005
 -2.620000000000000E-002    6.135889309266730E-005
 -2.610000000000000E-002    6.463208701938404E-005
 -2.600000000000000E-002    6.807618228863143E-005
 -2.590000000000000E-002    7.170066236121981E-005
 -2.580000000000000E-002    7.551506636449777E-005
 -2.570000000000000E-002    7.952890973797103E-005
 -2.560000000000000E-002    8.375163886672456E-005
 -2.550000000000000E-002    8.819261567572523E-005
 -2.540000000000000E-002    9.286115094532516E-005
 -2.530000000000000E-002    9.776654124338747E-005
 -2.520000000000000E-002    1.029181672885806E-004
 -2.510000000000000E-002    1.083256031564653E-004
 -2.500000000000000E-002    1.139987139334398E-004
 -2.490000000000000E-002    1.199477913180114E-004
 -2.480000000000000E-002    1.261836200545640E-004
 -2.470000000000000E-002    1.327175852880684E-004
 -2.460000000000000E-002    1.395617080159341E-004
 -2.450000000000000E-002    1.467286787524293E-004
 -2.440000000000000E-002    1.542318821579527E-004
 -2.430000000000000E-002    1.620854009177620E-004
 -2.420000000000000E-002    1.703040117646346E-004
 -2.410000000000000E-002    1.789032051726948E-004
 -2.400000000000000E-002    1.878991663504871E-004
 -2.390000000000000E-002    1.973088058846953E-004
 -2.380000000000000E-002    2.071497419188153E-004
 -2.370000000000000E-002    2.174402903073618E-004
 -2.360000000000000E-002    2.281994952672915E-004
 -2.350000000000000E-002    2.394470689415800E-004
 -2.340000000000000E-002    2.512033875324835E-004
 -2.330000000000000E-002    2.634894284840349E-004
 -2.320000000000000E-002    2.763267681099640E-004
 -2.310000000000000E-002    2.897374660264893E-004
 -2.300000000000000E-002    3.037441393937754E-004
 -2.290000000000000E-002    3.183699494931812E-004
 -2.280000000000000E-002    3.336385290945221E-004
 -2.270000000000000E-002    3.495741175406759E-004
 -2.260000000000000E-002    3.662015654758842E-004
 -2.250000000000000E-002    3.835463062951354E-004
 -2.240000000000000E-002    4.016344554717133E-004
 -2.230000000000000E-002    4.204928477686419E-004
 -2.220000000000000E-002    4.401489392025306E-004
 -2.210000000000000E-002    4.606308550275544E-004
 -2.200000000000000E-002    4.819674065011855E-004
 -2.190000000000000E-002    5.041879768120653E-004
 -2.180000000000000E-002    5.273225658320497E-004
 -2.170000000000000E-002    5.514017801952727E-004
 -2.160000000000000E-002    5.764569409978841E-004
 -2.150000000000000E-002    6.025201108207708E-004
 -2.140000000000000E-002    6.296240672667686E-004
 -2.130000000000000E-002    6.578025869049520E-004
 -2.120000000000000E-002    6.870903281077504E-004
 -2.110000000000000E-002    7.175230713611080E-004
 -2.100000000000000E-002    7.491377013628677E-004
 -2.090000000000000E-002    7.819720837291963E-004
 -2.080000000000000E-002    8.160651690904487E-004
 -2.070000000000000E-002    8.514568129068468E-004
 -2.060000000000000E-002    8.881878127238669E-004
 -2.050000000000000E-002    9.262996308814568E-004
 -2.040000000000000E-002    9.658344726131043E-004
 -2.030000000000000E-002    1.006835173204594E-003
 -2.020000000000000E-002    1.049344928050630E-003
 -2.010000000000000E-002    1.093407865814686E-003
 -2.000000000000000E-002    1.139068427991838E-003
 -1.990000000000000E-002    1.186371744771179E-003
 -1.980000000000000E-002    1.235363681552154E-003
 -1.970000000000000E-002    1.286090581657468E-003
 -1.960000000000000E-002    1.338599692887361E-003
 -1.950000000000000E-002    1.392938619214499E-003
 -1.940000000000000E-002    1.449155544089404E-003
 -1.930000000000000E-002    1.507298939932293E-003
 -1.920000000000000E-002    1.567417558774318E-003
 -1.910000000000000E-002    1.629560203860006E-003
 -1.900000000000000E-002    1.693775755971067E-003
 -1.890000000000000E-002    1.760113085579342E-003
 -1.880000000000000E-002    1.828620768740623E-003
 -1.870000000000000E-002    1.899347375051032E-003
 -1.860000000000000E-002    1.972341266353426E-003
 -1.850000000000000E-002    2.047650937291553E-003
 -1.840000000000000E-002    2.125324477873218E-003
 -1.830000000000000E-002    2.205409776110909E-003
 -1.820000000000000E-002    2.287954652422251E-003
 -1.810000000000000E-002    2.373006839987805E-003
 -1.800000000000000E-002    2.460613240582596E-003
 -1.790000000000000E-002    2.550820454430948E-003
 -1.780000000000000E-002    2.643674222534653E-003
 -1.770000000000000E-002    2.739219656857428E-003
 -1.760000000000000E-002    2.837501065419755E-003
 -1.750000000000000E-002    2.938561669001227E-003
 -1.740000000000000E-002    3.042443958650932E-003
 -1.730000000000000E-002    3.149189103317200E-003
 -1.720000000000000E-002    3.258837303092908E-003
 -1.710000000000000E-002    3.371427618662501E-003
 -1.700000000000000E-002    3.486997593595970E-003
 -1.690000000000000E-002    3.605583440880349E-003
 -1.680000000000000E-002    3.727219642991696E-003
 -1.670000000000000E-002    3.851938458741591E-003
 -1.660000000000000E-002    3.979770247156842E-003
 -1.650000000000000E-002    4.110742265491672E-003
 -1.640000000000000E-002    4.244879566357620E-003
 -1.630000000000000E-002    4.382203794486855E-003
 -1.620000000000000E-002    4.522733098670726E-003
 -1.610000000000000E-002    4.666482465382550E-003
 -1.600000000000000E-002    4.813463143501932E-003
 -1.590000000000000E-002    4.963682549156062E-003
 -1.580000000000000E-002    5.117143739945630E-003
 -1.570000000000000E-002    5.273845906199760E-003
 -1.560000000000000E-002    5.433783940301285E-003
 -1.550000000000000E-002    5.596948183339842E-003
 -1.540000000000000E-002    5.763324335196177E-003
 -1.530000000000000E-002    5.932892844485964E-003
 -1.520000000000000E-002    6.105628808939970E-003
 -1.510000000000000E-002    6.281502641038664E-003
 -1.500000000000000E-002    6.460478171705452E-003
 -1.490000000000000E-002    6.642514446335873E-003
 -1.480000000000000E-002    6.827562947172100E-003
 -1.470000000000000E-002    7.015570595355724E-003
 -1.460000000000000E-002    7.206476208541114E-003
 -1.450000000000000E-002    7.400212621748452E-003
 -1.440000000000000E-002    7.596705411629351E-003
 -1.430000000000000E-002    7.795872787984687E-003
 -1.420000000000000E-002    7.997625337129683E-003
 -1.410000000000000E-002    8.201865056245566E-003
 -1.400000000000000E-002    8.408485747531643E-003
 -1.390000000000000E-002    8.617371974778437E-003
 -1.380000000000000E-002    8.828398936838129E-003
 -1.370000000000000E-002    9.041432733458105E-003
 -1.360000000000000E-002    9.256328679195092E-003
 -1.350000000000000E-002    9.472931712810093E-003
 -1.340000000000000E-002    9.691075688092375E-003
 -1.330000000000000E-002    9.910583557209867E-003
 -1.320000000000000E-002    1.013126803931409E-002
 -1.310000000000000E-002    1.035292804130854E-002
 -1.300000000000000E-002    1.057535161601875E-002
 -1.290000000000000E-002    1.079831438719444E-002
 -1.280000000000000E-002    1.102157859698462E-002
 -1.270000000000000E-002    1.124489342156426E-002
 -1.260000000000000E-002    1.146799623095376E-002
 -1.250000000000000E-002    1.169060894045375E-002
 -1.240000000000000E-002    1.191244060474039E-002
 -1.230000000000000E-002    1.213318548722848E-002
 -1.220000000000000E-002    1.235252486914725E-002
 -1.210000000000000E-002    1.257012275389762E-002
 -1.200000000000000E-002    1.278563049726361E-002
 -1.190000000000000E-002    1.299868408163412E-002
 -1.180000000000000E-002    1.320890248913490E-002
 -1.170000000000000E-002    1.341589017706896E-002
 -1.160000000000000E-002    1.361923635952256E-002
 -1.150000000000000E-002    1.381851199838646E-002
 -1.140000000000000E-002    1.401327285013904E-002
 -1.130000000000000E-002    1.420305717639854E-002
 -1.120000000000000E-002    1.438738651210714E-002
 -1.110000000000000E-002    1.456576411261095E-002
 -1.100000000000000E-002    1.473767789613763E-002
 -1.090000000000000E-002    1.490259467077305E-002
 -1.080000000000000E-002    1.505996577362474E-002
 -1.070000000000000E-002    1.520922361121103E-002
 -1.060000000000000E-002    1.534978087459216E-002
 -1.050000000000000E-002    1.548103291653404E-002
 -1.040000000000000E-002    1.560235522945421E-002
 -1.030000000000000E-002    1.571310541881164E-002
 -1.020000000000000E-002    1.581262205745744E-002
 -1.010000000000000E-002    1.590022249410632E-002
 -1.000000000000000E-002    1.597520775365412E-002
 -9.899999999999999E-003    1.603685851360901E-002
 -9.800000000000000E-003    1.608443594896744E-002
 -9.699999999999999E-003    1.611718296347591E-002
 -9.599999999999999E-003    1.613432256994923E-002
 -9.500000000000000E-003    1.613505941551845E-002
 -9.399999999999999E-003    1.611857994760182E-002
 -9.299999999999999E-003    1.608405217101751E-002
 -9.200000000000000E-003    1.603062369684746E-002
 -9.099999999999999E-003    1.595742479550968E-002
 -8.999999999999999E-003    1.586356756656339E-002
 -8.900000000000000E-003    1.574814696437728E-002
 -8.799999999999999E-003    1.561023932372269E-002
 -8.699999999999999E-003    1.544890396983580E-002
 -8.600000000000000E-003    1.526318295870542E-002
 -8.499999999999999E-003    1.505210222023196E-002
 -8.399999999999999E-003    1.481467200904148E-002
 -8.300000000000000E-003    1.454988794379095E-002
 -8.199999999999999E-003    1.425672878966576E-002
 -8.100000000000000E-003    1.393416019855437E-002
 -8.000000000000000E-003    1.358113301596253E-002
 -7.899999999999999E-003    1.319658565281747E-002
 -7.800000000000000E-003    1.277944347414200E-002
 -7.699999999999999E-003    1.232861932136768E-002
 -7.599999999999999E-003    1.184301479886117E-002
 -7.499999999999999E-003    1.132152130090360E-002
 -7.399999999999999E-003    1.076301972561262E-002
 -7.299999999999999E-003    1.016638104900432E-002
 -7.199999999999999E-003    9.530469481627973E-003
 -7.100000000000000E-003    8.854140974301603E-003
 -6.999999999999999E-003    8.136244958016518E-003
 -6.899999999999999E-003    7.375626833646050E-003
 -6.800000000000000E-003    6.571125695280839E-003
 -6.699999999999999E-003    5.721579021084763E-003
 -6.599999999999999E-003    4.825820977406520E-003
 -6.499999999999999E-003    3.882685507393206E-003
 -6.399999999999999E-003    2.891006380742447E-003
 -6.299999999999999E-003    1.849617776285685E-003
 -6.199999999999999E-003    7.573559785746344E-004
 -6.100000000000000E-003   -3.869372644782756E-004
 -5.999999999999999E-003   -1.584416058395647E-003
 -5.899999999999999E-003   -2.836229247467518E-003
 -5.800000000000000E-003   -4.143516324966647E-003
 -5.699999999999999E-003   -5.507407799195781E-003
 -5.599999999999999E-003   -6.929022410513388E-003
 -5.499999999999999E-003   -8.409467963537216E-003
 -5.399999999999999E-003   -9.949836175174077E-003
 -5.299999999999999E-003   -1.155120415888945E-002
 -5.199999999999999E-003   -1.321463026141143E-002
 -5.099999999999999E-003   -1.494115253702322E-002
 -4.999999999999999E-003   -1.673179136261304E-002
 -4.899999999999999E-003   -1.858754364074062E-002
 -4.799999999999999E-003   -2.050937700362659E-002
 -4.699999999999999E-003   -2.249823917002771E-002
 -4.599999999999999E-003   -2.455504612712523E-002
 -4.499999999999999E-003   -2.668068972802624E-002
 -4.399999999999999E-003   -2.887602532324002E-002
 -4.299999999999999E-003   -3.114187815571424E-002
 -4.199999999999999E-003   -3.347903502639322E-002
 -4.099999999999999E-003   -3.588824945467080E-002
 -3.999999999999999E-003   -3.837023302046427E-002
 -3.899999999999999E-003   -4.092566139712286E-002
 -3.799999999999999E-003   -4.355516459859594E-002
 -3.699999999999999E-003   -4.625933349597676E-002
 -3.599999999999999E-003   -4.903870371362228E-002
 -3.499999999999999E-003   -5.189377300114359E-002
 -3.399999999999999E-003   -5.482498098243108E-002
 -3.299999999999999E-003   -5.783272554897662E-002
 -3.199999999999999E-003   -6.091733859460412E-002
 -3.099999999999999E-003   -6.407911466946892E-002
 -2.999999999999999E-003   -6.731827653358417E-002
 -2.899999999999999E-003   -7.063498857349057E-002
 -2.799999999999999E-003   -7.402936430873708E-002
 -2.699999999999999E-003   -7.750144010983226E-002
 -2.599999999999999E-003   -8.105119657844614E-002
 -2.499999999999999E-003   -8.467854567612641E-002
 -2.399999999999999E-003   -8.838333693215317E-002
 -2.299999999999999E-003   -9.216534429942806E-002
 -2.199999999999999E-003   -9.602426818549217E-002
 -2.099999999999999E-003   -9.995974148827615E-002
 -1.999999999999999E-003   -0.103971323860604     
 -1.899999999999999E-003   -0.108058502495754     
 -1.799999999999999E-003   -0.112220683363478     
 -1.699999999999999E-003   -0.116457186023199     
 -1.599999999999999E-003   -0.120767265212126     
 -1.499999999999999E-003   -0.125150094102026     
 -1.399999999999999E-003   -0.129604754932237     
 -1.299999999999999E-003   -0.134130248130790     
 -1.199999999999999E-003   -0.138725492999528     
 -1.099999999999999E-003   -0.143389331659453     
 -9.999999999999989E-004   -0.148120504662467     
 -8.999999999999990E-004   -0.152917670319929     
 -7.999999999999990E-004   -0.157779415605110     
 -6.999999999999989E-004   -0.162704211453221     
 -5.999999999999990E-004   -0.167690459111050     
 -4.999999999999989E-004   -0.172736469899971     
 -3.999999999999989E-004   -0.177840476432092     
 -2.999999999999989E-004   -0.183000597618732     
 -1.999999999999989E-004   -0.188214881336088     
 -9.999999999999892E-005   -0.193481274881601     
  1.084202172485504E-018   -0.198797641644877     
  1.000000000000011E-004   -0.204161766196712     
  2.000000000000011E-004   -0.209571319120542     
  3.000000000000011E-004   -0.215023894649615     
  4.000000000000011E-004   -0.220516991091468     
  5.000000000000011E-004   -0.226048040517384     
  6.000000000000011E-004   -0.231614368206197     
  7.000000000000011E-004   -0.237213216517790     
  8.000000000000011E-004   -0.242841751241389     
  9.000000000000012E-004   -0.248497025823860     
  1.000000000000001E-003   -0.254176054751292     
  1.100000000000001E-003   -0.259875755126822     
  1.200000000000001E-003   -0.265592944447117     
  1.300000000000001E-003   -0.271324357623724     
  1.400000000000001E-003   -0.277066683556015     
  1.500000000000001E-003   -0.282816526419381     
  1.600000000000001E-003   -0.288570414041213     
  1.700000000000001E-003   -0.294324767512924     
  1.800000000000001E-003   -0.300075982126562     
  1.900000000000001E-003   -0.305820387668263     
  2.000000000000001E-003   -0.311554215602092     
  2.100000000000001E-003   -0.317273659860613     
  2.200000000000001E-003   -0.322974861649288     
  2.300000000000001E-003   -0.328653861559529     
  2.400000000000001E-003   -0.334306677405980     
  2.500000000000001E-003   -0.339929295472378     
  2.600000000000001E-003   -0.345517600000495     
  2.700000000000001E-003   -0.351067490859774     
  2.800000000000001E-003   -0.356574773118742     
  2.900000000000001E-003   -0.362035226983167     
  3.000000000000001E-003   -0.367444599909756     
  3.100000000000001E-003   -0.372798625138354     
  3.200000000000001E-003   -0.378092973087066     
  3.300000000000001E-003   -0.383323312430187     
  3.400000000000001E-003   -0.388485307970698     
  3.500000000000001E-003   -0.393574577792620     
  3.600000000000001E-003   -0.398586735095436     
  3.700000000000001E-003   -0.403517366490367     
  3.800000000000001E-003   -0.408362098298324     
  3.900000000000001E-003   -0.413116508291630     
  4.000000000000001E-003   -0.417776220564239     
  4.100000000000001E-003   -0.422336805497527     
  4.200000000000001E-003   -0.426793915136718     
  4.300000000000001E-003   -0.431143159887632     
  4.400000000000001E-003   -0.435380190827209     
  4.500000000000001E-003   -0.439500725527441     
  4.600000000000002E-003   -0.443500428591509     
  4.700000000000001E-003   -0.447375050156678     
  4.800000000000001E-003   -0.451120379880033     
  4.900000000000002E-003   -0.454732227572841     
  5.000000000000001E-003   -0.458206472321873     
  5.100000000000001E-003   -0.461539021630055     
  5.200000000000001E-003   -0.464725867605027     
  5.300000000000002E-003   -0.467763044254080     
  5.400000000000001E-003   -0.470646660706114     
  5.500000000000001E-003   -0.473372857870303     
  5.600000000000002E-003   -0.475937882623455     
  5.700000000000001E-003   -0.478338053634847     
  5.800000000000001E-003   -0.480569810420842     
  5.900000000000002E-003   -0.482629603092815     
  6.000000000000001E-003   -0.484514032928356     
  6.100000000000001E-003   -0.486219753587437     
  6.200000000000002E-003   -0.487743551034135     
  6.300000000000002E-003   -0.489082307267655     
  6.400000000000001E-003   -0.490233010744326     
  6.500000000000001E-003   -0.491192765895021     
  6.600000000000002E-003   -0.491958764622936     
  6.700000000000001E-003   -0.492528369907862     
  6.800000000000001E-003   -0.492898990412214     
  6.900000000000002E-003   -0.493068202698856     
  7.000000000000001E-003   -0.493033729073320     
  7.100000000000001E-003   -0.492793416318711     
  7.200000000000002E-003   -0.492345229905641     
  7.300000000000002E-003   -0.491687280723225     
  7.400000000000001E-003   -0.490817810530412     
  7.500000000000001E-003   -0.489735228734977     
  7.600000000000002E-003   -0.488438070764563     
  7.700000000000001E-003   -0.486925040675806     
  7.800000000000001E-003   -0.485194952131986     
  7.900000000000001E-003   -0.483246830650237     
  8.000000000000002E-003   -0.481079831079670     
  8.100000000000001E-003   -0.478693272054477     
  8.200000000000001E-003   -0.476086615504975     
  8.300000000000002E-003   -0.473259484600704     
  8.400000000000001E-003   -0.470211678076552     
  8.500000000000002E-003   -0.466943171458497     
  8.600000000000002E-003   -0.463454057351691     
  8.700000000000001E-003   -0.459744624131037     
  8.800000000000002E-003   -0.455815315090504     
  8.900000000000002E-003   -0.451666755006553     
  9.000000000000001E-003   -0.447299722505764     
  9.100000000000002E-003   -0.442715179047324     
  9.200000000000002E-003   -0.437914224751937     
  9.300000000000001E-003   -0.432898170020384     
  9.400000000000002E-003   -0.427668436922614     
  9.500000000000001E-003   -0.422226677394756     
  9.600000000000001E-003   -0.416574645313975     
  9.700000000000002E-003   -0.410714296887777     
  9.800000000000001E-003   -0.404647736061590     
  9.900000000000001E-003   -0.398377215125799     
  1.000000000000000E-002   -0.391905180186314     
  1.010000000000000E-002   -0.385234212333964     
  1.020000000000000E-002   -0.378367055668109     
  1.030000000000000E-002   -0.371306610481264     
  1.040000000000000E-002   -0.364055914416507     
  1.050000000000000E-002   -0.356618178881047     
  1.060000000000000E-002   -0.348996749664330     
  1.070000000000000E-002   -0.341195107096440     
  1.080000000000000E-002   -0.333216891548171     
  1.090000000000000E-002   -0.325065857617650     
  1.100000000000000E-002   -0.316745914900622     
  1.110000000000000E-002   -0.308261099930621     
  1.120000000000000E-002   -0.299615545819168     
  1.130000000000000E-002   -0.290813562718731     
  1.140000000000000E-002   -0.281859573251498     
  1.150000000000000E-002   -0.272758090789117     
  1.160000000000000E-002   -0.263513739468246     
  1.170000000000000E-002   -0.254131280844632     
  1.180000000000000E-002   -0.244615570393517     
  1.190000000000000E-002   -0.234971540293927     
  1.200000000000000E-002   -0.225204251981808     
  1.210000000000000E-002   -0.215318838418090     
  1.220000000000000E-002   -0.205320517558868     
  1.230000000000000E-002   -0.195214590983026     
  1.240000000000000E-002   -0.185006451770278     
  1.250000000000000E-002   -0.174701550168058     
  1.260000000000000E-002   -0.164305401050760     
  1.270000000000000E-002   -0.153823588750652     
  1.280000000000000E-002   -0.143261759460757     
  1.290000000000000E-002   -0.132625604212828     
  1.300000000000000E-002   -0.121920856458810     
  1.310000000000000E-002   -0.111153294578706     
  1.320000000000000E-002   -0.100328732242624     
  1.330000000000000E-002   -8.945300501026308E-002
  1.340000000000000E-002   -7.853199380043686E-002
  1.350000000000000E-002   -6.757158377414657E-002
  1.360000000000000E-002   -5.657767434708176E-002
  1.370000000000000E-002   -4.555617463509288E-002
  1.380000000000000E-002   -3.451300434899744E-002
  1.390000000000000E-002   -2.345406565573538E-002
  1.400000000000000E-002   -1.238527134188942E-002
  1.410000000000000E-002   -1.312520090487178E-003
  1.420000000000000E-002    9.758313643809986E-003
  1.430000000000000E-002    2.082136741368638E-002
  1.440000000000000E-002    3.187081950649216E-002
  1.450000000000000E-002    4.290087136707363E-002
  1.460000000000000E-002    5.390575447165925E-002
  1.470000000000000E-002    6.487976636239784E-002
  1.480000000000000E-002    7.581722564824546E-002
  1.490000000000000E-002    8.671251976006690E-002
  1.500000000000000E-002    9.756009098962773E-002
  1.510000000000000E-002    0.108354440931603     
  1.520000000000000E-002    0.119090129434821     
  1.530000000000000E-002    0.129761798372760     
  1.540000000000000E-002    0.140364149374406     
  1.550000000000000E-002    0.150891974058071     
  1.560000000000000E-002    0.161340145515267     
  1.570000000000000E-002    0.171703613284752     
  1.580000000000000E-002    0.181977425390503     
  1.590000000000000E-002    0.192156732209010     
  1.600000000000000E-002    0.202236769288737     
  1.610000000000000E-002    0.212212886636856     
  1.620000000000000E-002    0.222080495919936     
  1.630000000000000E-002    0.231835164457750     
  1.640000000000000E-002    0.241472552950130     
  1.650000000000000E-002    0.250988442014108     
  1.660000000000000E-002    0.260378731678709     
  1.670000000000000E-002    0.269639408788031     
  1.680000000000000E-002    0.278766613810865     
  1.690000000000000E-002    0.287756594204194     
  1.700000000000000E-002    0.296605726955363     
  1.710000000000000E-002    0.305310504136062     
  1.720000000000000E-002    0.313867579689249     
  1.730000000000000E-002    0.322273689107896     
  1.740000000000000E-002    0.330525752792036     
  1.750000000000000E-002    0.338620801276069     
  1.760000000000000E-002    0.346555997998985     
  1.770000000000000E-002    0.354328637604111     
  1.780000000000000E-002    0.361936140505658     
  1.790000000000000E-002    0.369376096952725     
  1.800000000000000E-002    0.376646206000090     
  1.810000000000000E-002    0.383744321494523     
  1.820000000000000E-002    0.390668426140386     
  1.830000000000000E-002    0.397416662524559     
  1.840000000000000E-002    0.403987261120977     
  1.850000000000000E-002    0.410378620159269     
  1.860000000000000E-002    0.416589290009588     
  1.870000000000000E-002    0.422617910669976     