 -4.000000000000000E-002    0.000000000000000E+000
 -3.990000000000000E-002    0.000000000000000E+000
 -3.980000000000000E-002    0.000000000000000E+000
 -3.970000000000000E-002    0.000000000000000E+000
 -3.960000000000000E-002    0.000000000000000E+000
 -3.950000000000000E-002    0.000000000000000E+000
 -3.940000000000000E-002    0.000000000000000E+000
 -3.930000000000000E-002    0.000000000000000E+000
 -3.920000000000000E-002    0.000000000000000E+000
 -3.910000000000000E-002    0.000000000000000E+000
 -3.900000000000000E-002    0.000000000000000E+000
 -3.890000000000000E-002    0.000000000000000E+000
 -3.880000000000000E-002    0.000000000000000E+000
 -3.870000000000000E-002    1.618648124617270E-040
 -3.860000000000000E-002    3.836205580550102E-039
 -3.850000000000000E-002    4.611121483191997E-038
 -3.840000000000000E-002    3.739054762261491E-037
 -3.830000000000000E-002    2.293558985381013E-036
 -3.820000000000000E-002    1.130198024430087E-035
 -3.810000000000000E-002    4.631297445598105E-035
 -3.800000000000000E-002    1.608030844564739E-034
 -3.790000000000000E-002    4.754989025706800E-034
 -3.780000000000000E-002    1.181582345657691E-033
 -3.770000000000000E-002    2.334639719719743E-033
 -3.760000000000000E-002    2.900445999451059E-033
 -3.750000000000000E-002   -2.247062859464986E-033
 -3.740000000000000E-002   -3.000604917470795E-032
 -3.730000000000000E-002   -1.258665804261595E-031
 -3.720000000000000E-002   -3.958817290661859E-031
 -3.710000000000000E-002   -1.058829366885806E-030
 -3.700000000000000E-002   -2.515523952753840E-030
 -3.690000000000000E-002   -5.409621322766114E-030
 -3.680000000000000E-002   -1.060773341195234E-029
 -3.670000000000000E-002   -1.894875317751720E-029
 -3.660000000000000E-002   -3.050580882498896E-029
 -3.650000000000000E-002   -4.299617056776405E-029
 -3.640000000000000E-002   -4.893382875056116E-029
 -3.630000000000000E-002   -3.127300294671974E-029
 -3.620000000000000E-002    4.217443978399537E-029
 -3.610000000000000E-002    2.241327024958292E-028
 -3.600000000000000E-002    5.897590694231679E-028
 -3.590000000000000E-002    1.229124526937825E-027
 -3.580000000000000E-002    2.221489942175806E-027
 -3.570000000000000E-002    3.580589986030726E-027
 -3.560000000000000E-002    5.160967310257819E-027
 -3.550000000000000E-002    6.521802207937548E-027
 -3.540000000000000E-002    6.759724622220298E-027
 -3.530000000000000E-002    4.348116653590780E-027
 -3.520000000000000E-002   -2.942754665591691E-027
 -3.510000000000000E-002   -1.792759340574672E-026
 -3.500000000000000E-002   -4.353585704145048E-026
 -3.490000000000000E-002   -8.182461528147848E-026
 -3.480000000000000E-002   -1.323526902419924E-025
 -3.470000000000000E-002   -1.899217507584301E-025
 -3.460000000000000E-002   -2.419258280094390E-025
 -3.450000000000000E-002   -2.658971219838783E-025
 -3.440000000000000E-002   -2.282571202158440E-025
 -3.430000000000000E-002   -8.568524087798417E-026
 -3.420000000000000E-002    2.092543055938779E-025
 -3.410000000000000E-002    6.967453644293796E-025
 -3.400000000000000E-002    1.391911171449126E-024
 -3.390000000000000E-002    2.261451100146226E-024
 -3.380000000000000E-002    3.198051295521452E-024
 -3.370000000000000E-002    3.998968965564172E-024
 -3.360000000000000E-002    4.358315476170538E-024
 -3.350000000000000E-002    3.884739786852012E-024
 -3.340000000000000E-002    2.156078366761408E-024
 -3.330000000000000E-002   -1.181393833553726E-024
 -3.320000000000000E-002   -6.270439750648199E-024
 -3.310000000000000E-002   -1.287283649846356E-023
 -3.300000000000000E-002   -2.020640223332387E-023
 -3.290000000000000E-002   -2.684361306979085E-023
 -3.280000000000000E-002   -3.074203063262107E-023
 -3.270000000000000E-002   -2.948040265285463E-023
 -3.260000000000000E-002   -2.075747715135051E-023
 -3.250000000000000E-002   -3.165394040737958E-024
 -3.240000000000000E-002    2.282717485948526E-023
 -3.230000000000000E-002    5.385158016467016E-023
 -3.220000000000000E-002    8.286315671116885E-023
 -3.210000000000000E-002    9.900478741384624E-023
 -3.200000000000000E-002    8.855555075161014E-023
 -3.190000000000000E-002    3.736544302603772E-023
 -3.180000000000000E-002   -6.500763284848879E-023
 -3.170000000000000E-002   -2.195967226254075E-022
 -3.160000000000000E-002   -4.114194523395545E-022
 -3.150000000000000E-002   -6.032626703462116E-022
 -3.140000000000000E-002   -7.318024944380423E-022
 -3.130000000000000E-002   -7.084960870433486E-022
 -3.120000000000000E-002   -4.278059900177644E-022
 -3.110000000000000E-002    2.151453081370541E-022
 -3.100000000000000E-002    1.296634536290124E-021
 -3.090000000000000E-002    2.827345790753487E-021
 -3.080000000000000E-002    4.710430152867133E-021
 -3.070000000000000E-002    6.702019847353069E-021
 -3.060000000000000E-002    8.384786086607747E-021
 -3.050000000000000E-002    9.167366422674582E-021
 -3.040000000000000E-002    8.322866775824071E-021
 -3.030000000000000E-002    5.077174083933537E-021
 -3.020000000000000E-002   -1.248096159464111E-021
 -3.010000000000000E-002   -1.104281483436688E-020
 -3.000000000000000E-002   -2.418328768793634E-020
 -2.990000000000000E-002   -3.980686236239819E-020
 -2.980000000000000E-002   -5.613191004666052E-020
 -2.970000000000000E-002   -7.037861322411518E-020
 -2.960000000000000E-002   -7.884854214324479E-020
 -2.950000000000000E-002   -7.721272252865092E-020
 -2.940000000000000E-002   -6.103686250392660E-020
 -2.930000000000000E-002   -2.653815813283215E-020
 -2.920000000000000E-002    2.847738476932554E-020
 -2.910000000000000E-002    1.035994265382882E-019
 -2.900000000000000E-002    1.948713947136259E-019
 -2.890000000000000E-002    2.941119027011225E-019
 -2.880000000000000E-002    3.887041766312173E-019
 -2.870000000000000E-002    4.620420333834291E-019
 -2.860000000000000E-002    4.947665099894959E-019
 -2.850000000000000E-002    4.668345709509419E-019
 -2.840000000000000E-002    3.603373468947720E-019
 -2.830000000000000E-002    1.628418739583911E-019
 -2.820000000000000E-002   -1.291095001629744E-019
 -2.810000000000000E-002   -5.068218255369321E-019
 -2.800000000000000E-002   -9.471353948000224E-019
 -2.790000000000000E-002   -1.411511672216971E-018
 -2.780000000000000E-002   -1.846959963576249E-018
 -2.770000000000000E-002   -2.189072903580026E-018
 -2.760000000000000E-002   -2.367202570761579E-018
 -2.750000000000000E-002   -2.311528199243030E-018
 -2.740000000000000E-002   -1.961501116620640E-018
 -2.730000000000000E-002   -1.274921742154028E-018
 -2.720000000000000E-002   -2.367576788499088E-019
 -2.710000000000000E-002    1.133229459956203E-018
 -2.700000000000000E-002    2.774916872195116E-018
 -2.690000000000000E-002    4.585026895688678E-018
 -2.680000000000000E-002    6.417632897459429E-018
 -2.670000000000000E-002    8.088280834638674E-018
 -2.660000000000000E-002    9.381916941999649E-018
 -2.650000000000000E-002    1.006472845792308E-017
 -2.640000000000000E-002    9.900009089726116E-018
 -2.630000000000000E-002    8.668181674069467E-018
 -2.620000000000000E-002    6.191037438049748E-018
 -2.610000000000000E-002    2.359998304279856E-018
 -2.600000000000000E-002   -2.832370851553917E-018
 -2.590000000000000E-002   -9.259329405753042E-018
 -2.580000000000000E-002   -1.662850816369589E-017
 -2.570000000000000E-002   -2.445671562046733E-017
 -2.560000000000000E-002   -3.205729171563138E-017
 -2.550000000000000E-002   -3.854745031675788E-017
 -2.540000000000000E-002   -4.288333859347048E-017
 -2.530000000000000E-002   -4.392941507632160E-017
 -2.520000000000000E-002   -4.056578211796028E-017
 -2.510000000000000E-002   -3.183239738544300E-017
 -2.500000000000000E-002   -1.710238273289999E-017
 -2.490000000000000E-002    3.730924285010616E-018
 -2.480000000000000E-002    3.007631778382739E-017
 -2.470000000000000E-002    6.050589414851936E-017
 -2.460000000000000E-002    9.268796426390617E-017
 -2.450000000000000E-002    1.234233952289021E-016
 -2.440000000000000E-002    1.488103477977177E-016
 -2.430000000000000E-002    1.645496381316807E-016
 -2.420000000000000E-002    1.663847088047359E-016
 -2.410000000000000E-002    1.506479223379406E-016
 -2.400000000000000E-002    1.148624524734815E-016
 -2.390000000000000E-002    5.832810496990163E-017
 -2.380000000000000E-002   -1.739380804616070E-017
 -2.370000000000000E-002   -1.081850225480234E-016
 -2.360000000000000E-002   -2.073429342595163E-016
 -2.350000000000000E-002   -3.058761272969794E-016
 -2.340000000000000E-002   -3.931415222224049E-016
 -2.330000000000000E-002   -4.577958308389217E-016
 -2.320000000000000E-002   -4.889854381634799E-016
 -2.310000000000000E-002   -4.776542586970251E-016
 -2.300000000000000E-002   -4.178158970239290E-016
 -2.290000000000000E-002   -3.076233580486045E-016
 -2.280000000000000E-002   -1.500790548406131E-016
 -2.270000000000000E-002    4.673679675054105E-017
 -2.260000000000000E-002    2.699856833410314E-016
 -2.250000000000000E-002    5.029308298966384E-016
 -2.240000000000000E-002    7.262573324769682E-016
 -2.230000000000000E-002    9.197028922865970E-016
 -2.220000000000000E-002    1.063806836808736E-015
 -2.210000000000000E-002    1.141567057150719E-015
 -2.200000000000000E-002    1.139818883087617E-015
 -2.190000000000000E-002    1.050204729117193E-015
 -2.180000000000000E-002    8.696831294555978E-016
 -2.170000000000000E-002    6.006188043918865E-016
 -2.160000000000000E-002    2.505756413383202E-016
 -2.150000000000000E-002   -1.680105930449951E-016
 -2.140000000000000E-002   -6.380979534158970E-016
 -2.130000000000000E-002   -1.138104357468711E-015
 -2.120000000000000E-002   -1.641738401157153E-015
 -2.110000000000000E-002   -2.117692154979543E-015
 -2.100000000000000E-002   -2.529444978223930E-015
 -2.090000000000000E-002   -2.835549272491506E-015
 -2.080000000000000E-002   -2.990835125370385E-015
 -2.070000000000000E-002   -2.948943259335875E-015
 -2.060000000000000E-002   -2.666455159812094E-015
 -2.050000000000000E-002   -2.108633615844017E-015
 -2.040000000000000E-002   -1.256450190940486E-015
 -2.030000000000000E-002   -1.141823791885727E-016
 -2.020000000000000E-002    1.283492175016492E-015
 -2.010000000000000E-002    2.866241712971842E-015
 -2.000000000000000E-002    4.526096284957899E-015
 -1.990000000000000E-002    6.120009714978773E-015
 -1.980000000000000E-002    7.477839086262072E-015
 -1.970000000000000E-002    8.415982948943281E-015
 -1.960000000000000E-002    8.756052173777495E-015
 -1.950000000000000E-002    8.347071001694248E-015
 -1.940000000000000E-002    7.088838733045243E-015
 -1.930000000000000E-002    4.953438270265683E-015
 -1.920000000000000E-002    2.001619531779497E-015
 -1.910000000000000E-002   -1.609067554055871E-015
 -1.900000000000000E-002   -5.626813033109207E-015
 -1.890000000000000E-002   -9.720034317860408E-015
 -1.880000000000000E-002   -1.350359488573160E-014
 -1.870000000000000E-002   -1.657483150815542E-014
 -1.860000000000000E-002   -1.855590216558995E-014
 -1.850000000000000E-002   -1.913764636281272E-014
 -1.840000000000000E-002   -1.811950796179647E-014
 -1.830000000000000E-002   -1.544007569255324E-014
 -1.820000000000000E-002   -1.119363373927181E-014
 -1.810000000000000E-002   -5.629743181867468E-015
 -1.800000000000000E-002    8.649842791530325E-016
 -1.790000000000000E-002    7.801316431984437E-015
 -1.780000000000000E-002    1.463407912867449E-014
 -1.770000000000000E-002    2.081527678336924E-014
 -1.760000000000000E-002    2.584676829132059E-014
 -1.750000000000000E-002    2.932562764794896E-014
 -1.740000000000000E-002    3.097631957828026E-014
 -1.730000000000000E-002    3.066598251650534E-014
 -1.720000000000000E-002    2.840178642625286E-014
 -1.710000000000000E-002    2.431234319427686E-014
 -1.700000000000000E-002    1.861789040904727E-014
 -1.690000000000000E-002    1.159590742233241E-014
 -1.680000000000000E-002    3.549565523808906E-015
 -1.670000000000000E-002   -5.214258490640075E-015
 -1.660000000000000E-002   -1.439272807911758E-014
 -1.650000000000000E-002   -2.367910399240091E-014
 -1.640000000000000E-002   -3.274150621142491E-014
 -1.630000000000000E-002   -4.119444199595852E-014
 -1.620000000000000E-002   -4.857218133272183E-014
 -1.610000000000000E-002   -5.431437873205641E-014
 -1.600000000000000E-002   -5.777387027848822E-014
 -1.590000000000000E-002   -5.825372142230101E-014
 -1.580000000000000E-002   -5.507608163408560E-014
 -1.570000000000000E-002   -4.767911103127177E-014
 -1.560000000000000E-002   -3.573210165477814E-014
 -1.550000000000000E-002   -1.925272720328785E-014
 -1.540000000000000E-002    1.293279433372789E-015
 -1.530000000000000E-002    2.493109721973356E-014
 -1.520000000000000E-002    5.017312869369908E-014
 -1.510000000000000E-002    7.508540716399492E-014
 -1.500000000000000E-002    9.742817683222886E-014
 -1.490000000000000E-002    1.148634013629921E-013
 -1.480000000000000E-002    1.252106537939985E-013
 -1.470000000000000E-002    1.267226920690546E-013
 -1.460000000000000E-002    1.183447735339615E-013
 -1.450000000000000E-002    9.991931675726322E-014
 -1.440000000000000E-002    7.230060439970487E-014
 -1.430000000000000E-002    3.735294106563667E-014
 -1.420000000000000E-002   -2.180380581338799E-015
 -1.410000000000000E-002   -4.293278125701508E-014
 -1.400000000000000E-002   -8.127168645762007E-014
 -1.390000000000000E-002   -1.137176901567753E-013
 -1.380000000000000E-002   -1.373725914005280E-013
 -1.370000000000000E-002   -1.502980213483716E-013
 -1.360000000000000E-002   -1.517874266962315E-013
 -1.350000000000000E-002   -1.424856491503677E-013
 -1.340000000000000E-002   -1.243277378807847E-013
 -1.330000000000000E-002   -1.002930668619961E-013
 -1.320000000000000E-002   -7.399714656428981E-014
 -1.310000000000000E-002   -4.916879744340497E-014
 -1.300000000000000E-002   -2.908074248206440E-014
 -1.290000000000000E-002   -1.601344925330107E-014
 -1.280000000000000E-002   -1.083338227592079E-014
 -1.270000000000000E-002   -1.275586426439560E-014
 -1.260000000000000E-002   -1.934143670434866E-014
 -1.250000000000000E-002   -2.674401941564207E-014
 -1.240000000000000E-002   -3.019472485082632E-014
 -1.230000000000000E-002   -2.466989556856387E-014
 -1.220000000000000E-002   -5.662740478806141E-015
 -1.210000000000000E-002    3.004194349079346E-014
 -1.200000000000000E-002    8.369645441581525E-014
 -1.190000000000000E-002    1.541207335042351E-013
 -1.180000000000000E-002    2.375100115125792E-013
 -1.170000000000000E-002    3.275608565254184E-013
 -1.160000000000000E-002    4.159132542836863E-013
 -1.150000000000000E-002    4.928688809001955E-013
 -1.140000000000000E-002    5.483009176311982E-013
 -1.130000000000000E-002    5.726525787565761E-013
 -1.120000000000000E-002    5.579048899626519E-013
 -1.110000000000000E-002    4.984032606553780E-013
 -1.100000000000000E-002    3.914555165239115E-013
 -1.090000000000000E-002    2.376493097789158E-013
 -1.080000000000000E-002    4.088066531238571E-014
 -1.070000000000000E-002   -1.918708437609192E-013
 -1.060000000000000E-002   -4.509507361109622E-013
 -1.050000000000000E-002   -7.245303346863485E-013
 -1.040000000000000E-002   -9.991062174427598E-013
 -1.030000000000000E-002   -1.259927744060779E-012
 -1.020000000000000E-002   -1.491313034560794E-012
 -1.010000000000000E-002   -1.676866100140756E-012
 -1.000000000000000E-002   -1.799662375461204E-012
 -9.899999999999999E-003   -1.842508462436476E-012
 -9.800000000000000E-003   -1.788413976632749E-012
 -9.699999999999999E-003   -1.621406445535510E-012
 -9.599999999999999E-003   -1.327792164565020E-012
 -9.500000000000000E-003   -8.978933900501045E-013
 -9.399999999999999E-003   -3.282077446656092E-013
 -9.299999999999999E-003    3.761760042875405E-013
 -9.200000000000000E-003    1.199182788096230E-012
 -9.099999999999999E-003    2.111723275145594E-012
 -8.999999999999999E-003    3.070451521486313E-012
 -8.900000000000000E-003    4.017706873238170E-012
 -8.799999999999999E-003    4.882979599862495E-012
 -8.699999999999999E-003    5.586114597367150E-012
 -8.600000000000000E-003    6.042286313537537E-012
 -8.499999999999999E-003    6.168563162656664E-012
 -8.399999999999999E-003    5.891647140434913E-012
 -8.300000000000000E-003    5.156177100702726E-012
 -8.199999999999999E-003    3.932810007798570E-012
 -8.100000000000000E-003    2.225220829147010E-012
 -8.000000000000000E-003    7.516834015597983E-014
 -7.899999999999999E-003   -2.435113927017313E-012
 -7.800000000000000E-003   -5.183746729178894E-012
 -7.699999999999999E-003   -8.013495631866876E-012
 -7.599999999999999E-003   -1.073945504808040E-011
 -7.499999999999999E-003   -1.315971637597412E-011
 -7.399999999999999E-003   -1.506828819421710E-011
 -7.299999999999999E-003   -1.626934656436596E-011
 -7.199999999999999E-003   -1.659170560988050E-011
 -7.100000000000000E-003   -1.590242692981828E-011
 -6.999999999999999E-003   -1.411855148385241E-011
 -6.899999999999999E-003   -1.121614867194045E-011
 -6.800000000000000E-003   -7.236144587026838E-012
 -6.699999999999999E-003   -2.286647417931492E-012
 -6.599999999999999E-003    3.458198102164056E-012
 -6.499999999999999E-003    9.762584887669448E-012
 -6.399999999999999E-003    1.633626022792974E-011
 -6.299999999999999E-003    2.284422771767409E-011
 -6.199999999999999E-003    2.891844404864895E-011
 -6.100000000000000E-003    3.417134608472432E-011
 -5.999999999999999E-003    3.821100409621247E-011
 -5.899999999999999E-003    4.065788242812042E-011
 -5.800000000000000E-003    4.116322369829028E-011
 -5.699999999999999E-003    3.942897177163473E-011
 -5.599999999999999E-003    3.522899745841406E-011
 -5.499999999999999E-003    2.843104143295876E-011
 -5.399999999999999E-003    1.901846894905067E-011
 -5.299999999999999E-003    7.110364288588551E-012
 -5.199999999999999E-003   -7.021751247023592E-012
 -5.099999999999999E-003   -2.294267239307698E-011
 -4.999999999999999E-003   -4.004986414090870E-011
 -4.899999999999999E-003   -5.757943718813872E-011
 -4.799999999999999E-003   -7.462326918387971E-011
 -4.699999999999999E-003   -9.015812421851711E-011
 -4.599999999999999E-003   -1.030868197130555E-010
 -4.499999999999999E-003   -1.122902888140058E-010
 -4.399999999999999E-003   -1.166884963214814E-010
 -4.299999999999999E-003   -1.153071148833419E-010
 -4.199999999999999E-003   -1.073462628705903E-010
 -4.099999999999999E-003   -9.224707835901817E-011
 -3.999999999999999E-003   -6.975192855243819E-011
 -3.899999999999999E-003   -3.995436333438776E-011
 -3.799999999999999E-003   -3.335639747675291E-012
 -3.699999999999999E-003    3.921464573175881E-011
 -3.599999999999999E-003    8.639504812158107E-011
 -3.499999999999999E-003    1.365064392132450E-010
 -3.399999999999999E-003    1.874832966102735E-010
 -3.299999999999999E-003    2.369412765434805E-010
 -3.199999999999999E-003    2.822399249953161E-010
 -3.099999999999999E-003    3.205593043484281E-010
 -2.999999999999999E-003    3.489899542736356E-010
 -2.899999999999999E-003    3.646355652410987E-010
 -2.799999999999999E-003    3.647284305336292E-010
 -2.699999999999999E-003    3.467575343485111E-010
 -2.599999999999999E-003    3.086087685844485E-010
 -2.499999999999999E-003    2.487160055140351E-010
 -2.399999999999999E-003    1.662201311720334E-010
 -2.299999999999999E-003    6.113114382297668E-011
 -2.199999999999999E-003   -6.551374061964494E-011
 -2.099999999999999E-003   -2.115058074805424E-010
 -1.999999999999999E-003   -3.733460611563171E-010
 -1.899999999999999E-003   -5.461654747515071E-010
 -1.799999999999999E-003   -7.236986005967693E-010
 -1.699999999999999E-003   -8.983242242897689E-010
 -1.599999999999999E-003   -1.061185670843483E-009
 -1.499999999999999E-003   -1.202399079148340E-009
 -1.399999999999999E-003   -1.311355189212323E-009
 -1.299999999999999E-003   -1.377113304449421E-009
 -1.199999999999999E-003   -1.388881510730530E-009
 -1.099999999999999E-003   -1.336569400324253E-009
 -9.999999999999989E-004   -1.211395057021924E-009
 -8.999999999999990E-004   -1.006521788228109E-009
 -7.999999999999990E-004   -7.176965412374546E-010
 -6.999999999999989E-004   -3.438585246608552E-010
 -5.999999999999990E-004    1.123143086295921E-010
 -4.999999999999989E-004    6.439523842070963E-010
 -3.999999999999989E-004    1.239667158565371E-009
 -2.999999999999989E-004    1.883375495176941E-009
 -1.999999999999989E-004    2.554300367159413E-009
 -9.999999999999892E-005    3.227167219010611E-009
  1.084202172485504E-018    3.872610092426463E-009
  1.000000000000011E-004    4.457796762000446E-009
  2.000000000000011E-004    4.947276968231032E-009
  3.000000000000011E-004    5.304051418380320E-009
  4.000000000000011E-004    5.490853700095849E-009
  5.000000000000011E-004    5.471631285176500E-009
  6.000000000000011E-004    5.213201817659696E-009
  7.000000000000011E-004    4.687057174525826E-009
  8.000000000000011E-004    3.871277538150948E-009
  9.000000000000012E-004    2.752506965787408E-009
  1.000000000000001E-003    1.327936811109983E-009
  1.100000000000001E-003   -3.927645125258061E-010
  1.200000000000001E-003   -2.385645860335235E-009
  1.300000000000001E-003   -4.610862885241009E-009
  1.400000000000001E-003   -7.011338180617935E-009
  1.500000000000001E-003   -9.511758960756583E-009
  1.600000000000001E-003   -1.201798852499384E-008
  1.700000000000001E-003   -1.441692691746624E-008
  1.800000000000001E-003   -1.657687101811002E-008
  1.900000000000001E-003   -1.834840550708064E-008
  2.000000000000001E-003   -1.956579437826266E-008
  2.100000000000001E-003   -2.004889373558391E-008
  2.200000000000001E-003   -1.960549497877288E-008
  2.300000000000001E-003   -1.803407252494402E-008
  2.400000000000001E-003   -1.512683706173178E-008
  2.500000000000001E-003   -1.067295203724526E-008
  2.600000000000001E-003   -4.461892169644526E-009
  2.700000000000001E-003    3.713309556372940E-009
  2.800000000000001E-003    1.405289910573037E-008
  2.900000000000001E-003    2.674759212028457E-008
  3.000000000000001E-003    4.197608323502320E-008
  3.100000000000001E-003    5.990313981145999E-008
  3.200000000000001E-003    8.067820910075753E-008
  3.300000000000001E-003    1.044346796780678E-007
  3.400000000000001E-003    1.312898015619161E-007
  3.500000000000001E-003    1.613453404997016E-007
  3.600000000000001E-003    1.946888689083969E-007
  3.700000000000001E-003    2.313957140409987E-007
  3.800000000000001E-003    2.715315217537836E-007
  3.900000000000001E-003    3.151553714579824E-007
  4.000000000000001E-003    3.623231692879895E-007
  4.100000000000001E-003    4.130915095072073E-007
  4.200000000000001E-003    4.675217222783142E-007
  4.300000000000001E-003    5.256840094822417E-007
  4.400000000000001E-003    5.876614922748556E-007
  4.500000000000001E-003    6.535543327023450E-007
  4.600000000000002E-003    7.234832802877464E-007
  4.700000000000001E-003    7.975932082136343E-007
  4.800000000000001E-003    8.760561614249618E-007
  4.900000000000002E-003    9.590738864407273E-007
  5.000000000000001E-003    1.046879917421122E-006
  5.100000000000001E-003    1.139741128501216E-006
  5.200000000000001E-003    1.237958491047520E-006
  5.300000000000002E-003    1.341867950016130E-006
  5.400000000000001E-003    1.451839661209981E-006
  5.500000000000001E-003    1.568278274352831E-006
  5.600000000000002E-003    1.691620818708679E-006
  5.700000000000001E-003    1.822336138006638E-006
  5.800000000000001E-003    1.960922613609085E-006
  5.900000000000002E-003    2.107905941920291E-006
  6.000000000000001E-003    2.263837617032130E-006
  6.100000000000001E-003    2.429292104130025E-006
  6.200000000000002E-003    2.604865104746970E-006
  6.300000000000002E-003    2.791171601370718E-006
  6.400000000000001E-003    2.988844668463491E-006
  6.500000000000001E-003    3.198534679037790E-006
  6.600000000000002E-003    3.420909191054150E-006
  6.700000000000001E-003    3.656653684689430E-006
  6.800000000000001E-003    3.906473003781216E-006
  6.900000000000002E-003    4.171094611067452E-006
  7.000000000000001E-003    4.451271670305534E-006
  7.100000000000001E-003    4.747787797223342E-006
  7.200000000000002E-003    5.061462978334287E-006
  7.300000000000002E-003    5.393158566843952E-006
  7.400000000000001E-003    5.743784806045614E-006
  7.500000000000001E-003    6.114307107066823E-006
  7.600000000000002E-003    6.505752457366956E-006
  7.700000000000001E-003    6.919216842336408E-006
  7.800000000000001E-003    7.355871408394022E-006
  7.900000000000001E-003    7.816967199625118E-006
  8.000000000000002E-003    8.303840612863204E-006
  8.100000000000001E-003    8.817916917346585E-006
  8.200000000000001E-003    9.360713188565350E-006
  8.300000000000002E-003    9.933840767879735E-006
  8.400000000000001E-003    1.053900640428372E-005
  8.500000000000002E-003    1.117801349218036E-005
  8.600000000000002E-003    1.185276272983039E-005
  8.700000000000001E-003    1.256525052357310E-005
  8.800000000000002E-003    1.331756987586092E-005
  8.900000000000002E-003    1.411191046873416E-005
  9.000000000000001E-003    1.495055844233914E-005
  9.100000000000002E-003    1.583589537288301E-005
  9.200000000000002E-003    1.677040086716869E-005
  9.300000000000001E-003    1.775665179911288E-005
  9.400000000000002E-003    1.879732460465292E-005
  9.500000000000001E-003    1.989519427166996E-005
  9.600000000000001E-003    2.105314301347257E-005
  9.700000000000002E-003    2.227415516263571E-005
  9.800000000000001E-003    2.356132540916907E-005
  9.900000000000001E-003    2.491786275674084E-005
  1.000000000000000E-002    2.634709414607717E-005
  1.010000000000000E-002    2.785247311838840E-005
  1.020000000000000E-002    2.943758367268081E-005
  1.030000000000000E-002    3.110615414799807E-005
  1.040000000000000E-002    3.286206179102648E-005
  1.050000000000000E-002    3.470934732524574E-005
  1.060000000000000E-002    3.665222408454459E-005
  1.070000000000000E-002    3.869509549723133E-005
  1.080000000000000E-002    4.084256804624694E-005
  1.090000000000000E-002    4.309945852127250E-005
  1.100000000000000E-002    4.547082313744857E-005
  1.110000000000000E-002    4.796195095778983E-005
  1.120000000000000E-002    5.057840028946148E-005
  1.130000000000000E-002    5.332598853055115E-005
  1.140000000000000E-002    5.621081938111858E-005
  1.150000000000000E-002    5.923927439169227E-005
  1.160000000000000E-002    6.241803359359166E-005
  1.170000000000000E-002    6.575407188161213E-005
  1.180000000000000E-002    6.925466355759274E-005
  1.190000000000000E-002    7.292738011943891E-005
  1.200000000000000E-002    7.678009529450655E-005
  1.210000000000000E-002    8.082097710628800E-005
  1.220000000000000E-002    8.505849593287393E-005
  1.230000000000000E-002    8.950140446439165E-005
  1.240000000000000E-002    9.415875982874296E-005
  1.250000000000000E-002    9.903992149946328E-005
  1.260000000000000E-002    1.041545453590379E-004
  1.270000000000000E-002    1.095125959844956E-004
  1.280000000000000E-002    1.151243515525162E-004
  1.290000000000000E-002    1.210004224649320E-004
  1.300000000000000E-002    1.271517599115051E-004
  1.310000000000000E-002    1.335896845409822E-004
  1.320000000000000E-002    1.403258983568734E-004
  1.330000000000000E-002    1.473724995202926E-004
  1.340000000000000E-002    1.547420195961402E-004
  1.350000000000000E-002    1.624474299338617E-004
  1.360000000000000E-002    1.705021757994267E-004
  1.370000000000000E-002    1.789201998624100E-004
  1.380000000000000E-002    1.877159508960463E-004
  1.390000000000000E-002    1.969044468970483E-004
  1.400000000000000E-002    2.065012165237178E-004
  1.410000000000000E-002    2.165223697857676E-004
  1.420000000000000E-002    2.269846039841819E-004
  1.430000000000000E-002    2.379051860681668E-004
  1.440000000000000E-002    2.493019962352585E-004
  1.450000000000000E-002    2.611934765559690E-004
  1.460000000000000E-002    2.735986944202477E-004
  1.470000000000000E-002    2.865372830094064E-004
  1.480000000000000E-002    3.000294722766154E-004
  1.490000000000000E-002    3.140960844300892E-004
  1.500000000000000E-002    3.287584905472384E-004
  1.510000000000000E-002    3.440386770290372E-004
  1.520000000000000E-002    3.599592485157792E-004
  1.530000000000000E-002    3.765433207615761E-004
  1.540000000000000E-002    3.938146547170349E-004
  1.550000000000000E-002    4.117976261599046E-004
  1.560000000000000E-002    4.305172456499950E-004
  1.570000000000000E-002    4.499991541750483E-004
  1.580000000000000E-002    4.702696269764790E-004
  1.590000000000000E-002    4.913556941618333E-004
  1.600000000000000E-002    5.132850892936394E-004
  1.610000000000000E-002    5.360862283438653E-004
  1.620000000000000E-002    5.597883347628491E-004
  1.630000000000000E-002    5.844213779366549E-004
  1.640000000000000E-002    6.100161775201982E-004
  1.650000000000000E-002    6.366043462587685E-004
  1.660000000000000E-002    6.642182656543809E-004
  1.670000000000000E-002    6.928912380802889E-004
  1.680000000000000E-002    7.226573531289419E-004
  1.690000000000000E-002    7.535515016408123E-004
  1.700000000000000E-002    7.856094044540470E-004
  1.710000000000000E-002    8.188677072609428E-004
  1.720000000000000E-002    8.533637584643949E-004
  1.730000000000000E-002    8.891357400328012E-004
  1.740000000000000E-002    9.262226268070323E-004
  1.750000000000000E-002    9.646641812853053E-004
  1.760000000000000E-002    1.004500894708210E-003
  1.770000000000000E-002    1.045773992624187E-003
  1.780000000000000E-002    1.088525467613566E-003
  1.790000000000000E-002    1.132798033619438E-003
  1.800000000000000E-002    1.178635095901923E-003
  1.810000000000000E-002    1.226080696371910E-003
  1.820000000000000E-002    1.275179617045292E-003
  1.830000000000000E-002    1.325977291828554E-003
  1.840000000000000E-002    1.378519908659213E-003
  1.850000000000000E-002    1.432854156589223E-003
  1.860000000000000E-002    1.489027622084392E-003
  1.870000000000000E-002    1.547088333771883E-003