 -4.000000000000000E-002    0.000000000000000E+000
 -3.990000000000000E-002    0.000000000000000E+000
 -3.980000000000000E-002    0.000000000000000E+000
 -3.970000000000000E-002    0.000000000000000E+000
 -3.960000000000000E-002    0.000000000000000E+000
 -3.950000000000000E-002    0.000000000000000E+000
 -3.940000000000000E-002    0.000000000000000E+000
 -3.930000000000000E-002    0.000000000000000E+000
 -3.920000000000000E-002    1.054446163046760E-027
 -3.910000000000000E-002    1.561801167371007E-026
 -3.900000000000000E-002    1.149585553209969E-025
 -3.890000000000000E-002    5.514068127449364E-025
 -3.880000000000000E-002    1.870934984498584E-024
 -3.870000000000000E-002    4.363469755304006E-024
 -3.860000000000000E-002    4.680843284292801E-024
 -3.850000000000000E-002   -1.543449696066995E-023
 -3.840000000000000E-002   -1.172458027878475E-022
 -3.830000000000000E-002   -4.614629938547597E-022
 -3.820000000000000E-002   -1.400549611350969E-021
 -3.810000000000000E-002   -3.595430537894111E-021
 -3.800000000000000E-002   -8.101786510497857E-021
 -3.790000000000000E-002   -1.629847307500256E-020
 -3.780000000000000E-002   -2.943704984887479E-020
 -3.770000000000000E-002   -4.750888513309615E-020
 -3.760000000000000E-002   -6.711774342133760E-020
 -3.750000000000000E-002   -7.820179007859192E-020
 -3.740000000000000E-002   -5.986991871839627E-020
 -3.730000000000000E-002    2.363103715619172E-020
 -3.720000000000000E-002    2.247442040147242E-019
 -3.710000000000000E-002    6.089783706924695E-019
 -3.700000000000000E-002    1.241694967797341E-018
 -3.690000000000000E-002    2.161174560107747E-018
 -3.680000000000000E-002    3.335469960820519E-018
 -3.670000000000000E-002    4.604478104054719E-018
 -3.660000000000000E-002    5.615170770176602E-018
 -3.650000000000000E-002    5.766538192579662E-018
 -3.640000000000000E-002    4.190024369052298E-018
 -3.630000000000000E-002   -2.016800317266954E-019
 -3.620000000000000E-002   -8.563353508394547E-018
 -3.610000000000000E-002   -2.183805515691620E-017
 -3.600000000000000E-002   -4.034651977212148E-017
 -3.590000000000000E-002   -6.327784916823653E-017
 -3.580000000000000E-002   -8.816182399169724E-017
 -3.570000000000000E-002   -1.104542701609710E-016
 -3.560000000000000E-002   -1.234084141240953E-016
 -3.550000000000000E-002   -1.184200078267653E-016
 -3.540000000000000E-002   -8.600421975357580E-017
 -3.530000000000000E-002   -1.747444998971634E-017
 -3.520000000000000E-002    9.275608522027752E-017
 -3.510000000000000E-002    2.445279797163076E-016
 -3.500000000000000E-002    4.294375877760895E-016
 -3.490000000000000E-002    6.291622559866660E-016
 -3.480000000000000E-002    8.153641061724469E-016
 -3.470000000000000E-002    9.518453823761040E-016
 -3.460000000000000E-002    9.993280084743347E-016
 -3.450000000000000E-002    9.227083269732855E-016
 -3.440000000000000E-002    6.999290168566471E-016
 -3.430000000000000E-002    3.308393680006515E-016
 -3.420000000000000E-002   -1.562498475120321E-016
 -3.410000000000000E-002   -7.029483047893893E-016
 -3.400000000000000E-002   -1.226509569087077E-015
 -3.390000000000000E-002   -1.634359666478621E-015
 -3.380000000000000E-002   -1.847178073071661E-015
 -3.370000000000000E-002   -1.827914826750681E-015
 -3.360000000000000E-002   -1.611471472645509E-015
 -3.350000000000000E-002   -1.327371611860945E-015
 -3.340000000000000E-002   -1.206290607341085E-015
 -3.330000000000000E-002   -1.561539466323164E-015
 -3.320000000000000E-002   -2.739083491934194E-015
 -3.310000000000000E-002   -5.034678116590294E-015
 -3.300000000000000E-002   -8.583985255067456E-015
 -3.290000000000000E-002   -1.324022171901989E-014
 -3.280000000000000E-002   -1.846250407845218E-014
 -3.270000000000000E-002   -2.324462711086761E-014
 -3.260000000000000E-002   -2.611641708422639E-014
 -3.250000000000000E-002   -2.524603450765976E-014
 -3.240000000000000E-002   -1.866060129720503E-014
 -3.230000000000000E-002   -4.584151783361799E-015
 -3.220000000000000E-002    1.813210384042134E-014
 -3.210000000000000E-002    4.953880010956907E-014
 -3.200000000000000E-002    8.815267620938296E-014
 -3.190000000000000E-002    1.306486600944012E-013
 -3.180000000000000E-002    1.717761284518279E-013
 -3.170000000000000E-002    2.045818591391831E-013
 -3.160000000000000E-002    2.209895984800663E-013
 -3.150000000000000E-002    2.127357851460697E-013
 -3.140000000000000E-002    1.725988949061551E-013
 -3.130000000000000E-002    9.579340290652217E-014
 -3.120000000000000E-002   -1.865788014898211E-014
 -3.110000000000000E-002   -1.667968210527793E-013
 -3.100000000000000E-002   -3.390782873468488E-013
 -3.090000000000000E-002   -5.203914860783047E-013
 -3.080000000000000E-002   -6.908804017916538E-013
 -3.070000000000000E-002   -8.275839600416903E-013
 -3.060000000000000E-002   -9.067920718153004E-013
 -3.050000000000000E-002   -9.068866427440075E-013
 -3.040000000000000E-002   -8.113327303771096E-013
 -3.030000000000000E-002   -6.114217386387695E-013
 -3.020000000000000E-002   -3.083663022810457E-013
 -3.010000000000000E-002    8.559173049866803E-014
 -3.000000000000000E-002    5.472737386384345E-013
 -2.990000000000000E-002    1.043904453682639E-012
 -2.980000000000000E-002    1.535561360325916E-012
 -2.970000000000000E-002    1.978429371696825E-012
 -2.960000000000000E-002    2.328441197408455E-012
 -2.950000000000000E-002    2.544847228531545E-012
 -2.940000000000000E-002    2.593308155169883E-012
 -2.930000000000000E-002    2.448244366236340E-012
 -2.920000000000000E-002    2.094365519097774E-012
 -2.910000000000000E-002    1.527510876168313E-012
 -2.900000000000000E-002    7.551080356145373E-013
 -2.890000000000000E-002   -2.033694746049761E-013
 -2.880000000000000E-002   -1.315599216629430E-012
 -2.870000000000000E-002   -2.535101762723288E-012
 -2.860000000000000E-002   -3.799564641501033E-012
 -2.850000000000000E-002   -5.029300662762502E-012
 -2.840000000000000E-002   -6.126690917560978E-012
 -2.830000000000000E-002   -6.977701227321665E-012
 -2.820000000000000E-002   -7.456582574822657E-012
 -2.810000000000000E-002   -7.434631038351911E-012
 -2.800000000000000E-002   -6.793329883579321E-012
 -2.790000000000000E-002   -5.441407608173854E-012
 -2.780000000000000E-002   -3.334374169217636E-012
 -2.770000000000000E-002   -4.941525089135217E-013
 -2.760000000000000E-002    2.974358821992921E-012
 -2.750000000000000E-002    6.873316569986175E-012
 -2.740000000000000E-002    1.091193486694824E-011
 -2.730000000000000E-002    1.471901517332472E-011
 -2.720000000000000E-002    1.786915468106296E-011
 -2.710000000000000E-002    1.992187684320623E-011
 -2.700000000000000E-002    2.047077014741848E-011
 -2.690000000000000E-002    1.919768842124401E-011
 -2.680000000000000E-002    1.592542876088819E-011
 -2.670000000000000E-002    1.066147980471952E-011
 -2.660000000000000E-002    3.625642369123066E-012
 -2.650000000000000E-002   -4.744360374178305E-012
 -2.640000000000000E-002   -1.381278306998864E-011
 -2.630000000000000E-002   -2.279160198512650E-011
 -2.620000000000000E-002   -3.080891969454805E-011
 -2.610000000000000E-002   -3.699348166967564E-011
 -2.600000000000000E-002   -4.056611750556187E-011
 -2.590000000000000E-002   -4.092744168241598E-011
 -2.580000000000000E-002   -3.773113961937664E-011
 -2.570000000000000E-002   -3.093373328257737E-011
 -2.560000000000000E-002   -2.081458994990229E-011
 -2.550000000000000E-002   -7.963817000860243E-012
 -2.540000000000000E-002    6.760192646102586E-012
 -2.530000000000000E-002    2.229798015468299E-011
 -2.520000000000000E-002    3.747258649960734E-011
 -2.510000000000000E-002    5.107972333416756E-011
 -2.500000000000000E-002    6.197506547293267E-011
 -2.490000000000000E-002    6.915106134300598E-011
 -2.480000000000000E-002    7.179863504312524E-011
 -2.470000000000000E-002    6.935260480043319E-011
 -2.460000000000000E-002    6.152281541456116E-011
 -2.450000000000000E-002    4.831506269219506E-011
 -2.440000000000000E-002    3.004650247447894E-011
 -2.430000000000000E-002    7.358950181223852E-012
 -2.420000000000000E-002   -1.876942433727699E-011
 -2.410000000000000E-002   -4.701728426074136E-011
 -2.400000000000000E-002   -7.572557545821411E-011
 -2.390000000000000E-002   -1.029256452643096E-010
 -2.380000000000000E-002   -1.264015200513883E-010
 -2.370000000000000E-002   -1.437963384235605E-010
 -2.360000000000000E-002   -1.527681918163162E-010
 -2.350000000000000E-002   -1.511934826322189E-010
 -2.340000000000000E-002   -1.374067484553568E-010
 -2.330000000000000E-002   -1.104561856392546E-010
 -2.320000000000000E-002   -7.034601529213553E-011
 -2.310000000000000E-002   -1.823126708555788E-011
 -2.300000000000000E-002    4.347023371174043E-011
 -2.290000000000000E-002    1.110795829849962E-010
 -2.280000000000000E-002    1.797934763455563E-010
 -2.270000000000000E-002    2.439627681610642E-010
 -2.260000000000000E-002    2.975026871459136E-010
 -2.250000000000000E-002    3.344064901335194E-010
 -2.240000000000000E-002    3.493187292130686E-010
 -2.230000000000000E-002    3.381120386817960E-010
 -2.220000000000000E-002    2.984066446336145E-010
 -2.210000000000000E-002    2.299734688572195E-010
 -2.200000000000000E-002    1.349712388009609E-010
 -2.190000000000000E-002    1.798385926394487E-011
 -2.180000000000000E-002   -1.141552013722879E-010
 -2.170000000000000E-002   -2.527435057306977E-010
 -2.160000000000000E-002   -3.877660053849836E-010
 -2.150000000000000E-002   -5.085816431867719E-010
 -2.140000000000000E-002   -6.046839283595372E-010
 -2.130000000000000E-002   -6.664755532892139E-010
 -2.120000000000000E-002   -6.860000025207947E-010
 -2.110000000000000E-002   -6.575818794674989E-010
 -2.100000000000000E-002   -5.783400774898664E-010
 -2.090000000000000E-002   -4.485507044202901E-010
 -2.080000000000000E-002   -2.718487026189560E-010
 -2.070000000000000E-002   -5.526575089455883E-011
 -2.060000000000000E-002    1.908945022919169E-010
 -2.050000000000000E-002    4.533413279357675E-010
 -2.040000000000000E-002    7.162436502563220E-010
 -2.030000000000000E-002    9.618417019782692E-010
 -2.020000000000000E-002    1.171229810407748E-009
 -2.010000000000000E-002    1.325311483711004E-009
 -2.000000000000000E-002    1.405919542196229E-009
 -1.990000000000000E-002    1.397077244553313E-009
 -1.980000000000000E-002    1.286354334327390E-009
 -1.970000000000000E-002    1.066245038425811E-009
 -1.960000000000000E-002    7.354706918364730E-010
 -1.950000000000000E-002    3.000873544897347E-010
 -1.940000000000000E-002   -2.257340618585754E-010
 -1.930000000000000E-002   -8.193853700628749E-010
 -1.920000000000000E-002   -1.450071495326566E-009
 -1.910000000000000E-002   -2.079716886905178E-009
 -1.900000000000000E-002   -2.664562875738783E-009
 -1.890000000000000E-002   -3.157435325022078E-009
 -1.880000000000000E-002   -3.510597460092529E-009
 -1.870000000000000E-002   -3.679040564999172E-009
 -1.860000000000000E-002   -3.624013280692147E-009
 -1.850000000000000E-002   -3.316550127897265E-009
 -1.840000000000000E-002   -2.740738270234370E-009
 -1.830000000000000E-002   -1.896464954176250E-009
 -1.820000000000000E-002   -8.014093009070737E-010
 -1.810000000000000E-002    5.079119810523463E-010
 -1.800000000000000E-002    1.976181401123500E-009
 -1.790000000000000E-002    3.530465131160846E-009
 -1.780000000000000E-002    5.082541796223322E-009
 -1.770000000000000E-002    6.532306026269528E-009
 -1.760000000000000E-002    7.772118448083726E-009
 -1.750000000000000E-002    8.691932993258898E-009
 -1.740000000000000E-002    9.184999531160028E-009
 -1.730000000000000E-002    9.153929296557270E-009
 -1.720000000000000E-002    8.516906225478199E-009
 -1.710000000000000E-002    7.213847109820450E-009
 -1.700000000000000E-002    5.212314905661896E-009
 -1.690000000000000E-002    2.513016145966015E-009
 -1.680000000000000E-002   -8.452657569326142E-010
 -1.670000000000000E-002   -4.781449961396994E-009
 -1.660000000000000E-002   -9.168777246851405E-009
 -1.650000000000000E-002   -1.383239737522572E-008
 -1.640000000000000E-002   -1.854805215738495E-008
 -1.630000000000000E-002   -2.304197602408668E-008
 -1.620000000000000E-002   -2.699212899928434E-008
 -1.610000000000000E-002   -3.003086226890719E-008
 -1.600000000000000E-002   -3.174909772958963E-008
 -1.590000000000000E-002   -3.170204256563051E-008
 -1.580000000000000E-002   -2.941643354885564E-008
 -1.570000000000000E-002   -2.439922233798382E-008
 -1.560000000000000E-002   -1.614753141127254E-008
 -1.550000000000000E-002   -4.159646313909636E-009
 -1.540000000000000E-002    1.205331299472883E-008
 -1.530000000000000E-002    3.295545878998710E-008
 -1.520000000000000E-002    5.897441203883771E-008
 -1.510000000000000E-002    9.049035820162060E-008
 -1.500000000000000E-002    1.278264436874335E-007
 -1.490000000000000E-002    1.712411332224248E-007
 -1.480000000000000E-002    2.209229340782399E-007
 -1.470000000000000E-002    2.769881278552449E-007
 -1.460000000000000E-002    3.394816065298504E-007
 -1.450000000000000E-002    4.083813180339384E-007
 -1.440000000000000E-002    4.836059495666379E-007
 -1.430000000000000E-002    5.650260656374657E-007
 -1.420000000000000E-002    6.524781616413589E-007
 -1.410000000000000E-002    7.457808546356219E-007
 -1.400000000000000E-002    8.447529596679648E-007
 -1.390000000000000E-002    9.492323804206748E-007
 -1.380000000000000E-002    1.059094638511269E-006
 -1.370000000000000E-002    1.174270727625268E-006
 -1.360000000000000E-002    1.294762943856071E-006
 -1.350000000000000E-002    1.420658147444972E-006
 -1.340000000000000E-002    1.552137700366468E-006
 -1.330000000000000E-002    1.689483801677815E-006
 -1.320000000000000E-002    1.833082231607472E-006
 -1.310000000000000E-002    1.983421357514836E-006
 -1.300000000000000E-002    2.141087007805613E-006
 -1.290000000000000E-002    2.306755804098989E-006
 -1.280000000000000E-002    2.481185715160928E-006
 -1.270000000000000E-002    2.665204713852176E-006
 -1.260000000000000E-002    2.859699759775442E-006
 -1.250000000000000E-002    3.065605371533996E-006
 -1.240000000000000E-002    3.283893523912918E-006
 -1.230000000000000E-002    3.515564464074472E-006
 -1.220000000000000E-002    3.761640099435823E-006
 -1.210000000000000E-002    4.023157830630245E-006
 -1.200000000000000E-002    4.301168719672128E-006
 -1.190000000000000E-002    4.596735363143951E-006
 -1.180000000000000E-002    4.910931761449459E-006
 -1.170000000000000E-002    5.244845204353393E-006
 -1.160000000000000E-002    5.599577829111607E-006
 -1.150000000000000E-002    5.976250125808405E-006
 -1.140000000000000E-002    6.376004354973573E-006
 -1.130000000000000E-002    6.800007425733249E-006
 -1.120000000000000E-002    7.249456332752846E-006
 -1.110000000000000E-002    7.725583983595458E-006
 -1.100000000000000E-002    8.229664937141493E-006
 -1.090000000000000E-002    8.763023658295562E-006
 -1.080000000000000E-002    9.327044476825669E-006
 -1.070000000000000E-002    9.923186992395204E-006
 -1.060000000000000E-002    1.055299496860255E-005
 -1.050000000000000E-002    1.121811575937265E-005
 -1.040000000000000E-002    1.192031599260387E-005
 -1.030000000000000E-002    1.266150035340229E-005
 -1.020000000000000E-002    1.344372548933140E-005
 -1.010000000000000E-002    1.426921698371523E-005
 -1.000000000000000E-002    1.514037944702463E-005
 -9.899999999999999E-003    1.605980305179918E-005
 -9.800000000000000E-003    1.703026746486959E-005
 -9.699999999999999E-003    1.805473978175078E-005
 -9.599999999999999E-003    1.913636407876181E-005
 -9.500000000000000E-003    2.027845053855304E-005
 -9.399999999999999E-003    2.148445911694238E-005
 -9.299999999999999E-003    2.275798193535617E-005
 -9.200000000000000E-003    2.410272261843981E-005
 -9.099999999999999E-003    2.552248158677973E-005
 -8.999999999999999E-003    2.702114423442341E-005
 -8.900000000000000E-003    2.860266971694438E-005
 -8.799999999999999E-003    3.027109706486665E-005
 -8.699999999999999E-003    3.203054572045105E-005
 -8.600000000000000E-003    3.388523806537558E-005
 -8.499999999999999E-003    3.583951467499814E-005
 -8.399999999999999E-003    3.789787240598308E-005
 -8.300000000000000E-003    4.006499154482356E-005
 -8.199999999999999E-003    4.234577697613688E-005
 -8.100000000000000E-003    4.474538619863201E-005
 -8.000000000000000E-003    4.726928181701306E-005
 -7.899999999999999E-003    4.992323945687634E-005
 -7.800000000000000E-003    5.271338994844339E-005
 -7.699999999999999E-003    5.564622831977348E-005
 -7.599999999999999E-003    5.872863018048132E-005
 -7.499999999999999E-003    6.196784191652581E-005
 -7.399999999999999E-003    6.537149653857081E-005
 -7.299999999999999E-003    6.894759643212633E-005
 -7.199999999999999E-003    7.270449725943994E-005
 -7.100000000000000E-003    7.665090996004440E-005
 -6.999999999999999E-003    8.079587248167920E-005
 -6.899999999999999E-003    8.514876542843059E-005
 -6.800000000000000E-003    8.971929081580334E-005
 -6.699999999999999E-003    9.451747876074568E-005
 -6.599999999999999E-003    9.955368571396110E-005
 -6.499999999999999E-003    1.048386322566085E-004
 -6.399999999999999E-003    1.103833912665843E-004
 -6.299999999999999E-003    1.161994070115140E-004
 -6.199999999999999E-003    1.222985408160590E-004
 -6.100000000000000E-003    1.286930811270982E-004
 -5.999999999999999E-003    1.353957410928557E-004
 -5.899999999999999E-003    1.424197125124157E-004
 -5.800000000000000E-003    1.497786626477341E-004
 -5.699999999999999E-003    1.574867603154138E-004
 -5.599999999999999E-003    1.655587028408031E-004
 -5.499999999999999E-003    1.740096842588768E-004
 -5.399999999999999E-003    1.828554708980984E-004
 -5.299999999999999E-003    1.921123382986735E-004
 -5.199999999999999E-003    2.017971783765270E-004
 -5.099999999999999E-003    2.119274327119175E-004
 -4.999999999999999E-003    2.225211855805499E-004
 -4.899999999999999E-003    2.335971251929262E-004
 -4.799999999999999E-003    2.451746246103333E-004
 -4.699999999999999E-003    2.572737510035498E-004
 -4.599999999999999E-003    2.699152804910313E-004
 -4.499999999999999E-003    2.831207618405353E-004
 -4.399999999999999E-003    2.969125310078976E-004
 -4.299999999999999E-003    3.113136923201164E-004
 -4.199999999999999E-003    3.263482248352403E-004
 -4.099999999999999E-003    3.420408977675633E-004
 -3.999999999999999E-003    3.584173026956560E-004
 -3.899999999999999E-003    3.755039512739072E-004
 -3.799999999999999E-003    3.933280961635374E-004
 -3.699999999999999E-003    4.119178185234039E-004
 -3.599999999999999E-003    4.313020527183528E-004
 -3.499999999999999E-003    4.515105217203925E-004
 -3.399999999999999E-003    4.725737348431955E-004
 -3.299999999999999E-003    4.945229908801546E-004
 -3.199999999999999E-003    5.173903708368722E-004
 -3.099999999999999E-003    5.412088601791191E-004
 -2.999999999999999E-003    5.660121764835525E-004
 -2.899999999999999E-003    5.918349842593602E-004
 -2.799999999999999E-003    6.187127894451410E-004
 -2.699999999999999E-003    6.466820659181641E-004
 -2.599999999999999E-003    6.757802931912354E-004
 -2.499999999999999E-003    7.060459262184708E-004
 -2.399999999999999E-003    7.375185278021001E-004
 -2.299999999999999E-003    7.702386222115103E-004
 -2.199999999999999E-003    8.042480484885047E-004
 -2.099999999999999E-003    8.395895973905299E-004
 -1.999999999999999E-003    8.763072898070012E-004
 -1.899999999999999E-003    9.144463225773155E-004
 -1.799999999999999E-003    9.540529494170715E-004
 -1.699999999999999E-003    9.951746581903672E-004
 -1.599999999999999E-003    1.037859975667718E-003
 -1.499999999999999E-003    1.082158580749339E-003
 -1.399999999999999E-003    1.128121166484390E-003
 -1.299999999999999E-003    1.175799569292180E-003
 -1.199999999999999E-003    1.225246714088482E-003
 -1.099999999999999E-003    1.276516432283205E-003
 -9.999999999999989E-004    1.329663664846188E-003
 -8.999999999999990E-004    1.384744431868002E-003
 -7.999999999999990E-004    1.441815567421576E-003
 -6.999999999999989E-004    1.500935091289296E-003
 -5.999999999999990E-004    1.562161978671231E-003
 -4.999999999999989E-004    1.625556231326227E-003
 -3.999999999999989E-004    1.691178837969545E-003
 -2.999999999999989E-004    1.759091859210414E-003
 -1.999999999999989E-004    1.829358249997692E-003
 -9.999999999999892E-005    1.902042000115942E-003
  1.084202172485504E-018    1.977208083323137E-003
  1.000000000000011E-004    2.054922731750036E-003
  2.000000000000011E-004    2.135252757911515E-003
  3.000000000000011E-004    2.218266101295988E-003
  4.000000000000011E-004    2.304031672718804E-003
  5.000000000000011E-004    2.392619036002327E-003
  6.000000000000011E-004    2.484099151876223E-003
  7.000000000000011E-004    2.578543220267560E-003
  8.000000000000011E-004    2.676023768787430E-003
  9.000000000000012E-004    2.776613771945130E-003
  1.000000000000001E-003    2.880386979075079E-003
  1.100000000000001E-003    2.987417951096040E-003
  1.200000000000001E-003    3.097781566670875E-003
  1.300000000000001E-003    3.211553417999054E-003
  1.400000000000001E-003    3.328809428919460E-003
  1.500000000000001E-003    3.449625838638796E-003
  1.600000000000001E-003    3.574079292034989E-003
  1.700000000000001E-003    3.702246861293844E-003
  1.800000000000001E-003    3.834205546502724E-003
  1.900000000000001E-003    3.970032141618350E-003
  2.000000000000001E-003    4.109804277740001E-003
  2.100000000000001E-003    4.253598479567366E-003
  2.200000000000001E-003    4.401491810531310E-003
  2.300000000000001E-003    4.553560710133367E-003
  2.400000000000001E-003    4.709881907940824E-003
  2.500000000000001E-003    4.870531058946526E-003
  2.600000000000001E-003    5.035583875509341E-003
  2.700000000000001E-003    5.205115533869440E-003
  2.800000000000001E-003    5.379200421210025E-003
  2.900000000000001E-003    5.557912791498044E-003
  3.000000000000001E-003    5.741325767450472E-003
  3.100000000000001E-003    5.929511932353101E-003
  3.200000000000001E-003    6.122542660663105E-003
  3.300000000000001E-003    6.320488289801819E-003
  3.400000000000001E-003    6.523418291113794E-003
  3.500000000000001E-003    6.731400545507974E-003
  3.600000000000001E-003    6.944501762155289E-003
  3.700000000000001E-003    7.162786884233329E-003
  3.800000000000001E-003    7.386318867674767E-003
  3.900000000000001E-003    7.615158915869379E-003
  4.000000000000001E-003    7.849365517512493E-003
  4.100000000000001E-003    8.088995746494975E-003
  4.200000000000001E-003    8.334104238533407E-003
  4.300000000000001E-003    8.584741514403057E-003
  4.400000000000001E-003    8.840957147944353E-003
  4.500000000000001E-003    9.102796414940197E-003
  4.600000000000002E-003    9.370302478932517E-003
  4.700000000000001E-003    9.643514028763655E-003
  4.800000000000001E-003    9.922467238280466E-003
  4.900000000000002E-003    1.020719435795313E-002
  5.000000000000001E-003    1.049772404558838E-002
  5.100000000000001E-003    1.079408096107136E-002
  5.200000000000001E-003    1.109628570116397E-002
  5.300000000000002E-003    1.140435454708277E-002
  5.400000000000001E-003    1.171830113888167E-002
  5.500000000000001E-003    1.203813321185175E-002
  5.600000000000002E-003    1.236385315986515E-002
  5.700000000000001E-003    1.269546103647503E-002
  5.800000000000001E-003    1.303294996664567E-002
  5.900000000000002E-003    1.337630761737421E-002
  6.000000000000001E-003    1.372551832580527E-002
  6.100000000000001E-003    1.408055964004871E-002
  6.200000000000002E-003    1.444140329130768E-002
  6.300000000000002E-003    1.480801533333110E-002
  6.400000000000001E-003    1.518035492742490E-002
  6.500000000000001E-003    1.555837536437768E-002
  6.600000000000002E-003    1.594202386298272E-002
  6.700000000000001E-003    1.633124124219532E-002
  6.800000000000001E-003    1.672595878920180E-002
  6.900000000000002E-003    1.712610166193911E-002
  7.000000000000001E-003    1.753158868680897E-002
  7.100000000000001E-003    1.794233176207154E-002
  7.200000000000002E-003    1.835823369640399E-002
  7.300000000000002E-003    1.877918860943461E-002
  7.400000000000001E-003    1.920508545190894E-002
  7.500000000000001E-003    1.963580242202961E-002
  7.600000000000002E-003    2.007121111643637E-002
  7.700000000000001E-003    2.051117260154054E-002
  7.800000000000001E-003    2.095554181680195E-002
  7.900000000000001E-003    2.140416314991327E-002
  8.000000000000002E-003    2.185687421740863E-002
  8.100000000000001E-003    2.231350318262417E-002
  8.200000000000001E-003    2.277386766722134E-002
  8.300000000000002E-003    2.323777633499587E-002
  8.400000000000001E-003    2.370503044277328E-002
  8.500000000000002E-003    2.417541969080819E-002
  8.600000000000002E-003    2.464872635913896E-002
  8.700000000000001E-003    2.512471888971277E-002
  8.800000000000002E-003    2.560316124788455E-002
  8.900000000000002E-003    2.608380354487450E-002
  9.000000000000001E-003    2.656638676642375E-002
  9.100000000000002E-003    2.705064397856568E-002
  9.200000000000002E-003    2.753629500775401E-002
  9.300000000000001E-003    2.802305390504821E-002
  9.400000000000002E-003    2.851061980797276E-002
  9.500000000000001E-003    2.899868630640192E-002
  9.600000000000001E-003    2.948693290500654E-002
  9.700000000000002E-003    2.997503189570588E-002
  9.800000000000001E-003    3.046264548110792E-002
  9.900000000000001E-003    3.094942537541921E-002
  1.000000000000000E-002    3.143500899050598E-002
  1.010000000000000E-002    3.191903178306980E-002
  1.020000000000000E-002    3.240111380682530E-002
  1.030000000000000E-002    3.288086760420685E-002
  1.040000000000000E-002    3.335789512279255E-002
  1.050000000000000E-002    3.383178936259419E-002
  1.060000000000000E-002    3.430213031687757E-002
  1.070000000000000E-002    3.476849209044979E-002
  1.080000000000000E-002    3.523044159710537E-002
  1.090000000000000E-002    3.568753245766867E-002
  1.100000000000000E-002    3.613931284177373E-002
  1.110000000000000E-002    3.658531838099020E-002
  1.120000000000000E-002    3.702508098785937E-002
  1.130000000000000E-002    3.745812049445191E-002
  1.140000000000000E-002    3.788395018279170E-002
  1.150000000000000E-002    3.830207284862978E-002
  1.160000000000000E-002    3.871199058774233E-002
  1.170000000000000E-002    3.911319190320060E-002
  1.180000000000000E-002    3.950516106787315E-002
  1.190000000000000E-002    3.988737822995679E-002
  1.200000000000000E-002    4.025930977406364E-002
  1.210000000000000E-002    4.062042281258631E-002
  1.220000000000000E-002    4.097017407354429E-002
  1.230000000000000E-002    4.130802142969632E-002
  1.240000000000000E-002    4.163341189884861E-002
  1.250000000000000E-002    4.194579169949025E-002
  1.260000000000000E-002    4.224460273295717E-002
  1.270000000000000E-002    4.252928199809981E-002
  1.280000000000000E-002    4.279926628444370E-002
  1.290000000000000E-002    4.305398559094060E-002
  1.300000000000000E-002    4.329286991077975E-002
  1.310000000000000E-002    4.351534874117868E-002
  1.320000000000000E-002    4.372085011715576E-002
  1.330000000000000E-002    4.390880098370233E-002
  1.340000000000000E-002    4.407862806439126E-002
  1.350000000000000E-002    4.422975863144524E-002
  1.360000000000000E-002    4.436162358099849E-002
  1.370000000000000E-002    4.447364941746951E-002
  1.380000000000000E-002    4.456527063560491E-002
  1.390000000000000E-002    4.463592139386650E-002
  1.400000000000000E-002    4.468504246138965E-002
  1.410000000000000E-002    4.471207399263491E-002
  1.420000000000000E-002    4.471646074746320E-002
  1.430000000000000E-002    4.469765626546345E-002
  1.440000000000000E-002    4.465511903958831E-002
  1.450000000000000E-002    4.458831372028067E-002
  1.460000000000000E-002    4.449671116884309E-002
  1.470000000000000E-002    4.437978882026727E-002
  1.480000000000000E-002    4.423703648600898E-002
  1.490000000000000E-002    4.406794847686558E-002
  1.500000000000000E-002    4.387203291939760E-002
  1.510000000000000E-002    4.364880522668572E-002
  1.520000000000000E-002    4.339779345090915E-002
  1.530000000000000E-002    4.311853870047003E-002
  1.540000000000000E-002    4.281059090428230E-002
  1.550000000000000E-002    4.247351352025937E-002
  1.560000000000000E-002    4.210688785436539E-002
  1.570000000000000E-002    4.171030864999455E-002
  1.580000000000000E-002    4.128338179485652E-002
  1.590000000000000E-002    4.082573075623751E-002
  1.600000000000000E-002    4.033699798353366E-002
  1.610000000000000E-002    3.981683935358058E-002
  1.620000000000000E-002    3.926493063149129E-002
  1.630000000000000E-002    3.868096442138309E-002
  1.640000000000000E-002    3.806465235201115E-002
  1.650000000000000E-002    3.741572598105104E-002
  1.660000000000000E-002    3.673393879211216E-002
  1.670000000000000E-002    3.601905994849054E-002
  1.680000000000000E-002    3.527088366079273E-002
  1.690000000000000E-002    3.448922439371638E-002
  1.700000000000000E-002    3.367391800031853E-002
  1.710000000000000E-002    3.282482508555732E-002
  1.720000000000000E-002    3.194182931600746E-002
  1.730000000000000E-002    3.102483908848610E-002
  1.740000000000000E-002    3.007378405344597E-002
  1.750000000000000E-002    2.908861996615337E-002
  1.760000000000000E-002    2.806932692156697E-002
  1.770000000000000E-002    2.701591308547218E-002
  1.780000000000000E-002    2.592841031684393E-002
  1.790000000000000E-002    2.480687841081447E-002
  1.800000000000000E-002    2.365140154451285E-002
  1.810000000000000E-002    2.246209244494790E-002
  1.820000000000000E-002    2.123909258671654E-002
  1.830000000000000E-002    1.998256859380534E-002
  1.840000000000000E-002    1.869271800924330E-002
  1.850000000000000E-002    1.736976335103520E-002
  1.860000000000000E-002    1.601395550010021E-002
  1.870000000000000E-002    1.462557510037069E-002