 -4.000000000000000E-002    0.000000000000000E+000
 -3.990000000000000E-002    0.000000000000000E+000
 -3.980000000000000E-002    0.000000000000000E+000
 -3.970000000000000E-002    0.000000000000000E+000
 -3.960000000000000E-002    0.000000000000000E+000
 -3.950000000000000E-002    0.000000000000000E+000
 -3.940000000000000E-002    0.000000000000000E+000
 -3.930000000000000E-002    0.000000000000000E+000
 -3.920000000000000E-002    0.000000000000000E+000
 -3.910000000000000E-002    0.000000000000000E+000
 -3.900000000000000E-002   -1.906474020054951E-033
 -3.890000000000000E-002   -2.800191445458471E-032
 -3.880000000000000E-002   -1.811430844084196E-031
 -3.870000000000000E-002   -5.046649860451460E-031
 -3.860000000000000E-002    1.542964952540622E-030
 -3.850000000000000E-002    2.626998227787182E-029
 -3.840000000000000E-002    1.743978230212091E-028
 -3.830000000000000E-002    8.302193262087273E-028
 -3.820000000000000E-002    3.207677240609600E-027
 -3.810000000000000E-002    1.059564582442554E-026
 -3.800000000000000E-002    3.077640034794765E-026
 -3.790000000000000E-002    7.994601922410424E-026
 -3.780000000000000E-002    1.876216357737010E-025
 -3.770000000000000E-002    3.998483364722588E-025
 -3.760000000000000E-002    7.739000670869298E-025
 -3.750000000000000E-002    1.351492680063734E-024
 -3.740000000000000E-002    2.090519635641677E-024
 -3.730000000000000E-002    2.731096781917813E-024
 -3.720000000000000E-002    2.576985200837986E-024
 -3.710000000000000E-002    1.980398509119952E-025
 -3.700000000000000E-002   -6.886250094465873E-024
 -3.690000000000000E-002   -2.239115551355822E-023
 -3.680000000000000E-002   -5.104597801278008E-023
 -3.670000000000000E-002   -9.756828453176113E-023
 -3.660000000000000E-002   -1.643578036942450E-022
 -3.650000000000000E-002   -2.474971976160176E-022
 -3.640000000000000E-002   -3.309548464806989E-022
 -3.630000000000000E-002   -3.795340661342155E-022
 -3.620000000000000E-002   -3.321414380265230E-022
 -3.610000000000000E-002   -9.826734611592293E-023
 -3.600000000000000E-002    4.380896014844729E-022
 -3.590000000000000E-002    1.401958373403878E-021
 -3.580000000000000E-002    2.893600925259838E-021
 -3.570000000000000E-002    4.934823879146532E-021
 -3.560000000000000E-002    7.397595967447061E-021
 -3.550000000000000E-002    9.924572186503454E-021
 -3.540000000000000E-002    1.186041775289262E-020
 -3.530000000000000E-002    1.222212536891245E-020
 -3.520000000000000E-002    9.742710996601107E-021
 -3.510000000000000E-002    3.021706124904713E-021
 -3.500000000000000E-002   -9.196254750756919E-021
 -3.490000000000000E-002   -2.761956470196925E-020
 -3.480000000000000E-002   -5.192929413767049E-020
 -3.470000000000000E-002   -8.031392080929539E-020
 -3.460000000000000E-002   -1.091600040899979E-019
 -3.450000000000000E-002   -1.330689629099284E-019
 -3.440000000000000E-002   -1.453621705302925E-019
 -3.430000000000000E-002   -1.391729597704182E-019
 -3.420000000000000E-002   -1.090934196006082E-019
 -3.410000000000000E-002   -5.315092764494676E-020
 -3.400000000000000E-002    2.533999248932547E-020
 -3.390000000000000E-002    1.167189052076810E-019
 -3.380000000000000E-002    2.055045852659198E-019
 -3.370000000000000E-002    2.732390965198555E-019
 -3.360000000000000E-002    3.040688433148439E-019
 -3.350000000000000E-002    2.928563233571879E-019
 -3.340000000000000E-002    2.547031925750010E-019
 -3.330000000000000E-002    2.336743031006856E-019
 -3.320000000000000E-002    3.074617868515172E-019
 -3.310000000000000E-002    5.840370841116848E-019
 -3.300000000000000E-002    1.186377430193142E-018
 -3.290000000000000E-002    2.222488640911248E-018
 -3.280000000000000E-002    3.740417539625713E-018
 -3.270000000000000E-002    5.671766521743487E-018
 -3.260000000000000E-002    7.772055177669784E-018
 -3.250000000000000E-002    9.571395925303541E-018
 -3.240000000000000E-002    1.035323585129630E-017
 -3.230000000000000E-002    9.180942254000123E-018
 -3.220000000000000E-002    4.990334351738848E-018
 -3.210000000000000E-002   -3.240292931458945E-018
 -3.200000000000000E-002   -1.624315884607061E-017
 -3.190000000000000E-002   -3.415444220157766E-017
 -3.180000000000000E-002   -5.618585055634025E-017
 -3.170000000000000E-002   -8.033216608171775E-017
 -3.160000000000000E-002   -1.031887054594212E-016
 -3.150000000000000E-002   -1.199595914163233E-016
 -3.140000000000000E-002   -1.247310086963644E-016
 -3.130000000000000E-002   -1.110599287715790E-016
 -3.120000000000000E-002   -7.288732020050453E-017
 -3.110000000000000E-002   -5.727624670476716E-018
 -3.100000000000000E-002    9.197962328268515E-017
 -3.090000000000000E-002    2.175356433983233E-016
 -3.080000000000000E-002    3.628978445711545E-016
 -3.070000000000000E-002    5.141021746763567E-016
 -3.060000000000000E-002    6.514377161640352E-016
 -3.050000000000000E-002    7.505602080143533E-016
 -3.040000000000000E-002    7.846264409453819E-016
 -3.030000000000000E-002    7.273890451840741E-016
 -3.020000000000000E-002    5.570247281151960E-016
 -3.010000000000000E-002    2.603071121602479E-016
 -3.000000000000000E-002   -1.633989157025025E-016
 -2.990000000000000E-002   -6.989182852932916E-016
 -2.980000000000000E-002   -1.313413302512017E-015
 -2.970000000000000E-002   -1.956392767116050E-015
 -2.960000000000000E-002   -2.561888515791688E-015
 -2.950000000000000E-002   -3.052855525363969E-015
 -2.940000000000000E-002   -3.347560363233924E-015
 -2.930000000000000E-002   -3.367450183536209E-015
 -2.920000000000000E-002   -3.045775780773043E-015
 -2.910000000000000E-002   -2.336127364291036E-015
 -2.900000000000000E-002   -1.220041360236292E-015
 -2.890000000000000E-002    2.870375243626464E-016
 -2.880000000000000E-002    2.131939848661556E-015
 -2.870000000000000E-002    4.222342786736289E-015
 -2.860000000000000E-002    6.427735172823493E-015
 -2.850000000000000E-002    8.582641232940393E-015
 -2.840000000000000E-002    1.049195637132489E-014
 -2.830000000000000E-002    1.193838089833183E-014
 -2.820000000000000E-002    1.269220883901223E-014
 -2.810000000000000E-002    1.252400529440762E-014
 -2.800000000000000E-002    1.122091617651514E-014
 -2.790000000000000E-002    8.607332425876136E-015
 -2.780000000000000E-002    4.570244978610842E-015
 -2.770000000000000E-002   -9.111830270057997E-016
 -2.760000000000000E-002   -7.733560117804679E-015
 -2.750000000000000E-002   -1.563800448638059E-014
 -2.740000000000000E-002   -2.418461472531124E-014
 -2.730000000000000E-002   -3.273898226958935E-014
 -2.720000000000000E-002   -4.047777762177498E-014
 -2.710000000000000E-002   -4.642012512329254E-014
 -2.700000000000000E-002   -4.948979804184698E-014
 -2.690000000000000E-002   -4.861009517753040E-014
 -2.680000000000000E-002   -4.282875299972582E-014
 -2.670000000000000E-002   -3.146474678846083E-014
 -2.660000000000000E-002   -1.426305376861827E-014
 -2.650000000000000E-002    8.461660237728731E-015
 -2.640000000000000E-002    3.571497098466993E-014
 -2.630000000000000E-002    6.576970296113603E-014
 -2.620000000000000E-002    9.619093666262160E-014
 -2.610000000000000E-002    1.239538556144611E-013
 -2.600000000000000E-002    1.456594762238077E-013
 -2.590000000000000E-002    1.578410695945971E-013
 -2.580000000000000E-002    1.573402327079257E-013
 -2.570000000000000E-002    1.417184384565786E-013
 -2.560000000000000E-002    1.096591260387150E-013
 -2.550000000000000E-002    6.130920515838063E-014
 -2.540000000000000E-002   -1.491123943723420E-015
 -2.530000000000000E-002   -7.513459019111301E-014
 -2.520000000000000E-002   -1.543595974643151E-013
 -2.510000000000000E-002   -2.325604245983352E-013
 -2.500000000000000E-002   -3.022824773813853E-013
 -2.490000000000000E-002   -3.558663942819048E-013
 -2.480000000000000E-002   -3.861830127040767E-013
 -2.470000000000000E-002   -3.873856395854388E-013
 -2.460000000000000E-002   -3.555988191920494E-013
 -2.450000000000000E-002   -2.894652992199768E-013
 -2.440000000000000E-002   -1.904860686409943E-013
 -2.430000000000000E-002   -6.310990754057628E-014
 -2.420000000000000E-002    8.544292535918623E-014
 -2.410000000000000E-002    2.456085036643426E-013
 -2.400000000000000E-002    4.061159179820676E-013
 -2.390000000000000E-002    5.547689026164194E-013
 -2.380000000000000E-002    6.792968341307823E-013
 -2.370000000000000E-002    7.681989212938354E-013
 -2.360000000000000E-002    8.115166880821241E-013
 -2.350000000000000E-002    8.014895754090187E-013
 -2.340000000000000E-002    7.330734717119768E-013
 -2.330000000000000E-002    6.043259244236612E-013
 -2.320000000000000E-002    4.166812000846303E-013
 -2.310000000000000E-002    1.751443830662063E-013
 -2.300000000000000E-002   -1.115704384436617E-013
 -2.290000000000000E-002   -4.309539668152349E-013
 -2.280000000000000E-002   -7.666935815760100E-013
 -2.270000000000000E-002   -1.098804555552507E-012
 -2.260000000000000E-002   -1.403994617039246E-012
 -2.250000000000000E-002   -1.656373956163346E-012
 -2.240000000000000E-002   -1.828620845193003E-012
 -2.230000000000000E-002   -1.893681800951216E-012
 -2.220000000000000E-002   -1.827022802120415E-012
 -2.210000000000000E-002   -1.609361369585431E-012
 -2.200000000000000E-002   -1.229699367848230E-012
 -2.190000000000000E-002   -6.883687676837116E-013
 -2.180000000000000E-002    2.949593996318241E-016
 -2.170000000000000E-002    8.060967338517101E-013
 -2.160000000000000E-002    1.682394147491380E-012
 -2.150000000000000E-002    2.567168815293813E-012
 -2.140000000000000E-002    3.386014217913785E-012
 -2.130000000000000E-002    4.057097890940417E-012
 -2.120000000000000E-002    4.497907267690966E-012
 -2.110000000000000E-002    4.633321005564279E-012
 -2.100000000000000E-002    4.404287283770170E-012
 -2.090000000000000E-002    3.776199822921227E-012
 -2.080000000000000E-002    2.745947602196422E-012
 -2.070000000000000E-002    1.346636442958963E-012
 -2.060000000000000E-002   -3.508704613195229E-013
 -2.050000000000000E-002   -2.240158679579417E-012
 -2.040000000000000E-002   -4.185385222028592E-012
 -2.030000000000000E-002   -6.031029756914825E-012
 -2.020000000000000E-002   -7.614513880743890E-012
 -2.010000000000000E-002   -8.780522611761417E-012
 -2.000000000000000E-002   -9.395576665909333E-012
 -1.990000000000000E-002   -9.361281162314836E-012
 -1.980000000000000E-002   -8.624778969529276E-012
 -1.970000000000000E-002   -7.185217537002814E-012
 -1.960000000000000E-002   -5.095510577285699E-012
 -1.950000000000000E-002   -2.459242591115439E-012
 -1.940000000000000E-002    5.768266295683226E-013
 -1.930000000000000E-002    3.833662968552458E-012
 -1.920000000000000E-002    7.112887710418192E-012
 -1.910000000000000E-002    1.021018929456909E-011
 -1.900000000000000E-002    1.292775564368577E-011
 -1.890000000000000E-002    1.508460750906774E-011
 -1.880000000000000E-002    1.652421415811236E-011
 -1.870000000000000E-002    1.711941710695483E-011
 -1.860000000000000E-002    1.677525253689137E-011
 -1.850000000000000E-002    1.543073899524050E-011
 -1.840000000000000E-002    1.306086524824711E-011
 -1.830000000000000E-002    9.679916952575690E-012
 -1.820000000000000E-002    5.346793025108873E-012
 -1.810000000000000E-002    1.722478511943535E-013
 -1.800000000000000E-002   -5.672896678278050E-012
 -1.790000000000000E-002   -1.195040062154078E-011
 -1.780000000000000E-002   -1.835062676603939E-011
 -1.770000000000000E-002   -2.449472195785319E-011
 -1.760000000000000E-002   -2.994553788535043E-011
 -1.750000000000000E-002   -3.422903087269072E-011
 -1.740000000000000E-002   -3.686659512917956E-011
 -1.730000000000000E-002   -3.741700527492769E-011
 -1.720000000000000E-002   -3.552483530396119E-011
 -1.710000000000000E-002   -3.097043166452085E-011
 -1.700000000000000E-002   -2.371536270697373E-011
 -1.690000000000000E-002   -1.393669903131931E-011
 -1.680000000000000E-002   -2.043967764487977E-012
 -1.670000000000000E-002    1.132600866725514E-011
 -1.660000000000000E-002    2.533877231760995E-011
 -1.650000000000000E-002    3.901592166032535E-011
 -1.640000000000000E-002    5.130917584682616E-011
 -1.630000000000000E-002    6.118821680053054E-011
 -1.620000000000000E-002    6.773349087296651E-011
 -1.610000000000000E-002    7.022402203667184E-011
 -1.600000000000000E-002    6.821039859282375E-011
 -1.590000000000000E-002    6.156474802225794E-011
 -1.580000000000000E-002    5.050210403923435E-011
 -1.570000000000000E-002    3.557113884185873E-011
 -1.560000000000000E-002    1.761600391354159E-011
 -1.550000000000000E-002   -2.285642027380400E-012
 -1.540000000000000E-002   -2.290071713943903E-011
 -1.530000000000000E-002   -4.292610907923598E-011
 -1.520000000000000E-002   -6.107279539065930E-011
 -1.510000000000000E-002   -7.614178711424211E-011
 -1.500000000000000E-002   -8.708778789346801E-011
 -1.490000000000000E-002   -9.306956912333516E-011
 -1.480000000000000E-002   -9.348900473989644E-011
 -1.470000000000000E-002   -8.802279855069347E-011
 -1.460000000000000E-002   -7.665125717988473E-011
 -1.450000000000000E-002   -5.968751510852318E-011
 -1.440000000000000E-002   -3.780745635832350E-011
 -1.430000000000000E-002   -1.207685322874152E-011
 -1.420000000000000E-002    1.603235292362446E-011
 -1.410000000000000E-002    4.464829517715566E-011
 -1.400000000000000E-002    7.154169552882808E-011
 -1.390000000000000E-002    9.421779181602087E-011
 -1.380000000000000E-002    1.100671603696852E-010
 -1.370000000000000E-002    1.165781189378632E-010
 -1.360000000000000E-002    1.116040725097089E-010
 -1.350000000000000E-002    9.366824847006961E-011
 -1.340000000000000E-002    6.227789408335537E-011
 -1.330000000000000E-002    1.821087040601700E-011
 -1.320000000000000E-002   -3.626728042703688E-011
 -1.310000000000000E-002   -9.729797550035889E-011
 -1.300000000000000E-002   -1.594725877876739E-010
 -1.290000000000000E-002   -2.160488629833118E-010
 -1.280000000000000E-002   -2.593499317754529E-010
 -1.270000000000000E-002   -2.813353065223860E-010
 -1.260000000000000E-002   -2.743128358699035E-010
 -1.250000000000000E-002   -2.317416686750881E-010
 -1.240000000000000E-002   -1.490614174641915E-010
 -1.230000000000000E-002   -2.447339027842204E-011
 -1.220000000000000E-002    1.404014303782389E-010
 -1.210000000000000E-002    3.400579836386593E-010
 -1.200000000000000E-002    5.648928395277019E-010
 -1.190000000000000E-002    8.012794097219240E-010
 -1.180000000000000E-002    1.031950285111311E-009
 -1.170000000000000E-002    1.236681922400479E-009
 -1.160000000000000E-002    1.393257977866267E-009
 -1.150000000000000E-002    1.478668435625450E-009
 -1.140000000000000E-002    1.470491182561443E-009
 -1.130000000000000E-002    1.348394106484842E-009
 -1.120000000000000E-002    1.095691860678686E-009
 -1.110000000000000E-002    7.008909813460591E-010
 -1.100000000000000E-002    1.591573038148143E-010
 -1.090000000000000E-002   -5.263612249913613E-010
 -1.080000000000000E-002   -1.343423576160283E-009
 -1.070000000000000E-002   -2.269868538117328E-009
 -1.060000000000000E-002   -3.273145143802720E-009
 -1.050000000000000E-002   -4.310279783695762E-009
 -1.040000000000000E-002   -5.328358995511713E-009
 -1.030000000000000E-002   -6.265597122197123E-009
 -1.020000000000000E-002   -7.053050564503552E-009
 -1.010000000000000E-002   -7.617015052231563E-009
 -1.000000000000000E-002   -7.882103339770335E-009
 -9.899999999999999E-003   -7.774972030357121E-009
 -9.800000000000000E-003   -7.228601277545451E-009
 -9.699999999999999E-003   -6.186997807438147E-009
 -9.599999999999999E-003   -4.610131704860044E-009
 -9.500000000000000E-003   -2.478887396309237E-009
 -9.399999999999999E-003    2.002254647128666E-010
 -9.299999999999999E-003    3.390858057886880E-009
 -9.200000000000000E-003    7.023360761516661E-009
 -9.099999999999999E-003    1.099230207893943E-008
 -8.999999999999999E-003    1.515514081093926E-008
 -8.900000000000000E-003    1.933219539688172E-008
 -8.799999999999999E-003    2.330796200671080E-008
 -8.699999999999999E-003    2.683377130398408E-008
 -8.600000000000000E-003    2.963172369310449E-008
 -8.499999999999999E-003    3.139976330637649E-008
 -8.399999999999999E-003    3.181770847229346E-008
 -8.300000000000000E-003    3.055400932090812E-008
 -8.199999999999999E-003    2.727299554788825E-008
 -8.100000000000000E-003    2.164233193877460E-008
 -8.000000000000000E-003    1.334040434602573E-008
 -7.899999999999999E-003    2.063373888336374E-009
 -7.800000000000000E-003   -1.246839388704742E-008
 -7.699999999999999E-003   -3.050475058763353E-008
 -7.599999999999999E-003   -5.226129162725587E-008
 -7.499999999999999E-003   -7.791620042308383E-008
 -7.399999999999999E-003   -1.076085419647089E-007
 -7.299999999999999E-003   -1.414381587335545E-007
 -7.199999999999999E-003   -1.794672449345422E-007
 -7.100000000000000E-003   -2.217234517050176E-007
 -6.999999999999999E-003   -2.682047259604871E-007
 -6.899999999999999E-003   -3.188854286734638E-007
 -6.800000000000000E-003   -3.737236248009322E-007
 -6.699999999999999E-003   -4.326693464455218E-007
 -6.599999999999999E-003   -4.956732143235332E-007
 -6.499999999999999E-003   -5.626954319710043E-007
 -6.399999999999999E-003   -6.337143773367438E-007
 -6.299999999999999E-003   -7.087345451913133E-007
 -6.199999999999999E-003   -7.877939514874118E-007
 -6.100000000000000E-003   -8.709700144318905E-007
 -5.999999999999999E-003   -9.583844184774011E-007
 -5.899999999999999E-003   -1.050206332861657E-006
 -5.800000000000000E-003   -1.146654462642936E-006
 -5.699999999999999E-003   -1.247997833062210E-006
 -5.599999999999999E-003   -1.354555490218571E-006
 -5.499999999999999E-003   -1.466695082122160E-006
 -5.399999999999999E-003   -1.584830820339596E-006
 -5.299999999999999E-003   -1.709421010737050E-006
 -5.199999999999999E-003   -1.840965552043440E-006
 -5.099999999999999E-003   -1.980002439044692E-006
 -4.999999999999999E-003   -2.127105937169046E-006
 -4.899999999999999E-003   -2.282882796982026E-006
 -4.799999999999999E-003   -2.447970815813299E-006
 -4.699999999999999E-003   -2.623036489138262E-006
 -4.599999999999999E-003   -2.808773454642828E-006
 -4.499999999999999E-003   -3.005900948999439E-006
 -4.399999999999999E-003   -3.215163596581304E-006
 -4.299999999999999E-003   -3.437331454964860E-006
 -4.199999999999999E-003   -3.673199944574935E-006
 -4.099999999999999E-003   -3.923591957737472E-006
 -3.999999999999999E-003   -4.189358338153183E-006
 -3.899999999999999E-003   -4.471382107987108E-006
 -3.799999999999999E-003   -4.770580328755465E-006
 -3.699999999999999E-003   -5.087908485692014E-006
 -3.599999999999999E-003   -5.424363762599104E-006
 -3.499999999999999E-003   -5.780989931821803E-006
 -3.399999999999999E-003   -6.158881860599924E-006
 -3.299999999999999E-003   -6.559188666993569E-006
 -3.199999999999999E-003   -6.983119191615131E-006
 -3.099999999999999E-003   -7.431944391730932E-006
 -2.999999999999999E-003   -7.906999495688010E-006
 -2.899999999999999E-003   -8.409688432991925E-006
 -2.799999999999999E-003   -8.941484344025761E-006
 -2.699999999999999E-003   -9.503930864288951E-006
 -2.599999999999999E-003   -1.009864341285858E-005
 -2.499999999999999E-003   -1.072730995041216E-005
 -2.399999999999999E-003   -1.139169415041035E-005
 -2.299999999999999E-003   -1.209363473452305E-005
 -2.199999999999999E-003   -1.283505079381676E-005
 -2.099999999999999E-003   -1.361794533257339E-005
 -1.999999999999999E-003   -1.444440883396133E-005
 -1.899999999999999E-003   -1.531662754499518E-005
 -1.799999999999999E-003   -1.623688876559952E-005
 -1.699999999999999E-003   -1.720759242951395E-005
 -1.599999999999999E-003   -1.823125922810778E-005
 -1.499999999999999E-003   -1.931053984617617E-005
 -1.399999999999999E-003   -2.044822386461522E-005
 -1.299999999999999E-003   -2.164725405553632E-005
 -1.199999999999999E-003   -2.291072964490557E-005
 -1.099999999999999E-003   -2.424191683243550E-005
 -9.999999999999989E-004   -2.564425564579408E-005
 -8.999999999999990E-004   -2.712136311152192E-005
 -7.999999999999990E-004   -2.867703741762621E-005
 -6.999999999999989E-004   -3.031526214346849E-005
 -5.999999999999990E-004   -3.204020865189739E-005
 -4.999999999999989E-004   -3.385622984830192E-005
 -3.999999999999989E-004   -3.576787330863253E-005
 -2.999999999999989E-004   -3.777986835270470E-005
 -1.999999999999989E-004   -3.989714119136366E-005
 -9.999999999999892E-005   -4.212480611813637E-005
  1.084202172485504E-018   -4.446817376759941E-005
  1.000000000000011E-004   -4.693275495897225E-005
  2.000000000000011E-004   -4.952427121711649E-005
  3.000000000000011E-004   -5.224865581186146E-005
  4.000000000000011E-004   -5.511206833068024E-005
  5.000000000000011E-004   -5.812089931688445E-005
  6.000000000000011E-004   -6.128178244918712E-005
  7.000000000000011E-004   -6.460160998084081E-005
  8.000000000000011E-004   -6.808753726010218E-005
  9.000000000000012E-004   -7.174700229005666E-005
  1.000000000000001E-003   -7.558773068538325E-005
  1.100000000000001E-003   -7.961775729251684E-005
  1.200000000000001E-003   -8.384543086697077E-005
  1.300000000000001E-003   -8.827944357183370E-005
  1.400000000000001E-003   -9.292882994157272E-005
  1.500000000000001E-003   -9.780299452487930E-005
  1.600000000000001E-003   -1.029117166472073E-004
  1.700000000000001E-003   -1.082651888886703E-004
  1.800000000000001E-003   -1.138739982029359E-004
  1.900000000000001E-003   -1.197491770506013E-004
  2.000000000000001E-003   -1.259022073896523E-004
  2.100000000000001E-003   -1.323449916436811E-004
  2.200000000000001E-003   -1.390899412572151E-004
  2.300000000000001E-003   -1.461499259182290E-004
  2.400000000000001E-003   -1.535382907434620E-004
  2.500000000000001E-003   -1.612688740470630E-004
  2.600000000000001E-003   -1.693559928635888E-004
  2.700000000000001E-003   -1.778144619115217E-004
  2.800000000000001E-003   -1.866595943342648E-004
  2.900000000000001E-003   -1.959071727759384E-004
  3.000000000000001E-003   -2.055734996129763E-004
  3.100000000000001E-003   -2.156753465566486E-004
  3.200000000000001E-003   -2.262300140007141E-004
  3.300000000000001E-003   -2.372553222167556E-004
  3.400000000000001E-003   -2.487696226682975E-004
  3.500000000000001E-003   -2.607918123301569E-004
  3.600000000000001E-003   -2.733413577592949E-004
  3.700000000000001E-003   -2.864383576533768E-004
  3.800000000000001E-003   -3.001035367919436E-004
  3.900000000000001E-003   -3.143582513250136E-004
  4.000000000000001E-003   -3.292245704667767E-004
  4.100000000000001E-003   -3.447252495157416E-004
  4.200000000000001E-003   -3.608838179486300E-004
  4.300000000000001E-003   -3.777245447067083E-004
  4.400000000000001E-003   -3.952725129099935E-004
  4.500000000000001E-003   -4.135535285027911E-004
  4.600000000000002E-003   -4.325942431321655E-004
  4.700000000000001E-003   -4.524221194506217E-004
  4.800000000000001E-003   -4.730653625969028E-004
  4.900000000000002E-003   -4.945530194934556E-004
  5.000000000000001E-003   -5.169148402244727E-004
  5.100000000000001E-003   -5.401815038302198E-004
  5.200000000000001E-003   -5.643843100085393E-004
  5.300000000000002E-003   -5.895554587276252E-004
  5.400000000000001E-003   -6.157278911304358E-004
  5.500000000000001E-003   -6.429353444786347E-004
  5.600000000000002E-003   -6.712124172860056E-004
  5.700000000000001E-003   -7.005944848527092E-004
  5.800000000000001E-003   -7.311178275559370E-004
  5.900000000000002E-003   -7.628195318534601E-004
  6.000000000000001E-003   -7.957376435168873E-004
  6.100000000000001E-003   -8.299110744442594E-004
  6.200000000000002E-003   -8.653796497713304E-004
  6.300000000000002E-003   -9.021841621517440E-004
  6.400000000000001E-003   -9.403662634514202E-004
  6.500000000000001E-003   -9.799687108443477E-004
  6.600000000000002E-003   -1.021035052773840E-003
  6.700000000000001E-003   -1.063609731127799E-003
  6.800000000000001E-003   -1.107738106430803E-003
  6.900000000000002E-003   -1.153466515417638E-003
  7.000000000000001E-003   -1.200842051861676E-003
  7.100000000000001E-003   -1.249912829669074E-003
  7.200000000000002E-003   -1.300727662655900E-003
  7.300000000000002E-003   -1.353336243560602E-003
  7.400000000000001E-003   -1.407789100446708E-003
  7.500000000000001E-003   -1.464137602342640E-003
  7.600000000000002E-003   -1.522433999825065E-003
  7.700000000000001E-003   -1.582731349957373E-003
  7.800000000000001E-003   -1.645083496239099E-003
  7.900000000000001E-003   -1.709545033743681E-003
  8.000000000000002E-003   -1.776171604235762E-003
  8.100000000000001E-003   -1.845019347401887E-003
  8.200000000000001E-003   -1.916145575509803E-003
  8.300000000000002E-003   -1.989607960475847E-003
  8.400000000000001E-003   -2.065465268805030E-003
  8.500000000000002E-003   -2.143776934998869E-003
  8.600000000000002E-003   -2.224602900692334E-003
  8.700000000000001E-003   -2.308003984368255E-003
  8.800000000000002E-003   -2.394041531975869E-003
  8.900000000000002E-003   -2.482777428584284E-003
  9.000000000000001E-003   -2.574274163143223E-003
  9.100000000000002E-003   -2.668594477466463E-003
  9.200000000000002E-003   -2.765802132722137E-003
  9.300000000000001E-003   -2.865960751591409E-003
  9.400000000000002E-003   -2.969134427629202E-003
  9.500000000000001E-003   -3.075387756822680E-003
  9.600000000000001E-003   -3.184785343777341E-003
  9.700000000000002E-003   -3.297392175103377E-003
  9.800000000000001E-003   -3.413273061703633E-003
  9.900000000000001E-003   -3.532493163068467E-003
  1.000000000000000E-002   -3.655117425101178E-003
  1.010000000000000E-002   -3.781210710068282E-003
  1.020000000000000E-002   -3.910837946467860E-003
  1.030000000000000E-002   -4.044063699337623E-003
  1.040000000000000E-002   -4.180952716738094E-003
  1.050000000000000E-002   -4.321569159113785E-003
  1.060000000000000E-002   -4.465976639602274E-003
  1.070000000000000E-002   -4.614238628940023E-003
  1.080000000000000E-002   -4.766417593981185E-003
  1.090000000000000E-002   -4.922575833079201E-003
  1.100000000000000E-002   -5.082775422835856E-003
  1.110000000000000E-002   -5.247076870029505E-003
  1.120000000000000E-002   -5.415540252818742E-003
  1.130000000000000E-002   -5.588224294722813E-003
  1.140000000000000E-002   -5.765187387818276E-003
  1.150000000000000E-002   -5.946486163631737E-003
  1.160000000000000E-002   -6.132176573713326E-003
  1.170000000000000E-002   -6.322312210731078E-003
  1.180000000000000E-002   -6.516946205379672E-003
  1.190000000000000E-002   -6.716129015278941E-003
  1.200000000000000E-002   -6.919910283244986E-003
  1.210000000000000E-002   -7.128337155815991E-003
  1.220000000000000E-002   -7.341454654734828E-003
  1.230000000000000E-002   -7.559306295507483E-003
  1.240000000000000E-002   -7.781931874875622E-003
  1.250000000000000E-002   -8.009370893030575E-003
  1.260000000000000E-002   -8.241659393667236E-003
  1.270000000000000E-002   -8.478830774769621E-003
  1.280000000000000E-002   -8.720915233397689E-003
  1.290000000000000E-002   -8.967941413173062E-003
  1.300000000000000E-002   -9.219934550664177E-003
  1.310000000000000E-002   -9.476916765270009E-003
  1.320000000000000E-002   -9.738907901006294E-003
  1.330000000000000E-002   -1.000592398699019E-002
  1.340000000000000E-002   -1.027797664345317E-002
  1.350000000000000E-002   -1.055507616875262E-002
  1.360000000000000E-002   -1.083722677907123E-002
  1.370000000000000E-002   -1.112443051525236E-002
  1.380000000000000E-002   -1.141668500746538E-002
  1.390000000000000E-002   -1.171398300807843E-002
  1.400000000000000E-002   -1.201631308697938E-002
  1.410000000000000E-002   -1.232365969587681E-002
  1.420000000000000E-002   -1.263600233809269E-002
  1.430000000000000E-002   -1.295331658528302E-002
  1.440000000000000E-002   -1.327557108921563E-002
  1.450000000000000E-002   -1.360272997119037E-002
  1.460000000000000E-002   -1.393475336356460E-002
  1.470000000000000E-002   -1.427159428590914E-002
  1.480000000000000E-002   -1.461320228324047E-002
  1.490000000000000E-002   -1.495952046108672E-002
  1.500000000000000E-002   -1.531048629011216E-002
  1.510000000000000E-002   -1.566602983492489E-002
  1.520000000000000E-002   -1.602607847651432E-002
  1.530000000000000E-002   -1.639055240705114E-002
  1.540000000000000E-002   -1.675936349247405E-002
  1.550000000000000E-002   -1.713242060940146E-002
  1.560000000000000E-002   -1.750962449563291E-002
  1.570000000000000E-002   -1.789087131736870E-002
  1.580000000000000E-002   -1.827604899430110E-002
  1.590000000000000E-002   -1.866503924190268E-002
  1.600000000000000E-002   -1.905771813763682E-002
  1.610000000000000E-002   -1.945395291766127E-002
  1.620000000000000E-002   -1.985360661852147E-002
  1.630000000000000E-002   -2.025653235543583E-002
  1.640000000000000E-002   -2.066257885352396E-002
  1.650000000000000E-002   -2.107158567519273E-002
  1.660000000000000E-002   -2.148338403641888E-002
  1.670000000000000E-002   -2.189780115742058E-002
  1.680000000000000E-002   -2.231465451341949E-002
  1.690000000000000E-002   -2.273375585391789E-002
  1.700000000000000E-002   -2.315490689779498E-002
  1.710000000000000E-002   -2.357790476691033E-002
  1.720000000000000E-002   -2.400253548740013E-002
  1.730000000000000E-002   -2.442858119188542E-002
  1.740000000000000E-002   -2.485581407126032E-002
  1.750000000000000E-002   -2.528400232774759E-002
  1.760000000000000E-002   -2.571290357401783E-002
  1.770000000000000E-002   -2.614226725455593E-002
  1.780000000000000E-002   -2.657184135154149E-002
  1.790000000000000E-002   -2.700136135647727E-002
  1.800000000000000E-002   -2.743055495963585E-002
  1.810000000000000E-002   -2.785914674553984E-002
  1.820000000000000E-002   -2.828685100312528E-002
  1.830000000000000E-002   -2.871337670139379E-002
  1.840000000000000E-002   -2.913842534586832E-002
  1.850000000000000E-002   -2.956169278103278E-002
  1.860000000000000E-002   -2.998286520037160E-002
  1.870000000000000E-002   -3.040162609746776E-002