 -4.000000000000000E-002    0.000000000000000E+000
 -3.990000000000000E-002    0.000000000000000E+000
 -3.980000000000000E-002    0.000000000000000E+000
 -3.970000000000000E-002    0.000000000000000E+000
 -3.960000000000000E-002    0.000000000000000E+000
 -3.950000000000000E-002    0.000000000000000E+000
 -3.940000000000000E-002    0.000000000000000E+000
 -3.930000000000000E-002    0.000000000000000E+000
 -3.920000000000000E-002    0.000000000000000E+000
 -3.910000000000000E-002    0.000000000000000E+000
 -3.900000000000000E-002    0.000000000000000E+000
 -3.890000000000000E-002    0.000000000000000E+000
 -3.880000000000000E-002    0.000000000000000E+000
 -3.870000000000000E-002    0.000000000000000E+000
 -3.860000000000000E-002    0.000000000000000E+000
 -3.850000000000000E-002    0.000000000000000E+000
 -3.840000000000000E-002    0.000000000000000E+000
 -3.830000000000000E-002    0.000000000000000E+000
 -3.820000000000000E-002    0.000000000000000E+000
 -3.810000000000000E-002    0.000000000000000E+000
 -3.800000000000000E-002    0.000000000000000E+000
 -3.790000000000000E-002    0.000000000000000E+000
 -3.780000000000000E-002    0.000000000000000E+000
 -3.770000000000000E-002    0.000000000000000E+000
 -3.760000000000000E-002    0.000000000000000E+000
 -3.750000000000000E-002    0.000000000000000E+000
 -3.740000000000000E-002    0.000000000000000E+000
 -3.730000000000000E-002    0.000000000000000E+000
 -3.720000000000000E-002    0.000000000000000E+000
 -3.710000000000000E-002    0.000000000000000E+000
 -3.700000000000000E-002    0.000000000000000E+000
 -3.690000000000000E-002    0.000000000000000E+000
 -3.680000000000000E-002    0.000000000000000E+000
 -3.670000000000000E-002    0.000000000000000E+000
 -3.660000000000000E-002    0.000000000000000E+000
 -3.650000000000000E-002    0.000000000000000E+000
 -3.640000000000000E-002    0.000000000000000E+000
 -3.630000000000000E-002    0.000000000000000E+000
 -3.620000000000000E-002    0.000000000000000E+000
 -3.610000000000000E-002    0.000000000000000E+000
 -3.600000000000000E-002    0.000000000000000E+000
 -3.590000000000000E-002    0.000000000000000E+000
 -3.580000000000000E-002    0.000000000000000E+000
 -3.570000000000000E-002    0.000000000000000E+000
 -3.560000000000000E-002    0.000000000000000E+000
 -3.550000000000000E-002    0.000000000000000E+000
 -3.540000000000000E-002    0.000000000000000E+000
 -3.530000000000000E-002    0.000000000000000E+000
 -3.520000000000000E-002    0.000000000000000E+000
 -3.510000000000000E-002    0.000000000000000E+000
 -3.500000000000000E-002    0.000000000000000E+000
 -3.490000000000000E-002    0.000000000000000E+000
 -3.480000000000000E-002    0.000000000000000E+000
 -3.470000000000000E-002    0.000000000000000E+000
 -3.460000000000000E-002    0.000000000000000E+000
 -3.450000000000000E-002    0.000000000000000E+000
 -3.440000000000000E-002    0.000000000000000E+000
 -3.430000000000000E-002    0.000000000000000E+000
 -3.420000000000000E-002    0.000000000000000E+000
 -3.410000000000000E-002    0.000000000000000E+000
 -3.400000000000000E-002    0.000000000000000E+000
 -3.390000000000000E-002    0.000000000000000E+000
 -3.380000000000000E-002    0.000000000000000E+000
 -3.370000000000000E-002    0.000000000000000E+000
 -3.360000000000000E-002    0.000000000000000E+000
 -3.350000000000000E-002    0.000000000000000E+000
 -3.340000000000000E-002    0.000000000000000E+000
 -3.330000000000000E-002    0.000000000000000E+000
 -3.320000000000000E-002    0.000000000000000E+000
 -3.310000000000000E-002    0.000000000000000E+000
 -3.300000000000000E-002    0.000000000000000E+000
 -3.290000000000000E-002    0.000000000000000E+000
 -3.280000000000000E-002    0.000000000000000E+000
 -3.270000000000000E-002    0.000000000000000E+000
 -3.260000000000000E-002    0.000000000000000E+000
 -3.250000000000000E-002    0.000000000000000E+000
 -3.240000000000000E-002    0.000000000000000E+000
 -3.230000000000000E-002    0.000000000000000E+000
 -3.220000000000000E-002    0.000000000000000E+000
 -3.210000000000000E-002    0.000000000000000E+000
 -3.200000000000000E-002    0.000000000000000E+000
 -3.190000000000000E-002    0.000000000000000E+000
 -3.180000000000000E-002    0.000000000000000E+000
 -3.170000000000000E-002    0.000000000000000E+000
 -3.160000000000000E-002    0.000000000000000E+000
 -3.150000000000000E-002    0.000000000000000E+000
 -3.140000000000000E-002    0.000000000000000E+000
 -3.130000000000000E-002    0.000000000000000E+000
 -3.120000000000000E-002    0.000000000000000E+000
 -3.110000000000000E-002    0.000000000000000E+000
 -3.100000000000000E-002    0.000000000000000E+000
 -3.090000000000000E-002    0.000000000000000E+000
 -3.080000000000000E-002    0.000000000000000E+000
 -3.070000000000000E-002    0.000000000000000E+000
 -3.060000000000000E-002    0.000000000000000E+000
 -3.050000000000000E-002    0.000000000000000E+000
 -3.040000000000000E-002    0.000000000000000E+000
 -3.030000000000000E-002    0.000000000000000E+000
 -3.020000000000000E-002    0.000000000000000E+000
 -3.010000000000000E-002    0.000000000000000E+000
 -3.000000000000000E-002    0.000000000000000E+000
 -2.990000000000000E-002    0.000000000000000E+000
 -2.980000000000000E-002    0.000000000000000E+000
 -2.970000000000000E-002    0.000000000000000E+000
 -2.960000000000000E-002    0.000000000000000E+000
 -2.950000000000000E-002    0.000000000000000E+000
 -2.940000000000000E-002    0.000000000000000E+000
 -2.930000000000000E-002    0.000000000000000E+000
 -2.920000000000000E-002    0.000000000000000E+000
 -2.910000000000000E-002    0.000000000000000E+000
 -2.900000000000000E-002    0.000000000000000E+000
 -2.890000000000000E-002    0.000000000000000E+000
 -2.880000000000000E-002    0.000000000000000E+000
 -2.870000000000000E-002    0.000000000000000E+000
 -2.860000000000000E-002    0.000000000000000E+000
 -2.850000000000000E-002    0.000000000000000E+000
 -2.840000000000000E-002    0.000000000000000E+000
 -2.830000000000000E-002    0.000000000000000E+000
 -2.820000000000000E-002    0.000000000000000E+000
 -2.810000000000000E-002    0.000000000000000E+000
 -2.800000000000000E-002    0.000000000000000E+000
 -2.790000000000000E-002    0.000000000000000E+000
 -2.780000000000000E-002    0.000000000000000E+000
 -2.770000000000000E-002    0.000000000000000E+000
 -2.760000000000000E-002    0.000000000000000E+000
 -2.750000000000000E-002    0.000000000000000E+000
 -2.740000000000000E-002    0.000000000000000E+000
 -2.730000000000000E-002    0.000000000000000E+000
 -2.720000000000000E-002    0.000000000000000E+000
 -2.710000000000000E-002    0.000000000000000E+000
 -2.700000000000000E-002    0.000000000000000E+000
 -2.690000000000000E-002    0.000000000000000E+000
 -2.680000000000000E-002    0.000000000000000E+000
 -2.670000000000000E-002    0.000000000000000E+000
 -2.660000000000000E-002    0.000000000000000E+000
 -2.650000000000000E-002    0.000000000000000E+000
 -2.640000000000000E-002    0.000000000000000E+000
 -2.630000000000000E-002    0.000000000000000E+000
 -2.620000000000000E-002   -6.414635304221270E-048
 -2.610000000000000E-002   -5.793193039233079E-047
 -2.600000000000000E-002   -2.868935851856261E-046
 -2.590000000000000E-002   -5.930310762839160E-046
 -2.580000000000000E-002   -7.734417154194690E-046
 -2.570000000000000E-002   -1.011784284947353E-045
 -2.560000000000000E-002   -9.858043594348098E-046
 -2.550000000000000E-002   -6.472723075197557E-046
 -2.540000000000000E-002    3.170858017098747E-046
 -2.530000000000000E-002    2.319302075995783E-045
 -2.520000000000000E-002    5.781044174368907E-045
 -2.510000000000000E-002    1.033914770610607E-044
 -2.500000000000000E-002    1.577911128830473E-044
 -2.490000000000000E-002    2.162395509263403E-044
 -2.480000000000000E-002    2.517857986141969E-044
 -2.470000000000000E-002    2.428985317815373E-044
 -2.460000000000000E-002    1.499868749223608E-044
 -2.450000000000000E-002   -8.288134067772697E-045
 -2.440000000000000E-002   -4.957186078493913E-044
 -2.430000000000000E-002   -1.123372957679171E-043
 -2.420000000000000E-002   -1.970143195256356E-043
 -2.410000000000000E-002   -2.986331376613956E-043
 -2.400000000000000E-002   -4.006640732889836E-043
 -2.390000000000000E-002   -4.758036502150403E-043
 -2.380000000000000E-002   -4.787294933022527E-043
 -2.370000000000000E-002   -3.485575560247501E-043
 -2.360000000000000E-002   -1.314105662335228E-044
 -2.350000000000000E-002    6.032553173597341E-043
 -2.340000000000000E-002    1.555938514963678E-042
 -2.330000000000000E-002    2.851752311284504E-042
 -2.320000000000000E-002    4.413003617068771E-042
 -2.310000000000000E-002    6.024453493527008E-042
 -2.300000000000000E-002    7.296859682743193E-042
 -2.290000000000000E-002    7.637510794548204E-042
 -2.280000000000000E-002    6.251017662499836E-042
 -2.270000000000000E-002    2.207648562521616E-042
 -2.260000000000000E-002   -5.413988488097878E-042
 -2.250000000000000E-002   -1.728584054891376E-041
 -2.240000000000000E-002   -3.348192627461254E-041
 -2.230000000000000E-002   -5.304281406913030E-041
 -2.220000000000000E-002   -7.350320936438503E-041
 -2.210000000000000E-002   -9.048307831735747E-041
 -2.200000000000000E-002   -9.747103694301370E-041
 -2.190000000000000E-002   -8.600195670222681E-041
 -2.180000000000000E-002   -4.641781521608585E-041
 -2.170000000000000E-002    3.060480298990170E-041
 -2.160000000000000E-002    1.516324658368990E-040
 -2.150000000000000E-002    3.171997513069487E-040
 -2.140000000000000E-002    5.179391498735711E-040
 -2.130000000000000E-002    7.306546225998278E-040
 -2.120000000000000E-002    9.152188181398144E-040
 -2.110000000000000E-002    1.013483300806108E-039
 -2.100000000000000E-002    9.515987386424601E-040
 -2.090000000000000E-002    6.471446736350254E-040
 -2.080000000000000E-002    2.214693446586537E-041
 -2.070000000000000E-002   -9.776549160768840E-040
 -2.060000000000000E-002   -2.358128196497425E-039
 -2.050000000000000E-002   -4.049091422688715E-039
 -2.040000000000000E-002   -5.878020356298522E-039
 -2.030000000000000E-002   -7.551299377374748E-039
 -2.020000000000000E-002   -8.650680752059919E-039
 -2.010000000000000E-002   -8.653103553518788E-039
 -2.000000000000000E-002   -6.981083358196990E-039
 -1.990000000000000E-002   -3.087972836496306E-039
 -1.980000000000000E-002    3.422606377742493E-039
 -1.970000000000000E-002    1.265092800579517E-038
 -1.960000000000000E-002    2.424507765872896E-038
 -1.950000000000000E-002    3.725939013507652E-038
 -1.940000000000000E-002    5.005933952838975E-038
 -1.930000000000000E-002    6.030847910054617E-038
 -1.920000000000000E-002    6.507145112852104E-038
 -1.910000000000000E-002    6.105850442663292E-038
 -1.900000000000000E-002    4.502115063146440E-038
 -1.890000000000000E-002    1.428622370511585E-038
 -1.880000000000000E-002   -3.261077047477910E-038
 -1.870000000000000E-002   -9.525843290912188E-038
 -1.860000000000000E-002   -1.707551887712334E-037
 -1.850000000000000E-002   -2.532457140159579E-037
 -1.840000000000000E-002   -3.337034588072393E-037
 -1.830000000000000E-002   -4.000364338743850E-037
 -1.820000000000000E-002   -4.375636869356918E-037
 -1.810000000000000E-002   -4.298742139012051E-037
 -1.800000000000000E-002   -3.600495316518972E-037
 -1.790000000000000E-002   -2.122174261980517E-037
 -1.780000000000000E-002    2.658399904876697E-038
 -1.770000000000000E-002    3.642138330510511E-037
 -1.760000000000000E-002    8.008327088806289E-037
 -1.750000000000000E-002    1.325781869359086E-036
 -1.740000000000000E-002    1.913815587564912E-036
 -1.730000000000000E-002    2.520667985597779E-036
 -1.720000000000000E-002    3.078183547176180E-036
 -1.710000000000000E-002    3.489674625853375E-036
 -1.700000000000000E-002    3.626775888433748E-036
 -1.690000000000000E-002    3.329775777201516E-036
 -1.680000000000000E-002    2.414086187493588E-036
 -1.670000000000000E-002    6.859416790073019E-037
 -1.660000000000000E-002   -2.029693394747581E-036
 -1.650000000000000E-002   -5.846947027401020E-036
 -1.640000000000000E-002   -1.076252939202360E-035
 -1.630000000000000E-002   -1.658798927779469E-035
 -1.620000000000000E-002   -2.287807216298816E-035
 -1.610000000000000E-002   -2.886735751320227E-035
 -1.600000000000000E-002   -3.343211472341937E-035
 -1.590000000000000E-002   -3.509785144267791E-035
 -1.580000000000000E-002   -3.211417956734265E-035
 -1.570000000000000E-002   -2.261598722010150E-035
 -1.560000000000000E-002   -4.882652030080619E-036
 -1.550000000000000E-002    2.230538375288118E-035
 -1.540000000000000E-002    5.923050439017541E-035
 -1.530000000000000E-002    1.047605713463463E-034
 -1.520000000000000E-002    1.558899294146411E-034
 -1.510000000000000E-002    2.073775214136667E-034
 -1.500000000000000E-002    2.515741410667100E-034
 -1.490000000000000E-002    2.785351458861460E-034
 -1.480000000000000E-002    2.765075864365783E-034
 -1.470000000000000E-002    2.328610630851071E-034
 -1.460000000000000E-002    1.354998798805589E-034
 -1.450000000000000E-002   -2.524799183998480E-035
 -1.440000000000000E-002   -2.543200913073202E-034
 -1.430000000000000E-002   -5.492985709152487E-034
 -1.420000000000000E-002   -8.976556480477901E-034
 -1.410000000000000E-002   -1.274116793864042E-033
 -1.400000000000000E-002   -1.638484121178386E-033
 -1.390000000000000E-002   -1.934373050653408E-033
 -1.380000000000000E-002   -2.089446577516574E-033
 -1.370000000000000E-002   -2.017873008345259E-033
 -1.360000000000000E-002   -1.625851380296142E-033
 -1.350000000000000E-002   -8.210962813226940E-034
 -1.340000000000000E-002    4.729316438296140E-034
 -1.330000000000000E-002    2.297621579802353E-033
 -1.320000000000000E-002    4.634915105486652E-033
 -1.310000000000000E-002    7.379538604155460E-033
 -1.300000000000000E-002    1.031077712967593E-032
 -1.290000000000000E-002    1.306875699116536E-032
 -1.280000000000000E-002    1.514226033889599E-032
 -1.270000000000000E-002    1.587688535719164E-032
 -1.260000000000000E-002    1.451324724496012E-032
 -1.250000000000000E-002    1.026422657418144E-032
 -1.240000000000000E-002    2.437263313824425E-033
 -1.230000000000000E-002   -9.398205796260851E-033
 -1.220000000000000E-002   -2.520708062682633E-032
 -1.210000000000000E-002   -4.426936732398344E-032
 -1.200000000000000E-002   -6.497939945619040E-032
 -1.190000000000000E-002   -8.471036182177269E-032
 -1.180000000000000E-002   -9.980046016720801E-032
 -1.170000000000000E-002   -1.057195852456997E-031
 -1.160000000000000E-002   -9.746720048195171E-032
 -1.150000000000000E-002   -7.023056247663989E-032
 -1.140000000000000E-002   -2.029549722972788E-032
 -1.130000000000000E-002    5.384890642688322E-032
 -1.120000000000000E-002    1.503310857610888E-031
 -1.110000000000000E-002    2.628251138153011E-031
 -1.100000000000000E-002    3.798208629598503E-031
 -1.090000000000000E-002    4.844999001885484E-031
 -1.080000000000000E-002    5.554717796840249E-031
 -1.070000000000000E-002    5.685655075808380E-031
 -1.060000000000000E-002    4.997537146445773E-031
 -1.050000000000000E-002    3.291145869129949E-031
 -1.040000000000000E-002    4.552104805192316E-032
 -1.030000000000000E-002   -3.484845511985200E-031
 -1.020000000000000E-002   -8.323832410727278E-031
 -1.010000000000000E-002   -1.364837285473832E-030
 -1.000000000000000E-002   -1.883243228941830E-030
 -9.899999999999999E-003   -2.306491500391181E-030
 -9.800000000000000E-003   -2.541448717069277E-030
 -9.699999999999999E-003   -2.493216062738789E-030
 -9.599999999999999E-003   -2.078618332046651E-030
 -9.500000000000000E-003   -1.241718140985538E-030
 -9.399999999999999E-003    3.047405555946100E-032
 -9.299999999999999E-003    1.694390567970621E-030
 -9.200000000000000E-003    3.640890182282071E-030
 -9.099999999999999E-003    5.693162220360711E-030
 -8.999999999999999E-003    7.613306189555301E-030
 -8.900000000000000E-003    9.118397657084024E-030
 -8.799999999999999E-003    9.905624967332792E-030
 -8.699999999999999E-003    9.684765354727425E-030
 -8.600000000000000E-003    8.215070756944838E-030
 -8.499999999999999E-003    5.342793161462468E-030
 -8.399999999999999E-003    1.035280172512884E-030
 -8.300000000000000E-003   -4.592099298623298E-030
 -8.199999999999999E-003   -1.125902360290063E-029
 -8.100000000000000E-003   -1.851483485332015E-029
 -8.000000000000000E-003   -2.574494727051358E-029
 -7.899999999999999E-003   -3.218840846781106E-029
 -7.800000000000000E-003   -3.696586563107028E-029
 -7.699999999999999E-003   -3.911817353459750E-029
 -7.599999999999999E-003   -3.765777102104268E-029
 -7.499999999999999E-003   -3.163748511225586E-029
 -7.399999999999999E-003   -2.024351303053628E-029
 -7.299999999999999E-003   -2.919986160376436E-030
 -7.199999999999999E-003    2.046983646694148E-029
 -7.100000000000000E-003    4.944700640848314E-029
 -6.999999999999999E-003    8.269728907083976E-029
 -6.899999999999999E-003    1.178559596516983E-028
 -6.800000000000000E-003    1.513419905534862E-028
 -6.699999999999999E-003    1.783032069070935E-028
 -6.599999999999999E-003    1.927448574656449E-028
 -6.499999999999999E-003    1.879140903379353E-028
 -6.399999999999999E-003    1.569964938481279E-028
 -6.299999999999999E-003    9.414487177815144E-029
 -6.199999999999999E-003   -4.196382040723198E-030
 -6.100000000000000E-003   -1.377817985281283E-028
 -5.999999999999999E-003   -3.010632442756176E-028
 -5.899999999999999E-003   -4.819669182548638E-028
 -5.800000000000000E-003   -6.612748644892045E-028
 -5.699999999999999E-003   -8.129504944333788E-028
 -5.599999999999999E-003   -9.057019876765159E-028
 -5.499999999999999E-003   -9.059606569890679E-028
 -5.399999999999999E-003   -7.822635406210534E-028
 -5.299999999999999E-003   -5.107786136222178E-028
 -5.199999999999999E-003   -8.143166841932335E-029
 -5.099999999999999E-003    4.961806938811840E-028
 -4.999999999999999E-003    1.188116004428831E-027
 -4.899999999999999E-003    1.933764974739495E-027
 -4.799999999999999E-003    2.646925091516168E-027
 -4.699999999999999E-003    3.221034206669914E-027
 -4.599999999999999E-003    3.538851522073736E-027
 -4.499999999999999E-003    3.486232028160621E-027
 -4.399999999999999E-003    2.968899174904563E-027
 -4.299999999999999E-003    1.930398315996676E-027
 -4.199999999999999E-003    3.688321216624297E-028
 -4.099999999999999E-003   -1.650326060466690E-027
 -3.999999999999999E-003   -3.987963734160878E-027
 -3.899999999999999E-003   -6.433709605321074E-027
 -3.799999999999999E-003   -8.718112598997561E-027
 -3.699999999999999E-003   -1.053448298857109E-026
 -3.599999999999999E-003   -1.156881739272220E-026
 -3.499999999999999E-003   -1.153487002278650E-026
 -3.399999999999999E-003   -1.021041818327919E-026
 -3.299999999999999E-003   -7.470319274349783E-027
 -3.199999999999999E-003   -3.312264595744468E-027
 -3.099999999999999E-003    2.127859292740824E-027
 -2.999999999999999E-003    8.572450375814253E-027
 -2.899999999999999E-003    1.561005902270447E-026
 -2.799999999999999E-003    2.271246264368247E-026
 -2.699999999999999E-003    2.925763222765819E-026
 -2.599999999999999E-003    3.455527054074331E-026
 -2.499999999999999E-003    3.787284782196286E-026
 -2.399999999999999E-003    3.846254767651808E-026
 -2.299999999999999E-003    3.559283627491771E-026
 -2.199999999999999E-003    2.859156718852162E-026
 -2.099999999999999E-003    1.690968937700421E-026
 -1.999999999999999E-003    2.143029238359297E-028
 -1.899999999999999E-003   -2.148376665442206E-026
 -1.799999999999999E-003   -4.767032800357185E-026
 -1.699999999999999E-003   -7.714982985448403E-026
 -1.599999999999999E-003   -1.078763469804463E-025
 -1.499999999999999E-003   -1.368347536270139E-025
 -1.399999999999999E-003   -1.600237906250424E-025
 -1.299999999999999E-003   -1.725965793879258E-025
 -1.199999999999999E-003   -1.692073331074936E-025
 -1.099999999999999E-003   -1.445933418117198E-025
 -9.999999999999989E-004   -9.438798275107327E-026
 -8.999999999999990E-004   -1.611503843516376E-026
 -7.999999999999990E-004    8.973715190529762E-026
 -6.999999999999989E-004    2.187147587501034E-025
 -5.999999999999990E-004    3.616637932038189E-025
 -4.999999999999989E-004    5.044730996490030E-025
 -3.999999999999989E-004    6.284929474289958E-025
 -2.999999999999989E-004    7.117744955620295E-025
 -1.999999999999989E-004    7.311834703285301E-025
 -9.999999999999892E-005    6.653137761446928E-025
  1.084202172485504E-018    4.979777952404922E-025
  1.000000000000011E-004    2.219006566329831E-025
  2.000000000000011E-004   -1.578815623760323E-025
  3.000000000000011E-004   -6.214945069392519E-025
  4.000000000000011E-004   -1.133144964134106E-024
  5.000000000000011E-004   -1.641972699136520E-024
  6.000000000000011E-004   -2.085135607609574E-024
  7.000000000000011E-004   -2.393161578596023E-024
  8.000000000000011E-004   -2.497278911686129E-024
  9.000000000000012E-004   -2.338102294369596E-024
  1.000000000000001E-003   -1.874758562408237E-024
  1.100000000000001E-003   -1.093332257655992E-024
  1.200000000000001E-003   -1.345252661248537E-026
  1.300000000000001E-003    1.308061838009146E-024
  1.400000000000001E-003    2.777307410133634E-024
  1.500000000000001E-003    4.267551177719585E-024
  1.600000000000001E-003    5.627540777422591E-024
  1.700000000000001E-003    6.693266570467593E-024
  1.800000000000001E-003    7.302143575438923E-024
  1.900000000000001E-003    7.308300996931623E-024
  2.000000000000001E-003    6.597596624838694E-024
  2.100000000000001E-003    5.101108858025948E-024
  2.200000000000001E-003    2.806196448897834E-024
  2.300000000000001E-003   -2.353759493936783E-025
  2.400000000000001E-003   -3.902321337371800E-024
  2.500000000000001E-003   -8.001562082586559E-024
  2.600000000000001E-003   -1.226863398620973E-023
  2.700000000000001E-003   -1.637090748394900E-023
  2.800000000000001E-003   -1.991438744591845E-023
  2.900000000000001E-003   -2.245563296338368E-023
  3.000000000000001E-003   -2.352107044228778E-023
  3.100000000000001E-003   -2.263638226606870E-023
  3.200000000000001E-003   -1.936839103868948E-023
  3.300000000000001E-003   -1.338070898525620E-023
  3.400000000000001E-003   -4.502215010802890E-024
  3.500000000000001E-003    7.195758038712020E-024
  3.600000000000001E-003    2.132152774715229E-023
  3.700000000000001E-003    3.709634643079225E-023
  3.800000000000001E-003    5.331407339650472E-023
  3.900000000000001E-003    6.834400891368358E-023
  4.000000000000001E-003    8.019283374736132E-023
  4.100000000000001E-003    8.663753659182118E-023
  4.200000000000001E-003    8.543373798052391E-023
  4.300000000000001E-003    7.459316663558184E-023
  4.400000000000001E-003    5.271127034701984E-023
  4.500000000000001E-003    1.931248006195616E-023
  4.600000000000002E-003   -2.483124263444201E-023
  4.700000000000001E-003   -7.746092482126470E-023
  4.800000000000001E-003   -1.347243666727149E-022
  4.900000000000002E-003   -1.912514021226315E-022
  5.000000000000001E-003   -2.404440152539856E-022
  5.100000000000001E-003   -2.749918144455619E-022
  5.200000000000001E-003   -2.875939878080315E-022
  5.300000000000002E-003   -2.718364581947588E-022
  5.400000000000001E-003   -2.231420206807556E-022
  5.500000000000001E-003   -1.396862182042902E-022
  5.600000000000002E-003   -2.315775471802474E-023
  5.700000000000001E-003    1.207572129543946E-022
  5.800000000000001E-003    2.822705059969514E-022
  5.900000000000002E-003    4.478375927545678E-022
  6.000000000000001E-003    6.009774060651892E-022
  6.100000000000001E-003    7.235361201771079E-022
  6.200000000000002E-003    7.973089037011370E-022
  6.300000000000002E-003    8.058851698376455E-022
  6.400000000000001E-003    7.365477464793924E-022
  6.500000000000001E-003    5.820399623498272E-022
  6.600000000000002E-003    3.420209364015896E-022
  6.700000000000001E-003    2.405397924904506E-023
  6.800000000000001E-003   -3.559843129153884E-022
  6.900000000000002E-003   -7.741363926526881E-022
  7.000000000000001E-003   -1.199249759991156E-021
  7.100000000000001E-003   -1.594485409635228E-021
  7.200000000000002E-003   -1.919388491324711E-021
  7.300000000000002E-003   -2.132447371959737E-021
  7.400000000000001E-003   -2.194063982053742E-021
  7.500000000000001E-003   -2.069860125764131E-021
  7.600000000000002E-003   -1.734237956623959E-021
  7.700000000000001E-003   -1.174084927553447E-021
  7.800000000000001E-003   -3.924610776921086E-022
  7.900000000000001E-003    5.879848346184724E-022
  8.000000000000002E-003    1.722234862387168E-021
  8.100000000000001E-003    2.941242500145462E-021
  8.200000000000001E-003    4.151983436311837E-021
  8.300000000000002E-003    5.239851054554699E-021
  8.400000000000001E-003    6.073979986617372E-021
  8.500000000000002E-003    6.515914520882760E-021
  8.600000000000002E-003    6.431718983443565E-021
  8.700000000000001E-003    5.707170120436571E-021
  8.800000000000002E-003    4.265118759271602E-021
  8.900000000000002E-003    2.083487648904321E-021
  9.000000000000001E-003   -7.881741793986665E-022
  9.100000000000002E-003   -4.216093814786309E-021
  9.200000000000002E-003   -7.976296486512671E-021
  9.300000000000001E-003   -1.175772517869886E-020
  9.400000000000002E-003   -1.517634652431335E-020
  9.500000000000001E-003   -1.780112317565329E-020
  9.600000000000001E-003   -1.919138150096447E-020
  9.700000000000002E-003   -1.894350841186261E-020
  9.800000000000001E-003   -1.674327965446066E-020
  9.900000000000001E-003   -1.241866428479208E-020
  1.000000000000000E-002   -5.986908823911112E-021
  1.010000000000000E-002    2.310709000154874E-021
  1.020000000000000E-002    1.199269454279825E-020
  1.030000000000000E-002    2.234474457597370E-020
  1.040000000000000E-002    3.245371546317261E-020
  1.050000000000000E-002    4.126849310880898E-020
  1.060000000000000E-002    4.768503875195293E-020
  1.070000000000000E-002    5.064982700671991E-020
  1.080000000000000E-002    4.927321813538772E-020
  1.090000000000000E-002    4.294232102746504E-020
  1.100000000000000E-002    3.142193499058460E-020
  1.110000000000000E-002    1.493235711516620E-020
  1.120000000000000E-002   -5.805800303273571E-021
  1.130000000000000E-002   -2.956718461486109E-020
  1.140000000000000E-002   -5.466188751422320E-020
  1.150000000000000E-002   -7.902095115287701E-020
  1.160000000000000E-002   -1.003241163679335E-019
  1.170000000000000E-002   -1.161636162313589E-019
  1.180000000000000E-002   -1.242348877361678E-019
  1.190000000000000E-002   -1.225431005258774E-019
  1.200000000000000E-002   -1.096128782201109E-019
  1.210000000000000E-002   -8.468761689588658E-020
  1.220000000000000E-002   -4.790410110016700E-020
  1.230000000000000E-002   -4.275351125254994E-022
  1.240000000000000E-002    5.546825268698980E-020
  1.250000000000000E-002    1.163909246291275E-019
  1.260000000000000E-002    1.779050389205622E-019
  1.270000000000000E-002    2.347058467995383E-019
  1.280000000000000E-002    2.809008287600936E-019
  1.290000000000000E-002    3.104020746117148E-019
  1.300000000000000E-002    3.174228259977890E-019
  1.310000000000000E-002    2.970595053962304E-019
  1.320000000000000E-002    2.459253103502032E-019
  1.330000000000000E-002    1.627858318044791E-019
  1.340000000000000E-002    4.913234472731126E-020
  1.350000000000000E-002   -9.038288800152302E-020
  1.360000000000000E-002   -2.477295192077549E-019
  1.370000000000000E-002   -4.115765447428772E-019
  1.380000000000000E-002   -5.677251035500091E-019
  1.390000000000000E-002   -6.999310191072315E-019
  1.400000000000000E-002   -7.911132831265509E-019
  1.410000000000000E-002   -8.248992427776903E-019
  1.420000000000000E-002   -7.874069547909499E-019
  1.430000000000000E-002   -6.691170557650181E-019
  1.440000000000000E-002   -4.666479466205572E-019
  1.450000000000000E-002   -1.842224678402374E-019
  1.460000000000000E-002    1.653881158446922E-019
  1.470000000000000E-002    5.606351923470120E-019
  1.480000000000000E-002    9.718240478057096E-019
  1.490000000000000E-002    1.362678683125629E-018
  1.500000000000000E-002    1.692822555945917E-018
  1.510000000000000E-002    1.921057414074006E-018
  1.520000000000000E-002    2.009222407020457E-018
  1.530000000000000E-002    1.926325685555114E-018
  1.540000000000000E-002    1.652576648002173E-018
  1.550000000000000E-002    1.182912812367483E-018
  1.560000000000000E-002    5.296194506486303E-019
  1.570000000000000E-002   -2.763148976661478E-019
  1.580000000000000E-002   -1.185379095927281E-018
  1.590000000000000E-002   -2.131418815677105E-018
  1.600000000000000E-002   -3.035235876713355E-018
  1.610000000000000E-002   -3.809786300464551E-018
  1.620000000000000E-002   -4.366711299496256E-018
  1.630000000000000E-002   -4.623804604272227E-018
  1.640000000000000E-002   -4.512915038908863E-018
  1.650000000000000E-002   -3.987701413579684E-018
  1.660000000000000E-002   -3.030619709279791E-018
  1.670000000000000E-002   -1.658507840613739E-018
  1.680000000000000E-002    7.383060379567898E-020
  1.690000000000000E-002    2.072586280713521E-018
  1.700000000000000E-002    4.206880193967914E-018
  1.710000000000000E-002    6.313974055668882E-018
  1.720000000000000E-002    8.207865456307737E-018
  1.730000000000000E-002    9.691160484454214E-018
  1.740000000000000E-002    1.056984398861325E-017
  1.750000000000000E-002    1.067027468058484E-017
  1.760000000000000E-002    9.857408594762788E-018
  1.770000000000000E-002    8.052950637062396E-018
  1.780000000000000E-002    5.251844543343079E-018
  1.790000000000000E-002    1.535335081330683E-018
  1.800000000000000E-002   -2.921252748102602E-018
  1.810000000000000E-002   -7.847749602570348E-018
  1.820000000000000E-002   -1.288683838460660E-017
  1.830000000000000E-002   -1.761112830023836E-017
  1.840000000000000E-002   -2.154976144761009E-017
  1.850000000000000E-002   -2.422381944806964E-017
  1.860000000000000E-002   -2.518871931290895E-017
  1.870000000000000E-002   -2.408077987910925E-017