 -4.000000000000000E-002    0.000000000000000E+000
 -3.990000000000000E-002    0.000000000000000E+000
 -3.980000000000000E-002    0.000000000000000E+000
 -3.970000000000000E-002    4.652349899859233E-016
 -3.960000000000000E-002    3.063112707304366E-015
 -3.950000000000000E-002    1.148900596902961E-014
 -3.940000000000000E-002    3.225340879118474E-014
 -3.930000000000000E-002    7.534465040614220E-014
 -3.920000000000000E-002    1.546804160463874E-013
 -3.910000000000000E-002    2.882187840364812E-013
 -3.900000000000000E-002    4.975386837613589E-013
 -3.890000000000000E-002    8.066582708244403E-013
 -3.880000000000000E-002    1.239871838207442E-012
 -3.870000000000000E-002    1.818472326740917E-012
 -3.860000000000000E-002    2.556394243642912E-012
 -3.850000000000000E-002    3.455034919793871E-012
 -3.840000000000000E-002    4.497754811732706E-012
 -3.830000000000000E-002    5.644779719342642E-012
 -3.820000000000000E-002    6.829339585218349E-012
 -3.810000000000000E-002    7.955908623662637E-012
 -3.800000000000000E-002    8.901251786505600E-012
 -3.790000000000000E-002    9.518712627130412E-012
 -3.780000000000000E-002    9.645765616430911E-012
 -3.770000000000000E-002    9.114420544087982E-012
 -3.760000000000000E-002    7.763604345869108E-012
 -3.750000000000000E-002    5.452309416979107E-012
 -3.740000000000000E-002    2.072085671917568E-012
 -3.730000000000000E-002   -2.442516724985077E-012
 -3.720000000000000E-002   -8.106751422116028E-012
 -3.710000000000000E-002   -1.488241825367469E-011
 -3.700000000000000E-002   -2.267876320081077E-011
 -3.690000000000000E-002   -3.135698715424967E-011
 -3.680000000000000E-002   -4.073726802337646E-011
 -3.670000000000000E-002   -5.060681332138103E-011
 -3.660000000000000E-002   -6.072708678690783E-011
 -3.650000000000000E-002   -7.083865242099676E-011
 -3.640000000000000E-002   -8.066240508581097E-011
 -3.630000000000000E-002   -8.989671700780389E-011
 -3.620000000000000E-002   -9.821107506876621E-011
 -3.610000000000000E-002   -1.052376059589620E-010
 -3.600000000000000E-002   -1.105631088378880E-010
 -3.590000000000000E-002   -1.137246738730399E-010
 -3.580000000000000E-002   -1.142122259227240E-010
 -3.570000000000000E-002   -1.114811169858898E-010
 -3.560000000000000E-002   -1.049768441240193E-010
 -3.550000000000000E-002   -9.417269099590476E-011
 -3.540000000000000E-002   -7.861886775948770E-011
 -3.530000000000000E-002   -5.800004709962063E-011
 -3.520000000000000E-002   -3.219568609891370E-011
 -3.510000000000000E-002   -1.336216675073839E-012
 -3.500000000000000E-002    3.415298182238254E-011
 -3.490000000000000E-002    7.352770868895991E-011
 -3.480000000000000E-002    1.157282788084679E-010
 -3.470000000000000E-002    1.594145938892735E-010
 -3.460000000000000E-002    2.030341362535294E-010
 -3.450000000000000E-002    2.449207317231029E-010
 -3.440000000000000E-002    2.834164766509210E-010
 -3.430000000000000E-002    3.170062860952842E-010
 -3.420000000000000E-002    3.444504198912418E-010
 -3.410000000000000E-002    3.648991424029916E-010
 -3.400000000000000E-002    3.779724525993393E-010
 -3.390000000000000E-002    3.837909387389230E-010
 -3.380000000000000E-002    3.829473462827138E-010
 -3.370000000000000E-002    3.764129466783172E-010
 -3.360000000000000E-002    3.653831689063694E-010
 -3.350000000000000E-002    3.510708188260099E-010
 -3.340000000000000E-002    3.344658613693818E-010
 -3.330000000000000E-002    3.160851884766066E-010
 -3.320000000000000E-002    2.957413998549149E-010
 -3.310000000000000E-002    2.723588087868178E-010
 -3.300000000000000E-002    2.438654355241289E-010
 -3.290000000000000E-002    2.071820808152898E-010
 -3.280000000000000E-002    1.583229615849397E-010
 -3.270000000000000E-002    9.260982032037225E-011
 -3.260000000000000E-002    4.990736763815436E-012
 -3.250000000000000E-002   -1.095578761080723E-010
 -3.240000000000000E-002   -2.555772347432398E-010
 -3.230000000000000E-002   -4.366603547227044E-010
 -3.220000000000000E-002   -6.550152249126690E-010
 -3.210000000000000E-002   -9.110991014700792E-010
 -3.200000000000000E-002   -1.203358979050720E-009
 -3.190000000000000E-002   -1.528099251413630E-009
 -3.180000000000000E-002   -1.879488815833942E-009
 -3.170000000000000E-002   -2.249696933587592E-009
 -3.160000000000000E-002   -2.629137430901540E-009
 -3.150000000000000E-002   -3.006777536451721E-009
 -3.140000000000000E-002   -3.370467438964444E-009
 -3.130000000000000E-002   -3.707235388373204E-009
 -3.120000000000000E-002   -4.003497943074378E-009
 -3.110000000000000E-002   -4.245147418482650E-009
 -3.100000000000000E-002   -4.417493430270475E-009
 -3.090000000000000E-002   -4.505060907405277E-009
 -3.080000000000000E-002   -4.491274200289866E-009
 -3.070000000000000E-002   -4.358082726614937E-009
 -3.060000000000000E-002   -4.085610407133135E-009
 -3.050000000000000E-002   -3.651930059290517E-009
 -3.040000000000000E-002   -3.033072741649979E-009
 -3.030000000000000E-002   -2.203384637399368E-009
 -3.020000000000000E-002   -1.136322055725926E-009
 -3.010000000000000E-002    1.942428786663493E-010
 -3.000000000000000E-002    1.812182298414128E-009
 -2.990000000000000E-002    3.736756382465340E-009
 -2.980000000000000E-002    5.979818742402135E-009
 -2.970000000000000E-002    8.542719330926729E-009
 -2.960000000000000E-002    1.141308841052545E-008
 -2.950000000000000E-002    1.456173710208760E-008
 -2.940000000000000E-002    1.793993594738485E-008
 -2.930000000000000E-002    2.147734381832077E-008
 -2.920000000000000E-002    2.508085712199879E-008
 -2.910000000000000E-002    2.863462225708129E-008
 -2.900000000000000E-002    3.200138743219475E-008
 -2.890000000000000E-002    3.502532027181286E-008
 -2.880000000000000E-002    3.753632201658641E-008
 -2.870000000000000E-002    3.935577434143517E-008
 -2.860000000000000E-002    4.030357307817335E-008
 -2.850000000000000E-002    4.020619797179525E-008
 -2.840000000000000E-002    3.890548407210290E-008
 -2.830000000000000E-002    3.626774195640533E-008
 -2.820000000000000E-002    3.219275727968587E-008
 -2.810000000000000E-002    2.662230953817002E-008
 -2.800000000000000E-002    1.954773936170097E-008
 -2.790000000000000E-002    1.101623138114697E-008
 -2.780000000000000E-002    1.135560015724484E-009
 -2.770000000000000E-002   -9.922970801379892E-009
 -2.760000000000000E-002   -2.192339220655100E-008
 -2.750000000000000E-002   -3.456575944019904E-008
 -2.740000000000000E-002   -4.748858663888704E-008
 -2.730000000000000E-002   -6.027264428963989E-008
 -2.720000000000000E-002   -7.244603281267189E-008
 -2.710000000000000E-002   -8.348996706562197E-008
 -2.700000000000000E-002   -9.284516811743810E-008
 -2.690000000000000E-002   -9.991819645991224E-008
 -2.680000000000000E-002   -1.040878015242822E-007
 -2.670000000000000E-002   -1.047106755416958E-007
 -2.660000000000000E-002   -1.011268187119057E-007
 -2.650000000000000E-002   -9.266422089594731E-008
 -2.640000000000000E-002   -7.864310178016901E-008
 -2.630000000000000E-002   -5.837968850125543E-008
 -2.620000000000000E-002   -3.118995426504807E-008
 -2.610000000000000E-002    3.606726172099885E-009
 -2.600000000000000E-002    4.668336723303141E-008
 -2.590000000000000E-002    9.870073558744186E-008
 -2.580000000000000E-002    1.603021337933482E-007
 -2.570000000000000E-002    2.321070185625484E-007
 -2.560000000000000E-002    3.147045005264301E-007
 -2.550000000000000E-002    4.086461904700710E-007
 -2.540000000000000E-002    5.144387716504637E-007
 -2.530000000000000E-002    6.325375496671723E-007
 -2.520000000000000E-002    7.633405454411838E-007
 -2.510000000000000E-002    9.071845808974213E-007
 -2.500000000000000E-002    1.064343653440739E-006
 -2.490000000000000E-002    1.235029917215576E-006
 -2.480000000000000E-002    1.419398224121454E-006
 -2.470000000000000E-002    1.617554632544725E-006
 -2.460000000000000E-002    1.829568141513082E-006
 -2.450000000000000E-002    2.055486375761031E-006
 -2.440000000000000E-002    2.295354405460763E-006
 -2.430000000000000E-002    2.549236226836086E-006
 -2.420000000000000E-002    2.817238598586334E-006
 -2.410000000000000E-002    3.099534671145554E-006
 -2.400000000000000E-002    3.396388251565310E-006
 -2.390000000000000E-002    3.708176435267882E-006
 -2.380000000000000E-002    4.035409611887320E-006
 -2.370000000000000E-002    4.378749692585858E-006
 -2.360000000000000E-002    4.739021330304364E-006
 -2.350000000000000E-002    5.117221684043733E-006
 -2.340000000000000E-002    5.514523855783127E-006
 -2.330000000000000E-002    5.932275015588097E-006
 -2.320000000000000E-002    6.371992221268740E-006
 -2.310000000000000E-002    6.835351819919462E-006
 -2.300000000000000E-002    7.324177753629492E-006
 -2.290000000000000E-002    7.840426657194124E-006
 -2.280000000000000E-002    8.386172640411697E-006
 -2.270000000000000E-002    8.963591610433020E-006
 -2.260000000000000E-002    9.574946517876833E-006
 -2.250000000000000E-002    1.022257566497305E-005
 -2.240000000000000E-002    1.090888041663296E-005
 -2.230000000000000E-002    1.163631986966859E-005
 -2.220000000000000E-002    1.240740774778122E-005
 -2.210000000000000E-002    1.322470948576021E-005
 -2.200000000000000E-002    1.409085089138722E-005
 -2.190000000000000E-002    1.500851987247123E-005
 -2.180000000000000E-002    1.598048189522027E-005
 -2.170000000000000E-002    1.700958846072631E-005
 -2.160000000000000E-002    1.809879496023304E-005
 -2.150000000000000E-002    1.925117664482765E-005
 -2.140000000000000E-002    2.046994766930232E-005
 -2.130000000000000E-002    2.175847786329090E-005
 -2.120000000000000E-002    2.312031199619874E-005
 -2.110000000000000E-002    2.455919251479508E-005
 -2.100000000000000E-002    2.607907301193315E-005
 -2.090000000000000E-002    2.768413989332034E-005
 -2.080000000000000E-002    2.937883048886210E-005
 -2.070000000000000E-002    3.116783964249551E-005
 -2.060000000000000E-002    3.305614372979461E-005
 -2.050000000000000E-002    3.504900671014349E-005
 -2.040000000000000E-002    3.715198928287502E-005
 -2.030000000000000E-002    3.937096152393640E-005
 -2.020000000000000E-002    4.171210307110473E-005
 -2.010000000000000E-002    4.418191032402511E-005
 -2.000000000000000E-002    4.678719808974965E-005
 -1.990000000000000E-002    4.953510009790934E-005
 -1.980000000000000E-002    5.243307734216228E-005
 -1.970000000000000E-002    5.548890837380975E-005
 -1.960000000000000E-002    5.871068896100934E-005
 -1.950000000000000E-002    6.210685308873669E-005
 -1.940000000000000E-002    6.568615974720011E-005
 -1.930000000000000E-002    6.945770672960238E-005
 -1.920000000000000E-002    7.343095392837632E-005
 -1.910000000000000E-002    7.761571201450693E-005
 -1.900000000000000E-002    8.202218014897378E-005
 -1.890000000000000E-002    8.666096453141409E-005
 -1.880000000000000E-002    9.154308759187386E-005
 -1.870000000000000E-002    9.668003382001783E-005
 -1.860000000000000E-002    1.020837692721080E-004
 -1.850000000000000E-002    1.077667500230417E-004
 -1.840000000000000E-002    1.137419906319422E-004
 -1.830000000000000E-002    1.200230484735745E-004
 -1.820000000000000E-002    1.266240853010995E-004
 -1.810000000000000E-002    1.335598767232001E-004
 -1.800000000000000E-002    1.408458289319301E-004
 -1.790000000000000E-002    1.484980234396586E-004
 -1.780000000000000E-002    1.565332149808273E-004
 -1.770000000000000E-002    1.649688778781510E-004
 -1.760000000000000E-002    1.738231924337872E-004
 -1.750000000000000E-002    1.831150724174320E-004
 -1.740000000000000E-002    1.928642456338248E-004
 -1.730000000000000E-002    2.030911850247713E-004
 -1.720000000000000E-002    2.138171963314007E-004
 -1.710000000000000E-002    2.250643992645376E-004
 -1.700000000000000E-002    2.368557972845461E-004
 -1.690000000000000E-002    2.492152749660630E-004
 -1.680000000000000E-002    2.621676407453488E-004
 -1.670000000000000E-002    2.757386374309515E-004
 -1.660000000000000E-002    2.899549933377542E-004
 -1.650000000000000E-002    3.048444026052949E-004
 -1.640000000000000E-002    3.204356068605356E-004
 -1.630000000000000E-002    3.367583780502702E-004
 -1.620000000000000E-002    3.538435353078103E-004
 -1.610000000000000E-002    3.717229979611874E-004
 -1.600000000000000E-002    3.904297384534156E-004
 -1.590000000000000E-002    4.099978116348711E-004
 -1.580000000000000E-002    4.304624449992153E-004
 -1.570000000000000E-002    4.518599632284376E-004
 -1.560000000000000E-002    4.742278667656190E-004
 -1.550000000000000E-002    4.976048534147454E-004
 -1.540000000000000E-002    5.220307549794665E-004
 -1.530000000000000E-002    5.475467428045314E-004
 -1.520000000000000E-002    5.741952698968620E-004
 -1.510000000000000E-002    6.020200759492191E-004
 -1.500000000000000E-002    6.310663709119382E-004
 -1.490000000000000E-002    6.613807172322806E-004
 -1.480000000000000E-002    6.930112795246410E-004
 -1.470000000000000E-002    7.260077830512769E-004
 -1.460000000000000E-002    7.604214356950300E-004
 -1.450000000000000E-002    7.963052580832426E-004
 -1.440000000000000E-002    8.337138493266254E-004
 -1.430000000000000E-002    8.727035850776305E-004
 -1.420000000000000E-002    9.133325240350181E-004
 -1.410000000000000E-002    9.556606605285389E-004
 -1.400000000000000E-002    9.997494728277475E-004
 -1.390000000000000E-002    1.045662479414677E-003
 -1.380000000000000E-002    1.093464809073123E-003
 -1.370000000000000E-002    1.143223342576242E-003
 -1.360000000000000E-002    1.195006765410912E-003
 -1.350000000000000E-002    1.248885490581620E-003
 -1.340000000000000E-002    1.304931692975595E-003
 -1.330000000000000E-002    1.363219184188595E-003
 -1.320000000000000E-002    1.423823685602948E-003
 -1.310000000000000E-002    1.486822637702733E-003
 -1.300000000000000E-002    1.552295290269219E-003
 -1.290000000000000E-002    1.620322682300356E-003
 -1.280000000000000E-002    1.690987668573147E-003
 -1.270000000000000E-002    1.764375154464926E-003
 -1.260000000000000E-002    1.840571762431942E-003
 -1.250000000000000E-002    1.919666097595474E-003
 -1.240000000000000E-002    2.001748708533089E-003
 -1.230000000000000E-002    2.086912081206154E-003
 -1.220000000000000E-002    2.175250409244083E-003
 -1.210000000000000E-002    2.266860049964883E-003
 -1.200000000000000E-002    2.361839089866412E-003
 -1.190000000000000E-002    2.460287483571780E-003
 -1.180000000000000E-002    2.562306964941312E-003
 -1.170000000000000E-002    2.668001081688940E-003
 -1.160000000000000E-002    2.777474932535312E-003
 -1.150000000000000E-002    2.890835321197608E-003
 -1.140000000000000E-002    3.008190750910253E-003
 -1.130000000000000E-002    3.129651481716204E-003
 -1.120000000000000E-002    3.255329070951317E-003
 -1.110000000000000E-002    3.385337218850338E-003
 -1.100000000000000E-002    3.519790391898476E-003
 -1.090000000000000E-002    3.658805202133225E-003
 -1.080000000000000E-002    3.802499410261612E-003
 -1.070000000000000E-002    3.950992750014050E-003
 -1.060000000000000E-002    4.104406094222574E-003
 -1.050000000000000E-002    4.262861837604925E-003
 -1.040000000000000E-002    4.426483621254124E-003
 -1.030000000000000E-002    4.595396513128930E-003
 -1.020000000000000E-002    4.769726481272303E-003
 -1.010000000000000E-002    4.949600944768859E-003
 -1.000000000000000E-002    5.135147595642471E-003
 -9.899999999999999E-003    5.326495529866676E-003
 -9.800000000000000E-003    5.523774230035416E-003
 -9.699999999999999E-003    5.727113624657132E-003
 -9.599999999999999E-003    5.936643870867700E-003
 -9.500000000000000E-003    6.152495284257977E-003
 -9.399999999999999E-003    6.374798144504513E-003
 -9.299999999999999E-003    6.603682971096075E-003
 -9.200000000000000E-003    6.839278870317296E-003
 -9.099999999999999E-003    7.081715450368110E-003
 -8.999999999999999E-003    7.331121289902725E-003
 -8.900000000000000E-003    7.587624614185381E-003
 -8.799999999999999E-003    7.851352249447371E-003
 -8.699999999999999E-003    8.122429734158670E-003
 -8.600000000000000E-003    8.400981741355283E-003
 -8.499999999999999E-003    8.687131215085225E-003
 -8.399999999999999E-003    8.981000391801216E-003
 -8.300000000000000E-003    9.282709168512126E-003
 -8.199999999999999E-003    9.592374522200501E-003
 -8.100000000000000E-003    9.910112477452786E-003
 -8.000000000000000E-003    1.023603625934522E-002
 -7.899999999999999E-003    1.057025547142132E-002
 -7.800000000000000E-003    1.091287817584980E-002
 -7.699999999999999E-003    1.126400794095081E-002
 -7.599999999999999E-003    1.162374563298294E-002
 -7.499999999999999E-003    1.199218751872337E-002
 -7.399999999999999E-003    1.236942573339155E-002
 -7.299999999999999E-003    1.275554875469047E-002
 -7.199999999999999E-003    1.315064007765723E-002
 -7.100000000000000E-003    1.355477775600473E-002
 -6.999999999999999E-003    1.396803462975390E-002
 -6.899999999999999E-003    1.439047769181638E-002
 -6.800000000000000E-003    1.482216886111838E-002
 -6.699999999999999E-003    1.526316318939506E-002
 -6.599999999999999E-003    1.571350757163230E-002
 -6.499999999999999E-003    1.617324497332438E-002
 -6.399999999999999E-003    1.664240822964401E-002
 -6.299999999999999E-003    1.712102436805790E-002
 -6.199999999999999E-003    1.760911013990427E-002
 -6.100000000000000E-003    1.810667602130122E-002
 -5.999999999999999E-003    1.861372201019977E-002
 -5.899999999999999E-003    1.913023967346221E-002
 -5.800000000000000E-003    1.965621060736475E-002
 -5.699999999999999E-003    2.019160449851907E-002
 -5.599999999999999E-003    2.073638492163271E-002
 -5.499999999999999E-003    2.129050101643892E-002
 -5.399999999999999E-003    2.185389023046630E-002
 -5.299999999999999E-003    2.242648172571756E-002
 -5.199999999999999E-003    2.300818977936352E-002
 -5.099999999999999E-003    2.359891743116437E-002
 -4.999999999999999E-003    2.419855479206043E-002
 -4.899999999999999E-003    2.480697818014589E-002
 -4.799999999999999E-003    2.542405025412000E-002
 -4.699999999999999E-003    2.604961995956276E-002
 -4.599999999999999E-003    2.668352355343605E-002
 -4.499999999999999E-003    2.732558062781639E-002
 -4.399999999999999E-003    2.797559449302558E-002
 -4.299999999999999E-003    2.863335593596857E-002
 -4.199999999999999E-003    2.929863841954716E-002
 -4.099999999999999E-003    2.997119897997950E-002
 -3.999999999999999E-003    3.065077828281456E-002
 -3.899999999999999E-003    3.133710142345689E-002
 -3.799999999999999E-003    3.202987338940682E-002
 -3.699999999999999E-003    3.272878088268596E-002
 -3.599999999999999E-003    3.343349539523509E-002
 -3.499999999999999E-003    3.414366760354437E-002
 -3.399999999999999E-003    3.485893079564986E-002
 -3.299999999999999E-003    3.557889859900585E-002
 -3.199999999999999E-003    3.630316305147495E-002
 -3.099999999999999E-003    3.703130109769930E-002
 -2.999999999999999E-003    3.776286391813660E-002
 -2.899999999999999E-003    3.849738460010419E-002
 -2.799999999999999E-003    3.923437405879748E-002
 -2.699999999999999E-003    3.997332634498401E-002
 -2.599999999999999E-003    4.071371100073617E-002
 -2.499999999999999E-003    4.145497902052656E-002
 -2.399999999999999E-003    4.219655400292680E-002
 -2.299999999999999E-003    4.293784460295711E-002
 -2.199999999999999E-003    4.367823614969812E-002
 -2.099999999999999E-003    4.441708970935587E-002
 -1.999999999999999E-003    4.515374411939451E-002
 -1.899999999999999E-003    4.588751707784536E-002
 -1.799999999999999E-003    4.661770705880053E-002
 -1.699999999999999E-003    4.734358537881567E-002
 -1.599999999999999E-003    4.806440368050646E-002
 -1.499999999999999E-003    4.877939118763040E-002
 -1.399999999999999E-003    4.948775342420081E-002
 -1.299999999999999E-003    5.018867820151836E-002
 -1.199999999999999E-003    5.088132848206476E-002
 -1.099999999999999E-003    5.156484278989949E-002
 -9.999999999999989E-004    5.223834369473894E-002
 -8.999999999999990E-004    5.290092641463388E-002
 -7.999999999999990E-004    5.355167370657046E-002
 -6.999999999999989E-004    5.418963797282683E-002
 -5.999999999999990E-004    5.481385830886279E-002
 -4.999999999999989E-004    5.542335048392096E-002
 -3.999999999999989E-004    5.601710987507684E-002
 -2.999999999999989E-004    5.659411153571833E-002
 -1.999999999999989E-004    5.715331561344392E-002
 -9.999999999999892E-005    5.769365934953052E-002
  1.084202172485504E-018    5.821406549366756E-002
  1.000000000000011E-004    5.871343877351967E-002
  2.000000000000011E-004    5.919066530316717E-002
  3.000000000000011E-004    5.964461125830881E-002
  4.000000000000011E-004    6.007413862613902E-002
  5.000000000000011E-004    6.047808036893357E-002
  6.000000000000011E-004    6.085526560467657E-002
  7.000000000000011E-004    6.120450642156438E-002
  8.000000000000011E-004    6.152460205676920E-002
  9.000000000000012E-004    6.181434654136888E-002
  1.000000000000001E-003    6.207251154005224E-002
  1.100000000000001E-003    6.229786562506959E-002
  1.200000000000001E-003    6.248916955732441E-002
  1.300000000000001E-003    6.264517786796867E-002
  1.400000000000001E-003    6.276463070212288E-002
  1.500000000000001E-003    6.284627299571049E-002
  1.600000000000001E-003    6.288883816368068E-002
  1.700000000000001E-003    6.289105798677022E-002
  1.800000000000001E-003    6.285166806786162E-002
  1.900000000000001E-003    6.276939281633998E-002
  2.000000000000001E-003    6.264296538653003E-002
  2.100000000000001E-003    6.247111813600507E-002
  2.200000000000001E-003    6.225258909621342E-002
  2.300000000000001E-003    6.198611660655082E-002
  2.400000000000001E-003    6.167045071553581E-002
  2.500000000000001E-003    6.130434165179285E-002
  2.600000000000001E-003    6.088655816425484E-002
  2.700000000000001E-003    6.041587022135977E-002
  2.800000000000001E-003    5.989106893690081E-002
  2.900000000000001E-003    5.931095597910147E-002
  3.000000000000001E-003    5.867434535584221E-002
  3.100000000000001E-003    5.798006992124267E-002
  3.200000000000001E-003    5.722698249137512E-002
  3.300000000000001E-003    5.641395817373352E-002
  3.400000000000001E-003    5.553988733806889E-002
  3.500000000000001E-003    5.460369375479404E-002
  3.600000000000001E-003    5.360431578850116E-002
  3.700000000000001E-003    5.254073126767194E-002
  3.800000000000001E-003    5.141193311463564E-002
  3.900000000000001E-003    5.021696063189121E-002
  4.000000000000001E-003    4.895487654414035E-002
  4.100000000000001E-003    4.762477741621235E-002
  4.200000000000001E-003    4.622580026400060E-002
  4.300000000000001E-003    4.475711703884727E-002
  4.400000000000001E-003    4.321794424376881E-002
  4.500000000000001E-003    4.160753498334697E-002
  4.600000000000002E-003    3.992518962930792E-002
  4.700000000000001E-003    3.817024731224307E-002
  4.800000000000001E-003    3.634210338896081E-002
  4.900000000000002E-003    3.444019545074711E-002
  5.000000000000001E-003    3.246401233264609E-002
  5.100000000000001E-003    3.041309639026025E-002
  5.200000000000001E-003    2.828704314441925E-002
  5.300000000000002E-003    2.608550895343763E-002
  5.400000000000001E-003    2.380819672338419E-002
  5.500000000000001E-003    2.145487605163090E-002
  5.600000000000002E-003    1.902537421656455E-002
  5.700000000000001E-003    1.651958043328677E-002
  5.800000000000001E-003    1.393744797315576E-002
  5.900000000000002E-003    1.127899471331741E-002
  6.000000000000001E-003    8.544304250892141E-003
  6.100000000000001E-003    5.733527344426262E-003
  6.200000000000002E-003    2.846885187522545E-003
  6.300000000000002E-003   -1.153321307353714E-004
  6.400000000000001E-003   -3.152764045122677E-003
  6.500000000000001E-003   -6.264975144037631E-003
  6.600000000000002E-003   -9.451456996501793E-003
  6.700000000000001E-003   -1.271162901724952E-002
  6.800000000000001E-003   -1.604482970123206E-002
  6.900000000000002E-003   -1.945032386005823E-002
  7.000000000000001E-003   -2.292729825634390E-002
  7.100000000000001E-003   -2.647486302060250E-002
  7.200000000000002E-003   -3.009204532970894E-002
  7.300000000000002E-003   -3.377779637399059E-002
  7.400000000000001E-003   -3.753098384366986E-002
  7.500000000000001E-003   -4.135039697272527E-002
  7.600000000000002E-003   -4.523474527291548E-002
  7.700000000000001E-003   -4.918265269381409E-002
  7.800000000000001E-003   -5.319266679873993E-002
  7.900000000000001E-003   -5.726324867016546E-002
  8.000000000000002E-003   -6.139278437944174E-002
  8.100000000000001E-003   -6.557957451020981E-002
  8.200000000000001E-003   -6.982183641983920E-002
  8.300000000000002E-003   -7.411770442416184E-002
  8.400000000000001E-003   -7.846523569384281E-002
  8.500000000000002E-003   -8.286241434305269E-002
  8.600000000000002E-003   -8.730712997591829E-002
  8.700000000000001E-003   -9.179720882128573E-002
  8.800000000000002E-003   -9.633038702890523E-002
  8.900000000000002E-003   -0.100904329235071     
  9.000000000000001E-003   -0.105516621369451     
  9.100000000000002E-003   -0.110164770931484     
  9.200000000000002E-003   -0.114846217778314     
  9.300000000000001E-003   -0.119558321237881     
  9.400000000000002E-003   -0.124298376678156     
  9.500000000000001E-003   -0.129063610317909     
  9.600000000000001E-003   -0.133851176134991     
  9.700000000000002E-003   -0.138658151731504     
  9.800000000000001E-003   -0.143481559133123     
  9.900000000000001E-003   -0.148318363586212     
  1.000000000000000E-002   -0.153165457819992     
  1.010000000000000E-002   -0.158019679429181     
  1.020000000000000E-002   -0.162877819835712     
  1.030000000000000E-002   -0.167736590058942     
  1.040000000000000E-002   -0.172592669058747     
  1.050000000000000E-002   -0.177442680805547     
  1.060000000000000E-002   -0.182283193845022     
  1.070000000000000E-002   -0.187110752026178     
  1.080000000000000E-002   -0.191921839970028     
  1.090000000000000E-002   -0.196712916707965     
  1.100000000000000E-002   -0.201480385429512     
  1.110000000000000E-002   -0.206220620324684     
  1.120000000000000E-002   -0.210929982884086     
  1.130000000000000E-002   -0.215604791800391     
  1.140000000000000E-002   -0.220241343511052     
  1.150000000000000E-002   -0.224835908758153     
  1.160000000000000E-002   -0.229384762264599     
  1.170000000000000E-002   -0.233884139860940     
  1.180000000000000E-002   -0.238330286450825     
  1.190000000000000E-002   -0.242719416879849     
  1.200000000000000E-002   -0.247047776622780     
  1.210000000000000E-002   -0.251311583599269     
  1.220000000000000E-002   -0.255507069571454     
  1.230000000000000E-002   -0.259630466218862     
  1.240000000000000E-002   -0.263678028535975     
  1.250000000000000E-002   -0.267646014954587     
  1.260000000000000E-002   -0.271530709137499     
  1.270000000000000E-002   -0.275328416791940     
  1.280000000000000E-002   -0.279035460976035     
  1.290000000000000E-002   -0.282648203971083     
  1.300000000000000E-002   -0.286163043299828     
  1.310000000000000E-002   -0.289576419322830     
  1.320000000000000E-002   -0.292884780864512     
  1.330000000000000E-002   -0.296084665900633     
  1.340000000000000E-002   -0.299172621521271     
  1.350000000000000E-002   -0.302145285045958     
  1.360000000000000E-002   -0.304999348893594     
  1.370000000000000E-002   -0.307731523946458     
  1.380000000000000E-002   -0.310338611854402     
  1.390000000000000E-002   -0.312817482247010     
  1.400000000000000E-002   -0.315165079247536     
  1.410000000000000E-002   -0.317378415812946     
  1.420000000000000E-002   -0.319454584474072     
  1.430000000000000E-002   -0.321390762995895     
  1.440000000000000E-002   -0.323184213188721     
  1.450000000000000E-002   -0.324832285909366     
  1.460000000000000E-002   -0.326332439490812     
  1.470000000000000E-002   -0.327682196730811     
  1.480000000000000E-002   -0.328879189248058     
  1.490000000000000E-002   -0.329921156455938     
  1.500000000000000E-002   -0.330805969456107     
  1.510000000000000E-002   -0.331531548125168     
  1.520000000000000E-002   -0.332095956283859     
  1.530000000000000E-002   -0.332497382434406     
  1.540000000000000E-002   -0.332734115602276     
  1.550000000000000E-002   -0.332804532184457     
  1.560000000000000E-002   -0.332707184708254     
  1.570000000000000E-002   -0.332440725764303     
  1.580000000000000E-002   -0.332003899844746     
  1.590000000000000E-002   -0.331395617049886     
  1.600000000000000E-002   -0.330614919728611     
  1.610000000000000E-002   -0.329660962652863     
  1.620000000000000E-002   -0.328533017439919     
  1.630000000000000E-002   -0.327230516749329     
  1.640000000000000E-002   -0.325753029557184     
  1.650000000000000E-002   -0.324100232046152     
  1.660000000000000E-002   -0.322271970692255     
  1.670000000000000E-002   -0.320268207272250     
  1.680000000000000E-002   -0.318089051202127     
  1.690000000000000E-002   -0.315734721328753     
  1.700000000000000E-002   -0.313205631108787     
  1.710000000000000E-002   -0.310502318593848     
  1.720000000000000E-002   -0.307625418843174     
  1.730000000000000E-002   -0.304575750225343     
  1.740000000000000E-002   -0.301354272628387     
  1.750000000000000E-002   -0.297962072097672     
  1.760000000000000E-002   -0.294400353945208     
  1.770000000000000E-002   -0.290670486528146     
  1.780000000000000E-002   -0.286773990455985     
  1.790000000000000E-002   -0.282712508040387     
  1.800000000000000E-002   -0.278487821534614     
  1.810000000000000E-002   -0.274101822985425     
  1.820000000000000E-002   -0.269556560954152     
  1.830000000000000E-002   -0.264854233549945     
  1.840000000000000E-002   -0.259997144574777     
  1.850000000000000E-002   -0.254987722271165     
  1.860000000000000E-002   -0.249828542952167     
  1.870000000000000E-002   -0.244522303911761     