 -4.000000000000000E-002    0.000000000000000E+000
 -3.990000000000000E-002    0.000000000000000E+000
 -3.980000000000000E-002    0.000000000000000E+000
 -3.970000000000000E-002    0.000000000000000E+000
 -3.960000000000000E-002    0.000000000000000E+000
 -3.950000000000000E-002    0.000000000000000E+000
 -3.940000000000000E-002    0.000000000000000E+000
 -3.930000000000000E-002    0.000000000000000E+000
 -3.920000000000000E-002    0.000000000000000E+000
 -3.910000000000000E-002    0.000000000000000E+000
 -3.900000000000000E-002    0.000000000000000E+000
 -3.890000000000000E-002    0.000000000000000E+000
 -3.880000000000000E-002    4.015233202970656E-039
 -3.870000000000000E-002    8.603794839603500E-038
 -3.860000000000000E-002    9.483374177838057E-037
 -3.850000000000000E-002    7.149750555353628E-036
 -3.840000000000000E-002    4.135702535959355E-035
 -3.830000000000000E-002    1.951297705507603E-034
 -3.820000000000000E-002    7.791673244523983E-034
 -3.810000000000000E-002    2.694980058347604E-033
 -3.800000000000000E-002    8.187705185071668E-033
 -3.790000000000000E-002    2.198209745301971E-032
 -3.780000000000000E-002    5.197931963844567E-032
 -3.770000000000000E-002    1.061770316027973E-031
 -3.760000000000000E-002    1.763925990153345E-031
 -3.750000000000000E-002    1.868056655284536E-031
 -3.740000000000000E-002   -1.373853268043226E-031
 -3.730000000000000E-002   -1.561938162635272E-030
 -3.720000000000000E-002   -5.925901256123633E-030
 -3.710000000000000E-002   -1.719664812008244E-029
 -3.700000000000000E-002   -4.320986276493304E-029
 -3.690000000000000E-002   -9.826088626570601E-029
 -3.680000000000000E-002   -2.065037059980206E-028
 -3.670000000000000E-002   -4.056138295811559E-028
 -3.660000000000000E-002   -7.492304759876301E-028
 -3.650000000000000E-002   -1.305178150544912E-027
 -3.640000000000000E-002   -2.144328548366138E-027
 -3.630000000000000E-002   -3.312364830532495E-027
 -3.620000000000000E-002   -4.774170273738578E-027
 -3.610000000000000E-002   -6.319131624188270E-027
 -3.600000000000000E-002   -7.417019118973268E-027
 -3.590000000000000E-002   -7.020684791785550E-027
 -3.580000000000000E-002   -3.326407678429790E-027
 -3.570000000000000E-002    6.471858265311923E-027
 -3.560000000000000E-002    2.636004471544541E-026
 -3.550000000000000E-002    6.148910202088160E-026
 -3.540000000000000E-002    1.177862682800756E-025
 -3.530000000000000E-002    2.009575440014402E-025
 -3.520000000000000E-002    3.146146065540877E-025
 -3.510000000000000E-002    4.572756012485253E-025
 -3.500000000000000E-002    6.180853282319826E-025
 -3.490000000000000E-002    7.713113425218835E-025
 -3.480000000000000E-002    8.700267010144513E-025
 -3.470000000000000E-002    8.399007265070189E-025
 -3.460000000000000E-002    5.746687189972575E-025
 -3.450000000000000E-002   -6.442123067071839E-026
 -3.440000000000000E-002   -1.242201553864765E-024
 -3.430000000000000E-002   -3.132770018500870E-024
 -3.420000000000000E-002   -5.888812411708734E-024
 -3.410000000000000E-002   -9.594338874835889E-024
 -3.400000000000000E-002   -1.419983578561868E-023
 -3.390000000000000E-002   -1.944177394661166E-023
 -3.380000000000000E-002   -2.475263164558325E-023
 -3.370000000000000E-002   -2.917289872795544E-023
 -3.360000000000000E-002   -3.128255796244585E-023
 -3.350000000000000E-002   -2.917537052057340E-023
 -3.340000000000000E-002   -2.050392782442710E-023
 -3.330000000000000E-002   -2.625294111353205E-024
 -3.320000000000000E-002    2.712519387426657E-023
 -3.310000000000000E-002    7.101247880344092E-023
 -3.300000000000000E-002    1.303278573353330E-022
 -3.290000000000000E-002    2.046795611062555E-022
 -3.280000000000000E-002    2.911927971729495E-022
 -3.270000000000000E-002    3.836967176377102E-022
 -3.260000000000000E-002    4.720089072858728E-022
 -3.250000000000000E-002    5.414576998265865E-022
 -3.240000000000000E-002    5.728037693661548E-022
 -3.230000000000000E-002    5.427279162747058E-022
 -3.220000000000000E-002    4.250405162600757E-022
 -3.210000000000000E-002    1.927313121865888E-022
 -3.200000000000000E-002   -1.790795341997525E-022
 -3.190000000000000E-002   -7.093086955402870E-022
 -3.180000000000000E-002   -1.406311951651469E-021
 -3.170000000000000E-002   -2.262745410092144E-021
 -3.160000000000000E-002   -3.250217788625264E-021
 -3.150000000000000E-002   -4.314170364960546E-021
 -3.140000000000000E-002   -5.369512125132217E-021
 -3.130000000000000E-002   -6.297618741754060E-021
 -3.120000000000000E-002   -6.945370082289552E-021
 -3.110000000000000E-002   -7.126963354274821E-021
 -3.100000000000000E-002   -6.629295967998686E-021
 -3.090000000000000E-002   -5.221764019046137E-021
 -3.080000000000000E-002   -2.671353999656337E-021
 -3.070000000000000E-002    1.236106546738607E-021
 -3.060000000000000E-002    6.667787628867531E-021
 -3.050000000000000E-002    1.370833473237648E-020
 -3.040000000000000E-002    2.231708672927822E-020
 -3.030000000000000E-002    3.227906514329060E-020
 -3.020000000000000E-002    4.315214528054449E-020
 -3.010000000000000E-002    5.421466730303153E-020
 -3.000000000000000E-002    6.442002755060381E-020
 -2.990000000000000E-002    7.236734526087193E-020
 -2.980000000000000E-002    7.629980406408157E-020
 -2.970000000000000E-002    7.414424787637147E-020
 -2.960000000000000E-002    6.360649549500962E-020
 -2.950000000000000E-002    4.233586672218343E-020
 -2.940000000000000E-002    8.168989748557350E-021
 -2.930000000000000E-002   -4.054372516370448E-020
 -2.920000000000000E-002   -1.045355494293031E-019
 -2.910000000000000E-002   -1.831648172999341E-019
 -2.900000000000000E-002   -2.739363080494937E-019
 -2.890000000000000E-002   -3.720558436658568E-019
 -2.880000000000000E-002   -4.700879667119085E-019
 -2.870000000000000E-002   -5.577990599063954E-019
 -2.860000000000000E-002   -6.222746174000648E-019
 -2.850000000000000E-002   -6.483951737151386E-019
 -2.840000000000000E-002   -6.197384177824245E-019
 -2.830000000000000E-002   -5.199436428623905E-019
 -2.820000000000000E-002   -3.345276689653006E-019
 -2.810000000000000E-002   -5.308152676265512E-020
 -2.800000000000000E-002    3.282919282728452E-019
 -2.790000000000000E-002    8.045106078659342E-019
 -2.780000000000000E-002    1.359292349514233E-018
 -2.770000000000000E-002    1.963504576433833E-018
 -2.760000000000000E-002    2.574428353997261E-018
 -2.750000000000000E-002    3.136264635706038E-018
 -2.740000000000000E-002    3.582146241156190E-018
 -2.730000000000000E-002    3.837813508738638E-018
 -2.720000000000000E-002    3.826955134261602E-018
 -2.710000000000000E-002    3.478032834525485E-018
 -2.700000000000000E-002    2.732200946140668E-018
 -2.690000000000000E-002    1.551735727652051E-018
 -2.680000000000000E-002   -7.178219565735674E-020
 -2.670000000000000E-002   -2.110394463346113E-018
 -2.660000000000000E-002   -4.494696352273403E-018
 -2.650000000000000E-002   -7.111594152698901E-018
 -2.640000000000000E-002   -9.805535682185811E-018
 -2.630000000000000E-002   -1.238358640146059E-017
 -2.620000000000000E-002   -1.462437586143017E-017
 -2.610000000000000E-002   -1.629054496232242E-017
 -2.600000000000000E-002   -1.714394511203580E-017
 -2.590000000000000E-002   -1.696251826853119E-017
 -2.580000000000000E-002   -1.555757135850301E-017
 -2.570000000000000E-002   -1.279010449499638E-017
 -2.560000000000000E-002   -8.584965352572572E-018
 -2.550000000000000E-002   -2.941875812104586E-018
 -2.540000000000000E-002    4.057168813012155E-018
 -2.530000000000000E-002    1.224416292615287E-017
 -2.520000000000000E-002    2.136453278683786E-017
 -2.510000000000000E-002    3.107890581518744E-017
 -2.500000000000000E-002    4.096618166347258E-017
 -2.490000000000000E-002    5.052699884807346E-017
 -2.480000000000000E-002    5.918714475237195E-017
 -2.470000000000000E-002    6.630122890081110E-017
 -2.460000000000000E-002    7.115797279868683E-017
 -2.450000000000000E-002    7.298958262176571E-017
 -2.440000000000000E-002    7.098871237588829E-017
 -2.430000000000000E-002    6.433716940388931E-017
 -2.420000000000000E-002    5.225063277383161E-017
 -2.410000000000000E-002    3.404286736225571E-017
 -2.400000000000000E-002    9.211211356534374E-018
 -2.390000000000000E-002   -2.245761848010493E-017
 -2.380000000000000E-002   -6.076596781430916E-017
 -2.370000000000000E-002   -1.049767552996963E-016
 -2.360000000000000E-002   -1.536911515797366E-016
 -2.350000000000000E-002   -2.047494064734422E-016
 -2.340000000000000E-002   -2.551746958267681E-016
 -2.330000000000000E-002   -3.011804985805359E-016
 -2.320000000000000E-002   -3.382606802497929E-016
 -2.310000000000000E-002   -3.613770597079825E-016
 -2.300000000000000E-002   -3.652517870447000E-016
 -2.290000000000000E-002   -3.447619721054713E-016
 -2.280000000000000E-002   -2.954219872741516E-016
 -2.270000000000000E-002   -2.139256457832153E-016
 -2.260000000000000E-002   -9.870799010584033E-017
 -2.250000000000000E-002    4.952431000043855E-017
 -2.240000000000000E-002    2.273517281478783E-016
 -2.230000000000000E-002    4.283499981047287E-016
 -2.220000000000000E-002    6.430030563978165E-016
 -2.210000000000000E-002    8.588656819516960E-016
 -2.200000000000000E-002    1.061002755993142E-015
 -2.190000000000000E-002    1.232710298283406E-015
 -2.180000000000000E-002    1.356495604158940E-015
 -2.170000000000000E-002    1.415267416995100E-015
 -2.160000000000000E-002    1.393660518485624E-015
 -2.150000000000000E-002    1.279398600926889E-015
 -2.140000000000000E-002    1.064585879982257E-015
 -2.130000000000000E-002    7.468153965449798E-016
 -2.120000000000000E-002    3.299890781929308E-016
 -2.110000000000000E-002   -1.752361521863403E-016
 -2.100000000000000E-002   -7.514313054630332E-016
 -2.090000000000000E-002   -1.374828866535520E-015
 -2.080000000000000E-002   -2.016186993640583E-015
 -2.070000000000000E-002   -2.642027173133757E-015
 -2.060000000000000E-002   -3.216156739352069E-015
 -2.050000000000000E-002   -3.701364639649431E-015
 -2.040000000000000E-002   -4.061173240102771E-015
 -2.030000000000000E-002   -4.261533360600261E-015
 -2.020000000000000E-002   -4.272374415492763E-015
 -2.010000000000000E-002   -4.068953567661346E-015
 -2.000000000000000E-002   -3.632990618432178E-015
 -1.990000000000000E-002   -2.953614888033854E-015
 -1.980000000000000E-002   -2.028189508413212E-015
 -1.970000000000000E-002   -8.630938968226206E-016
 -1.960000000000000E-002    5.254451572443964E-016
 -1.950000000000000E-002    2.110417163201152E-015
 -1.940000000000000E-002    3.852966184915922E-015
 -1.930000000000000E-002    5.701261298317861E-015
 -1.920000000000000E-002    7.589437561465261E-015
 -1.910000000000000E-002    9.436835841489337E-015
 -1.900000000000000E-002    1.114784525402802E-014
 -1.890000000000000E-002    1.261271461401659E-014
 -1.880000000000000E-002    1.370970797547884E-014
 -1.870000000000000E-002    1.430895153192423E-014
 -1.860000000000000E-002    1.427822963607976E-014
 -1.850000000000000E-002    1.349082380673790E-014
 -1.840000000000000E-002    1.183530079672573E-014
 -1.830000000000000E-002    9.226907402634304E-015
 -1.820000000000000E-002    5.619950982743376E-015
 -1.810000000000000E-002    1.020306500531631E-015
 -1.800000000000000E-002   -4.503033585271637E-015
 -1.790000000000000E-002   -1.080861340911087E-014
 -1.780000000000000E-002   -1.767664477091238E-014
 -1.770000000000000E-002   -2.480786296033321E-014
 -1.760000000000000E-002   -3.182812232289506E-014
 -1.750000000000000E-002   -3.829944991750793E-014
 -1.740000000000000E-002   -4.373782674246163E-014
 -1.730000000000000E-002   -4.763743913024254E-014
 -1.720000000000000E-002   -4.950057243848880E-014
 -1.710000000000000E-002   -4.887172488552310E-014
 -1.700000000000000E-002   -4.537403900698390E-014
 -1.690000000000000E-002   -3.874567296641247E-014
 -1.680000000000000E-002   -2.887352366335595E-014
 -1.670000000000000E-002   -1.582161046214583E-014
 -1.660000000000000E-002    1.484051133067184E-016
 -1.650000000000000E-002    1.856681137278609E-014
 -1.640000000000000E-002    3.875714842521481E-014
 -1.630000000000000E-002    5.985024872087797E-014
 -1.620000000000000E-002    8.081113629708626E-014
 -1.610000000000000E-002    1.004781789190463E-013
 -1.600000000000000E-002    1.176130161170128E-013
 -1.590000000000000E-002    1.309591299673390E-013
 -1.580000000000000E-002    1.393063355635350E-013
 -1.570000000000000E-002    1.415581785764235E-013
 -1.560000000000000E-002    1.367989863574586E-013
 -1.550000000000000E-002    1.243574753390333E-013
 -1.540000000000000E-002    1.038639610343070E-013
 -1.530000000000000E-002    7.529860739680930E-014
 -1.520000000000000E-002    3.902852927202419E-014
 -1.510000000000000E-002   -4.167904475798777E-015
 -1.500000000000000E-002   -5.309100153130154E-014
 -1.490000000000000E-002   -1.061249526887862E-013
 -1.480000000000000E-002   -1.612591708929270E-013
 -1.470000000000000E-002   -2.161266610888693E-013
 -1.460000000000000E-002   -2.680601899595056E-013
 -1.450000000000000E-002   -3.141668782321307E-013
 -1.440000000000000E-002   -3.514221111427348E-013
 -1.430000000000000E-002   -3.767827703384315E-013
 -1.420000000000000E-002   -3.873196082240109E-013
 -1.410000000000000E-002   -3.803673190723291E-013
 -1.400000000000000E-002   -3.536895701900328E-013
 -1.390000000000000E-002   -3.056546807084756E-013
 -1.380000000000000E-002   -2.354150458237178E-013
 -1.370000000000000E-002   -1.430817831652101E-013
 -1.360000000000000E-002   -2.988362716009722E-014
 -1.350000000000000E-002    1.017029316046594E-013
 -1.340000000000000E-002    2.478661604400731E-013
 -1.330000000000000E-002    4.034290584191043E-013
 -1.320000000000000E-002    5.618908087549826E-013
 -1.310000000000000E-002    7.155515184737030E-013
 -1.300000000000000E-002    8.557292031663137E-013
 -1.290000000000000E-002    9.730731552110830E-013
 -1.280000000000000E-002    1.057971575608779E-012
 -1.270000000000000E-002    1.101045076650885E-012
 -1.260000000000000E-002    1.093709320175542E-012
 -1.250000000000000E-002    1.028783779999595E-012
 -1.240000000000000E-002    9.011148621359451E-013
 -1.230000000000000E-002    7.081776484304587E-013
 -1.220000000000000E-002    4.506147733531884E-013
 -1.210000000000000E-002    1.326707677784863E-013
 -1.200000000000000E-002   -2.375212940463481E-013
 -1.190000000000000E-002   -6.478381858535462E-013
 -1.180000000000000E-002   -1.082280351891604E-012
 -1.170000000000000E-002   -1.521324497814394E-012
 -1.160000000000000E-002   -1.942523219797822E-012
 -1.150000000000000E-002   -2.321347884033569E-012
 -1.140000000000000E-002   -2.632254581250086E-012
 -1.130000000000000E-002   -2.849939342370164E-012
 -1.120000000000000E-002   -2.950732474941609E-012
 -1.110000000000000E-002   -2.914069713737672E-012
 -1.100000000000000E-002   -2.723967271599752E-012
 -1.090000000000000E-002   -2.370421720432835E-012
 -1.080000000000000E-002   -1.850650950351423E-012
 -1.070000000000000E-002   -1.170093643784660E-012
 -1.060000000000000E-002   -3.430930038234316E-013
 -1.050000000000000E-002    6.068050463686287E-013
 -1.040000000000000E-002    1.646988395825961E-012
 -1.030000000000000E-002    2.736388880506865E-012
 -1.020000000000000E-002    3.826579853875654E-012
 -1.010000000000000E-002    4.863354376117883E-012
 -1.000000000000000E-002    5.788755584881214E-012
 -9.899999999999999E-003    6.543507001256689E-012
 -9.800000000000000E-003    7.069764633187104E-012
 -9.699999999999999E-003    7.314099158596345E-012
 -9.599999999999999E-003    7.230587769245771E-012
 -9.500000000000000E-003    6.783890649710470E-012
 -9.399999999999999E-003    5.952162913517874E-012
 -9.299999999999999E-003    4.729657370350820E-012
 -9.200000000000000E-003    3.128861379170221E-012
 -9.099999999999999E-003    1.182021614947396E-012
 -8.999999999999999E-003   -1.058089437453781E-012
 -8.900000000000000E-003   -3.518281033135087E-012
 -8.799999999999999E-003   -6.106035856975943E-012
 -8.699999999999999E-003   -8.711646934654779E-012
 -8.600000000000000E-003   -1.121143593763476E-011
 -8.499999999999999E-003   -1.347203273158751E-011
 -8.399999999999999E-003   -1.535565373739684E-011
 -8.300000000000000E-003   -1.672624862956816E-011
 -8.199999999999999E-003   -1.745633475817366E-011
 -8.100000000000000E-003   -1.743426407996176E-011
 -8.000000000000000E-003   -1.657163245827339E-011
 -7.899999999999999E-003   -1.481046173352445E-011
 -7.800000000000000E-003   -1.212977348911987E-011
 -7.699999999999999E-003   -8.551127499230882E-012
 -7.599999999999999E-003   -4.142707181924246E-012
 -7.499999999999999E-003    9.784473709478902E-013
 -7.399999999999999E-003    6.646424518666815E-012
 -7.299999999999999E-003    1.264891854844008E-011
 -7.199999999999999E-003    1.873240070173899E-011
 -7.100000000000000E-003    2.461002622916111E-011
 -6.999999999999999E-003    2.997221713712907E-011
 -6.899999999999999E-003    3.449966787342644E-011
 -6.800000000000000E-003    3.787836129633776E-011
 -6.699999999999999E-003    3.981605388942243E-011
 -6.599999999999999E-003    4.005948914454282E-011
 -6.499999999999999E-003    3.841151189724029E-011
 -6.399999999999999E-003    3.474717430019940E-011
 -6.299999999999999E-003    2.902781623997306E-011
 -6.199999999999999E-003    2.131222174732610E-011
 -6.100000000000000E-003    1.176387712596044E-011
 -5.999999999999999E-003    6.536164472472077E-013
 -5.899999999999999E-003   -1.164300381487074E-011
 -5.800000000000000E-003   -2.465393731692646E-011
 -5.699999999999999E-003   -3.782463049718280E-011
 -5.599999999999999E-003   -5.053755709208096E-011
 -5.499999999999999E-003   -6.213679067312662E-011
 -5.399999999999999E-003   -7.195684025815401E-011
 -5.299999999999999E-003   -7.935462256908675E-011
 -5.199999999999999E-003   -8.374325621707486E-011
 -5.099999999999999E-003   -8.462604954559742E-011
 -4.999999999999999E-003   -8.162909838085690E-011
 -4.899999999999999E-003   -7.453065736041435E-011
 -4.799999999999999E-003   -6.328558970514728E-011
 -4.699999999999999E-003   -4.804330301095713E-011
 -4.599999999999999E-003   -2.915770316163408E-011
 -4.499999999999999E-003   -7.188090077549724E-012
 -4.399999999999999E-003    1.710983558886203E-011
 -4.299999999999999E-003    4.280319250800437E-011
 -4.199999999999999E-003    6.881128048771795E-011
 -4.099999999999999E-003    9.394451638540454E-011
 -3.999999999999999E-003    1.169518331296785E-010
 -3.899999999999999E-003    1.365750166921927E-010
 -3.799999999999999E-003    1.516079726412023E-010
 -3.699999999999999E-003    1.609584714677613E-010
 -3.599999999999999E-003    1.637097001826494E-010
 -3.499999999999999E-003    1.591786823316192E-010
 -3.399999999999999E-003    1.469684878078023E-010
 -3.299999999999999E-003    1.270112451337010E-010
 -3.199999999999999E-003    9.959911606465950E-011
 -3.099999999999999E-003    6.540065290541249E-011
 -2.999999999999999E-003    2.546056712696590E-011
 -2.899999999999999E-003   -1.881869481619962E-011
 -2.799999999999999E-003   -6.571413398673313E-011
 -2.699999999999999E-003   -1.132381571138547E-010
 -2.599999999999999E-003   -1.592121902673937E-010
 -2.499999999999999E-003   -2.013558994904062E-010
 -2.399999999999999E-003   -2.373891688548216E-010
 -2.299999999999999E-003   -2.651427746712425E-010
 -2.199999999999999E-003   -2.826732328287781E-010
 -2.099999999999999E-003   -2.883761861914560E-010
 -1.999999999999999E-003   -2.810928821345958E-010
 -1.899999999999999E-003   -2.602035377907194E-010
 -1.799999999999999E-003   -2.257016310778568E-010
 -1.699999999999999E-003   -1.782439196348835E-010
 -1.599999999999999E-003   -1.191713475546081E-010
 -1.499999999999999E-003   -5.049731086694776E-011
 -1.399999999999999E-003    2.513910054234847E-011
 -1.299999999999999E-003    1.045552305324682E-010
 -1.199999999999999E-003    1.841414122299965E-010
 -1.099999999999999E-003    2.600086312028160E-010
 -9.999999999999989E-004    3.281624958549631E-010
 -8.999999999999990E-004    3.846965123507729E-010
 -7.999999999999990E-004    4.259965950686271E-010
 -6.999999999999989E-004    4.489467086559003E-010
 -5.999999999999990E-004    4.511256794471676E-010
 -4.999999999999989E-004    4.309838098639777E-010
 -3.999999999999989E-004    3.879890911340196E-010
 -2.999999999999989E-004    3.227326938740748E-010
 -1.999999999999989E-004    2.369854345976750E-010
 -9.999999999999892E-005    1.336984864099110E-010
  1.084202172485504E-018    1.694395876121536E-011
  1.000000000000011E-004   -1.082061935709329E-010
  2.000000000000011E-004   -2.358612682979646E-010
  3.000000000000011E-004   -3.595488394626172E-010
  4.000000000000011E-004   -4.724991544973335E-010
  5.000000000000011E-004   -5.679671809563408E-010
  6.000000000000011E-004   -6.395783497799199E-010
  7.000000000000011E-004   -6.816828821785706E-010
  8.000000000000011E-004   -6.897023815200410E-010
  9.000000000000012E-004   -6.604502521537383E-010
  1.000000000000001E-003   -5.924092313068776E-010
  1.100000000000001E-003   -4.859492181227369E-010
  1.200000000000001E-003   -3.434702347750727E-010
  1.300000000000001E-003   -1.694581658287885E-010
  1.400000000000001E-003    2.955561645624827E-011
  1.500000000000001E-003    2.451367838046096E-010
  1.600000000000001E-003    4.671935563017099E-010
  1.700000000000001E-003    6.843220100811189E-010
  1.800000000000001E-003    8.842433013094603E-010
  1.900000000000001E-003    1.054319563824140E-009
  2.000000000000001E-003    1.182132124941141E-009
  2.100000000000001E-003    1.256101004401875E-009
  2.200000000000001E-003    1.266120468936428E-009
  2.300000000000001E-003    1.204184856297421E-009
  2.400000000000001E-003    1.064975732811066E-009
  2.500000000000001E-003    8.463815923209741E-010
  2.600000000000001E-003    5.499211275035616E-010
  2.700000000000001E-003    1.810445339561629E-010
  2.800000000000001E-003   -2.507111022219412E-010
  2.900000000000001E-003   -7.317318119975556E-010
  3.000000000000001E-003   -1.244514995115934E-009
  3.100000000000001E-003   -1.768044611428698E-009
  3.200000000000001E-003   -2.278352186062790E-009
  3.300000000000001E-003   -2.749256769083587E-009
  3.400000000000001E-003   -3.153269236668738E-009
  3.500000000000001E-003   -3.462635362873029E-009
  3.600000000000001E-003   -3.650489693033093E-009
  3.700000000000001E-003   -3.692079868111898E-009
  3.800000000000001E-003   -3.566019019229395E-009
  3.900000000000001E-003   -3.255519604239856E-009
  4.000000000000001E-003   -2.749556060945161E-009
  4.100000000000001E-003   -2.043907605778576E-009
  4.200000000000001E-003   -1.142029563845708E-009
  4.300000000000001E-003   -5.570821718017257E-011
  4.400000000000001E-003    1.194543320576612E-009
  4.500000000000001E-003    2.579379819923596E-009
  4.600000000000002E-003    4.060837392869643E-009
  4.700000000000001E-003    5.592877337013312E-009
  4.800000000000001E-003    7.122266538247571E-009
  4.900000000000002E-003    8.589788524269008E-009
  5.000000000000001E-003    9.931763011149099E-009
  5.100000000000001E-003    1.108184784065691E-008
  5.200000000000001E-003    1.197308422731494E-008
  5.300000000000002E-003    1.254013708057264E-008
  5.400000000000001E-003    1.272167624387956E-008
  5.500000000000001E-003    1.246284134452503E-008
  5.600000000000002E-003    1.171772432295009E-008
  5.700000000000001E-003    1.045181065454468E-008
  5.800000000000001E-003    8.644315908938288E-009
  5.900000000000002E-003    6.290352326839019E-009
  6.000000000000001E-003    3.402878699888515E-009
  6.100000000000001E-003    1.437504925490241E-011
  6.200000000000002E-003   -3.821797034596408E-009
  6.300000000000002E-003   -8.030385981244426E-009
  6.400000000000001E-003   -1.251362158163786E-008
  6.500000000000001E-003   -1.715098515586561E-008
  6.600000000000002E-003   -2.179939220937740E-008
  6.700000000000001E-003   -2.629378735973954E-008
  6.800000000000001E-003   -3.044813944137412E-008
  6.900000000000002E-003   -3.405683810476640E-008
  7.000000000000001E-003   -3.689644483799105E-008
  7.100000000000001E-003   -3.872777570228419E-008
  7.200000000000002E-003   -3.929829435690660E-008
  7.300000000000002E-003   -3.834472852552340E-008
  7.400000000000001E-003   -3.559589699565215E-008
  7.500000000000001E-003   -3.077565170424797E-008
  7.600000000000002E-003   -2.360590031328945E-008
  7.700000000000001E-003   -1.380961452397485E-008
  7.800000000000001E-003   -1.113788579703564E-009
  7.900000000000001E-003    1.474778160182471E-008
  8.000000000000002E-003    3.403187351345693E-008
  8.100000000000001E-003    5.698354478943143E-008
  8.200000000000001E-003    8.383416455929292E-008
  8.300000000000002E-003    1.147997976884813E-007
  8.400000000000001E-003    1.500800749283386E-007
  8.500000000000002E-003    1.898575245653701E-007
  8.600000000000002E-003    2.342974656619787E-007
  8.700000000000001E-003    2.835482980730788E-007
  8.800000000000002E-003    3.377424506655293E-007
  8.900000000000002E-003    3.969978476019751E-007
  9.000000000000001E-003    4.614197022248354E-007
  9.100000000000002E-003    5.311031781414142E-007
  9.200000000000002E-003    6.061360544346105E-007
  9.300000000000001E-003    6.866021983837530E-007
  9.400000000000002E-003    7.725850597252475E-007
  9.500000000000001E-003    8.641717195271772E-007
  9.600000000000001E-003    9.614570931111986E-007
  9.700000000000002E-003    1.064548160521380E-006
  9.800000000000001E-003    1.173568599622471E-006
  9.900000000000001E-003    1.288663267815923E-006
  1.000000000000000E-002    1.410002403613732E-006
  1.010000000000000E-002    1.537786426617399E-006
  1.020000000000000E-002    1.672249745294109E-006
  1.030000000000000E-002    1.813664628151017E-006
  1.040000000000000E-002    1.962345372688555E-006
  1.050000000000000E-002    2.118651245748214E-006
  1.060000000000000E-002    2.282989395467032E-006
  1.070000000000000E-002    2.455817534659728E-006
  1.080000000000000E-002    2.637645727401490E-006
  1.090000000000000E-002    2.829038862549999E-006
  1.100000000000000E-002    3.030617409132019E-006
  1.110000000000000E-002    3.243058037330893E-006
  1.120000000000000E-002    3.467094596061467E-006
  1.130000000000000E-002    3.703518675947026E-006
  1.140000000000000E-002    3.953178399226929E-006
  1.150000000000000E-002    4.216979589541305E-006
  1.160000000000000E-002    4.495885272341619E-006
  1.170000000000000E-002    4.790914293794327E-006
  1.180000000000000E-002    5.103141611391445E-006
  1.190000000000000E-002    5.433698332540424E-006
  1.200000000000000E-002    5.783771841672300E-006
  1.210000000000000E-002    6.154605246528815E-006
  1.220000000000000E-002    6.547498075619813E-006
  1.230000000000000E-002    6.963807172638551E-006
  1.240000000000000E-002    7.404947487900036E-006
  1.250000000000000E-002    7.872393564299076E-006
  1.260000000000000E-002    8.367681101698670E-006
  1.270000000000000E-002    8.892409392310570E-006
  1.280000000000000E-002    9.448243150543824E-006
  1.290000000000000E-002    1.003691470316895E-005
  1.300000000000000E-002    1.066022747247796E-005
  1.310000000000000E-002    1.132005901576502E-005
  1.320000000000000E-002    1.201836376096713E-005
  1.330000000000000E-002    1.275717773040228E-005
  1.340000000000000E-002    1.353862054134014E-005
  1.350000000000000E-002    1.436489993155901E-005
  1.360000000000000E-002    1.523831848476600E-005
  1.370000000000000E-002    1.616127096168376E-005
  1.380000000000000E-002    1.713625761661360E-005
  1.390000000000000E-002    1.816588151006485E-005
  1.400000000000000E-002    1.925285802504279E-005
  1.410000000000000E-002    2.040001575347642E-005
  1.420000000000000E-002    2.161030688740112E-005
  1.430000000000000E-002    2.288681031029424E-005
  1.440000000000000E-002    2.423273715118714E-005
  1.450000000000000E-002    2.565144173672349E-005
  1.460000000000000E-002    2.714642072614498E-005
  1.470000000000000E-002    2.872133079707212E-005
  1.480000000000000E-002    3.037998909269440E-005
  1.490000000000000E-002    3.212638809402714E-005
  1.500000000000000E-002    3.396469872460913E-005
  1.510000000000000E-002    3.589928562303158E-005
  1.520000000000000E-002    3.793471350613826E-005
  1.530000000000000E-002    4.007576417284468E-005
  1.540000000000000E-002    4.232744110818584E-005
  1.550000000000000E-002    4.469498864645325E-005
  1.560000000000000E-002    4.718389773938223E-005
  1.570000000000000E-002    4.979991884314098E-005
  1.580000000000000E-002    5.254908216991268E-005
  1.590000000000000E-002    5.543769642558413E-005
  1.600000000000000E-002    5.847236612673492E-005
  1.610000000000000E-002    6.166000580828787E-005
  1.620000000000000E-002    6.500784331920064E-005
  1.630000000000000E-002    6.852343802220075E-005
  1.640000000000000E-002    7.221467894243974E-005
  1.650000000000000E-002    7.608979332573068E-005
  1.660000000000000E-002    8.015736501951624E-005
  1.670000000000000E-002    8.442631523358540E-005
  1.680000000000000E-002    8.890593332090696E-005
  1.690000000000000E-002    9.360585837098053E-005
  1.700000000000000E-002    9.853609351024205E-005
  1.710000000000000E-002    1.037070156835817E-004
  1.720000000000000E-002    1.091293544849554E-004
  1.730000000000000E-002    1.148142143066555E-004
  1.740000000000000E-002    1.207730913342438E-004
  1.750000000000000E-002    1.270178395161949E-004
  1.760000000000000E-002    1.335607136908522E-004
  1.770000000000000E-002    1.404143722918696E-004
  1.780000000000000E-002    1.475918464119885E-004
  1.790000000000000E-002    1.551066306767394E-004
  1.800000000000000E-002    1.629726225761478E-004
  1.810000000000000E-002    1.712041850750809E-004
  1.820000000000000E-002    1.798161410263878E-004
  1.830000000000000E-002    1.888238244326011E-004
  1.840000000000000E-002    1.982430530419391E-004
  1.850000000000000E-002    2.080902123291290E-004
  1.860000000000000E-002    2.183822304722872E-004
  1.870000000000000E-002    2.291366465981254E-004