 -4.000000000000000E-002    0.000000000000000E+000
 -3.990000000000000E-002    0.000000000000000E+000
 -3.980000000000000E-002    0.000000000000000E+000
 -3.970000000000000E-002    0.000000000000000E+000
 -3.960000000000000E-002    0.000000000000000E+000
 -3.950000000000000E-002    0.000000000000000E+000
 -3.940000000000000E-002    0.000000000000000E+000
 -3.930000000000000E-002    0.000000000000000E+000
 -3.920000000000000E-002    0.000000000000000E+000
 -3.910000000000000E-002    0.000000000000000E+000
 -3.900000000000000E-002    0.000000000000000E+000
 -3.890000000000000E-002    0.000000000000000E+000
 -3.880000000000000E-002    0.000000000000000E+000
 -3.870000000000000E-002    0.000000000000000E+000
 -3.860000000000000E-002    0.000000000000000E+000
 -3.850000000000000E-002    0.000000000000000E+000
 -3.840000000000000E-002    0.000000000000000E+000
 -3.830000000000000E-002    0.000000000000000E+000
 -3.820000000000000E-002    0.000000000000000E+000
 -3.810000000000000E-002    0.000000000000000E+000
 -3.800000000000000E-002    0.000000000000000E+000
 -3.790000000000000E-002    0.000000000000000E+000
 -3.780000000000000E-002    0.000000000000000E+000
 -3.770000000000000E-002    0.000000000000000E+000
 -3.760000000000000E-002    0.000000000000000E+000
 -3.750000000000000E-002    0.000000000000000E+000
 -3.740000000000000E-002    0.000000000000000E+000
 -3.730000000000000E-002    0.000000000000000E+000
 -3.720000000000000E-002    0.000000000000000E+000
 -3.710000000000000E-002    0.000000000000000E+000
 -3.700000000000000E-002    0.000000000000000E+000
 -3.690000000000000E-002    0.000000000000000E+000
 -3.680000000000000E-002    0.000000000000000E+000
 -3.670000000000000E-002    0.000000000000000E+000
 -3.660000000000000E-002    0.000000000000000E+000
 -3.650000000000000E-002    0.000000000000000E+000
 -3.640000000000000E-002    0.000000000000000E+000
 -3.630000000000000E-002    0.000000000000000E+000
 -3.620000000000000E-002    0.000000000000000E+000
 -3.610000000000000E-002    0.000000000000000E+000
 -3.600000000000000E-002    0.000000000000000E+000
 -3.590000000000000E-002    0.000000000000000E+000
 -3.580000000000000E-002    0.000000000000000E+000
 -3.570000000000000E-002    0.000000000000000E+000
 -3.560000000000000E-002    0.000000000000000E+000
 -3.550000000000000E-002    0.000000000000000E+000
 -3.540000000000000E-002    0.000000000000000E+000
 -3.530000000000000E-002    0.000000000000000E+000
 -3.520000000000000E-002    0.000000000000000E+000
 -3.510000000000000E-002    0.000000000000000E+000
 -3.500000000000000E-002    0.000000000000000E+000
 -3.490000000000000E-002    0.000000000000000E+000
 -3.480000000000000E-002    0.000000000000000E+000
 -3.470000000000000E-002    0.000000000000000E+000
 -3.460000000000000E-002    0.000000000000000E+000
 -3.450000000000000E-002    0.000000000000000E+000
 -3.440000000000000E-002    0.000000000000000E+000
 -3.430000000000000E-002    0.000000000000000E+000
 -3.420000000000000E-002    0.000000000000000E+000
 -3.410000000000000E-002    0.000000000000000E+000
 -3.400000000000000E-002    0.000000000000000E+000
 -3.390000000000000E-002    0.000000000000000E+000
 -3.380000000000000E-002    0.000000000000000E+000
 -3.370000000000000E-002    0.000000000000000E+000
 -3.360000000000000E-002    0.000000000000000E+000
 -3.350000000000000E-002    0.000000000000000E+000
 -3.340000000000000E-002    0.000000000000000E+000
 -3.330000000000000E-002    0.000000000000000E+000
 -3.320000000000000E-002    0.000000000000000E+000
 -3.310000000000000E-002    0.000000000000000E+000
 -3.300000000000000E-002    0.000000000000000E+000
 -3.290000000000000E-002    0.000000000000000E+000
 -3.280000000000000E-002    0.000000000000000E+000
 -3.270000000000000E-002    0.000000000000000E+000
 -3.260000000000000E-002    0.000000000000000E+000
 -3.250000000000000E-002    0.000000000000000E+000
 -3.240000000000000E-002    0.000000000000000E+000
 -3.230000000000000E-002    0.000000000000000E+000
 -3.220000000000000E-002    0.000000000000000E+000
 -3.210000000000000E-002    0.000000000000000E+000
 -3.200000000000000E-002    0.000000000000000E+000
 -3.190000000000000E-002    0.000000000000000E+000
 -3.180000000000000E-002    0.000000000000000E+000
 -3.170000000000000E-002    0.000000000000000E+000
 -3.160000000000000E-002    0.000000000000000E+000
 -3.150000000000000E-002    0.000000000000000E+000
 -3.140000000000000E-002    0.000000000000000E+000
 -3.130000000000000E-002    0.000000000000000E+000
 -3.120000000000000E-002    0.000000000000000E+000
 -3.110000000000000E-002    0.000000000000000E+000
 -3.100000000000000E-002    0.000000000000000E+000
 -3.090000000000000E-002    0.000000000000000E+000
 -3.080000000000000E-002    0.000000000000000E+000
 -3.070000000000000E-002    0.000000000000000E+000
 -3.060000000000000E-002    0.000000000000000E+000
 -3.050000000000000E-002    0.000000000000000E+000
 -3.040000000000000E-002    0.000000000000000E+000
 -3.030000000000000E-002    0.000000000000000E+000
 -3.020000000000000E-002    0.000000000000000E+000
 -3.010000000000000E-002    0.000000000000000E+000
 -3.000000000000000E-002    0.000000000000000E+000
 -2.990000000000000E-002    0.000000000000000E+000
 -2.980000000000000E-002    0.000000000000000E+000
 -2.970000000000000E-002    0.000000000000000E+000
 -2.960000000000000E-002    0.000000000000000E+000
 -2.950000000000000E-002    0.000000000000000E+000
 -2.940000000000000E-002    0.000000000000000E+000
 -2.930000000000000E-002    0.000000000000000E+000
 -2.920000000000000E-002    0.000000000000000E+000
 -2.910000000000000E-002    0.000000000000000E+000
 -2.900000000000000E-002    0.000000000000000E+000
 -2.890000000000000E-002    0.000000000000000E+000
 -2.880000000000000E-002    0.000000000000000E+000
 -2.870000000000000E-002    0.000000000000000E+000
 -2.860000000000000E-002    0.000000000000000E+000
 -2.850000000000000E-002    0.000000000000000E+000
 -2.840000000000000E-002    0.000000000000000E+000
 -2.830000000000000E-002    0.000000000000000E+000
 -2.820000000000000E-002    0.000000000000000E+000
 -2.810000000000000E-002    0.000000000000000E+000
 -2.800000000000000E-002    0.000000000000000E+000
 -2.790000000000000E-002    0.000000000000000E+000
 -2.780000000000000E-002    0.000000000000000E+000
 -2.770000000000000E-002    0.000000000000000E+000
 -2.760000000000000E-002    0.000000000000000E+000
 -2.750000000000000E-002    0.000000000000000E+000
 -2.740000000000000E-002    0.000000000000000E+000
 -2.730000000000000E-002    0.000000000000000E+000
 -2.720000000000000E-002    0.000000000000000E+000
 -2.710000000000000E-002    0.000000000000000E+000
 -2.700000000000000E-002    0.000000000000000E+000
 -2.690000000000000E-002    0.000000000000000E+000
 -2.680000000000000E-002    0.000000000000000E+000
 -2.670000000000000E-002    0.000000000000000E+000
 -2.660000000000000E-002    0.000000000000000E+000
 -2.650000000000000E-002    0.000000000000000E+000
 -2.640000000000000E-002    0.000000000000000E+000
 -2.630000000000000E-002    0.000000000000000E+000
 -2.620000000000000E-002    0.000000000000000E+000
 -2.610000000000000E-002    0.000000000000000E+000
 -2.600000000000000E-002    0.000000000000000E+000
 -2.590000000000000E-002    0.000000000000000E+000
 -2.580000000000000E-002    0.000000000000000E+000
 -2.570000000000000E-002    0.000000000000000E+000
 -2.560000000000000E-002    0.000000000000000E+000
 -2.550000000000000E-002    0.000000000000000E+000
 -2.540000000000000E-002    0.000000000000000E+000
 -2.530000000000000E-002    0.000000000000000E+000
 -2.520000000000000E-002    0.000000000000000E+000
 -2.510000000000000E-002    0.000000000000000E+000
 -2.500000000000000E-002    0.000000000000000E+000
 -2.490000000000000E-002    0.000000000000000E+000
 -2.480000000000000E-002    0.000000000000000E+000
 -2.470000000000000E-002    0.000000000000000E+000
 -2.460000000000000E-002    0.000000000000000E+000
 -2.450000000000000E-002    0.000000000000000E+000
 -2.440000000000000E-002    0.000000000000000E+000
 -2.430000000000000E-002    0.000000000000000E+000
 -2.420000000000000E-002    0.000000000000000E+000
 -2.410000000000000E-002    0.000000000000000E+000
 -2.400000000000000E-002    0.000000000000000E+000
 -2.390000000000000E-002    0.000000000000000E+000
 -2.380000000000000E-002    0.000000000000000E+000
 -2.370000000000000E-002    0.000000000000000E+000
 -2.360000000000000E-002    0.000000000000000E+000
 -2.350000000000000E-002    0.000000000000000E+000
 -2.340000000000000E-002    0.000000000000000E+000
 -2.330000000000000E-002    0.000000000000000E+000
 -2.320000000000000E-002    0.000000000000000E+000
 -2.310000000000000E-002    0.000000000000000E+000
 -2.300000000000000E-002    0.000000000000000E+000
 -2.290000000000000E-002    0.000000000000000E+000
 -2.280000000000000E-002    0.000000000000000E+000
 -2.270000000000000E-002    0.000000000000000E+000
 -2.260000000000000E-002    0.000000000000000E+000
 -2.250000000000000E-002    0.000000000000000E+000
 -2.240000000000000E-002    0.000000000000000E+000
 -2.230000000000000E-002    0.000000000000000E+000
 -2.220000000000000E-002    0.000000000000000E+000
 -2.210000000000000E-002    0.000000000000000E+000
 -2.200000000000000E-002    0.000000000000000E+000
 -2.190000000000000E-002    0.000000000000000E+000
 -2.180000000000000E-002    0.000000000000000E+000
 -2.170000000000000E-002    0.000000000000000E+000
 -2.160000000000000E-002    0.000000000000000E+000
 -2.150000000000000E-002    0.000000000000000E+000
 -2.140000000000000E-002    0.000000000000000E+000
 -2.130000000000000E-002   -4.343161087593968E-048
 -2.120000000000000E-002   -6.548110407114179E-048
 -2.110000000000000E-002   -2.372054210315069E-047
 -2.100000000000000E-002    9.635561478799915E-048
 -2.090000000000000E-002    4.947303791641824E-047
 -2.080000000000000E-002    9.579188720970429E-047
 -2.070000000000000E-002    1.065496836015195E-046
 -2.060000000000000E-002    1.237888528490025E-046
 -2.050000000000000E-002    1.273183327385245E-046
 -2.040000000000000E-002    2.105622860097937E-046
 -2.030000000000000E-002    2.151451802582374E-046
 -2.020000000000000E-002    1.927866062289519E-046
 -2.010000000000000E-002    8.943063175707497E-047
 -2.000000000000000E-002   -1.282141921905446E-046
 -1.990000000000000E-002   -4.645577642529472E-046
 -1.980000000000000E-002   -9.703683528689697E-046
 -1.970000000000000E-002   -1.528419607155728E-045
 -1.960000000000000E-002   -2.060732757188223E-045
 -1.950000000000000E-002   -2.620921706313480E-045
 -1.940000000000000E-002   -2.619242514854469E-045
 -1.930000000000000E-002   -1.923230755365066E-045
 -1.920000000000000E-002   -1.968392109359192E-045
 -1.910000000000000E-002   -1.466098786191405E-045
 -1.900000000000000E-002    8.993978600559069E-047
 -1.890000000000000E-002    2.941008893315613E-045
 -1.880000000000000E-002    7.108571255410709E-045
 -1.870000000000000E-002    1.226174160282152E-044
 -1.860000000000000E-002    1.901505803415525E-044
 -1.850000000000000E-002    2.668382510383858E-044
 -1.840000000000000E-002    3.403462208082139E-044
 -1.830000000000000E-002    3.943225589372288E-044
 -1.820000000000000E-002    4.209992115409143E-044
 -1.810000000000000E-002    4.068651289275394E-044
 -1.800000000000000E-002    3.141283662683194E-044
 -1.790000000000000E-002    1.213692957422565E-044
 -1.780000000000000E-002   -1.945462738006010E-044
 -1.770000000000000E-002   -6.598682835471539E-044
 -1.760000000000000E-002   -1.276617267689538E-043
 -1.750000000000000E-002   -2.036666209829061E-043
 -1.740000000000000E-002   -2.907133340074408E-043
 -1.730000000000000E-002   -3.810579807561850E-043
 -1.720000000000000E-002   -4.631190178167414E-043
 -1.710000000000000E-002   -5.225428474546655E-043
 -1.700000000000000E-002   -5.373616096931888E-043
 -1.690000000000000E-002   -4.824008093159842E-043
 -1.680000000000000E-002   -3.305907706129253E-043
 -1.670000000000000E-002   -5.484589645398598E-044
 -1.660000000000000E-002    3.679122366996535E-043
 -1.650000000000000E-002    9.541358531365473E-043
 -1.640000000000000E-002    1.702749618087400E-042
 -1.630000000000000E-002    2.592235833830072E-042
 -1.620000000000000E-002    3.569476488836960E-042
 -1.610000000000000E-002    4.544420538918652E-042
 -1.600000000000000E-002    5.384043674403715E-042
 -1.590000000000000E-002    5.907951090324420E-042
 -1.580000000000000E-002    5.894955693675118E-042
 -1.570000000000000E-002    5.085237952940059E-042
 -1.560000000000000E-002    3.201316593728005E-042
 -1.550000000000000E-002   -2.510930937869923E-044
 -1.540000000000000E-002   -4.814942277384930E-042
 -1.530000000000000E-002   -1.128564785818769E-041
 -1.520000000000000E-002   -1.939420066280662E-041
 -1.510000000000000E-002   -2.885869693192694E-041
 -1.500000000000000E-002   -3.908448526901182E-041
 -1.490000000000000E-002   -4.909455842100101E-041
 -1.480000000000000E-002   -5.746648376113427E-041
 -1.470000000000000E-002   -6.231622285475603E-041
 -1.460000000000000E-002   -6.131891711233078E-041
 -1.450000000000000E-002   -5.180331168171381E-041
 -1.440000000000000E-002   -3.094681945374974E-041
 -1.430000000000000E-002    3.922616267736886E-042
 -1.420000000000000E-002    5.489837812328415E-041
 -1.410000000000000E-002    1.229263411409653E-040
 -1.400000000000000E-002    2.071257289438061E-040
 -1.390000000000000E-002    3.040258173130376E-040
 -1.380000000000000E-002    4.067875013920023E-040
 -1.370000000000000E-002    5.045142253933899E-040
 -1.360000000000000E-002    5.817967496234139E-040
 -1.350000000000000E-002    6.186616996682270E-040
 -1.340000000000000E-002    5.911371550215504E-040
 -1.330000000000000E-002    4.726479896165164E-040
 -1.320000000000000E-002    2.364445485572568E-040
 -1.310000000000000E-002   -1.407966537229006E-040
 -1.300000000000000E-002   -6.741480404237152E-040
 -1.290000000000000E-002   -1.364491721509893E-039
 -1.280000000000000E-002   -2.191805352226876E-039
 -1.270000000000000E-002   -3.108245523218398E-039
 -1.260000000000000E-002   -4.031935897936643E-039
 -1.250000000000000E-002   -4.842653268512553E-039
 -1.240000000000000E-002   -5.380880497544652E-039
 -1.230000000000000E-002   -5.451894742150262E-039
 -1.220000000000000E-002   -4.836560809758401E-039
 -1.210000000000000E-002   -3.310307690798389E-039
 -1.200000000000000E-002   -6.712598290529432E-040
 -1.190000000000000E-002    3.222374569056775E-039
 -1.180000000000000E-002    8.406790691107926E-039
 -1.170000000000000E-002    1.476171568076282E-038
 -1.160000000000000E-002    2.195883361820359E-038
 -1.150000000000000E-002    2.941625964609085E-038
 -1.140000000000000E-002    3.626777880989870E-038
 -1.130000000000000E-002    4.135719999239846E-038
 -1.120000000000000E-002    4.326902869858753E-038
 -1.110000000000000E-002    4.040643885912005E-038
 -1.100000000000000E-002    3.112549272282309E-038
 -1.090000000000000E-002    1.393095097801855E-038
 -1.080000000000000E-002   -1.226723597389050E-038
 -1.070000000000000E-002   -4.784581828741145E-038
 -1.060000000000000E-002   -9.212795227019071E-038
 -1.050000000000000E-002   -1.430420620941811E-037
 -1.040000000000000E-002   -1.968234030094481E-037
 -1.030000000000000E-002   -2.478135568230658E-037
 -1.020000000000000E-002   -2.884218657998000E-037
 -1.010000000000000E-002   -3.093167961589516E-037
 -1.000000000000000E-002   -2.999126180039040E-037
 -9.899999999999999E-003   -2.492045981217659E-037
 -9.800000000000000E-003   -1.469824117637816E-037
 -9.699999999999999E-003    1.458397797097682E-038
 -9.599999999999999E-003    2.390398643614264E-037
 -9.500000000000000E-003    5.235363803555861E-037
 -9.399999999999999E-003    8.566972405859412E-037
 -9.299999999999999E-003    1.216713838464289E-036
 -9.200000000000000E-003    1.569987277901358E-036
 -9.099999999999999E-003    1.870688397856211E-036
 -8.999999999999999E-003    2.061635677154674E-036
 -8.900000000000000E-003    2.076879503252212E-036
 -8.799999999999999E-003    1.846323207982808E-036
 -8.699999999999999E-003    1.302591061173208E-036
 -8.600000000000000E-003    3.901613468712786E-037
 -8.499999999999999E-003   -9.234743886668393E-037
 -8.399999999999999E-003   -2.635200463442963E-036
 -8.300000000000000E-003   -4.693164621202538E-036
 -8.199999999999999E-003   -6.984532970116714E-036
 -8.100000000000000E-003   -9.325878030724038E-036
 -8.000000000000000E-003   -1.145831856962464E-035
 -7.899999999999999E-003   -1.304974046842448E-035
 -7.800000000000000E-003   -1.370647376320794E-035
 -7.699999999999999E-003   -1.299655882118131E-035
 -7.599999999999999E-003   -1.048617009194017E-035
 -7.499999999999999E-003   -5.789797493968235E-036
 -7.399999999999999E-003    1.366582448073013E-036
 -7.299999999999999E-003    1.107194787229839E-035
 -7.199999999999999E-003    2.315102989253192E-035
 -7.100000000000000E-003    3.708662284177963E-035
 -6.999999999999999E-003    5.195302767724007E-035
 -6.899999999999999E-003    6.637247884117707E-035
 -6.800000000000000E-003    7.850805244295389E-035
 -6.699999999999999E-003    8.610724638394669E-035
 -6.599999999999999E-003    8.660971582165997E-035
 -6.499999999999999E-003    7.733015011372124E-035
 -6.399999999999999E-003    5.572228693327527E-035
 -6.299999999999999E-003    1.972322173168378E-035
 -6.199999999999999E-003   -3.183289298160329E-035
 -6.100000000000000E-003   -9.875443641973833E-035
 -5.999999999999999E-003   -1.790215055068350E-034
 -5.899999999999999E-003   -2.683552979619766E-034
 -5.800000000000000E-003   -3.598919186452500E-034
 -5.699999999999999E-003   -4.440354587132928E-034
 -5.599999999999999E-003   -5.085711631000993E-034
 -5.499999999999999E-003   -5.391189455952191E-034
 -5.399999999999999E-003   -5.199952153330078E-034
 -5.299999999999999E-003   -4.355295020400539E-034
 -5.199999999999999E-003   -2.718453535600044E-034
 -5.099999999999999E-003   -1.906539862031103E-035
 -4.999999999999999E-003    3.261625413534171E-034
 -4.899999999999999E-003    7.579935748638503E-034
 -4.799999999999999E-003    1.258821842083927E-033
 -4.699999999999999E-003    1.797152522789368E-033
 -4.599999999999999E-003    2.326301289903849E-033
 -4.499999999999999E-003    2.784355096480359E-033
 -4.399999999999999E-003    3.095826970724759E-033
 -4.299999999999999E-003    3.175403072609371E-033
 -4.199999999999999E-003    2.934064669277591E-033
 -4.099999999999999E-003    2.287707842354573E-033
 -3.999999999999999E-003    1.168136544463236E-033
 -3.899999999999999E-003   -4.640047428946325E-034
 -3.799999999999999E-003   -2.605149716418286E-033
 -3.699999999999999E-003   -5.194769331207390E-033
 -3.599999999999999E-003   -8.102939827824303E-033
 -3.499999999999999E-003   -1.112143413754810E-032
 -3.399999999999999E-003   -1.396048231702139E-032
 -3.299999999999999E-003   -1.625340317977585E-032
 -3.199999999999999E-003   -1.757118492670869E-032
 -3.099999999999999E-003   -1.744863493037869E-032
 -2.999999999999999E-003   -1.542296492817827E-032
 -2.899999999999999E-003   -1.108461551637688E-032
 -2.799999999999999E-003   -4.138683971188596E-033
 -2.699999999999999E-003    5.526332796221848E-033
 -2.599999999999999E-003    1.776764043638494E-032
 -2.499999999999999E-003    3.212204388765684E-032
 -2.399999999999999E-003    4.775334967043872E-032
 -2.299999999999999E-003    6.342312909087009E-032
 -2.199999999999999E-003    7.749531822305880E-032
 -2.099999999999999E-003    8.798462279415024E-032
 -1.999999999999999E-003    9.265720675675708E-032
 -1.899999999999999E-003    8.918891066280208E-032
 -1.799999999999999E-003    7.538189339822270E-032
 -1.699999999999999E-003    4.943452330026010E-032
 -1.599999999999999E-003    1.025209407182084E-032
 -1.499999999999999E-003   -4.222206366128341E-032
 -1.399999999999999E-003   -1.066838262695584E-031
 -1.299999999999999E-003   -1.801903297721142E-031
 -1.199999999999999E-003   -2.579693522522039E-031
 -1.099999999999999E-003   -3.333619502354722E-031
 -9.999999999999989E-004   -3.979438272796244E-031
 -8.999999999999990E-004   -4.418654073881901E-031
 -7.999999999999990E-004   -4.544397340950217E-031
 -6.999999999999989E-004   -4.249895980917284E-031
 -5.999999999999990E-004   -3.439418462993258E-031
 -4.999999999999989E-004   -2.041278991587073E-031
 -3.999999999999989E-004   -2.215959188538880E-033
 -2.999999999999989E-004    2.598337682407054E-031
 -1.999999999999989E-004    5.734332865276351E-031
 -9.999999999999892E-005    9.223213895480879E-031
  1.084202172485504E-018    1.281996258206632E-030
  1.000000000000011E-004    1.619819908496216E-030
  2.000000000000011E-004    1.895973000649056E-030
  3.000000000000011E-004    2.065400299115284E-030
  4.000000000000011E-004    2.080828654702588E-030
  5.000000000000011E-004    1.896851267904704E-030
  6.000000000000011E-004    1.474961166675234E-030
  7.000000000000011E-004    7.892958523772388E-031
  8.000000000000011E-004   -1.672928569328043E-031
  9.000000000000012E-004   -1.377353177848338E-030
  1.000000000000001E-003   -2.793772502634373E-030
  1.100000000000001E-003   -4.336268243789167E-030
  1.200000000000001E-003   -5.890190224581984E-030
  1.300000000000001E-003   -7.308382220111310E-030
  1.400000000000001E-003   -8.416736389876296E-030
  1.500000000000001E-003   -9.023873182195590E-030
  1.600000000000001E-003   -8.935094617670290E-030
  1.700000000000001E-003   -7.970378795658980E-030
  1.800000000000001E-003   -5.985712918719690E-030
  1.900000000000001E-003   -2.896560043263075E-030
  2.000000000000001E-003    1.298272020520445E-030
  2.100000000000001E-003    6.494568067828870E-030
  2.200000000000001E-003    1.246506150432201E-029
  2.300000000000001E-003    1.884906059069422E-029
  2.400000000000001E-003    2.515222954150817E-029
  2.500000000000001E-003    3.075910379173547E-029
  2.600000000000001E-003    3.496045337986877E-029
  2.700000000000001E-003    3.699656120153224E-029
  2.800000000000001E-003    3.611637712660462E-029
  2.900000000000001E-003    3.165078838775993E-029
  3.000000000000001E-003    2.309665677656191E-029
  3.100000000000001E-003    1.020622044432214E-029
  3.200000000000001E-003   -6.925294860524145E-030
  3.300000000000001E-003   -2.778259944540662E-029
  3.400000000000001E-003   -5.137375920509109E-029
  3.500000000000001E-003   -7.620449927003823E-029
  3.600000000000001E-003   -1.002933898990692E-028
  3.700000000000001E-003   -1.212365448946358E-028
  3.800000000000001E-003   -1.363275913614683E-028
  3.900000000000001E-003   -1.427352662203786E-028
  4.000000000000001E-003   -1.377358084190228E-028
  4.100000000000001E-003   -1.189912631586222E-028
  4.200000000000001E-003   -8.485912342582680E-029
  4.300000000000001E-003   -3.471132535690569E-029
  4.400000000000001E-003    3.076463978522904E-029
  4.500000000000001E-003    1.093148409545722E-028
  4.600000000000002E-003    1.969536619484266E-028
  4.700000000000001E-003    2.879194368083258E-028
  4.800000000000001E-003    3.747834192626501E-028
  4.900000000000002E-003    4.487379139125578E-028
  5.000000000000001E-003    5.000781676945019E-028
  5.100000000000001E-003    5.188783558577799E-028
  5.200000000000001E-003    4.958440604403855E-028
  5.300000000000002E-003    4.233033520610757E-028
  5.400000000000001E-003    2.962758646021515E-028
  5.500000000000001E-003    1.135406538170576E-028
  5.600000000000002E-003   -1.213964393816715E-028
  5.700000000000001E-003   -3.995469182656031E-028
  5.800000000000001E-003   -7.060122353530347E-028
  5.900000000000002E-003   -1.019996573975123E-027
  6.000000000000001E-003   -1.315358126854200E-027
  6.100000000000001E-003   -1.561767239444808E-027
  6.200000000000002E-003   -1.726498119745726E-027
  6.300000000000002E-003   -1.776834010466702E-027
  6.400000000000001E-003   -1.682998034601187E-027
  6.500000000000001E-003   -1.421459593054220E-027
  6.600000000000002E-003   -9.783975823962176E-028
  6.700000000000001E-003   -3.530408528985978E-028
  6.800000000000001E-003    4.394436018928177E-028
  6.900000000000002E-003    1.365872392556213E-027
  7.000000000000001E-003    2.374137031026676E-027
  7.100000000000001E-003    3.393795698769745E-027
  7.200000000000002E-003    4.338428784662184E-027
  7.300000000000002E-003    5.109916945948714E-027
  7.400000000000001E-003    5.604658012336832E-027
  7.500000000000001E-003    5.721572481969294E-027
  7.600000000000002E-003    5.371541090799740E-027
  7.700000000000001E-003    4.487731863834311E-027
  7.800000000000001E-003    3.036072075491198E-027
  7.900000000000001E-003    1.024953444473096E-027
  8.000000000000002E-003   -1.486848394227125E-027
  8.100000000000001E-003   -4.385108919040163E-027
  8.200000000000001E-003   -7.498976684653785E-027
  8.300000000000002E-003   -1.060455447359748E-026
  8.400000000000001E-003   -1.343388103493380E-026
  8.500000000000002E-003   -1.568957975412533E-026
  8.600000000000002E-003   -1.706498118831776E-026
  8.700000000000001E-003   -1.726901803516455E-026
  8.800000000000002E-003   -1.605460914162156E-026
  8.900000000000002E-003   -1.324867738584314E-026
  9.000000000000001E-003   -8.781488725247430E-027
  9.100000000000002E-003   -2.712554110211164E-027
  9.200000000000002E-003    4.749852863972274E-027
  9.300000000000001E-003    1.323846788199822E-026
  9.400000000000002E-003    2.222881223910119E-026
  9.500000000000001E-003    3.105499300797094E-026
  9.600000000000001E-003    3.894083727405727E-026
  9.700000000000002E-003    4.504638541130256E-026
  9.800000000000001E-003    4.852851240133484E-026
  9.900000000000001E-003    4.861295513564041E-026
  1.000000000000000E-002    4.467341601534419E-026
  1.010000000000000E-002    3.631215664504870E-026
  1.020000000000000E-002    2.343517014229228E-026
  1.030000000000000E-002    6.314465714860295E-027
  1.040000000000000E-002   -1.437040481951763E-026
  1.050000000000000E-002   -3.751878789711556E-026
  1.060000000000000E-002   -6.162950805626981E-026
  1.070000000000000E-002   -8.485966432485604E-026
  1.080000000000000E-002   -1.051232112228266E-025
  1.090000000000000E-002   -1.202274393423187E-025
  1.100000000000000E-002   -1.280418596303006E-025
  1.110000000000000E-002   -1.266903649840464E-025
  1.120000000000000E-002   -1.147536301848106E-025
  1.130000000000000E-002   -9.146575216044180E-026
  1.140000000000000E-002   -5.688710515908052E-026
  1.150000000000000E-002   -1.203427708766128E-026
  1.160000000000000E-002    4.105125242994988E-026
  1.170000000000000E-002    9.931168153272031E-026
  1.180000000000000E-002    1.587703892362537E-025
  1.190000000000000E-002    2.147240301324886E-025
  1.200000000000000E-002    2.620274930167508E-025
  1.210000000000000E-002    2.954615068335221E-025
  1.220000000000000E-002    3.101634203774700E-025
  1.230000000000000E-002    3.020936629947991E-025
  1.240000000000000E-002    2.685022555756459E-025
  1.250000000000000E-002    2.083545124064865E-025
  1.260000000000000E-002    1.226729951805604E-025
  1.270000000000000E-002    1.475262625602524E-026
  1.280000000000000E-002   -1.097882475624723E-025
  1.290000000000000E-002   -2.431499229430907E-025
  1.300000000000000E-002   -3.757014645765588E-025
  1.310000000000000E-002   -4.965393510649699E-025
  1.320000000000000E-002   -5.942342329622736E-025
  1.330000000000000E-002   -6.577274865845749E-025
  1.340000000000000E-002   -6.773196787915047E-025
  1.350000000000000E-002   -6.456758415307136E-025
  1.360000000000000E-002   -5.587621358359563E-025
  1.370000000000000E-002   -4.166203726663916E-025
  1.380000000000000E-002   -2.238912307282475E-025
  1.390000000000000E-002    9.995446904228651E-027
  1.400000000000000E-002    2.710230576982666E-025
  1.410000000000000E-002    5.412179002433483E-025
  1.420000000000000E-002    7.997048289170618E-025
  1.430000000000000E-002    1.024149117765097E-024
  1.440000000000000E-002    1.192504990726329E-024
  1.450000000000000E-002    1.284950373147345E-024
  1.460000000000000E-002    1.285857732969064E-024
  1.470000000000000E-002    1.185624875858656E-024
  1.480000000000000E-002    9.821835476440642E-025
  1.490000000000000E-002    6.820056130857689E-025
  1.500000000000000E-002    3.004560661636122E-025
  1.510000000000000E-002   -1.386199624776304E-025
  1.520000000000000E-002   -6.041286007612101E-025
  1.530000000000000E-002   -1.059758698449646E-024
  1.540000000000000E-002   -1.466718577201694E-024
  1.550000000000000E-002   -1.786999905666889E-024
  1.560000000000000E-002   -1.986921850008125E-024
  1.570000000000000E-002   -2.040648816735552E-024
  1.580000000000000E-002   -1.933338358201904E-024
  1.590000000000000E-002   -1.663571974441290E-024
  1.600000000000000E-002   -1.244747049332781E-024
  1.610000000000000E-002   -7.051701773857543E-025
  1.620000000000000E-002   -8.669116884609668E-026
  1.630000000000000E-002    5.581598673849896E-025
  1.640000000000000E-002    1.170421600268639E-024
  1.650000000000000E-002    1.690071813978669E-024
  1.660000000000000E-002    2.062104394333023E-024
  1.670000000000000E-002    2.242774625557993E-024
  1.680000000000000E-002    2.205379281383775E-024
  1.690000000000000E-002    1.944908436826220E-024
  1.700000000000000E-002    1.480928959560190E-024
  1.710000000000000E-002    8.581570847861389E-025
  1.720000000000000E-002    1.443467480520920E-025
  1.730000000000000E-002   -5.746525442975858E-025
  1.740000000000000E-002   -1.202529104228748E-024
  1.750000000000000E-002   -1.642398665766403E-024
  1.760000000000000E-002   -1.808200879209532E-024
  1.770000000000000E-002   -1.636586897364005E-024
  1.780000000000000E-002   -1.098072321687920E-024
  1.790000000000000E-002   -2.061224877674476E-025
  1.800000000000000E-002    9.771543086393327E-025
  1.810000000000000E-002    2.339867618227635E-024
  1.820000000000000E-002    3.724636539727039E-024
  1.830000000000000E-002    4.938732666365478E-024
  1.840000000000000E-002    5.769967369435248E-024
  1.850000000000000E-002    6.007575594797698E-024
  1.860000000000000E-002    5.466697793616503E-024
  1.870000000000000E-002    4.014476172547227E-024