 -4.000000000000000E-002    0.000000000000000E+000
 -3.990000000000000E-002    0.000000000000000E+000
 -3.980000000000000E-002   -5.110515074423213E-017
 -3.970000000000000E-002    7.997691760096643E-013
 -3.960000000000000E-002   -9.569290472864353E-012
 -3.950000000000000E-002   -8.316416044830695E-011
 -3.940000000000000E-002   -3.411063902354079E-010
 -3.930000000000000E-002   -9.874986674222982E-010
 -3.920000000000000E-002   -2.294667907919996E-009
 -3.910000000000000E-002   -4.554670595070951E-009
 -3.900000000000000E-002   -8.003381878452974E-009
 -3.890000000000000E-002   -1.273331114111614E-008
 -3.880000000000000E-002   -1.861815679022999E-008
 -3.870000000000000E-002   -2.527105258614025E-008
 -3.860000000000000E-002   -3.205370141461707E-008
 -3.850000000000000E-002   -3.814204855954823E-008
 -3.840000000000000E-002   -4.264154249201428E-008
 -3.830000000000000E-002   -4.473129392366252E-008
 -3.820000000000000E-002   -4.381217601955696E-008
 -3.810000000000000E-002   -3.962469254484855E-008
 -3.800000000000000E-002   -3.231397436000337E-008
 -3.790000000000000E-002   -2.242324325182313E-008
 -3.780000000000000E-002   -1.081501048571028E-008
 -3.770000000000000E-002    1.467606831278052E-009
 -3.760000000000000E-002    1.337396710398860E-008
 -3.750000000000000E-002    2.401889055708406E-008
 -3.740000000000000E-002    3.281829373386945E-008
 -3.730000000000000E-002    3.956495043576068E-008
 -3.720000000000000E-002    4.441516494649611E-008
 -3.710000000000000E-002    4.779854759270063E-008
 -3.700000000000000E-002    5.025676267206753E-008
 -3.690000000000000E-002    5.224661215334854E-008
 -3.680000000000000E-002    5.394679734298614E-008
 -3.670000000000000E-002    5.510694119654657E-008
 -3.660000000000000E-002    5.498021359549001E-008
 -3.650000000000000E-002    5.235461074525094E-008
 -3.640000000000000E-002    4.569012214881924E-008
 -3.630000000000000E-002    3.334781593575211E-008
 -3.620000000000000E-002    1.387076428128463E-008
 -3.610000000000000E-002   -1.372761873497302E-008
 -3.600000000000000E-002   -4.971296736120519E-008
 -3.590000000000000E-002   -9.347783937420710E-008
 -3.580000000000000E-002   -1.435019864462239E-007
 -3.570000000000000E-002   -1.974609070008877E-007
 -3.560000000000000E-002   -2.524535556688645E-007
 -3.550000000000000E-002   -3.053324080571731E-007
 -3.540000000000000E-002   -3.530832983423633E-007
 -3.530000000000000E-002   -3.931939624247301E-007
 -3.520000000000000E-002   -4.239551431863406E-007
 -3.510000000000000E-002   -4.446581542000918E-007
 -3.500000000000000E-002   -4.556372162354699E-007
 -3.490000000000000E-002   -4.581615399261480E-007
 -3.480000000000000E-002   -4.542066352425998E-007
 -3.470000000000000E-002   -4.461252269755114E-007
 -3.460000000000000E-002   -4.362859988309992E-007
 -3.450000000000000E-002   -4.267358144300354E-007
 -3.440000000000000E-002   -4.189436859307955E-007
 -3.430000000000000E-002   -4.136640158926020E-007
 -3.420000000000000E-002   -4.109595847572685E-007
 -3.410000000000000E-002   -4.103349792106512E-007
 -3.400000000000000E-002   -4.110064524996623E-007
 -3.390000000000000E-002   -4.122154050127495E-007
 -3.380000000000000E-002   -4.135402060124445E-007
 -3.370000000000000E-002   -4.151533791095758E-007
 -3.360000000000000E-002   -4.179660922114392E-007
 -3.350000000000000E-002   -4.236320463399965E-007
 -3.340000000000000E-002   -4.344020587460167E-007
 -3.330000000000000E-002   -4.528342497404103E-007
 -3.320000000000000E-002   -4.814618564814290E-007
 -3.310000000000000E-002   -5.223914379373474E-007
 -3.300000000000000E-002   -5.769696884182554E-007
 -3.290000000000000E-002   -6.455241709412182E-007
 -3.280000000000000E-002   -7.272637314277674E-007
 -3.270000000000000E-002   -8.203372152819082E-007
 -3.260000000000000E-002   -9.220471655407354E-007
 -3.250000000000000E-002   -1.029182552421059E-006
 -3.240000000000000E-002   -1.138427881562872E-006
 -3.230000000000000E-002   -1.246767024171077E-006
 -3.220000000000000E-002   -1.351835196681408E-006
 -3.210000000000000E-002   -1.452170797580783E-006
 -3.200000000000000E-002   -1.547293020436817E-006
 -3.190000000000000E-002   -1.637653660809770E-006
 -3.180000000000000E-002   -1.724415473145958E-006
 -3.170000000000000E-002   -1.809167192072438E-006
 -3.160000000000000E-002   -1.893598526409685E-006
 -3.150000000000000E-002   -1.979191000475231E-006
 -3.140000000000000E-002   -2.067028855373608E-006
 -3.130000000000000E-002   -2.157618511184279E-006
 -3.120000000000000E-002   -2.251038794763391E-006
 -3.110000000000000E-002   -2.347047053215731E-006
 -3.100000000000000E-002   -2.445367694999652E-006
 -3.090000000000000E-002   -2.546023091076345E-006
 -3.080000000000000E-002   -2.649634870687347E-006
 -3.070000000000000E-002   -2.757563200129397E-006
 -3.060000000000000E-002   -2.872090232801546E-006
 -3.050000000000000E-002   -2.996249215240820E-006
 -3.040000000000000E-002   -3.133624171307547E-006
 -3.030000000000000E-002   -3.287962714599565E-006
 -3.020000000000000E-002   -3.462732421141126E-006
 -3.010000000000000E-002   -3.660731479940450E-006
 -3.000000000000000E-002   -3.883597369051147E-006
 -2.990000000000000E-002   -4.131646430340739E-006
 -2.980000000000000E-002   -4.403795171497134E-006
 -2.970000000000000E-002   -4.697705217605042E-006
 -2.960000000000000E-002   -5.010019965109245E-006
 -2.950000000000000E-002   -5.336819907368241E-006
 -2.940000000000000E-002   -5.674210547072995E-006
 -2.930000000000000E-002   -6.018690632879061E-006
 -2.920000000000000E-002   -6.367718838661354E-006
 -2.910000000000000E-002   -6.719873605512286E-006
 -2.900000000000000E-002   -7.075054779182813E-006
 -2.890000000000000E-002   -7.434396176155857E-006
 -2.880000000000000E-002   -7.800065789543111E-006
 -2.870000000000000E-002   -8.174878746503332E-006
 -2.860000000000000E-002   -8.561826894326965E-006
 -2.850000000000000E-002   -8.963912272396801E-006
 -2.840000000000000E-002   -9.383667007173196E-006
 -2.830000000000000E-002   -9.822978797863007E-006
 -2.820000000000000E-002   -1.028319792878893E-005
 -2.810000000000000E-002   -1.076524923080213E-005
 -2.800000000000000E-002   -1.126967831349698E-005
 -2.790000000000000E-002   -1.179722258330776E-005
 -2.780000000000000E-002   -1.234882113395355E-005
 -2.770000000000000E-002   -1.292612601871409E-005
 -2.760000000000000E-002   -1.353141448432328E-005
 -2.750000000000000E-002   -1.416752572148061E-005
 -2.740000000000000E-002   -1.483786616213862E-005
 -2.730000000000000E-002   -1.554609043430725E-005
 -2.720000000000000E-002   -1.629563116979654E-005
 -2.710000000000000E-002   -1.708928935519288E-005
 -2.700000000000000E-002   -1.792929892423316E-005
 -2.690000000000000E-002   -1.881650916212355E-005
 -2.680000000000000E-002   -1.975080831691098E-005
 -2.670000000000000E-002   -2.073131768859875E-005
 -2.660000000000000E-002   -2.175595445545292E-005
 -2.650000000000000E-002   -2.282265383515212E-005
 -2.640000000000000E-002   -2.392920820839758E-005
 -2.630000000000000E-002   -2.507388478648607E-005
 -2.620000000000000E-002   -2.625590550200680E-005
 -2.610000000000000E-002   -2.747529169443369E-005
 -2.600000000000000E-002   -2.873346968253968E-005
 -2.590000000000000E-002   -3.003272961368819E-005
 -2.580000000000000E-002   -3.137612036196633E-005
 -2.570000000000000E-002   -3.276755055304885E-005
 -2.560000000000000E-002   -3.421101900466159E-005
 -2.550000000000000E-002   -3.571036299281809E-005
 -2.540000000000000E-002   -3.726912127746120E-005
 -2.530000000000000E-002   -3.889055708047829E-005
 -2.520000000000000E-002   -4.057680989620453E-005
 -2.510000000000000E-002   -4.232999624900616E-005
 -2.500000000000000E-002   -4.415201718108305E-005
 -2.490000000000000E-002   -4.604456616872385E-005
 -2.480000000000000E-002   -4.800932869034188E-005
 -2.470000000000000E-002   -5.004831059003928E-005
 -2.460000000000000E-002   -5.216437241879540E-005
 -2.450000000000000E-002   -5.436072372134223E-005
 -2.440000000000000E-002   -5.664072435448064E-005
 -2.430000000000000E-002   -5.900813758698471E-005
 -2.420000000000000E-002   -6.146690257031822E-005
 -2.410000000000000E-002   -6.402062564274304E-005
 -2.400000000000000E-002   -6.667274185677939E-005
 -2.390000000000000E-002   -6.942615936147761E-005
 -2.380000000000000E-002   -7.228277970102674E-005
 -2.370000000000000E-002   -7.524435305740072E-005
 -2.360000000000000E-002   -7.831252289381427E-005
 -2.350000000000000E-002   -8.148749895611762E-005
 -2.340000000000000E-002   -8.477038546134434E-005
 -2.330000000000000E-002   -8.816266375093174E-005
 -2.320000000000000E-002   -9.166610561560915E-005
 -2.310000000000000E-002   -9.528293125720452E-005
 -2.300000000000000E-002   -9.901651347937008E-005
 -2.290000000000000E-002   -1.028704245790374E-004
 -2.280000000000000E-002   -1.068483528442617E-004
 -2.270000000000000E-002   -1.109550434540106E-004
 -2.260000000000000E-002   -1.151939360634455E-004
 -2.250000000000000E-002   -1.195687513387261E-004
 -2.240000000000000E-002   -1.240839675276202E-004
 -2.230000000000000E-002   -1.287427312574607E-004
 -2.220000000000000E-002   -1.335471655110458E-004
 -2.210000000000000E-002   -1.384996198090498E-004
 -2.200000000000000E-002   -1.436020565852764E-004
 -2.190000000000000E-002   -1.488570916918612E-004
 -2.180000000000000E-002   -1.542677177690955E-004
 -2.170000000000000E-002   -1.598350449905357E-004
 -2.160000000000000E-002   -1.655639238970822E-004
 -2.150000000000000E-002   -1.714579540893122E-004
 -2.140000000000000E-002   -1.775211318122195E-004
 -2.130000000000000E-002   -1.837583682248096E-004
 -2.120000000000000E-002   -1.901746646568326E-004
 -2.110000000000000E-002   -1.967756067771291E-004
 -2.100000000000000E-002   -2.035655575803783E-004
 -2.090000000000000E-002   -2.105492680452826E-004
 -2.080000000000000E-002   -2.177307503054794E-004
 -2.070000000000000E-002   -2.251142435538700E-004
 -2.060000000000000E-002   -2.327010441995890E-004
 -2.050000000000000E-002   -2.404951003408809E-004
 -2.040000000000000E-002   -2.484954955332963E-004
 -2.030000000000000E-002   -2.567056342135110E-004
 -2.020000000000000E-002   -2.651261472188067E-004
 -2.010000000000000E-002   -2.737581666350858E-004
 -2.000000000000000E-002   -2.826018301862621E-004
 -1.990000000000000E-002   -2.916588718319263E-004
 -1.980000000000000E-002   -3.009321776182208E-004
 -1.970000000000000E-002   -3.104250960995853E-004
 -1.960000000000000E-002   -3.201392066598989E-004
 -1.950000000000000E-002   -3.300778532467751E-004
 -1.940000000000000E-002   -3.402431232309147E-004
 -1.930000000000000E-002   -3.506370620401994E-004
 -1.920000000000000E-002   -3.612626844476489E-004
 -1.910000000000000E-002   -3.721213749392546E-004
 -1.900000000000000E-002   -3.832154849802401E-004
 -1.890000000000000E-002   -3.945442307859929E-004
 -1.880000000000000E-002   -4.061078591037874E-004
 -1.870000000000000E-002   -4.179079687858184E-004
 -1.860000000000000E-002   -4.299461171534836E-004
 -1.850000000000000E-002   -4.422233237232811E-004
 -1.840000000000000E-002   -4.547391873936449E-004
 -1.830000000000000E-002   -4.674953530517086E-004
 -1.820000000000000E-002   -4.804939532896306E-004
 -1.810000000000000E-002   -4.937361749619605E-004
 -1.800000000000000E-002   -5.072232772127747E-004
 -1.790000000000000E-002   -5.209544402166111E-004
 -1.780000000000000E-002   -5.349309047590102E-004
 -1.770000000000000E-002   -5.491518595597076E-004
 -1.760000000000000E-002   -5.636164417704599E-004
 -1.750000000000000E-002   -5.783227216091744E-004
 -1.740000000000000E-002   -5.932669321702198E-004
 -1.730000000000000E-002   -6.084462671063808E-004
 -1.720000000000000E-002   -6.238565245363665E-004
 -1.710000000000000E-002   -6.394934733832194E-004
 -1.700000000000000E-002   -6.553545263250048E-004
 -1.690000000000000E-002   -6.714333870849083E-004
 -1.680000000000000E-002   -6.877299601758310E-004
 -1.670000000000000E-002   -7.042378048358715E-004
 -1.660000000000000E-002   -7.209530422809148E-004
 -1.650000000000000E-002   -7.378702771411120E-004
 -1.640000000000000E-002   -7.549873552036394E-004
 -1.630000000000000E-002   -7.722947254516568E-004
 -1.620000000000000E-002   -7.897907572923368E-004
 -1.610000000000000E-002   -8.074638464988879E-004
 -1.600000000000000E-002   -8.253112011122055E-004
 -1.590000000000000E-002   -8.433190475032413E-004
 -1.580000000000000E-002   -8.614844712776099E-004
 -1.570000000000000E-002   -8.797938505335102E-004
 -1.560000000000000E-002   -8.982433044966414E-004
 -1.550000000000000E-002   -9.168219579384698E-004
 -1.540000000000000E-002   -9.355197772508966E-004
 -1.530000000000000E-002   -9.543299768930650E-004
 -1.520000000000000E-002   -9.732476273040420E-004
 -1.510000000000000E-002   -9.922635214301215E-004
 -1.500000000000000E-002   -1.011364809131539E-003
 -1.490000000000000E-002   -1.030546029587982E-003
 -1.480000000000000E-002   -1.049790688136753E-003
 -1.470000000000000E-002   -1.069091385298595E-003
 -1.460000000000000E-002   -1.088434355341901E-003
 -1.450000000000000E-002   -1.107799329808022E-003
 -1.440000000000000E-002   -1.127176961788004E-003
 -1.430000000000000E-002   -1.146550570031388E-003
 -1.420000000000000E-002   -1.165905613407058E-003
 -1.410000000000000E-002   -1.185225599446088E-003
 -1.400000000000000E-002   -1.204493271657954E-003
 -1.390000000000000E-002   -1.223693737979349E-003
 -1.380000000000000E-002   -1.242813023291135E-003
 -1.370000000000000E-002   -1.261833430533457E-003
 -1.360000000000000E-002   -1.280743693380271E-003
 -1.350000000000000E-002   -1.299526521885488E-003
 -1.340000000000000E-002   -1.318162416063043E-003
 -1.330000000000000E-002   -1.336634311515279E-003
 -1.320000000000000E-002   -1.354925864720014E-003
 -1.310000000000000E-002   -1.373014897795934E-003
 -1.300000000000000E-002   -1.390877261650905E-003
 -1.290000000000000E-002   -1.408500440027001E-003
 -1.280000000000000E-002   -1.425851868683034E-003
 -1.270000000000000E-002   -1.442914339526903E-003
 -1.260000000000000E-002   -1.459665512671425E-003
 -1.250000000000000E-002   -1.476082920050907E-003
 -1.240000000000000E-002   -1.492143727699569E-003
 -1.230000000000000E-002   -1.507825926498337E-003
 -1.220000000000000E-002   -1.523114220236332E-003
 -1.210000000000000E-002   -1.537985116178149E-003
 -1.200000000000000E-002   -1.552421406635199E-003
 -1.190000000000000E-002   -1.566395101310819E-003
 -1.180000000000000E-002   -1.579895536921234E-003
 -1.170000000000000E-002   -1.592894318366712E-003
 -1.160000000000000E-002   -1.605373925624889E-003
 -1.150000000000000E-002   -1.617305080256620E-003
 -1.140000000000000E-002   -1.628665024144150E-003
 -1.130000000000000E-002   -1.639426573092687E-003
 -1.120000000000000E-002   -1.649566097694989E-003
 -1.110000000000000E-002   -1.659057922051753E-003
 -1.100000000000000E-002   -1.667874004741998E-003
 -1.090000000000000E-002   -1.675996690307623E-003
 -1.080000000000000E-002   -1.683401790758522E-003
 -1.070000000000000E-002   -1.690066334658513E-003
 -1.060000000000000E-002   -1.695965196257962E-003
 -1.050000000000000E-002   -1.701074834413618E-003
 -1.040000000000000E-002   -1.705373029037217E-003
 -1.030000000000000E-002   -1.708832089586200E-003
 -1.020000000000000E-002   -1.711434187722717E-003
 -1.010000000000000E-002   -1.713158822225114E-003
 -1.000000000000000E-002   -1.713981807923870E-003
 -9.899999999999999E-003   -1.713876739830353E-003
 -9.800000000000000E-003   -1.712812887573804E-003
 -9.699999999999999E-003   -1.710771814152003E-003
 -9.599999999999999E-003   -1.707732068931309E-003
 -9.500000000000000E-003   -1.703674191893829E-003
 -9.399999999999999E-003   -1.698577881901142E-003
 -9.299999999999999E-003   -1.692424968814388E-003
 -9.200000000000000E-003   -1.685197316060743E-003
 -9.099999999999999E-003   -1.676874392629188E-003
 -8.999999999999999E-003   -1.667445082359133E-003
 -8.900000000000000E-003   -1.656892901474930E-003
 -8.799999999999999E-003   -1.645202195294307E-003
 -8.699999999999999E-003   -1.632355524360762E-003
 -8.600000000000000E-003   -1.618334027095637E-003
 -8.499999999999999E-003   -1.603123015433186E-003
 -8.399999999999999E-003   -1.586710272989778E-003
 -8.300000000000000E-003   -1.569074109040341E-003
 -8.199999999999999E-003   -1.550211056348361E-003
 -8.100000000000000E-003   -1.530105603923143E-003
 -8.000000000000000E-003   -1.508745096385013E-003
 -7.899999999999999E-003   -1.486120271389186E-003
 -7.800000000000000E-003   -1.462224210606896E-003
 -7.699999999999999E-003   -1.437051042576834E-003
 -7.599999999999999E-003   -1.410593046370623E-003
 -7.499999999999999E-003   -1.382850044445858E-003
 -7.399999999999999E-003   -1.353811034451015E-003
 -7.299999999999999E-003   -1.323481477821747E-003
 -7.199999999999999E-003   -1.291859277640436E-003
 -7.100000000000000E-003   -1.258934110918049E-003
 -6.999999999999999E-003   -1.224708075556663E-003
 -6.899999999999999E-003   -1.189180194449323E-003
 -6.800000000000000E-003   -1.152353485706255E-003
 -6.699999999999999E-003   -1.114230263936910E-003
 -6.599999999999999E-003   -1.074814452268277E-003
 -6.499999999999999E-003   -1.034114525250787E-003
 -6.399999999999999E-003   -9.921366061499326E-004
 -6.299999999999999E-003   -9.488881654959817E-004
 -6.199999999999999E-003   -9.043845437183198E-004
 -6.100000000000000E-003   -8.586341070438725E-004
 -5.999999999999999E-003   -8.116518653440959E-004
 -5.899999999999999E-003   -7.634501021436218E-004
 -5.800000000000000E-003   -7.140422929555711E-004
 -5.699999999999999E-003   -6.634474883503586E-004
 -5.599999999999999E-003   -6.116840641212963E-004
 -5.499999999999999E-003   -5.587713577219510E-004
 -5.399999999999999E-003   -5.047290196801861E-004
 -5.299999999999999E-003   -4.495777702732647E-004
 -5.199999999999999E-003   -3.933434966609858E-004
 -5.099999999999999E-003   -3.360513566817679E-004
 -4.999999999999999E-003   -2.777285718674090E-004
 -4.899999999999999E-003   -2.184017581543280E-004
 -4.799999999999999E-003   -1.581003497243723E-004
 -4.699999999999999E-003   -9.685412278187967E-005
 -4.599999999999999E-003   -3.469649745977809E-005
 -4.499999999999999E-003    2.834015194299287E-005
 -4.399999999999999E-003    9.222026595618119E-005
 -4.299999999999999E-003    1.569040457884427E-004
 -4.199999999999999E-003    2.223555756388738E-004
 -4.099999999999999E-003    2.885363958190345E-004
 -3.999999999999999E-003    3.554077361797650E-004
 -3.899999999999999E-003    4.229292309001036E-004
 -3.799999999999999E-003    4.910618835829248E-004
 -3.699999999999999E-003    5.597642325355350E-004
 -3.599999999999999E-003    6.289946627235921E-004
 -3.499999999999999E-003    6.987131555372637E-004
 -3.399999999999999E-003    7.688736184386941E-004
 -3.299999999999999E-003    8.394319158918293E-004
 -3.199999999999999E-003    9.103460833804564E-004
 -3.099999999999999E-003    9.815563084705943E-004
 -2.999999999999999E-003    1.053022811008955E-003
 -2.899999999999999E-003    1.124695614971319E-003
 -2.799999999999999E-003    1.196520598279356E-003
 -2.699999999999999E-003    1.268441553023858E-003
 -2.599999999999999E-003    1.340403768302561E-003
 -2.499999999999999E-003    1.412364662220288E-003
 -2.399999999999999E-003    1.484262020153074E-003
 -2.299999999999999E-003    1.556043391316285E-003
 -2.199999999999999E-003    1.627652240386867E-003
 -2.099999999999999E-003    1.699035236484514E-003
 -1.999999999999999E-003    1.770142053020552E-003
 -1.899999999999999E-003    1.840917128499708E-003
 -1.799999999999999E-003    1.911298094661389E-003
 -1.699999999999999E-003    1.981233290042395E-003
 -1.599999999999999E-003    2.050664998146882E-003
 -1.499999999999999E-003    2.119535999148572E-003
 -1.399999999999999E-003    2.187800114604760E-003
 -1.299999999999999E-003    2.255394515074085E-003
 -1.199999999999999E-003    2.322265156559433E-003
 -1.099999999999999E-003    2.388365417436623E-003
 -9.999999999999989E-004    2.453636709075200E-003
 -8.999999999999990E-004    2.518024126950277E-003
 -7.999999999999990E-004    2.581481049840101E-003
 -6.999999999999989E-004    2.643947890678539E-003
 -5.999999999999990E-004    2.705381815759744E-003
 -4.999999999999989E-004    2.765724680651213E-003
 -3.999999999999989E-004    2.824917774559253E-003
 -2.999999999999989E-004    2.882920024119204E-003
 -1.999999999999989E-004    2.939663751646476E-003
 -9.999999999999892E-005    2.995116027940878E-003
  1.084202172485504E-018    3.049203589147662E-003
  1.000000000000011E-004    3.101902397116968E-003
  2.000000000000011E-004    3.153158300509218E-003
  3.000000000000011E-004    3.202918375316194E-003
  4.000000000000011E-004    3.251139726102581E-003
  5.000000000000011E-004    3.297784895156496E-003
  6.000000000000011E-004    3.342811282780467E-003
  7.000000000000011E-004    3.386174965245022E-003
  8.000000000000011E-004    3.427839818223699E-003
  9.000000000000012E-004    3.467766673292461E-003
  1.000000000000001E-003    3.505914510543669E-003
  1.100000000000001E-003    3.542247750010545E-003
  1.200000000000001E-003    3.576724518762786E-003
  1.300000000000001E-003    3.609323008823356E-003
  1.400000000000001E-003    3.640006965128895E-003
  1.500000000000001E-003    3.668757697776484E-003
  1.600000000000001E-003    3.695528942164100E-003
  1.700000000000001E-003    3.720317223326421E-003
  1.800000000000001E-003    3.743088640169479E-003
  1.900000000000001E-003    3.763822312609195E-003
  2.000000000000001E-003    3.782505011686130E-003
  2.100000000000001E-003    3.799102713829640E-003
  2.200000000000001E-003    3.813614070727993E-003
  2.300000000000001E-003    3.826022390964461E-003
  2.400000000000001E-003    3.836309819738648E-003
  2.500000000000001E-003    3.844462789732897E-003
  2.600000000000001E-003    3.850453815363017E-003
  2.700000000000001E-003    3.854287889670058E-003
  2.800000000000001E-003    3.855948168151671E-003
  2.900000000000001E-003    3.855428671915968E-003
  3.000000000000001E-003    3.852727931340547E-003
  3.100000000000001E-003    3.847853895701317E-003
  3.200000000000001E-003    3.840808514619196E-003
  3.300000000000001E-003    3.831603284247115E-003
  3.400000000000001E-003    3.820231155879081E-003
  3.500000000000001E-003    3.806713605657361E-003
  3.600000000000001E-003    3.791063816743358E-003
  3.700000000000001E-003    3.773287780708304E-003
  3.800000000000001E-003    3.753399332475552E-003
  3.900000000000001E-003    3.731408239632264E-003
  4.000000000000001E-003    3.707322138549698E-003
  4.100000000000001E-003    3.681158096885545E-003
  4.200000000000001E-003    3.652942861247496E-003
  4.300000000000001E-003    3.622691583668972E-003
  4.400000000000001E-003    3.590426385180791E-003
  4.500000000000001E-003    3.556178797069695E-003
  4.600000000000002E-003    3.519975703444894E-003
  4.700000000000001E-003    3.481845835900430E-003
  4.800000000000001E-003    3.441813653182718E-003
  4.900000000000002E-003    3.399912814705440E-003
  5.000000000000001E-003    3.356185529410222E-003
  5.100000000000001E-003    3.310666676498861E-003
  5.200000000000001E-003    3.263386537492557E-003
  5.300000000000002E-003    3.214388556049823E-003
  5.400000000000001E-003    3.163708945717773E-003
  5.500000000000001E-003    3.111393604465426E-003
  5.600000000000002E-003    3.057476598624858E-003
  5.700000000000001E-003    3.001997269520013E-003
  5.800000000000001E-003    2.945006012135251E-003
  5.900000000000002E-003    2.886534414706963E-003
  6.000000000000001E-003    2.826644912248724E-003
  6.100000000000001E-003    2.765360721612143E-003
  6.200000000000002E-003    2.702733509253687E-003
  6.300000000000002E-003    2.638810828077140E-003
  6.400000000000001E-003    2.573642229175010E-003
  6.500000000000001E-003    2.507275141030704E-003
  6.600000000000002E-003    2.439772457435010E-003
  6.700000000000001E-003    2.371183587082767E-003
  6.800000000000001E-003    2.301566564820969E-003
  6.900000000000002E-003    2.230968032420885E-003
  7.000000000000001E-003    2.159442589756009E-003
  7.100000000000001E-003    2.087045428328500E-003
  7.200000000000002E-003    2.013820458522126E-003
  7.300000000000002E-003    1.939818632365576E-003
  7.400000000000001E-003    1.865099422680275E-003
  7.500000000000001E-003    1.789707647320636E-003
  7.600000000000002E-003    1.713700654196917E-003
  7.700000000000001E-003    1.637131400343529E-003
  7.800000000000001E-003    1.560054276209690E-003
  7.900000000000001E-003    1.482520626700658E-003
  8.000000000000002E-003    1.404583109335415E-003
  8.100000000000001E-003    1.326297790390217E-003
  8.200000000000001E-003    1.247719799436596E-003
  8.300000000000002E-003    1.168901430123425E-003
  8.400000000000001E-003    1.089899973088813E-003
  8.500000000000002E-003    1.010764509379269E-003
  8.600000000000002E-003    9.315468690739639E-004
  8.700000000000001E-003    8.522961145359699E-004
  8.800000000000002E-003    7.730651366191742E-004
  8.900000000000002E-003    6.938973021837882E-004
  9.000000000000001E-003    6.148444968643446E-004
  9.100000000000002E-003    5.359522754997499E-004
  9.200000000000002E-003    4.572693066372353E-004
  9.300000000000001E-003    3.788408390820036E-004
  9.400000000000002E-003    3.007127452596247E-004
  9.500000000000001E-003    2.229243000012740E-004
  9.600000000000001E-003    1.455175207073214E-004
  9.700000000000002E-003    6.854206846518534E-005
  9.800000000000001E-003   -7.962537682234053E-006
  9.900000000000001E-003   -8.395314426747243E-005
  1.000000000000000E-002   -1.593888954072031E-004
  1.010000000000000E-002   -2.342342922788706E-004
  1.020000000000000E-002   -3.084486105479781E-004
  1.030000000000000E-002   -3.819932367889740E-004
  1.040000000000000E-002   -4.548349751257374E-004
  1.050000000000000E-002   -5.269413858682371E-004
  1.060000000000000E-002   -5.982834934661436E-004
  1.070000000000000E-002   -6.688262458348065E-004
  1.080000000000000E-002   -7.385390736242576E-004
  1.090000000000000E-002   -8.073932203936963E-004
  1.100000000000000E-002   -8.753583944372577E-004
  1.110000000000000E-002   -9.424082819978101E-004
  1.120000000000000E-002   -1.008513401018383E-003
  1.130000000000000E-002   -1.073649985028069E-003
  1.140000000000000E-002   -1.137795017255791E-003
  1.150000000000000E-002   -1.200928576274822E-003
  1.160000000000000E-002   -1.263035316718134E-003
  1.170000000000000E-002   -1.324095591136892E-003
  1.180000000000000E-002   -1.384093000899950E-003
  1.190000000000000E-002   -1.443013084221416E-003
  1.200000000000000E-002   -1.500845637323694E-003
  1.210000000000000E-002   -1.557575820201204E-003
  1.220000000000000E-002   -1.613188985738695E-003
  1.230000000000000E-002   -1.667668215812209E-003
  1.240000000000000E-002   -1.721004716250465E-003
  1.250000000000000E-002   -1.773183820284839E-003
  1.260000000000000E-002   -1.824192735321414E-003
  1.270000000000000E-002   -1.874023645671666E-003
  1.280000000000000E-002   -1.922671587382740E-003
  1.290000000000000E-002   -1.970128175371892E-003
  1.300000000000000E-002   -2.016387543186404E-003
  1.310000000000000E-002   -2.061450964671125E-003
  1.320000000000000E-002   -2.105319434212298E-003
  1.330000000000000E-002   -2.147986820121503E-003
  1.340000000000000E-002   -2.189459826414913E-003
  1.350000000000000E-002   -2.229740989035823E-003
  1.360000000000000E-002   -2.268827865848975E-003
  1.370000000000000E-002   -2.306727125850554E-003
  1.380000000000000E-002   -2.343440942760157E-003
  1.390000000000000E-002   -2.378972665630280E-003
  1.400000000000000E-002   -2.413327456164117E-003
  1.410000000000000E-002   -2.446512985861383E-003
  1.420000000000000E-002   -2.478534165092010E-003
  1.430000000000000E-002   -2.509400693540997E-003
  1.440000000000000E-002   -2.539121659356186E-003
  1.450000000000000E-002   -2.567703521900333E-003
  1.460000000000000E-002   -2.595161616351503E-003
  1.470000000000000E-002   -2.621505885378551E-003
  1.480000000000000E-002   -2.646748482957231E-003
  1.490000000000000E-002   -2.670901756238374E-003
  1.500000000000000E-002   -2.693976643217591E-003
  1.510000000000000E-002   -2.715984873375488E-003
  1.520000000000000E-002   -2.736938584847998E-003
  1.530000000000000E-002   -2.756851320120116E-003
  1.540000000000000E-002   -2.775737116969025E-003
  1.550000000000000E-002   -2.793605545078501E-003
  1.560000000000000E-002   -2.810469828492847E-003
  1.570000000000000E-002   -2.826345958485375E-003
  1.580000000000000E-002   -2.841248773026502E-003
  1.590000000000000E-002   -2.855188502365560E-003
  1.600000000000000E-002   -2.868183059015171E-003
  1.610000000000000E-002   -2.880245779649897E-003
  1.620000000000000E-002   -2.891389338552517E-003
  1.630000000000000E-002   -2.901630648465908E-003
  1.640000000000000E-002   -2.910979600773425E-003
  1.650000000000000E-002   -2.919454064089680E-003
  1.660000000000000E-002   -2.927068456117409E-003
  1.670000000000000E-002   -2.933835839046356E-003
  1.680000000000000E-002   -2.939769985240606E-003
  1.690000000000000E-002   -2.944889460323091E-003
  1.700000000000000E-002   -2.949206344341024E-003
  1.710000000000000E-002   -2.952737536169009E-003
  1.720000000000000E-002   -2.955500179655041E-003
  1.730000000000000E-002   -2.957507975548293E-003
  1.740000000000000E-002   -2.958774459939011E-003
  1.750000000000000E-002   -2.959313895776153E-003
  1.760000000000000E-002   -2.959140716013144E-003
  1.770000000000000E-002   -2.958264819642911E-003
  1.780000000000000E-002   -2.956700537224612E-003
  1.790000000000000E-002   -2.954464397758851E-003
  1.800000000000000E-002   -2.951564241608501E-003
  1.810000000000000E-002   -2.948013360137190E-003
  1.820000000000000E-002   -2.943830350902892E-003
  1.830000000000000E-002   -2.939023003780270E-003
  1.840000000000000E-002   -2.933603954945522E-003
  1.850000000000000E-002   -2.927583242293197E-003
  1.860000000000000E-002   -2.920972446314953E-003
  1.870000000000000E-002   -2.913778371807176E-003