 -4.000000000000000E-002    0.000000000000000E+000
 -3.990000000000000E-002    0.000000000000000E+000
 -3.980000000000000E-002    0.000000000000000E+000
 -3.970000000000000E-002    0.000000000000000E+000
 -3.960000000000000E-002    0.000000000000000E+000
 -3.950000000000000E-002    0.000000000000000E+000
 -3.940000000000000E-002   -8.886850627111431E-023
 -3.930000000000000E-002   -1.257639967775467E-021
 -3.920000000000000E-002   -8.635963136481942E-021
 -3.910000000000000E-002   -3.896592634057023E-020
 -3.900000000000000E-002   -1.296473895172687E-019
 -3.890000000000000E-002   -3.330966711238948E-019
 -3.880000000000000E-002   -6.559937269366424E-019
 -3.870000000000000E-002   -8.753773029152156E-019
 -3.860000000000000E-002   -1.525471859314234E-019
 -3.850000000000000E-002    3.596372669922949E-018
 -3.840000000000000E-002    1.449226573241639E-017
 -3.830000000000000E-002    3.934028059730329E-017
 -3.820000000000000E-002    8.751621297255089E-017
 -3.810000000000000E-002    1.691666767736243E-016
 -3.800000000000000E-002    2.906439481108810E-016
 -3.790000000000000E-002    4.463066573367667E-016
 -3.780000000000000E-002    6.066009002525401E-016
 -3.770000000000000E-002    7.038168773110481E-016
 -3.760000000000000E-002    6.190235720875395E-016
 -3.750000000000000E-002    1.760741022897114E-016
 -3.740000000000000E-002   -8.494409215409248E-016
 -3.730000000000000E-002   -2.697770989946395E-015
 -3.720000000000000E-002   -5.562356818816052E-015
 -3.710000000000000E-002   -9.495219222006486E-015
 -3.700000000000000E-002   -1.428722390012526E-014
 -3.690000000000000E-002   -1.934150443410404E-014
 -3.680000000000000E-002   -2.357084035536169E-014
 -3.670000000000000E-002   -2.536020333364365E-014
 -3.660000000000000E-002   -2.264008323318758E-014
 -3.650000000000000E-002   -1.311061611251056E-014
 -3.640000000000000E-002    5.362455477682639E-015
 -3.630000000000000E-002    3.419181178403241E-014
 -3.620000000000000E-002    7.340915401483553E-014
 -3.610000000000000E-002    1.210083697400139E-013
 -3.600000000000000E-002    1.724417063711825E-013
 -3.590000000000000E-002    2.204449086757193E-013
 -3.580000000000000E-002    2.553608005860791E-013
 -3.570000000000000E-002    2.660823232394754E-013
 -3.560000000000000E-002    2.416401753240095E-013
 -3.550000000000000E-002    1.733253718007029E-013
 -3.540000000000000E-002    5.707905072490653E-014
 -3.530000000000000E-002   -1.042692310849495E-013
 -3.520000000000000E-002   -2.994397108503586E-013
 -3.510000000000000E-002   -5.083661248558922E-013
 -3.500000000000000E-002   -7.035413994960083E-013
 -3.490000000000000E-002   -8.532791297189161E-013
 -3.480000000000000E-002   -9.267796657240039E-013
 -3.470000000000000E-002   -9.004623892702446E-013
 -3.460000000000000E-002   -7.645879607549911E-013
 -3.450000000000000E-002   -5.288360558907161E-013
 -3.440000000000000E-002   -2.253302276623175E-013
 -3.430000000000000E-002    9.229737257216793E-014
 -3.420000000000000E-002    3.547812375171409E-013
 -3.410000000000000E-002    4.882522327839910E-013
 -3.400000000000000E-002    4.296173100916660E-013
 -3.390000000000000E-002    1.443455416822696E-013
 -3.380000000000000E-002   -3.563365607292251E-013
 -3.370000000000000E-002   -1.002553250231767E-012
 -3.360000000000000E-002   -1.661067176436773E-012
 -3.350000000000000E-002   -2.142051473775609E-012
 -3.340000000000000E-002   -2.219267107084457E-012
 -3.330000000000000E-002   -1.663477765935137E-012
 -3.320000000000000E-002   -2.863487342598520E-013
 -3.310000000000000E-002    2.010591122497416E-012
 -3.300000000000000E-002    5.189611428509183E-012
 -3.290000000000000E-002    9.042101040052142E-012
 -3.280000000000000E-002    1.317454514262185E-011
 -3.270000000000000E-002    1.702249639970310E-011
 -3.260000000000000E-002    1.989647263323384E-011
 -3.250000000000000E-002    2.105905524810292E-011
 -3.240000000000000E-002    1.982689050990027E-011
 -3.230000000000000E-002    1.568588718127611E-011
 -3.220000000000000E-002    8.403607592678771E-012
 -3.210000000000000E-002   -1.879550359994824E-012
 -3.200000000000000E-002   -1.459823155363200E-011
 -3.190000000000000E-002   -2.876340468411149E-011
 -3.180000000000000E-002   -4.302478129009366E-011
 -3.170000000000000E-002   -5.579341363698171E-011
 -3.160000000000000E-002   -6.541371584305213E-011
 -3.150000000000000E-002   -7.036510121045028E-011
 -3.140000000000000E-002   -6.946644402777350E-011
 -3.130000000000000E-002   -6.205361249190867E-011
 -3.120000000000000E-002   -4.810180452738008E-011
 -3.110000000000000E-002   -2.827102972218098E-011
 -3.100000000000000E-002   -3.863787311276833E-012
 -3.090000000000000E-002    2.330246755171070E-011
 -3.080000000000000E-002    5.109152838126897E-011
 -3.070000000000000E-002    7.728473113402469E-011
 -3.060000000000000E-002    9.982104792650903E-011
 -3.050000000000000E-002    1.170033993754185E-010
 -3.040000000000000E-002    1.276387556475175E-010
 -3.030000000000000E-002    1.310918063927695E-010
 -3.020000000000000E-002    1.272481679364050E-010
 -3.010000000000000E-002    1.164015569101622E-010
 -3.000000000000000E-002    9.909553863500707E-011
 -2.990000000000000E-002    7.596157102181075E-011
 -2.980000000000000E-002    4.759803155002087E-011
 -2.970000000000000E-002    1.452783096739031E-011
 -2.960000000000000E-002   -2.274356569812253E-011
 -2.950000000000000E-002   -6.357125739582477E-011
 -2.940000000000000E-002   -1.069426203973150E-010
 -2.930000000000000E-002   -1.512291315630710E-010
 -2.920000000000000E-002   -1.939860465529709E-010
 -2.910000000000000E-002   -2.318720582698705E-010
 -2.900000000000000E-002   -2.607502864148665E-010
 -2.890000000000000E-002   -2.760067192615211E-010
 -2.880000000000000E-002   -2.730839939579013E-010
 -2.870000000000000E-002   -2.481845318467714E-010
 -2.860000000000000E-002   -1.990536183357140E-010
 -2.850000000000000E-002   -1.257194490119474E-010
 -2.840000000000000E-002   -3.105066197040519E-011
 -2.830000000000000E-002    7.900140016766839E-011
 -2.820000000000000E-002    1.955772916970088E-010
 -2.810000000000000E-002    3.075484187103164E-010
 -2.800000000000000E-002    4.025982722405455E-010
 -2.790000000000000E-002    4.686479610339035E-010
 -2.780000000000000E-002    4.954600004147607E-010
 -2.770000000000000E-002    4.762048193367919E-010
 -2.760000000000000E-002    4.087541954397540E-010
 -2.750000000000000E-002    2.964827966907297E-010
 -2.740000000000000E-002    1.484116882396534E-010
 -2.730000000000000E-002   -2.139001599840604E-011
 -2.720000000000000E-002   -1.951243206276255E-010
 -2.710000000000000E-002   -3.531775160273616E-010
 -2.700000000000000E-002   -4.764047138933754E-010
 -2.690000000000000E-002   -5.484984476542122E-010
 -2.680000000000000E-002   -5.581277519882867E-010
 -2.670000000000000E-002   -5.005565506339156E-010
 -2.660000000000000E-002   -3.785155776231354E-010
 -2.650000000000000E-002   -2.022015740959127E-010
 -2.640000000000000E-002    1.159901703955322E-011
 -2.630000000000000E-002    2.411484764888557E-010
 -2.620000000000000E-002    4.619395760427085E-010
 -2.610000000000000E-002    6.491399050889277E-010
 -2.600000000000000E-002    7.799967708684247E-010
 -2.590000000000000E-002    8.359297189866223E-010
 -2.580000000000000E-002    8.041092211095950E-010
 -2.570000000000000E-002    6.784147589092209E-010
 -2.560000000000000E-002    4.597726829399263E-010
 -2.550000000000000E-002    1.559655803937035E-010
 -2.540000000000000E-002   -2.189364101256786E-010
 -2.530000000000000E-002   -6.453509047670824E-010
 -2.520000000000000E-002   -1.099025314877684E-009
 -2.510000000000000E-002   -1.551869260893194E-009
 -2.500000000000000E-002   -1.972792844259841E-009
 -2.490000000000000E-002   -2.328654238398894E-009
 -2.480000000000000E-002   -2.585486438527481E-009
 -2.470000000000000E-002   -2.710195238423481E-009
 -2.460000000000000E-002   -2.672881685428482E-009
 -2.450000000000000E-002   -2.449845699445876E-009
 -2.440000000000000E-002   -2.027177390194356E-009
 -2.430000000000000E-002   -1.404667369057255E-009
 -2.420000000000000E-002   -5.995866937651780E-010
 -2.410000000000000E-002    3.502493635819244E-010
 -2.400000000000000E-002    1.384792375602702E-009
 -2.390000000000000E-002    2.422089718903701E-009
 -2.380000000000000E-002    3.361144882403648E-009
 -2.370000000000000E-002    4.087611485937611E-009
 -2.360000000000000E-002    4.482324793485343E-009
 -2.350000000000000E-002    4.432342975907723E-009
 -2.340000000000000E-002    3.843844376510002E-009
 -2.330000000000000E-002    2.655948024669861E-009
 -2.320000000000000E-002    8.543448397023728E-010
 -2.310000000000000E-002   -1.516436806736784E-009
 -2.300000000000000E-002   -4.343238284375985E-009
 -2.290000000000000E-002   -7.437860215520223E-009
 -2.280000000000000E-002   -1.053465038779673E-008
 -2.270000000000000E-002   -1.329234674381907E-008
 -2.260000000000000E-002   -1.530006544577857E-008
 -2.250000000000000E-002   -1.608697414834091E-008
 -2.240000000000000E-002   -1.513493444676199E-008
 -2.230000000000000E-002   -1.189321791239585E-008
 -2.220000000000000E-002   -5.794329926071403E-009
 -2.210000000000000E-002    3.729986485061164E-009
 -2.200000000000000E-002    1.723338048161930E-008
 -2.190000000000000E-002    3.524082100559154E-008
 -2.180000000000000E-002    5.823631876171374E-008
 -2.170000000000000E-002    8.665276410728182E-008
 -2.160000000000000E-002    1.208641459586604E-007
 -2.150000000000000E-002    1.611801645147818E-007
 -2.140000000000000E-002    2.078435106819917E-007
 -2.130000000000000E-002    2.610297244092885E-007
 -2.120000000000000E-002    3.208498343188036E-007
 -2.110000000000000E-002    3.873556092117055E-007
 -2.100000000000000E-002    4.605476646756282E-007
 -2.090000000000000E-002    5.403857287022020E-007
 -2.080000000000000E-002    6.268013883161556E-007
 -2.070000000000000E-002    7.197120351072827E-007
 -2.060000000000000E-002    8.190361246435695E-007
 -2.050000000000000E-002    9.247083791704639E-007
 -2.040000000000000E-002    1.036693924241158E-006
 -2.030000000000000E-002    1.155001758205131E-006
 -2.020000000000000E-002    1.279695142937750E-006
 -2.010000000000000E-002    1.410900506394431E-006
 -2.000000000000000E-002    1.548812952511972E-006
 -1.990000000000000E-002    1.693699475869918E-006
 -1.980000000000000E-002    1.845900721409020E-006
 -1.970000000000000E-002    2.005831137465593E-006
 -1.960000000000000E-002    2.173978270147119E-006
 -1.950000000000000E-002    2.350902635522065E-006
 -1.940000000000000E-002    2.537238264021490E-006
 -1.930000000000000E-002    2.733693000337166E-006
 -1.920000000000000E-002    2.941050901895612E-006
 -1.910000000000000E-002    3.160172934429686E-006
 -1.900000000000000E-002    3.391999952159067E-006
 -1.890000000000000E-002    3.637551312517931E-006
 -1.880000000000000E-002    3.897924151806872E-006
 -1.870000000000000E-002    4.174288034777904E-006
 -1.860000000000000E-002    4.467877212250064E-006
 -1.850000000000000E-002    4.779981124805313E-006
 -1.840000000000000E-002    5.111929695113776E-006
 -1.830000000000000E-002    5.465080094872529E-006
 -1.820000000000000E-002    5.840800901481103E-006
 -1.810000000000000E-002    6.240458423537975E-006
 -1.800000000000000E-002    6.665405785526052E-006
 -1.790000000000000E-002    7.116974881542846E-006
 -1.780000000000000E-002    7.596475609182138E-006
 -1.770000000000000E-002    8.105199227239198E-006
 -1.760000000000000E-002    8.644429860251619E-006
 -1.750000000000000E-002    9.215458794150397E-006
 -1.740000000000000E-002    9.819607456943010E-006
 -1.730000000000000E-002    1.045825517028891E-005
 -1.720000000000000E-002    1.113286471909374E-005
 -1.710000000000000E-002    1.184501517164326E-005
 -1.700000000000000E-002    1.259642959476983E-005
 -1.690000000000000E-002    1.338900507575509E-005
 -1.680000000000000E-002    1.422483440450748E-005
 -1.670000000000000E-002    1.510622242944057E-005
 -1.660000000000000E-002    1.603570369347351E-005
 -1.650000000000000E-002    1.701604198634059E-005
 -1.640000000000000E-002    1.805023487537134E-005
 -1.630000000000000E-002    1.914150153745981E-005
 -1.620000000000000E-002    2.029327186174539E-005
 -1.610000000000000E-002    2.150916797596250E-005
 -1.600000000000000E-002    2.279298459067961E-005
 -1.590000000000000E-002    2.414866586209152E-005
 -1.580000000000000E-002    2.558028753022312E-005
 -1.570000000000000E-002    2.709203343966683E-005
 -1.560000000000000E-002    2.868819001253468E-005
 -1.550000000000000E-002    3.037313429784264E-005
 -1.540000000000000E-002    3.215133742422456E-005
 -1.530000000000000E-002    3.402737042143686E-005
 -1.520000000000000E-002    3.600592249442153E-005
 -1.510000000000000E-002    3.809182109116254E-005
 -1.500000000000000E-002    4.029006033565991E-005
 -1.490000000000000E-002    4.260582203362147E-005
 -1.480000000000000E-002    4.504451946006409E-005
 -1.470000000000000E-002    4.761182217778066E-005
 -1.460000000000000E-002    5.031368239138421E-005
 -1.450000000000000E-002    5.315636206862581E-005
 -1.440000000000000E-002    5.614645685602275E-005
 -1.430000000000000E-002    5.929089885694579E-005
 -1.420000000000000E-002    6.259699180543651E-005
 -1.410000000000000E-002    6.607239684053943E-005
 -1.400000000000000E-002    6.972515448671593E-005
 -1.390000000000000E-002    7.356368317416768E-005
 -1.380000000000000E-002    7.759678619371399E-005
 -1.370000000000000E-002    8.183366038453100E-005
 -1.360000000000000E-002    8.628388592343719E-005
 -1.350000000000000E-002    9.095745794469153E-005
 -1.340000000000000E-002    9.586476745324345E-005
 -1.330000000000000E-002    1.010166236574072E-004
 -1.320000000000000E-002    1.064242800567500E-004
 -1.310000000000000E-002    1.120994156350867E-004
 -1.300000000000000E-002    1.180541591487585E-004
 -1.290000000000000E-002    1.243011122663075E-004
 -1.280000000000000E-002    1.308533347023892E-004
 -1.270000000000000E-002    1.377243893801718E-004
 -1.260000000000000E-002    1.449283092025421E-004
 -1.250000000000000E-002    1.524796597982553E-004
 -1.240000000000000E-002    1.603935297026572E-004
 -1.230000000000000E-002    1.686855261403350E-004
 -1.220000000000000E-002    1.773718301843739E-004
 -1.210000000000000E-002    1.864691826153505E-004
 -1.200000000000000E-002    1.959949235958917E-004
 -1.190000000000000E-002    2.059669798912601E-004
 -1.180000000000000E-002    2.164039219964045E-004
 -1.170000000000000E-002    2.273249722880232E-004
 -1.160000000000000E-002    2.387500214066686E-004
 -1.150000000000000E-002    2.506996557785825E-004
 -1.140000000000000E-002    2.631951743667425E-004
 -1.130000000000000E-002    2.762586379764867E-004
 -1.120000000000000E-002    2.899128897542776E-004
 -1.110000000000000E-002    3.041815354570958E-004
 -1.100000000000000E-002    3.190890735559603E-004
 -1.090000000000000E-002    3.346607947611429E-004
 -1.080000000000000E-002    3.509229104400802E-004
 -1.070000000000000E-002    3.679025008272797E-004
 -1.060000000000000E-002    3.856276042528862E-004
 -1.050000000000000E-002    4.041271589193060E-004
 -1.040000000000000E-002    4.234310873683543E-004
 -1.030000000000000E-002    4.435702216850171E-004
 -1.020000000000000E-002    4.645763566170920E-004
 -1.010000000000000E-002    4.864822932040320E-004
 -1.000000000000000E-002    5.093216986654664E-004
 -9.899999999999999E-003    5.331292758428401E-004
 -9.800000000000000E-003    5.579406564944398E-004
 -9.699999999999999E-003    5.837924487331112E-004
 -9.599999999999999E-003    6.107223079764584E-004
 -9.500000000000000E-003    6.387687651210094E-004
 -9.399999999999999E-003    6.679714416685336E-004
 -9.299999999999999E-003    6.983709514586103E-004
 -9.200000000000000E-003    7.300090519684835E-004
 -9.099999999999999E-003    7.629284710904805E-004
 -8.999999999999999E-003    7.971731514924834E-004
 -8.900000000000000E-003    8.327881532459728E-004
 -8.799999999999999E-003    8.698197953168640E-004
 -8.699999999999999E-003    9.083155551278121E-004
 -8.600000000000000E-003    9.483242271431111E-004
 -8.499999999999999E-003    9.898958122426210E-004
 -8.399999999999999E-003    1.033081633192434E-003
 -8.300000000000000E-003    1.077934474408052E-003
 -8.199999999999999E-003    1.124508271743240E-003
 -8.100000000000000E-003    1.172858410502918E-003
 -8.000000000000000E-003    1.223041484786489E-003
 -7.899999999999999E-003    1.275115602345578E-003
 -7.800000000000000E-003    1.329139986318611E-003
 -7.699999999999999E-003    1.385175294950683E-003
 -7.599999999999999E-003    1.443283272927687E-003
 -7.499999999999999E-003    1.503527006722254E-003
 -7.399999999999999E-003    1.565970821927838E-003
 -7.299999999999999E-003    1.630680018127430E-003
 -7.199999999999999E-003    1.697721378145953E-003
 -7.100000000000000E-003    1.767162556674623E-003
 -6.999999999999999E-003    1.839072572810681E-003
 -6.899999999999999E-003    1.913521411399086E-003
 -6.800000000000000E-003    1.990580429056602E-003
 -6.699999999999999E-003    2.070321947334594E-003
 -6.599999999999999E-003    2.152819460866027E-003
 -6.499999999999999E-003    2.238147519722789E-003
 -6.399999999999999E-003    2.326382140288782E-003
 -6.299999999999999E-003    2.417600130565123E-003
 -6.199999999999999E-003    2.511879430646113E-003
 -6.100000000000000E-003    2.609299234439089E-003
 -5.999999999999999E-003    2.709939784866061E-003
 -5.899999999999999E-003    2.813882355989051E-003
 -5.800000000000000E-003    2.921209262073511E-003
 -5.699999999999999E-003    3.032003700865767E-003
 -5.599999999999999E-003    3.146349611711699E-003
 -5.499999999999999E-003    3.264331929817405E-003
 -5.399999999999999E-003    3.386036426075201E-003
 -5.299999999999999E-003    3.511549477155982E-003
 -5.199999999999999E-003    3.640958349237012E-003
 -5.099999999999999E-003    3.774350497463765E-003
 -4.999999999999999E-003    3.911814587698561E-003
 -4.899999999999999E-003    4.053438768593323E-003
 -4.799999999999999E-003    4.199312582661285E-003
 -4.699999999999999E-003    4.349525186651789E-003
 -4.599999999999999E-003    4.504166690188653E-003
 -4.499999999999999E-003    4.663326562510608E-003
 -4.399999999999999E-003    4.827094588939210E-003
 -4.299999999999999E-003    4.995560567593814E-003
 -4.199999999999999E-003    5.168814082707709E-003
 -4.099999999999999E-003    5.346945069155310E-003
 -3.999999999999999E-003    5.530042073039151E-003
 -3.899999999999999E-003    5.718194258635882E-003
 -3.799999999999999E-003    5.911489214148487E-003
 -3.699999999999999E-003    6.110015117134651E-003
 -3.599999999999999E-003    6.313858228219355E-003
 -3.499999999999999E-003    6.523105004096066E-003
 -3.399999999999999E-003    6.737840298482003E-003
 -3.299999999999999E-003    6.958147964758844E-003
 -3.199999999999999E-003    7.184110183356641E-003
 -3.099999999999999E-003    7.415808015457596E-003
 -2.999999999999999E-003    7.653321429181157E-003
 -2.899999999999999E-003    7.896728507697020E-003
 -2.799999999999999E-003    8.146104892560523E-003
 -2.699999999999999E-003    8.401525687240176E-003
 -2.599999999999999E-003    8.663061900702370E-003
 -2.499999999999999E-003    8.930783292754244E-003
 -2.399999999999999E-003    9.204757570787803E-003
 -2.299999999999999E-003    9.485049438973572E-003
 -2.199999999999999E-003    9.771720613410834E-003
 -2.099999999999999E-003    1.006482946630858E-002
 -1.999999999999999E-003    1.036443112152200E-002
 -1.899999999999999E-003    1.067057777339283E-002
 -1.799999999999999E-003    1.098331850777116E-002
 -1.699999999999999E-003    1.130269749505691E-002
 -1.599999999999999E-003    1.162875569645066E-002
 -1.499999999999999E-003    1.196152897703490E-002
 -1.399999999999999E-003    1.230105000939298E-002
 -1.299999999999999E-003    1.264734487933799E-002
 -1.199999999999999E-003    1.300043706364777E-002
 -1.099999999999999E-003    1.336034388772055E-002
 -9.999999999999989E-004    1.372707741435226E-002
 -8.999999999999990E-004    1.410064482504572E-002
 -7.999999999999990E-004    1.448104729729868E-002
 -6.999999999999989E-004    1.486828123020226E-002
 -5.999999999999990E-004    1.526233493145254E-002
 -4.999999999999989E-004    1.566319297079613E-002
 -3.999999999999989E-004    1.607083019599699E-002
 -2.999999999999989E-004    1.648521882259744E-002
 -1.999999999999989E-004    1.690632128308069E-002
 -9.999999999999892E-005    1.733409368106693E-002
  1.084202172485504E-018    1.776848544326129E-002
  1.000000000000011E-004    1.820943789707624E-002
  2.000000000000011E-004    1.865688395352494E-002
  3.000000000000011E-004    1.911074803008924E-002
  4.000000000000011E-004    1.957094981120878E-002
  5.000000000000011E-004    2.003739711186912E-002
  6.000000000000011E-004    2.050999027862861E-002
  7.000000000000011E-004    2.098862076944198E-002
  8.000000000000011E-004    2.147317171856011E-002
  9.000000000000012E-004    2.196351428913552E-002
  1.000000000000001E-003    2.245951306085935E-002
  1.100000000000001E-003    2.296102100981778E-002
  1.200000000000001E-003    2.346788404614717E-002
  1.300000000000001E-003    2.397993314883361E-002
  1.400000000000001E-003    2.449699140647017E-002
  1.500000000000001E-003    2.501887110933602E-002
  1.600000000000001E-003    2.554537424336983E-002
  1.700000000000001E-003    2.607629189876326E-002
  1.800000000000001E-003    2.661140235632379E-002
  1.900000000000001E-003    2.715047601560509E-002
  2.000000000000001E-003    2.769327033525174E-002
  2.100000000000001E-003    2.823953071693796E-002
  2.200000000000001E-003    2.878899346333606E-002
  2.300000000000001E-003    2.934137966508894E-002
  2.400000000000001E-003    2.989640198357795E-002
  2.500000000000001E-003    3.045375898955551E-002
  2.600000000000001E-003    3.101314051439890E-002
  2.700000000000001E-003    3.157422188301307E-002
  2.800000000000001E-003    3.213666901363105E-002
  2.900000000000001E-003    3.270013120973915E-002
  3.000000000000001E-003    3.326424794225670E-002
  3.100000000000001E-003    3.382864748580372E-002
  3.200000000000001E-003    3.439294694251721E-002
  3.300000000000001E-003    3.495674891056665E-002
  3.400000000000001E-003    3.551964378489518E-002
  3.500000000000001E-003    3.608120974179162E-002
  3.600000000000001E-003    3.664101421285105E-002
  3.700000000000001E-003    3.719861069746710E-002
  3.800000000000001E-003    3.775354185296224E-002
  3.900000000000001E-003    3.830533724811680E-002
  4.000000000000001E-003    3.885351442039937E-002
  4.100000000000001E-003    3.939758280817228E-002
  4.200000000000001E-003    3.993703662078053E-002
  4.300000000000001E-003    4.047135990905051E-002
  4.400000000000001E-003    4.100002261979752E-002
  4.500000000000001E-003    4.152248850128855E-002
  4.600000000000002E-003    4.203820900310989E-002
  4.700000000000001E-003    4.254661930454436E-002
  4.800000000000001E-003    4.304715022760632E-002
  4.900000000000002E-003    4.353922083832686E-002
  5.000000000000001E-003    4.402223852465503E-002
  5.100000000000001E-003    4.449560517785749E-002
  5.200000000000001E-003    4.495870779969496E-002
  5.300000000000002E-003    4.541093083766046E-002
  5.400000000000001E-003    4.585164459238483E-002
  5.500000000000001E-003    4.628021146721345E-002
  5.600000000000002E-003    4.669598922794765E-002
  5.700000000000001E-003    4.709832626015658E-002
  5.800000000000001E-003    4.748656263330629E-002
  5.900000000000002E-003    4.786003182745282E-002
  6.000000000000001E-003    4.821806405018658E-002
  6.100000000000001E-003    4.855997846141479E-002
  6.200000000000002E-003    4.888509362124450E-002
  6.300000000000002E-003    4.919272174495243E-002
  6.400000000000001E-003    4.948217169340090E-002
  6.500000000000001E-003    4.975274482443449E-002
  6.600000000000002E-003    5.000374476881089E-002
  6.700000000000001E-003    5.023446956240296E-002
  6.800000000000001E-003    5.044421352271397E-002
  6.900000000000002E-003    5.063227550366050E-002
  7.000000000000001E-003    5.079794416032943E-002
  7.100000000000001E-003    5.094051678365984E-002
  7.200000000000002E-003    5.105928563831610E-002
  7.300000000000002E-003    5.115354575634476E-002
  7.400000000000001E-003    5.122259542787852E-002
  7.500000000000001E-003    5.126573548837383E-002
  7.600000000000002E-003    5.128226948051699E-002
  7.700000000000001E-003    5.127150482878706E-002
  7.800000000000001E-003    5.123275119408777E-002
  7.900000000000001E-003    5.116532663245837E-002
  8.000000000000002E-003    5.106855248007919E-002
  8.100000000000001E-003    5.094176212916929E-002
  8.200000000000001E-003    5.078429373923007E-002
  8.300000000000002E-003    5.059549469330909E-002
  8.400000000000001E-003    5.037472080876850E-002
  8.500000000000002E-003    5.012133711250655E-002
  8.600000000000002E-003    4.983472111965620E-002
  8.700000000000001E-003    4.951426548851076E-002
  8.800000000000002E-003    4.915936862002569E-002
  8.900000000000002E-003    4.876944517809536E-002
  9.000000000000001E-003    4.834392600321531E-002
  9.100000000000002E-003    4.788225471422921E-002
  9.200000000000002E-003    4.738388916143131E-002
  9.300000000000001E-003    4.684830854302512E-002
  9.400000000000002E-003    4.627500769203757E-002
  9.500000000000001E-003    4.566349474110774E-002
  9.600000000000001E-003    4.501330358314157E-002
  9.700000000000002E-003    4.432398394071126E-002
  9.800000000000001E-003    4.359510591590604E-002
  9.900000000000001E-003    4.282626304048190E-002
  1.000000000000000E-002    4.201707140766153E-002
  1.010000000000000E-002    4.116716550893808E-002
  1.020000000000000E-002    4.027620881261124E-002
  1.030000000000000E-002    3.934388654536243E-002
  1.040000000000000E-002    3.836990606904674E-002
  1.050000000000000E-002    3.735400883823757E-002
  1.060000000000000E-002    3.629595414016459E-002
  1.070000000000000E-002    3.519553144377733E-002
  1.080000000000000E-002    3.405256019945750E-002
  1.090000000000000E-002    3.286688811402275E-002
  1.100000000000000E-002    3.163839056154463E-002
  1.110000000000000E-002    3.036697405708603E-002
  1.120000000000000E-002    2.905257461940379E-002
  1.130000000000000E-002    2.769515811081084E-002
  1.140000000000000E-002    2.629472533048762E-002
  1.150000000000000E-002    2.485130557649119E-002
  1.160000000000000E-002    2.336496171990625E-002
  1.170000000000000E-002    2.183579027636239E-002
  1.180000000000000E-002    2.026392086069786E-002
  1.190000000000000E-002    1.864951801001381E-002
  1.200000000000000E-002    1.699277728767133E-002
  1.210000000000000E-002    1.529393188683350E-002
  1.220000000000000E-002    1.355324715941669E-002
  1.230000000000000E-002    1.177102522966429E-002
  1.240000000000000E-002    9.947603352440057E-003
  1.250000000000000E-002    8.083353055522382E-003
  1.260000000000000E-002    6.178683535776931E-003
  1.270000000000000E-002    4.234038268796538E-003
  1.280000000000000E-002    2.249898058550792E-003
  1.290000000000000E-002    2.267784712241608E-004
  1.300000000000000E-002   -1.834765978626323E-003
  1.310000000000000E-002   -3.934146919111682E-003
  1.320000000000000E-002   -6.070738228389730E-003
  1.330000000000000E-002   -8.243877374285207E-003
  1.340000000000000E-002   -1.045286663271218E-002
  1.350000000000000E-002   -1.269696995922015E-002
  1.360000000000000E-002   -1.497541734009116E-002
  1.370000000000000E-002   -1.728740224017535E-002
  1.380000000000000E-002   -1.963208310557249E-002
  1.390000000000000E-002   -2.200858333092468E-002
  1.400000000000000E-002   -2.441599227034295E-002
  1.410000000000000E-002   -2.685336160883831E-002
  1.420000000000000E-002   -2.931971370820335E-002
  1.430000000000000E-002   -3.181403564747102E-002
  1.440000000000000E-002   -3.433528005205139E-002
  1.450000000000000E-002   -3.688236822741851E-002
  1.460000000000000E-002   -3.945419021974164E-002
  1.470000000000000E-002   -4.204960190156916E-002
  1.480000000000000E-002   -4.466743317685561E-002
  1.490000000000000E-002   -4.730647467941295E-002
  1.500000000000000E-002   -4.996549523606962E-002
  1.510000000000000E-002   -5.264323424011066E-002
  1.520000000000000E-002   -5.533839945263490E-002
  1.530000000000000E-002   -5.804967086772488E-002
  1.540000000000000E-002   -6.077570613046546E-002
  1.550000000000000E-002   -6.351513382681134E-002
  1.560000000000000E-002   -6.626656615956472E-002
  1.570000000000000E-002   -6.902858127202667E-002
  1.580000000000000E-002   -7.179973516321687E-002
  1.590000000000000E-002   -7.457856965005258E-002
  1.600000000000000E-002   -7.736360259425741E-002
  1.610000000000000E-002   -8.015333047062095E-002
  1.620000000000000E-002   -8.294622830996534E-002
  1.630000000000000E-002   -8.574076047234078E-002
  1.640000000000000E-002   -8.853536900710691E-002
  1.650000000000000E-002   -9.132848159503004E-002
  1.660000000000000E-002   -9.411851760211366E-002
  1.670000000000000E-002   -9.690386714795994E-002
  1.680000000000000E-002   -9.968292722929459E-002
  1.690000000000000E-002   -0.102454068976153     
  1.700000000000000E-002   -0.105215668094005     
  1.710000000000000E-002   -0.107966078950376     
  1.720000000000000E-002   -0.110703659602468     
  1.730000000000000E-002   -0.113426761426337     
  1.740000000000000E-002   -0.116133723123710     
  1.750000000000000E-002   -0.118822882082390     
  1.760000000000000E-002   -0.121492580261895     
  1.770000000000000E-002   -0.124141164780013     
  1.780000000000000E-002   -0.126766960932995     
  1.790000000000000E-002   -0.129368326000781     
  1.800000000000000E-002   -0.131943583916083     
  1.810000000000000E-002   -0.134491099033539     
  1.820000000000000E-002   -0.137009233554456     
  1.830000000000000E-002   -0.139496336389734     
  1.840000000000000E-002   -0.141950792456479     
  1.850000000000000E-002   -0.144370979191444     
  1.860000000000000E-002   -0.146755303230962     
  1.870000000000000E-002   -0.149102160105787     