 -4.000000000000000E-002    0.000000000000000E+000
 -3.990000000000000E-002    0.000000000000000E+000
 -3.980000000000000E-002    0.000000000000000E+000
 -3.970000000000000E-002    0.000000000000000E+000
 -3.960000000000000E-002    0.000000000000000E+000
 -3.950000000000000E-002    0.000000000000000E+000
 -3.940000000000000E-002    0.000000000000000E+000
 -3.930000000000000E-002   -1.684760770018934E-024
 -3.920000000000000E-002   -1.914744184502307E-023
 -3.910000000000000E-002   -1.108292727665585E-022
 -3.900000000000000E-002   -4.259041061953470E-022
 -3.890000000000000E-002   -1.172446701730764E-021
 -3.880000000000000E-002   -2.219438548833244E-021
 -3.870000000000000E-002   -1.747804784751424E-021
 -3.860000000000000E-002    6.909983540260140E-021
 -3.850000000000000E-002    4.107452548045691E-020
 -3.840000000000000E-002    1.372521825161049E-019
 -3.830000000000000E-002    3.605898404851722E-019
 -3.820000000000000E-002    8.102435153657014E-019
 -3.810000000000000E-002    1.611535636719220E-018
 -3.800000000000000E-002    2.881989229342088E-018
 -3.790000000000000E-002    4.657040461956470E-018
 -3.780000000000000E-002    6.765260668721276E-018
 -3.770000000000000E-002    8.654980579652304E-018
 -3.760000000000000E-002    9.195761875896281E-018
 -3.750000000000000E-002    6.508021637484523E-018
 -3.740000000000000E-002   -2.092770122741382E-018
 -3.730000000000000E-002   -1.992383120080895E-017
 -3.720000000000000E-002   -5.041331067938698E-017
 -3.710000000000000E-002   -9.613289457429900E-017
 -3.700000000000000E-002   -1.573589587477309E-016
 -3.690000000000000E-002   -2.302561078220103E-016
 -3.680000000000000E-002   -3.049376495269461E-016
 -3.670000000000000E-002   -3.638360902358064E-016
 -3.660000000000000E-002   -3.809726797735229E-016
 -3.650000000000000E-002   -3.227981609544990E-016
 -3.640000000000000E-002   -1.512317705774577E-016
 -3.630000000000000E-002    1.706900110959070E-016
 -3.620000000000000E-002    6.705494934627330E-016
 -3.610000000000000E-002    1.356234645110368E-015
 -3.600000000000000E-002    2.204814252610284E-015
 -3.590000000000000E-002    3.152487226471707E-015
 -3.580000000000000E-002    4.087972213246103E-015
 -3.570000000000000E-002    4.851848726138189E-015
 -3.560000000000000E-002    5.244043209663287E-015
 -3.550000000000000E-002    5.040802211376950E-015
 -3.540000000000000E-002    4.021138612166059E-015
 -3.530000000000000E-002    2.001031619239767E-015
 -3.520000000000000E-002   -1.128128462425340E-015
 -3.510000000000000E-002   -5.361901212594367E-015
 -3.500000000000000E-002   -1.055191114901100E-014
 -3.490000000000000E-002   -1.638765335703241E-014
 -3.480000000000000E-002   -2.239579334780984E-014
 -3.470000000000000E-002   -2.795958676196378E-014
 -3.460000000000000E-002   -3.235813856766433E-014
 -3.450000000000000E-002   -3.482203275803255E-014
 -3.440000000000000E-002   -3.459914229536465E-014
 -3.430000000000000E-002   -3.102288459678391E-014
 -3.420000000000000E-002   -2.357514522125372E-014
 -3.410000000000000E-002   -1.193814565113764E-014
 -3.400000000000000E-002    3.967017828510679E-015
 -3.390000000000000E-002    2.395293341350231E-014
 -3.380000000000000E-002    4.754312429053385E-014
 -3.370000000000000E-002    7.394510985918107E-014
 -3.360000000000000E-002    1.020107790700287E-013
 -3.350000000000000E-002    1.301800285841637E-013
 -3.340000000000000E-002    1.564118155184574E-013
 -3.330000000000000E-002    1.781181548583109E-013
 -3.320000000000000E-002    1.921289405715733E-013
 -3.310000000000000E-002    1.947258789999478E-013
 -3.300000000000000E-002    1.817887820916617E-013
 -3.290000000000000E-002    1.490938376446545E-013
 -3.280000000000000E-002    9.278887915585614E-014
 -3.270000000000000E-002    1.004474027602317E-014
 -3.260000000000000E-002   -1.001540058463887E-013
 -3.250000000000000E-002   -2.361565662631921E-013
 -3.240000000000000E-002   -3.928490029443834E-013
 -3.230000000000000E-002   -5.610605765540343E-013
 -3.220000000000000E-002   -7.273337252259671E-013
 -3.210000000000000E-002   -8.742062563986931E-013
 -3.200000000000000E-002   -9.811145877723905E-013
 -3.190000000000000E-002   -1.025959187112636E-012
 -3.180000000000000E-002   -9.872828674092760E-013
 -3.170000000000000E-002   -8.469130839713771E-013
 -3.160000000000000E-002   -5.928197387122484E-013
 -3.150000000000000E-002   -2.218626177411458E-013
 -3.140000000000000E-002    2.579405350564880E-013
 -3.130000000000000E-002    8.259912875275772E-013
 -3.120000000000000E-002    1.448840447583266E-012
 -3.110000000000000E-002    2.081272482467715E-012
 -3.100000000000000E-002    2.668798327365817E-012
 -3.090000000000000E-002    3.151442772832977E-012
 -3.080000000000000E-002    3.468548253612667E-012
 -3.070000000000000E-002    3.564179054486246E-012
 -3.060000000000000E-002    3.392621965257700E-012
 -3.050000000000000E-002    2.923453866409113E-012
 -3.040000000000000E-002    2.145692599116913E-012
 -3.030000000000000E-002    1.070649812583174E-012
 -3.020000000000000E-002   -2.667496659606702E-013
 -3.010000000000000E-002   -1.808252056125497E-012
 -3.000000000000000E-002   -3.474086199532547E-012
 -2.990000000000000E-002   -5.166114086332762E-012
 -2.980000000000000E-002   -6.772079251418601E-012
 -2.970000000000000E-002   -8.170719306875951E-012
 -2.960000000000000E-002   -9.237568880775231E-012
 -2.950000000000000E-002   -9.851360815407472E-012
 -2.940000000000000E-002   -9.901016527614206E-012
 -2.930000000000000E-002   -9.293245115204952E-012
 -2.920000000000000E-002   -7.960735725268318E-012
 -2.910000000000000E-002   -5.870786723267930E-012
 -2.900000000000000E-002   -3.034003945802848E-012
 -2.890000000000000E-002    4.875887299413668E-013
 -2.880000000000000E-002    4.573973936214825E-012
 -2.870000000000000E-002    9.043291148391066E-012
 -2.860000000000000E-002    1.365202675895821E-011
 -2.850000000000000E-002    1.810049362146063E-011
 -2.840000000000000E-002    2.204457248407775E-011
 -2.830000000000000E-002    2.511416403407057E-011
 -2.820000000000000E-002    2.693809870159892E-011
 -2.810000000000000E-002    2.717440623856826E-011
 -2.800000000000000E-002    2.554396330962161E-011
 -2.790000000000000E-002    2.186477958449141E-011
 -2.780000000000000E-002    1.608359464220603E-011
 -2.770000000000000E-002    8.301241455466639E-012
 -2.760000000000000E-002   -1.211657812058684E-012
 -2.750000000000000E-002   -1.201152130116372E-011
 -2.740000000000000E-002   -2.349312762965104E-011
 -2.730000000000000E-002   -3.491612345353753E-011
 -2.720000000000000E-002   -4.544612146603104E-011
 -2.710000000000000E-002   -5.420830607553895E-011
 -2.700000000000000E-002   -6.035026387225783E-011
 -2.690000000000000E-002   -6.310968890851097E-011
 -2.680000000000000E-002   -6.188202059449247E-011
 -2.670000000000000E-002   -5.628272240795265E-011
 -2.660000000000000E-002   -4.619913145816933E-011
 -2.650000000000000E-002   -3.182724322675905E-011
 -2.640000000000000E-002   -1.368963133158535E-011
 -2.630000000000000E-002    7.368263180643696E-012
 -2.620000000000000E-002    3.020503331363253E-011
 -2.610000000000000E-002    5.343364134094013E-011
 -2.600000000000000E-002    7.549404340796595E-011
 -2.590000000000000E-002    9.474540501125919E-011
 -2.580000000000000E-002    1.095738175194101E-010
 -2.570000000000000E-002    1.185097851302173E-010
 -2.560000000000000E-002    1.203484240499667E-010
 -2.550000000000000E-002    1.142640320143507E-010
 -2.540000000000000E-002    9.990995081768820E-011
 -2.530000000000000E-002    7.749415033771121E-011
 -2.520000000000000E-002    4.782180972293680E-011
 -2.510000000000000E-002    1.229710939479571E-011
 -2.500000000000000E-002   -2.712077706221508E-011
 -2.490000000000000E-002   -6.800951461390770E-011
 -2.480000000000000E-002   -1.076211401737126E-010
 -2.470000000000000E-002   -1.430588702068302E-010
 -2.460000000000000E-002   -1.714823545968502E-010
 -2.450000000000000E-002   -1.903268549835250E-010
 -2.440000000000000E-002   -1.975190942172922E-010
 -2.430000000000000E-002   -1.916713248235902E-010
 -2.420000000000000E-002   -1.722358657296599E-010
 -2.410000000000000E-002   -1.396047526506863E-010
 -2.400000000000000E-002   -9.514324287882746E-011
 -2.390000000000000E-002   -4.115143577831598E-011
 -2.380000000000000E-002    1.924588360339794E-011
 -2.370000000000000E-002    8.227453901381651E-011
 -2.360000000000000E-002    1.437399728144256E-010
 -2.350000000000000E-002    1.992939536141578E-010
 -2.340000000000000E-002    2.447206577410518E-010
 -2.330000000000000E-002    2.762232304270414E-010
 -2.320000000000000E-002    2.906926453140700E-010
 -2.310000000000000E-002    2.859432000476555E-010
 -2.300000000000000E-002    2.609016273540985E-010
 -2.290000000000000E-002    2.157400974107424E-010
 -2.280000000000000E-002    1.519459842204786E-010
 -2.270000000000000E-002    7.232382959763734E-011
 -2.260000000000000E-002   -1.907414671809235E-011
 -2.250000000000000E-002   -1.170908580690655E-010
 -2.240000000000000E-002   -2.156814875077117E-010
 -2.230000000000000E-002   -3.082039135520548E-010
 -2.220000000000000E-002   -3.877778809428136E-010
 -2.210000000000000E-002   -4.477039596811483E-010
 -2.200000000000000E-002   -4.819262000360683E-010
 -2.190000000000000E-002   -4.855152360088531E-010
 -2.180000000000000E-002   -4.551402037699826E-010
 -2.170000000000000E-002   -3.894907854464319E-010
 -2.160000000000000E-002   -2.896064034978369E-010
 -2.150000000000000E-002   -1.590689996618970E-010
 -2.140000000000000E-002   -4.020725212104180E-012
 -2.130000000000000E-002    1.670222777922073E-010
 -2.120000000000000E-002    3.435719933602225E-010
 -2.110000000000000E-002    5.137792902157912E-010
 -2.100000000000000E-002    6.652228414797977E-010
 -2.090000000000000E-002    7.858236567318516E-010
 -2.080000000000000E-002    8.648141907319861E-010
 -2.070000000000000E-002    8.936776998248123E-010
 -2.060000000000000E-002    8.669701418185091E-010
 -2.050000000000000E-002    7.829417189821842E-010
 -2.040000000000000E-002    6.438916403740552E-010
 -2.030000000000000E-002    4.562127761556014E-010
 -2.020000000000000E-002    2.301127197131047E-010
 -2.010000000000000E-002   -2.096996359005419E-011
 -2.000000000000000E-002   -2.812068249843252E-010
 -1.990000000000000E-002   -5.334058947544756E-010
 -1.980000000000000E-002   -7.601369620050534E-010
 -1.970000000000000E-002   -9.448665437470154E-010
 -1.960000000000000E-002   -1.073019385599157E-009
 -1.950000000000000E-002   -1.132901026860922E-009
 -1.940000000000000E-002   -1.116438472911217E-009
 -1.930000000000000E-002   -1.019720690874382E-009
 -1.920000000000000E-002   -8.433419036110310E-010
 -1.910000000000000E-002   -5.925658314256204E-010
 -1.900000000000000E-002   -2.773336422265715E-010
 -1.890000000000000E-002    8.786787089606703E-011
 -1.880000000000000E-002    4.842781997405847E-010
 -1.870000000000000E-002    8.892954627528454E-010
 -1.860000000000000E-002    1.277115729750790E-009
 -1.850000000000000E-002    1.619641274587337E-009
 -1.840000000000000E-002    1.887731106131564E-009
 -1.830000000000000E-002    2.052855632042283E-009
 -1.820000000000000E-002    2.089196097477034E-009
 -1.810000000000000E-002    1.976183802941138E-009
 -1.800000000000000E-002    1.701420802492112E-009
 -1.790000000000000E-002    1.263860224865758E-009
 -1.780000000000000E-002    6.770655714347523E-010
 -1.770000000000000E-002   -2.768275987285845E-011
 -1.760000000000000E-002   -7.986897164448566E-010
 -1.750000000000000E-002   -1.561815958185259E-009
 -1.740000000000000E-002   -2.219344461951881E-009
 -1.730000000000000E-002   -2.649910979994516E-009
 -1.720000000000000E-002   -2.709586935025315E-009
 -1.710000000000000E-002   -2.234097085045361E-009
 -1.700000000000000E-002   -1.042065535148953E-009
 -1.690000000000000E-002    1.060924379012121E-009
 -1.680000000000000E-002    4.277713744878308E-009
 -1.670000000000000E-002    8.814716075386694E-009
 -1.660000000000000E-002    1.487711467700004E-008
 -1.650000000000000E-002    2.266442560300802E-008
 -1.640000000000000E-002    3.236657373571723E-008
 -1.630000000000000E-002    4.416065777148771E-008
 -1.620000000000000E-002    5.820841526697455E-008
 -1.610000000000000E-002    7.465434161088939E-008
 -1.600000000000000E-002    9.362442673168186E-008
 -1.590000000000000E-002    1.152252862295071E-007
 -1.580000000000000E-002    1.395436733667697E-007
 -1.570000000000000E-002    1.666463104184988E-007
 -1.560000000000000E-002    1.965799170803876E-007
 -1.550000000000000E-002    2.293716963277140E-007
 -1.540000000000000E-002    2.650303045736747E-007
 -1.530000000000000E-002    3.035474670853913E-007
 -1.520000000000000E-002    3.449005970230180E-007
 -1.510000000000000E-002    3.890564058731807E-007
 -1.500000000000000E-002    4.359757913971817E-007
 -1.490000000000000E-002    4.856198158361258E-007
 -1.480000000000000E-002    5.379567952496865E-007
 -1.470000000000000E-002    5.929700703268390E-007
 -1.460000000000000E-002    6.506664094802342E-007
 -1.450000000000000E-002    7.110839218566296E-007
 -1.440000000000000E-002    7.742998342421287E-007
 -1.430000000000000E-002    8.404370185473032E-007
 -1.420000000000000E-002    9.096686948875396E-007
 -1.410000000000000E-002    9.822220763991932E-007
 -1.400000000000000E-002    1.058379292046157E-006
 -1.390000000000000E-002    1.138476916011538E-006
 -1.380000000000000E-002    1.222903347675535E-006
 -1.370000000000000E-002    1.312094504027915E-006
 -1.360000000000000E-002    1.406528837975205E-006
 -1.350000000000000E-002    1.506720899669604E-006
 -1.340000000000000E-002    1.613214495381149E-006
 -1.330000000000000E-002    1.726575796744974E-006
 -1.320000000000000E-002    1.847385973024950E-006
 -1.310000000000000E-002    1.976234767800017E-006
 -1.300000000000000E-002    2.113713803013580E-006
 -1.290000000000000E-002    2.260410524325588E-006
 -1.280000000000000E-002    2.416902928177089E-006
 -1.270000000000000E-002    2.583754908487653E-006
 -1.260000000000000E-002    2.761513287637458E-006
 -1.250000000000000E-002    2.950705189419785E-006
 -1.240000000000000E-002    3.151838827412099E-006
 -1.230000000000000E-002    3.365405403798896E-006
 -1.220000000000000E-002    3.591882732967344E-006
 -1.210000000000000E-002    3.831744191520152E-006
 -1.200000000000000E-002    4.085466919980636E-006
 -1.190000000000000E-002    4.353544672868722E-006
 -1.180000000000000E-002    4.636502727427440E-006
 -1.170000000000000E-002    4.934912305390327E-006
 -1.160000000000000E-002    5.249407139538875E-006
 -1.150000000000000E-002    5.580698057230762E-006
 -1.140000000000000E-002    5.929587696597612E-006
 -1.130000000000000E-002    6.296981435610980E-006
 -1.120000000000000E-002    6.683895587035041E-006
 -1.110000000000000E-002    7.091463730330246E-006
 -1.100000000000000E-002    7.520936236576830E-006
 -1.090000000000000E-002    7.973677489244983E-006
 -1.080000000000000E-002    8.451161399992437E-006
 -1.070000000000000E-002    8.954962914721997E-006
 -1.060000000000000E-002    9.486746219897852E-006
 -1.050000000000000E-002    1.004825457433401E-005
 -1.040000000000000E-002    1.064129813600581E-005
 -1.030000000000000E-002    1.126774302513995E-005
 -1.020000000000000E-002    1.192950274263068E-005
 -1.010000000000000E-002    1.262852908946303E-005
 -1.000000000000000E-002    1.336680652806752E-005
 -9.899999999999999E-003    1.414635242592901E-005
 -9.800000000000000E-003    1.496921142247352E-005
 -9.699999999999999E-003    1.583746223988690E-005
 -9.599999999999999E-003    1.675322153972740E-005
 -9.500000000000000E-003    1.771865328817587E-005
 -9.399999999999999E-003    1.873597777549067E-005
 -9.299999999999999E-003    1.980748278480721E-005
 -9.200000000000000E-003    2.093554050156020E-005
 -9.099999999999999E-003    2.212261998221101E-005
 -8.999999999999999E-003    2.337130901035852E-005
 -8.900000000000000E-003    2.468432276903688E-005
 -8.799999999999999E-003    2.606452908862990E-005
 -8.699999999999999E-003    2.751495554582647E-005
 -8.600000000000000E-003    2.903881146316370E-005
 -8.499999999999999E-003    3.063948793758586E-005
 -8.399999999999999E-003    3.232057913625407E-005
 -8.300000000000000E-003    3.408588278013068E-005
 -8.199999999999999E-003    3.593939635728068E-005
 -8.100000000000000E-003    3.788532324897314E-005
 -8.000000000000000E-003    3.992807942478142E-005
 -7.899999999999999E-003    4.207227255146585E-005
 -7.800000000000000E-003    4.432271073137173E-005
 -7.699999999999999E-003    4.668439459173213E-005
 -7.599999999999999E-003    4.916251524468794E-005
 -7.499999999999999E-003    5.176244620774769E-005
 -7.399999999999999E-003    5.448974744785992E-005
 -7.299999999999999E-003    5.735017338121975E-005
 -7.199999999999999E-003    6.034967052895459E-005
 -7.100000000000000E-003    6.349437236838969E-005
 -6.999999999999999E-003    6.679062538177470E-005
 -6.899999999999999E-003    7.024498236891892E-005
 -6.800000000000000E-003    7.386422521335211E-005
 -6.699999999999999E-003    7.765536439214695E-005
 -6.599999999999999E-003    8.162565368594303E-005
 -6.499999999999999E-003    8.578259516270329E-005
 -6.399999999999999E-003    9.013395985434222E-005
 -6.299999999999999E-003    9.468778185259703E-005
 -6.199999999999999E-003    9.945238129268282E-005
 -6.100000000000000E-003    1.044363678887238E-004
 -5.999999999999999E-003    1.096486447094682E-004
 -5.899999999999999E-003    1.150984296935566E-004
 -5.800000000000000E-003    1.207952661834883E-004
 -5.699999999999999E-003    1.267490023004601E-004
 -5.599999999999999E-003    1.329698604350595E-004
 -5.499999999999999E-003    1.394684000410845E-004
 -5.399999999999999E-003    1.462555562663121E-004
 -5.299999999999999E-003    1.533426307826538E-004
 -5.199999999999999E-003    1.607413145578967E-004
 -5.099999999999999E-003    1.684637039594754E-004
 -4.999999999999999E-003    1.765222950223554E-004
 -4.899999999999999E-003    1.849300108685822E-004
 -4.799999999999999E-003    1.937001860808025E-004
 -4.699999999999999E-003    2.028465843667086E-004
 -4.599999999999999E-003    2.123833725440563E-004
 -4.499999999999999E-003    2.223251520665769E-004
 -4.399999999999999E-003    2.326869586749281E-004
 -4.299999999999999E-003    2.434842146949171E-004
 -4.199999999999999E-003    2.547327907762652E-004
 -4.099999999999999E-003    2.664489861434343E-004
 -3.999999999999999E-003    2.786495333770032E-004
 -3.899999999999999E-003    2.913516102249630E-004
 -3.799999999999999E-003    3.045728272869262E-004
 -3.699999999999999E-003    3.183312885631831E-004
 -3.599999999999999E-003    3.326455477048496E-004
 -3.499999999999999E-003    3.475346971376233E-004
 -3.399999999999999E-003    3.630183141894483E-004
 -3.299999999999999E-003    3.791165231181619E-004
 -3.199999999999999E-003    3.958499795566078E-004
 -3.099999999999999E-003    4.132399292905518E-004
 -2.999999999999999E-003    4.313081856164186E-004
 -2.899999999999999E-003    4.500771341704858E-004
 -2.799999999999999E-003    4.695697042890827E-004
 -2.699999999999999E-003    4.898094718244123E-004
 -2.599999999999999E-003    5.108205052596224E-004
 -2.499999999999999E-003    5.326275807593472E-004
 -2.399999999999999E-003    5.552558686415820E-004
 -2.299999999999999E-003    5.787312686491704E-004
 -2.199999999999999E-003    6.030801298510739E-004
 -2.099999999999999E-003    6.283294176357620E-004
 -1.999999999999999E-003    6.545065676424690E-004
 -1.899999999999999E-003    6.816395677323167E-004
 -1.799999999999999E-003    7.097569671953323E-004
 -1.699999999999999E-003    7.388877530514028E-004
 -1.599999999999999E-003    7.690615070017617E-004
 -1.499999999999999E-003    8.003082541338058E-004
 -1.399999999999999E-003    8.326585340113555E-004
 -1.299999999999999E-003    8.661433407041613E-004
 -1.199999999999999E-003    9.007941908119228E-004
 -1.099999999999999E-003    9.366430534241496E-004
 -9.999999999999989E-004    9.737224799315990E-004
 -8.999999999999990E-004    1.012065292836397E-003
 -7.999999999999990E-004    1.051705022532630E-003
 -6.999999999999989E-004    1.092675614022057E-003
 -5.999999999999990E-004    1.135011639892615E-003
 -4.999999999999989E-004    1.178747999653306E-003
 -3.999999999999989E-004    1.223920105195638E-003
 -2.999999999999989E-004    1.270564051790999E-003
 -1.999999999999989E-004    1.318716430976775E-003
 -9.999999999999892E-005    1.368414085684586E-003
  1.084202172485504E-018    1.419694526259555E-003
  1.000000000000011E-004    1.472595680891695E-003
  2.000000000000011E-004    1.527155900648260E-003
  3.000000000000011E-004    1.583413866909281E-003
  4.000000000000011E-004    1.641408725227890E-003
  5.000000000000011E-004    1.701179757051446E-003
  6.000000000000011E-004    1.762766486595385E-003
  7.000000000000011E-004    1.826208958408366E-003
  8.000000000000011E-004    1.891547167871316E-003
  9.000000000000012E-004    1.958821302952192E-003
  1.000000000000001E-003    2.028071543036971E-003
  1.100000000000001E-003    2.099338163525196E-003
  1.200000000000001E-003    2.172661652434512E-003
  1.300000000000001E-003    2.248082279045373E-003
  1.400000000000001E-003    2.325640207339745E-003
  1.500000000000001E-003    2.405375444391808E-003
  1.600000000000001E-003    2.487328213571921E-003
  1.700000000000001E-003    2.571538295899691E-003
  1.800000000000001E-003    2.658045236190924E-003
  1.900000000000001E-003    2.746888254377301E-003
  2.000000000000001E-003    2.838106713014353E-003
  2.100000000000001E-003    2.931739093318714E-003
  2.200000000000001E-003    3.027824086326310E-003
  2.300000000000001E-003    3.126399873428966E-003
  2.400000000000001E-003    3.227504059141112E-003
  2.500000000000001E-003    3.331173996502517E-003
  2.600000000000001E-003    3.437446155237537E-003
  2.700000000000001E-003    3.546356797374128E-003
  2.800000000000001E-003    3.657941118909365E-003
  2.900000000000001E-003    3.772234036307570E-003
  3.000000000000001E-003    3.889269582716717E-003
  3.100000000000001E-003    4.009080573185336E-003
  3.200000000000001E-003    4.131698840967448E-003
  3.300000000000001E-003    4.257155388827301E-003
  3.400000000000001E-003    4.385479786116514E-003
  3.500000000000001E-003    4.516700868681326E-003
  3.600000000000001E-003    4.650845923833431E-003
  3.700000000000001E-003    4.787940810393898E-003
  3.800000000000001E-003    4.928010055266463E-003
  3.900000000000001E-003    5.071076717069798E-003
  4.000000000000001E-003    5.217162181073531E-003
  4.100000000000001E-003    5.366286196668105E-003
  4.200000000000001E-003    5.518467281041160E-003
  4.300000000000001E-003    5.673721455690309E-003
  4.400000000000001E-003    5.832063372800916E-003
  4.500000000000001E-003    5.993505545586062E-003
  4.600000000000002E-003    6.158058769640704E-003
  4.700000000000001E-003    6.325731317119611E-003
  4.800000000000001E-003    6.496529502865180E-003
  4.900000000000002E-003    6.670457122102335E-003
  5.000000000000001E-003    6.847515854160231E-003
  5.100000000000001E-003    7.027704771103840E-003
  5.200000000000001E-003    7.211020500655781E-003
  5.300000000000002E-003    7.397457292031645E-003
  5.400000000000001E-003    7.587006695390820E-003
  5.500000000000001E-003    7.779656953565547E-003
  5.600000000000002E-003    7.975393457510662E-003
  5.700000000000001E-003    8.174199159789557E-003
  5.800000000000001E-003    8.376054511748797E-003
  5.900000000000002E-003    8.580935870514696E-003
  6.000000000000001E-003    8.788816485943235E-003
  6.100000000000001E-003    8.999666302385113E-003
  6.200000000000002E-003    9.213452471564134E-003
  6.300000000000002E-003    9.430138093121310E-003
  6.400000000000001E-003    9.649682994444311E-003
  6.500000000000001E-003    9.872043539355389E-003
  6.600000000000002E-003    1.009717197514941E-002
  6.700000000000001E-003    1.032501762650361E-002
  6.800000000000001E-003    1.055552441328107E-002
  6.900000000000002E-003    1.078863376124649E-002
  7.000000000000001E-003    1.102428234516077E-002
  7.100000000000001E-003    1.126240230632328E-002
  7.200000000000002E-003    1.150292319876396E-002
  7.300000000000002E-003    1.174576871457668E-002
  7.400000000000001E-003    1.199085867577994E-002
  7.500000000000001E-003    1.223811043817463E-002
  7.600000000000002E-003    1.248743528579208E-002
  7.700000000000001E-003    1.273874085454057E-002
  7.800000000000001E-003    1.299192979457850E-002
  7.900000000000001E-003    1.324690174537309E-002
  8.000000000000002E-003    1.350355142474987E-002
  8.100000000000001E-003    1.376177011343343E-002
  8.200000000000001E-003    1.402144331476049E-002
  8.300000000000002E-003    1.428245269985589E-002
  8.400000000000001E-003    1.454467539242786E-002
  8.500000000000002E-003    1.480798447854454E-002
  8.600000000000002E-003    1.507224642148849E-002
  8.700000000000001E-003    1.533732714778591E-002
  8.800000000000002E-003    1.560308321347286E-002
  8.900000000000002E-003    1.586936930258475E-002
  9.000000000000001E-003    1.613603617259532E-002
  9.100000000000002E-003    1.640292797128193E-002
  9.200000000000002E-003    1.666988527716360E-002
  9.300000000000001E-003    1.693674503193396E-002
  9.400000000000002E-003    1.720333785705407E-002
  9.500000000000001E-003    1.746949190739779E-002
  9.600000000000001E-003    1.773503010806197E-002
  9.700000000000002E-003    1.799977119854059E-002
  9.800000000000001E-003    1.826353065535887E-002
  9.900000000000001E-003    1.852611806916338E-002
  1.000000000000000E-002    1.878734221336560E-002
  1.010000000000000E-002    1.904700528595752E-002
  1.020000000000000E-002    1.930490606246512E-002
  1.030000000000000E-002    1.956084013678921E-002
  1.040000000000000E-002    1.981460152198286E-002
  1.050000000000000E-002    2.006597758696317E-002
  1.060000000000000E-002    2.031475425122022E-002
  1.070000000000000E-002    2.056071281468813E-002
  1.080000000000000E-002    2.080363307807556E-002
  1.090000000000000E-002    2.104329020129263E-002
  1.100000000000000E-002    2.127945718470044E-002
  1.110000000000000E-002    2.151190569772291E-002
  1.120000000000000E-002    2.174040141778052E-002
  1.130000000000000E-002    2.196471232657904E-002
  1.140000000000000E-002    2.218460196145340E-002
  1.150000000000000E-002    2.239983056689556E-002
  1.160000000000000E-002    2.261015666066603E-002
  1.170000000000000E-002    2.281533994112165E-002
  1.180000000000000E-002    2.301513568307310E-002
  1.190000000000000E-002    2.320930037037904E-002
  1.200000000000000E-002    2.339758711911031E-002
  1.210000000000000E-002    2.357975068206934E-002
  1.220000000000000E-002    2.375554436994098E-002
  1.230000000000000E-002    2.392472069639195E-002
  1.240000000000000E-002    2.408703309417754E-002
  1.250000000000000E-002    2.424223402045581E-002
  1.260000000000000E-002    2.439007833421613E-002
  1.270000000000000E-002    2.453032024850637E-002
  1.280000000000000E-002    2.466271546901680E-002
  1.290000000000000E-002    2.478702084484591E-002
  1.300000000000000E-002    2.490299316804602E-002
  1.310000000000000E-002    2.501039579556034E-002
  1.320000000000000E-002    2.510898841849124E-002
  1.330000000000000E-002    2.519853828123262E-002
  1.340000000000000E-002    2.527881186591963E-002
  1.350000000000000E-002    2.534957917724129E-002
  1.360000000000000E-002    2.541061531123492E-002
  1.370000000000000E-002    2.546169679166448E-002
  1.380000000000000E-002    2.550260528169939E-002
  1.390000000000000E-002    2.553312652451310E-002
  1.400000000000000E-002    2.555304875626457E-002
  1.410000000000000E-002    2.556216608917070E-002
  1.420000000000000E-002    2.556027899165721E-002
  1.430000000000000E-002    2.554718979308335E-002
  1.440000000000000E-002    2.552270924145595E-002
  1.450000000000000E-002    2.548665252399726E-002
  1.460000000000000E-002    2.543884148665040E-002
  1.470000000000000E-002    2.537910498163789E-002
  1.480000000000000E-002    2.530727594311883E-002
  1.490000000000000E-002    2.522319701884468E-002
  1.500000000000000E-002    2.512671677704200E-002
  1.510000000000000E-002    2.501769306798485E-002
  1.520000000000000E-002    2.489599084094195E-002
  1.530000000000000E-002    2.476148207249011E-002
  1.540000000000000E-002    2.461404839559667E-002
  1.550000000000000E-002    2.445357911545798E-002
  1.560000000000000E-002    2.427997360274550E-002
  1.570000000000000E-002    2.409313945083877E-002
  1.580000000000000E-002    2.389299526967151E-002
  1.590000000000000E-002    2.367946732444490E-002
  1.600000000000000E-002    2.345249177598124E-002
  1.610000000000000E-002    2.321201660243608E-002
  1.620000000000000E-002    2.295799886923993E-002
  1.630000000000000E-002    2.269040573045744E-002
  1.640000000000000E-002    2.240921562250955E-002
  1.650000000000000E-002    2.211441715371159E-002
  1.660000000000000E-002    2.180601166178617E-002
  1.670000000000000E-002    2.148400945578618E-002
  1.680000000000000E-002    2.114843325796753E-002
  1.690000000000000E-002    2.079931606637000E-002
  1.700000000000000E-002    2.043670383916794E-002
  1.710000000000000E-002    2.006065396205057E-002
  1.720000000000000E-002    1.967123481135722E-002
  1.730000000000000E-002    1.926852603484203E-002
  1.740000000000000E-002    1.885262025141887E-002
  1.750000000000000E-002    1.842362279185451E-002
  1.760000000000000E-002    1.798164845877948E-002
  1.770000000000000E-002    1.752682687722128E-002
  1.780000000000000E-002    1.705929826497838E-002
  1.790000000000000E-002    1.657921469954290E-002
  1.800000000000000E-002    1.608674136012132E-002
  1.810000000000000E-002    1.558205552716928E-002
  1.820000000000000E-002    1.506534518488553E-002
  1.830000000000000E-002    1.453681172159926E-002
  1.840000000000000E-002    1.399666843474360E-002
  1.850000000000000E-002    1.344514065618579E-002
  1.860000000000000E-002    1.288246394996251E-002
  1.870000000000000E-002    1.230888692456458E-002