 -4.000000000000000E-002    0.000000000000000E+000
 -3.990000000000000E-002    0.000000000000000E+000
 -3.980000000000000E-002    0.000000000000000E+000
 -3.970000000000000E-002    0.000000000000000E+000
 -3.960000000000000E-002    0.000000000000000E+000
 -3.950000000000000E-002    0.000000000000000E+000
 -3.940000000000000E-002    0.000000000000000E+000
 -3.930000000000000E-002    0.000000000000000E+000
 -3.920000000000000E-002    0.000000000000000E+000
 -3.910000000000000E-002    0.000000000000000E+000
 -3.900000000000000E-002    0.000000000000000E+000
 -3.890000000000000E-002    0.000000000000000E+000
 -3.880000000000000E-002    0.000000000000000E+000
 -3.870000000000000E-002    0.000000000000000E+000
 -3.860000000000000E-002    0.000000000000000E+000
 -3.850000000000000E-002    0.000000000000000E+000
 -3.840000000000000E-002    0.000000000000000E+000
 -3.830000000000000E-002    0.000000000000000E+000
 -3.820000000000000E-002    0.000000000000000E+000
 -3.810000000000000E-002    0.000000000000000E+000
 -3.800000000000000E-002    0.000000000000000E+000
 -3.790000000000000E-002    0.000000000000000E+000
 -3.780000000000000E-002    0.000000000000000E+000
 -3.770000000000000E-002    0.000000000000000E+000
 -3.760000000000000E-002    0.000000000000000E+000
 -3.750000000000000E-002    0.000000000000000E+000
 -3.740000000000000E-002    0.000000000000000E+000
 -3.730000000000000E-002    0.000000000000000E+000
 -3.720000000000000E-002    0.000000000000000E+000
 -3.710000000000000E-002    0.000000000000000E+000
 -3.700000000000000E-002    0.000000000000000E+000
 -3.690000000000000E-002    0.000000000000000E+000
 -3.680000000000000E-002    1.708295117466251E-046
 -3.670000000000000E-002    4.675860881103265E-046
 -3.660000000000000E-002    1.257587293801239E-045
 -3.650000000000000E-002    3.437717705869029E-045
 -3.640000000000000E-002    8.813975111058449E-045
 -3.630000000000000E-002    1.946498396201089E-044
 -3.620000000000000E-002    4.036732272596194E-044
 -3.610000000000000E-002    7.392041138578838E-044
 -3.600000000000000E-002    1.111537845989327E-043
 -3.590000000000000E-002    1.005431089380461E-043
 -3.580000000000000E-002   -1.204354486368701E-043
 -3.570000000000000E-002   -9.724675365433037E-043
 -3.560000000000000E-002   -3.393868028164145E-042
 -3.550000000000000E-002   -9.249744612244838E-042
 -3.540000000000000E-002   -2.183539054335987E-041
 -3.530000000000000E-002   -4.621034395806562E-041
 -3.520000000000000E-002   -8.865588315785796E-041
 -3.510000000000000E-002   -1.537290618636413E-040
 -3.500000000000000E-002   -2.361670980869046E-040
 -3.490000000000000E-002   -3.034439463412823E-040
 -3.480000000000000E-002   -2.637009847497990E-040
 -3.470000000000000E-002    8.538302949261612E-041
 -3.460000000000000E-002    1.125635527314564E-039
 -3.450000000000000E-002    3.489674402792570E-039
 -3.440000000000000E-002    8.089806473096235E-039
 -3.430000000000000E-002    1.601196802381376E-038
 -3.420000000000000E-002    2.811495701496129E-038
 -3.410000000000000E-002    4.410011570141037E-038
 -3.400000000000000E-002    6.076559079173789E-038
 -3.390000000000000E-002    6.919654349070768E-038
 -3.380000000000000E-002    5.087172658520398E-038
 -3.370000000000000E-002   -2.677171546497882E-038
 -3.360000000000000E-002   -2.137290360969152E-037
 -3.350000000000000E-002   -5.765631886603416E-037
 -3.340000000000000E-002   -1.187938225927159E-036
 -3.330000000000000E-002   -2.098960419065662E-036
 -3.320000000000000E-002   -3.285316751897851E-036
 -3.310000000000000E-002   -4.559243522459437E-036
 -3.300000000000000E-002   -5.445233638958803E-036
 -3.290000000000000E-002   -5.031005129204656E-036
 -3.280000000000000E-002   -1.829246043548319E-036
 -3.270000000000000E-002    6.278847192624729E-036
 -3.260000000000000E-002    2.190272484324684E-035
 -3.250000000000000E-002    4.764403563237675E-035
 -3.240000000000000E-002    8.505260457465157E-035
 -3.230000000000000E-002    1.328659274313232E-034
 -3.220000000000000E-002    1.844598665720791E-034
 -3.210000000000000E-002    2.246586710251047E-034
 -3.200000000000000E-002    2.264271402605956E-034
 -3.190000000000000E-002    1.485028462260572E-034
 -3.180000000000000E-002   -6.432426881364911E-035
 -3.170000000000000E-002   -4.759351192131972E-034
 -3.160000000000000E-002   -1.145844452448528E-033
 -3.150000000000000E-002   -2.105778784558033E-033
 -3.140000000000000E-002   -3.324331337027632E-033
 -3.130000000000000E-002   -4.660590966958644E-033
 -3.120000000000000E-002   -5.811708603215274E-033
 -3.110000000000000E-002   -6.265043385450369E-033
 -3.100000000000000E-002   -5.272335455840858E-033
 -3.090000000000000E-002   -1.870110105889039E-033
 -3.080000000000000E-002    5.024665901125984E-033
 -3.070000000000000E-002    1.641437728231010E-032
 -3.060000000000000E-002    3.289390705872835E-032
 -3.050000000000000E-002    5.419241332265945E-032
 -3.040000000000000E-002    7.860827682537701E-032
 -3.030000000000000E-002    1.024023437760241E-031
 -3.020000000000000E-002    1.192634393167238E-031
 -3.010000000000000E-002    1.200101920887833E-031
 -3.000000000000000E-002    9.273481186294425E-032
 -2.990000000000000E-002    2.361545493303255E-032
 -2.980000000000000E-002   -1.013877613249969E-031
 -2.970000000000000E-002   -2.937909465768220E-031
 -2.960000000000000E-002   -5.587355330243110E-031
 -2.950000000000000E-002   -8.901056743699329E-031
 -2.940000000000000E-002   -1.264867111401361E-030
 -2.930000000000000E-002   -1.637080260764417E-030
 -2.920000000000000E-002   -1.932262843715320E-030
 -2.910000000000000E-002   -2.043033621536422E-030
 -2.900000000000000E-002   -1.827293511522642E-030
 -2.890000000000000E-002   -1.110649454928059E-030
 -2.880000000000000E-002    3.045895751217150E-031
 -2.870000000000000E-002    2.620699337278552E-030
 -2.860000000000000E-002    6.012039899169593E-030
 -2.850000000000000E-002    1.057394194873785E-029
 -2.840000000000000E-002    1.624809988053455E-029
 -2.830000000000000E-002    2.272106353187182E-029
 -2.820000000000000E-002    2.929657055197353E-029
 -2.810000000000000E-002    3.475043199388338E-029
 -2.800000000000000E-002    3.718954024271340E-029
 -2.790000000000000E-002    3.395437774146281E-029
 -2.780000000000000E-002    2.162608583752738E-029
 -2.770000000000000E-002   -3.779136384105386E-030
 -2.760000000000000E-002   -4.632955944014969E-029
 -2.750000000000000E-002   -1.093122171023712E-028
 -2.740000000000000E-002   -1.939088447211856E-028
 -2.730000000000000E-002   -2.974053943402448E-028
 -2.720000000000000E-002   -4.110404167707166E-028
 -2.710000000000000E-002   -5.177620341697884E-028
 -2.700000000000000E-002   -5.903702654669020E-028
 -2.690000000000000E-002   -5.907447119935427E-028
 -2.680000000000000E-002   -4.710514739242188E-028
 -2.670000000000000E-002   -1.779217824414849E-028
 -2.660000000000000E-002    3.394844499118735E-028
 -2.650000000000000E-002    1.116958851098082E-027
 -2.640000000000000E-002    2.158371861524677E-027
 -2.630000000000000E-002    3.415588114782601E-027
 -2.620000000000000E-002    4.767672519105550E-027
 -2.610000000000000E-002    6.003438896486612E-027
 -2.600000000000000E-002    6.812886301338036E-027
 -2.590000000000000E-002    6.794140290444699E-027
 -2.580000000000000E-002    5.482733477361750E-027
 -2.570000000000000E-002    2.408935810086894E-027
 -2.560000000000000E-002   -2.814000706686689E-027
 -2.550000000000000E-002   -1.037262922644503E-026
 -2.540000000000000E-002   -2.011574578803678E-026
 -2.530000000000000E-002   -3.141311869654272E-026
 -2.520000000000000E-002   -4.303550846266812E-026
 -2.510000000000000E-002   -5.308818251004941E-026
 -2.500000000000000E-002   -5.903427193331609E-026
 -2.490000000000000E-002   -5.784346217053125E-026
 -2.480000000000000E-002   -4.629366447432608E-026
 -2.470000000000000E-002   -2.143755511650841E-026
 -2.460000000000000E-002    1.877825071218751E-026
 -2.450000000000000E-002    7.478444682668872E-026
 -2.440000000000000E-002    1.446285414029638E-025
 -2.430000000000000E-002    2.232943704033540E-025
 -2.420000000000000E-002    3.022406960093901E-025
 -2.410000000000000E-002    3.693119153402809E-025
 -2.400000000000000E-002    4.091689124643264E-025
 -2.390000000000000E-002    4.043589545435019E-025
 -2.380000000000000E-002    3.370887180712832E-025
 -2.370000000000000E-002    1.916852912548155E-025
 -2.360000000000000E-002   -4.236871256149965E-026
 -2.350000000000000E-002   -3.670491640844045E-025
 -2.340000000000000E-002   -7.723862264539409E-025
 -2.330000000000000E-002   -1.233471768139186E-024
 -2.320000000000000E-002   -1.708380782081551E-024
 -2.310000000000000E-002   -2.137548584947691E-024
 -2.300000000000000E-002   -2.445141403710486E-024
 -2.290000000000000E-002   -2.542907546623184E-024
 -2.280000000000000E-002   -2.336890700268643E-024
 -2.270000000000000E-002   -1.737218796082020E-024
 -2.260000000000000E-002   -6.709445058844475E-025
 -2.250000000000000E-002    9.024158684670890E-025
 -2.240000000000000E-002    2.973427876321380E-024
 -2.230000000000000E-002    5.464698409701444E-024
 -2.220000000000000E-002    8.214235103725438E-024
 -2.210000000000000E-002    1.096292695153471E-023
 -2.200000000000000E-002    1.334958496586786E-023
 -2.190000000000000E-002    1.491757662077499E-023
 -2.180000000000000E-002    1.513730471081878E-023
 -2.170000000000000E-002    1.344843614060559E-023
 -2.160000000000000E-002    9.324539308490962E-024
 -2.150000000000000E-002    2.360464977508350E-024
 -2.140000000000000E-002   -7.620768385705236E-024
 -2.130000000000000E-002   -2.044955411262775E-023
 -2.120000000000000E-002   -3.549326586024916E-023
 -2.110000000000000E-002   -5.156103929802134E-023
 -2.100000000000000E-002   -6.685382402168373E-023
 -2.090000000000000E-002   -7.898641424289833E-023
 -2.080000000000000E-002   -8.510722242140594E-023
 -2.070000000000000E-002   -8.213566557157379E-023
 -2.060000000000000E-002   -6.712527789095491E-023
 -2.050000000000000E-002   -3.774301183882072E-023
 -2.040000000000000E-002    7.167714255969711E-024
 -2.030000000000000E-002    6.699816304494389E-023
 -2.020000000000000E-002    1.388424725224149E-022
 -2.010000000000000E-002    2.171252573621545E-022
 -2.000000000000000E-002    2.934998421321821E-022
 -1.990000000000000E-002    3.571213461781854E-022
 -1.980000000000000E-002    3.953729454303482E-022
 -1.970000000000000E-002    3.950761732429969E-022
 -1.960000000000000E-002    3.441501563813995E-022
 -1.950000000000000E-002    2.336050738361236E-022
 -1.940000000000000E-002    5.967211164944066E-023
 -1.930000000000000E-002   -1.742017466756597E-022
 -1.920000000000000E-002   -4.558162250825285E-022
 -1.910000000000000E-002   -7.634712001076594E-022
 -1.900000000000000E-002   -1.066309371111097E-021
 -1.890000000000000E-002   -1.325955454767857E-021
 -1.880000000000000E-002   -1.499520118427559E-021
 -1.870000000000000E-002   -1.543857540281007E-021
 -1.860000000000000E-002   -1.420772358699629E-021
 -1.850000000000000E-002   -1.102687823161559E-021
 -1.840000000000000E-002   -5.781468271256227E-022
 -1.830000000000000E-002    1.435530056111165E-022
 -1.820000000000000E-002    1.029269923796668E-021
 -1.810000000000000E-002    2.021038503539472E-021
 -1.800000000000000E-002    3.037563758348442E-021
 -1.790000000000000E-002    3.978295206436169E-021
 -1.780000000000000E-002    4.729910848486579E-021
 -1.770000000000000E-002    5.174798572946397E-021
 -1.760000000000000E-002    5.200948617066912E-021
 -1.750000000000000E-002    4.712601046794703E-021
 -1.740000000000000E-002    3.641027939507584E-021
 -1.730000000000000E-002    1.954935148678530E-021
 -1.720000000000000E-002   -3.298958029407657E-022
 -1.710000000000000E-002   -3.142034078097238E-021
 -1.700000000000000E-002   -6.347262185843867E-021
 -1.690000000000000E-002   -9.743492563669288E-021
 -1.680000000000000E-002   -1.305880701033282E-020
 -1.670000000000000E-002   -1.595428382888439E-020
 -1.660000000000000E-002   -1.803386553865806E-020
 -1.650000000000000E-002   -1.886390280694827E-020
 -1.640000000000000E-002   -1.800493491141616E-020
 -1.630000000000000E-002   -1.505744791144036E-020
 -1.620000000000000E-002   -9.721649492019386E-021
 -1.610000000000000E-002   -1.868641497395762E-021
 -1.600000000000000E-002    8.383064323196076E-021
 -1.590000000000000E-002    2.059552093555285E-020
 -1.580000000000000E-002    3.395716436037758E-020
 -1.570000000000000E-002    4.726214818307513E-020
 -1.560000000000000E-002    5.893915780007309E-020
 -1.550000000000000E-002    6.714308032821234E-020
 -1.540000000000000E-002    6.991693104930916E-020
 -1.530000000000000E-002    6.542207559605276E-020
 -1.520000000000000E-002    5.222269411780230E-020
 -1.510000000000000E-002    2.959701733707652E-020
 -1.500000000000000E-002   -2.164817916696181E-021
 -1.490000000000000E-002   -4.152595849773490E-020
 -1.480000000000000E-002   -8.558429285939734E-020
 -1.470000000000000E-002   -1.301190472821461E-019
 -1.460000000000000E-002   -1.698375074593176E-019
 -1.450000000000000E-002   -1.988336456954623E-019
 -1.440000000000000E-002   -2.112397752813238E-019
 -1.430000000000000E-002   -2.020174757798324E-019
 -1.420000000000000E-002   -1.678003908471370E-019
 -1.410000000000000E-002   -1.076750239263816E-019
 -1.400000000000000E-002   -2.377211352059783E-020
 -1.390000000000000E-002    7.845353181084671E-020
 -1.380000000000000E-002    1.903514712571878E-019
 -1.370000000000000E-002    3.006622278602236E-019
 -1.360000000000000E-002    3.965494512445996E-019
 -1.350000000000000E-002    4.649942065822708E-019
 -1.340000000000000E-002    4.943994680907080E-019
 -1.330000000000000E-002    4.761994036757924E-019
 -1.320000000000000E-002    4.062420018386843E-019
 -1.310000000000000E-002    2.857218070947356E-019
 -1.300000000000000E-002    1.214880322334190E-019
 -1.290000000000000E-002   -7.436341496780001E-020
 -1.280000000000000E-002   -2.855959272575237E-019
 -1.270000000000000E-002   -4.935015711193860E-019
 -1.260000000000000E-002   -6.788948459276628E-019
 -1.250000000000000E-002   -8.241236893187113E-019
 -1.240000000000000E-002   -9.147753999610784E-019
 -1.230000000000000E-002   -9.408048797270660E-019
 -1.220000000000000E-002   -8.969234166924773E-019
 -1.210000000000000E-002   -7.822457758728644E-019
 -1.200000000000000E-002   -5.993716189674406E-019
 -1.190000000000000E-002   -3.532372315582241E-019
 -1.180000000000000E-002   -5.017452783913976E-020
 -1.170000000000000E-002    3.023789597917826E-019
 -1.160000000000000E-002    6.951852955143844E-019
 -1.150000000000000E-002    1.115421187616333E-018
 -1.140000000000000E-002    1.544013705756191E-018
 -1.130000000000000E-002    1.952665693929056E-018
 -1.120000000000000E-002    2.301458085986151E-018
 -1.110000000000000E-002    2.538116005271708E-018
 -1.100000000000000E-002    2.600023299871921E-018
 -1.090000000000000E-002    2.419813889218003E-018
 -1.080000000000000E-002    1.934838448415867E-018
 -1.070000000000000E-002    1.100045502989648E-018
 -1.060000000000000E-002   -9.708081067079981E-020
 -1.050000000000000E-002   -1.621764006888948E-018
 -1.040000000000000E-002   -3.380282049728424E-018
 -1.030000000000000E-002   -5.214633165175518E-018
 -1.020000000000000E-002   -6.906492356530477E-018
 -1.010000000000000E-002   -8.192543243121202E-018
 -1.000000000000000E-002   -8.791770175979791E-018
 -9.899999999999999E-003   -8.443308763880187E-018
 -9.800000000000000E-003   -6.951233960648939E-018
 -9.699999999999999E-003   -4.230576197312080E-018
 -9.599999999999999E-003   -3.472956219405955E-019
 -9.500000000000000E-003    4.455669250645957E-018
 -9.399999999999999E-003    9.753569908205088E-018
 -9.299999999999999E-003    1.496152930396491E-017
 -9.200000000000000E-003    1.938475680320527E-017
 -9.099999999999999E-003    2.229506457527935E-017
 -8.999999999999999E-003    2.302677795803025E-017
 -8.900000000000000E-003    2.108080937601241E-017
 -8.799999999999999E-003    1.622241330603499E-017
 -8.699999999999999E-003    8.556810425985282E-018
 -8.600000000000000E-003   -1.432128419229695E-018
 -8.499999999999999E-003   -1.289128702567006E-017
 -8.399999999999999E-003   -2.466100520192257E-017
 -8.300000000000000E-003   -3.538857172114717E-017
 -8.199999999999999E-003   -4.368177032602783E-017
 -8.100000000000000E-003   -4.828417868605822E-017
 -8.000000000000000E-003   -4.824853058154781E-017
 -7.899999999999999E-003   -4.308236316493930E-017
 -7.800000000000000E-003   -3.284217679409251E-017
 -7.699999999999999E-003   -1.815859040853889E-017
 -7.599999999999999E-003   -1.847829115411038E-019
 -7.499999999999999E-003    1.952737915112978E-017
 -7.399999999999999E-003    3.920681136398682E-017
 -7.299999999999999E-003    5.707114513261053E-017
 -7.199999999999999E-003    7.152968341952411E-017
 -7.100000000000000E-003    8.134737820284804E-017
 -6.999999999999999E-003    8.574184698222525E-017
 -6.899999999999999E-003    8.439735237211541E-017
 -6.800000000000000E-003    7.739618931298150E-017
 -6.699999999999999E-003    6.508580992294868E-017
 -6.599999999999999E-003    4.791632368550511E-017
 -6.499999999999999E-003    2.629341834489621E-017
 -6.399999999999999E-003    4.939336687936695E-019
 -6.299999999999999E-003   -2.931716972183262E-017
 -6.199999999999999E-003   -6.294835172346257E-017
 -6.100000000000000E-003   -9.992851769707073E-017
 -5.999999999999999E-003   -1.391773464031804E-016
 -5.899999999999999E-003   -1.786662492131368E-016
 -5.800000000000000E-003   -2.151582289561452E-016
 -5.699999999999999E-003   -2.441220792245600E-016
 -5.599999999999999E-003   -2.599048983558214E-016
 -5.499999999999999E-003   -2.562155847118369E-016
 -5.399999999999999E-003   -2.269231107285014E-016
 -5.299999999999999E-003   -1.671120887415065E-016
 -5.199999999999999E-003   -7.427524908095534E-017
 -5.099999999999999E-003    5.053304105532512E-017
 -4.999999999999999E-003    2.017916328302511E-016
 -4.899999999999999E-003    3.690692111398651E-016
 -4.799999999999999E-003    5.372225670065190E-016
 -4.699999999999999E-003    6.873459449410931E-016
 -4.599999999999999E-003    7.984787263211899E-016
 -4.499999999999999E-003    8.499571503495155E-016
 -4.399999999999999E-003    8.241739564837741E-016
 -4.299999999999999E-003    7.094062350214332E-016
 -4.199999999999999E-003    5.023083130136788E-016
 -4.099999999999999E-003    2.096588809795645E-016
 -3.999999999999999E-003   -1.509915358559382E-016
 -3.899999999999999E-003   -5.520067044788139E-016
 -3.799999999999999E-003   -9.577445019803750E-016
 -3.699999999999999E-003   -1.327891015059225E-015
 -3.599999999999999E-003   -1.621706709681549E-015
 -3.499999999999999E-003   -1.802676522347784E-015
 -3.399999999999999E-003   -1.842952918588616E-015
 -3.299999999999999E-003   -1.726967074203793E-015
 -3.199999999999999E-003   -1.453668253655377E-015
 -3.099999999999999E-003   -1.037030122436720E-015
 -2.999999999999999E-003   -5.047094925188605E-016
 -2.899999999999999E-003    1.049691621638030E-016
 -2.799999999999999E-003    7.472656323532656E-016
 -2.699999999999999E-003    1.375858089370355E-015
 -2.599999999999999E-003    1.947501250339897E-015
 -2.499999999999999E-003    2.425772158445232E-015
 -2.399999999999999E-003    2.783326038384183E-015
 -2.299999999999999E-003    3.002359958142255E-015
 -2.199999999999999E-003    3.073337410675574E-015
 -2.099999999999999E-003    2.992390996850981E-015
 -1.999999999999999E-003    2.758131885868149E-015
 -1.899999999999999E-003    2.368788118359327E-015
 -1.799999999999999E-003    1.820604767139511E-015
 -1.699999999999999E-003    1.108261348828602E-015
 -1.599999999999999E-003    2.276938215634037E-016
 -1.499999999999999E-003   -8.187994436183051E-016
 -1.399999999999999E-003   -2.015849633839806E-015
 -1.299999999999999E-003   -3.327904602267251E-015
 -1.199999999999999E-003   -4.693282018452137E-015
 -1.099999999999999E-003   -6.021067749305729E-015
 -9.999999999999989E-004   -7.192360426647576E-015
 -8.999999999999990E-004   -8.066859812314451E-015
 -7.999999999999990E-004   -8.495013887862616E-015
 -6.999999999999989E-004   -8.334998541482145E-015
 -5.999999999999990E-004   -7.472830421684594E-015
 -4.999999999999989E-004   -5.843080691813920E-015
 -3.999999999999989E-004   -3.447127102586203E-015
 -2.999999999999989E-004   -3.658041413614475E-016
 -1.999999999999989E-004    3.236277236117104E-015
 -9.999999999999892E-005    7.116546185533508E-015
  1.084202172485504E-018    1.097091550502192E-014
  1.000000000000011E-004    1.445979493282580E-014
  2.000000000000011E-004    1.724108182481945E-014
  3.000000000000011E-004    1.900626895829166E-014
  4.000000000000011E-004    1.951503366294091E-014
  5.000000000000011E-004    1.862357823197874E-014
  6.000000000000011E-004    1.630263975795303E-014
  7.000000000000011E-004    1.264243402205904E-014
  8.000000000000011E-004    7.843674436862526E-015
  9.000000000000012E-004    2.195914779382962E-015
  1.000000000000001E-003   -3.953495540021381E-015
  1.100000000000001E-003   -1.023499960225841E-014
  1.200000000000001E-003   -1.629132460288528E-014
  1.300000000000001E-003   -2.180536268507248E-014
  1.400000000000001E-003   -2.651711750677399E-014
  1.500000000000001E-003   -3.022737039983473E-014
  1.600000000000001E-003   -3.278836433428819E-014
  1.700000000000001E-003   -3.408447326155032E-014
  1.800000000000001E-003   -3.400824002990486E-014
  1.900000000000001E-003   -3.243866613183267E-014
  2.000000000000001E-003   -2.922898026617044E-014
  2.100000000000001E-003   -2.420998599282642E-014
  2.200000000000001E-003   -1.721272375413590E-014
  2.300000000000001E-003   -8.110589765375129E-015
  2.400000000000001E-003    3.122946712859142E-015
  2.500000000000001E-003    1.634888821610437E-014
  2.600000000000001E-003    3.120044476557844E-014
  2.700000000000001E-003    4.703657364271737E-014
  2.800000000000001E-003    6.292361805601717E-014
  2.900000000000001E-003    7.765490362771789E-014
  3.000000000000001E-003    8.981377099390143E-014
  3.100000000000001E-003    9.787967418468801E-014
  3.200000000000001E-003    1.003704573172359E-013
  3.300000000000001E-003    9.600770480964291E-014
  3.400000000000001E-003    8.388723380826595E-014
  3.500000000000001E-003    6.363395608911256E-014
  3.600000000000001E-003    3.552045463567881E-014
  3.700000000000001E-003    5.316356759760435E-016
  3.800000000000001E-003   -3.963676285265222E-014
  3.900000000000001E-003   -8.265016148321611E-014
  4.000000000000001E-003   -1.256738204570668E-013
  4.100000000000001E-003   -1.655661705624067E-013
  4.200000000000001E-003   -1.991082545123631E-013
  4.300000000000001E-003   -2.232468797255820E-013
  4.400000000000001E-003   -2.353283351180091E-013
  4.500000000000001E-003   -2.333019511644212E-013
  4.600000000000002E-003   -2.158781567923323E-013
  4.700000000000001E-003   -1.826326905467337E-013
  4.800000000000001E-003   -1.340560926164574E-013
  4.900000000000002E-003   -7.155448773132115E-014
  5.000000000000001E-003    2.588389844881400E-015
  5.100000000000001E-003    8.527628611322527E-014
  5.200000000000001E-003    1.726829978763408E-013
  5.300000000000002E-003    2.603479756435224E-013
  5.400000000000001E-003    3.432869429238975E-013
  5.500000000000001E-003    4.161267320866615E-013
  5.600000000000002E-003    4.732787695856069E-013
  5.700000000000001E-003    5.091678553196762E-013
  5.800000000000001E-003    5.185302535866973E-013
  5.900000000000002E-003    4.967870368482693E-013
  6.000000000000001E-003    4.404865984541309E-013
  6.100000000000001E-003    3.477933728540391E-013
  6.200000000000002E-003    2.189829392542169E-013
  6.300000000000002E-003    5.688816099519130E-014
  6.400000000000001E-003   -1.327700918930114E-013
  6.500000000000001E-003   -3.412370769823312E-013
  6.600000000000002E-003   -5.568267923288693E-013
  6.700000000000001E-003   -7.653194250050145E-013
  6.800000000000001E-003   -9.506746650483523E-013
  6.900000000000002E-003   -1.096047868659216E-012
  7.000000000000001E-003   -1.185059554208577E-012
  7.100000000000001E-003   -1.203230780939479E-012
  7.200000000000002E-003   -1.139468185875748E-012
  7.300000000000002E-003   -9.874594640193105E-013
  7.400000000000001E-003   -7.468335964634617E-013
  7.500000000000001E-003   -4.239489003480698E-013
  7.600000000000002E-003   -3.219513290652578E-014
  7.700000000000001E-003    4.082650765659285E-013
  7.800000000000001E-003    8.713440598354295E-013
  7.900000000000001E-003    1.326439400477124E-012
  8.000000000000002E-003    1.740328755717036E-012
  8.100000000000001E-003    2.079424360078732E-012
  8.200000000000001E-003    2.312226452303528E-012
  8.300000000000002E-003    2.411795619998293E-012
  8.400000000000001E-003    2.358056510954869E-012
  8.500000000000002E-003    2.139759756911305E-012
  8.600000000000002E-003    1.755948725536139E-012
  8.700000000000001E-003    1.216818279717321E-012
  8.800000000000002E-003    5.438866503026043E-013
  8.900000000000002E-003   -2.305512972256862E-013
  9.000000000000001E-003   -1.064682438139707E-012
  9.100000000000002E-003   -1.909101533339731E-012
  9.200000000000002E-003   -2.709329082452122E-012
  9.300000000000001E-003   -3.408818743245586E-012
  9.400000000000002E-003   -3.952328065367738E-012
  9.500000000000001E-003   -4.289502598684888E-012
  9.600000000000001E-003   -4.378505641333406E-012
  9.700000000000002E-003   -4.189499621841443E-012
  9.800000000000001E-003   -3.707770276684003E-012
  9.900000000000001E-003   -2.936266399111601E-012
  1.000000000000000E-002   -1.897319541678776E-012
  1.010000000000000E-002   -6.333202178388766E-013
  1.020000000000000E-002    7.938541007477267E-013
  1.030000000000000E-002    2.304803807940964E-012
  1.040000000000000E-002    3.806041361036459E-012
  1.050000000000000E-002    5.194866022735720E-012
  1.060000000000000E-002    6.365529115651755E-012
  1.070000000000000E-002    7.216407455448786E-012
  1.080000000000000E-002    7.657770534510455E-012
  1.090000000000000E-002    7.619607938516260E-012
  1.100000000000000E-002    7.058901092795380E-012
  1.110000000000000E-002    5.965679829661474E-012
  1.120000000000000E-002    4.367226795095613E-012
  1.130000000000000E-002    2.329856636639758E-012
  1.140000000000000E-002   -4.213640774130891E-014
  1.150000000000000E-002   -2.610594898440745E-012
  1.160000000000000E-002   -5.210651331075050E-012
  1.170000000000000E-002   -7.660637786452797E-012
  1.180000000000000E-002   -9.774203517046030E-012
  1.190000000000000E-002   -1.137385585733867E-011
  1.200000000000000E-002   -1.230495841523563E-011
  1.210000000000000E-002   -1.244910376995751E-011
  1.220000000000000E-002   -1.173575525131373E-011
  1.230000000000000E-002   -1.015111988770472E-011
  1.240000000000000E-002   -7.743373625178035E-012
  1.250000000000000E-002   -4.623596559586995E-012
  1.260000000000000E-002   -9.620911615329397E-013
  1.270000000000000E-002    3.019913388573009E-012
  1.280000000000000E-002    7.062817931786338E-012
  1.290000000000000E-002    1.088476820117277E-011
  1.300000000000000E-002    1.420035658644036E-011
  1.310000000000000E-002    1.674070105159601E-011
  1.320000000000000E-002    1.827355123891791E-011
  1.330000000000000E-002    1.862202845614256E-011
  1.340000000000000E-002    1.768063895939867E-011
  1.350000000000000E-002    1.542733368870900E-011
  1.360000000000000E-002    1.193058842656844E-011
  1.370000000000000E-002    7.350776611921468E-012
  1.380000000000000E-002    1.935389152956017E-012
  1.390000000000000E-002   -3.991941115790176E-012
  1.400000000000000E-002   -1.004830140793286E-011
  1.410000000000000E-002   -1.581354911963311E-011
  1.420000000000000E-002   -2.085649183160892E-011
  1.430000000000000E-002   -2.476380573729062E-011
  1.440000000000000E-002   -2.717001008447380E-011
  1.450000000000000E-002   -2.778661338117880E-011
  1.460000000000000E-002   -2.642843154340433E-011
  1.470000000000000E-002   -2.303503368523381E-011
  1.480000000000000E-002   -1.768543361647005E-011
  1.490000000000000E-002   -1.060438361636057E-011
  1.500000000000000E-002   -2.158995249150462E-012
  1.510000000000000E-002    7.154955299236611E-012
  1.520000000000000E-002    1.673711097325086E-011
  1.530000000000000E-002    2.591625232366353E-011
  1.540000000000000E-002    3.399215614654519E-011
  1.550000000000000E-002    4.028329438914343E-011
  1.560000000000000E-002    4.417741274688230E-011
  1.570000000000000E-002    4.518151354354305E-011
  1.580000000000000E-002    4.296746064158402E-011
  1.590000000000000E-002    3.740939791764918E-011
  1.600000000000000E-002    2.860952283190200E-011
  1.610000000000000E-002    1.690926780571285E-011
  1.620000000000000E-002    2.883943171284093E-012
  1.630000000000000E-002   -1.268003891805554E-011
  1.640000000000000E-002   -2.882490742304020E-011
  1.650000000000000E-002   -4.447646365690822E-011
  1.660000000000000E-002   -5.851111172719063E-011
  1.670000000000000E-002   -6.983076293961496E-011
  1.680000000000000E-002   -7.744062302275492E-011
  1.690000000000000E-002   -8.052426969735902E-011
  1.700000000000000E-002   -7.851047231259768E-011
  1.710000000000000E-002   -7.112658017382238E-011
  1.720000000000000E-002   -5.843400078568027E-011
  1.730000000000000E-002   -4.084257204622380E-011
  1.740000000000000E-002   -1.910201031991174E-011
  1.750000000000000E-002    5.729787893110965E-012
  1.760000000000000E-002    3.234017591220492E-011
  1.770000000000000E-002    5.923389319709812E-011
  1.780000000000000E-002    8.481958742441519E-011
  1.790000000000000E-002    1.075052656136069E-010
  1.800000000000000E-002    1.257965876596674E-010
  1.810000000000000E-002    1.383915827900009E-010
  1.820000000000000E-002    1.442654823705786E-010
  1.830000000000000E-002    1.427399509843438E-010
  1.840000000000000E-002    1.335319380495907E-010
  1.850000000000000E-002    1.167784779249279E-010
  1.860000000000000E-002    9.303538699475066E-011
  1.870000000000000E-002    6.324949453497024E-011