 -4.000000000000000E-002    0.000000000000000E+000
 -3.990000000000000E-002    0.000000000000000E+000
 -3.980000000000000E-002    0.000000000000000E+000
 -3.970000000000000E-002    0.000000000000000E+000
 -3.960000000000000E-002    0.000000000000000E+000
 -3.950000000000000E-002    0.000000000000000E+000
 -3.940000000000000E-002    0.000000000000000E+000
 -3.930000000000000E-002    0.000000000000000E+000
 -3.920000000000000E-002    0.000000000000000E+000
 -3.910000000000000E-002    0.000000000000000E+000
 -3.900000000000000E-002    0.000000000000000E+000
 -3.890000000000000E-002    0.000000000000000E+000
 -3.880000000000000E-002    0.000000000000000E+000
 -3.870000000000000E-002    0.000000000000000E+000
 -3.860000000000000E-002    0.000000000000000E+000
 -3.850000000000000E-002    0.000000000000000E+000
 -3.840000000000000E-002    0.000000000000000E+000
 -3.830000000000000E-002    0.000000000000000E+000
 -3.820000000000000E-002    0.000000000000000E+000
 -3.810000000000000E-002    0.000000000000000E+000
 -3.800000000000000E-002    0.000000000000000E+000
 -3.790000000000000E-002    0.000000000000000E+000
 -3.780000000000000E-002    0.000000000000000E+000
 -3.770000000000000E-002    0.000000000000000E+000
 -3.760000000000000E-002    0.000000000000000E+000
 -3.750000000000000E-002    0.000000000000000E+000
 -3.740000000000000E-002    0.000000000000000E+000
 -3.730000000000000E-002    0.000000000000000E+000
 -3.720000000000000E-002    0.000000000000000E+000
 -3.710000000000000E-002    0.000000000000000E+000
 -3.700000000000000E-002    0.000000000000000E+000
 -3.690000000000000E-002    0.000000000000000E+000
 -3.680000000000000E-002    0.000000000000000E+000
 -3.670000000000000E-002    0.000000000000000E+000
 -3.660000000000000E-002    0.000000000000000E+000
 -3.650000000000000E-002    0.000000000000000E+000
 -3.640000000000000E-002    0.000000000000000E+000
 -3.630000000000000E-002    0.000000000000000E+000
 -3.620000000000000E-002    0.000000000000000E+000
 -3.610000000000000E-002    0.000000000000000E+000
 -3.600000000000000E-002    0.000000000000000E+000
 -3.590000000000000E-002    0.000000000000000E+000
 -3.580000000000000E-002    0.000000000000000E+000
 -3.570000000000000E-002    0.000000000000000E+000
 -3.560000000000000E-002    0.000000000000000E+000
 -3.550000000000000E-002    0.000000000000000E+000
 -3.540000000000000E-002    0.000000000000000E+000
 -3.530000000000000E-002    0.000000000000000E+000
 -3.520000000000000E-002    0.000000000000000E+000
 -3.510000000000000E-002    0.000000000000000E+000
 -3.500000000000000E-002    0.000000000000000E+000
 -3.490000000000000E-002    0.000000000000000E+000
 -3.480000000000000E-002    0.000000000000000E+000
 -3.470000000000000E-002   -2.565854121688508E-047
 -3.460000000000000E-002   -2.029026882677315E-046
 -3.450000000000000E-002   -5.060738999356541E-046
 -3.440000000000000E-002   -1.080343146750393E-045
 -3.430000000000000E-002   -2.051637493329025E-045
 -3.420000000000000E-002   -3.355610373974997E-045
 -3.410000000000000E-002   -4.841037087656516E-045
 -3.400000000000000E-002   -4.340367816698152E-045
 -3.390000000000000E-002   -3.391233844175179E-046
 -3.380000000000000E-002    1.322848011857784E-044
 -3.370000000000000E-002    4.493548849558533E-044
 -3.360000000000000E-002    1.073357893188518E-043
 -3.350000000000000E-002    2.166971937634342E-043
 -3.340000000000000E-002    3.858418146102471E-043
 -3.330000000000000E-002    6.141642620866125E-043
 -3.320000000000000E-002    8.591605593891613E-043
 -3.310000000000000E-002    9.977243826030293E-043
 -3.300000000000000E-002    7.647100453895669E-043
 -3.290000000000000E-002   -3.238660875056692E-043
 -3.280000000000000E-002   -3.035673108135214E-042
 -3.270000000000000E-002   -8.432898212762690E-042
 -3.260000000000000E-002   -1.774403548308220E-041
 -3.250000000000000E-002   -3.196220945160024E-041
 -3.240000000000000E-002   -5.099899627219661E-041
 -3.230000000000000E-002   -7.221037582238792E-041
 -3.220000000000000E-002   -8.819039115384074E-041
 -3.210000000000000E-002   -8.390520561729046E-041
 -3.200000000000000E-002   -3.368263176266581E-041
 -3.190000000000000E-002    1.007816745426903E-040
 -3.180000000000000E-002    3.692768943453455E-040
 -3.170000000000000E-002    8.255454656891307E-040
 -3.160000000000000E-002    1.509111287570043E-039
 -3.150000000000000E-002    2.411847552207825E-039
 -3.140000000000000E-002    3.425734939641536E-039
 -3.130000000000000E-002    4.271955943606073E-039
 -3.120000000000000E-002    4.418806660219714E-039
 -3.110000000000000E-002    3.007965193188966E-039
 -3.100000000000000E-002   -1.174703247240723E-039
 -3.090000000000000E-002   -9.627889028937113E-039
 -3.080000000000000E-002   -2.388872604522673E-038
 -3.070000000000000E-002   -4.502762646090434E-038
 -3.060000000000000E-002   -7.281002343713606E-038
 -3.050000000000000E-002   -1.044949687330118E-037
 -3.040000000000000E-002   -1.333327980339441E-037
 -3.030000000000000E-002   -1.469753401200279E-037
 -3.020000000000000E-002   -1.262229493559498E-037
 -3.010000000000000E-002   -4.478544972040814E-038
 -3.000000000000000E-002    1.290135189053644E-037
 -2.990000000000000E-002    4.274817362986593E-037
 -2.980000000000000E-002    8.746476422963285E-037
 -2.970000000000000E-002    1.472396290796153E-036
 -2.960000000000000E-002    2.181596281561621E-036
 -2.950000000000000E-002    2.899437165948907E-036
 -2.940000000000000E-002    3.436023473419546E-036
 -2.930000000000000E-002    3.495562246845374E-036
 -2.920000000000000E-002    2.669975949775230E-036
 -2.910000000000000E-002    4.550544288020152E-037
 -2.900000000000000E-002   -3.699264874546649E-036
 -2.890000000000000E-002   -1.029288945714071E-035
 -2.880000000000000E-002   -1.962442204046436E-035
 -2.870000000000000E-002   -3.158042171206484E-035
 -2.860000000000000E-002   -4.536882208646623E-035
 -2.850000000000000E-002   -5.921204767112501E-035
 -2.840000000000000E-002   -7.003081550270384E-035
 -2.830000000000000E-002   -7.316927639954841E-035
 -2.820000000000000E-002   -6.223637484436883E-035
 -2.810000000000000E-002   -2.916822329042780E-035
 -2.800000000000000E-002    3.534786116837211E-035
 -2.790000000000000E-002    1.409056580253690E-034
 -2.780000000000000E-002    2.956452732298835E-034
 -2.770000000000000E-002    5.034983276764357E-034
 -2.760000000000000E-002    7.601665461456253E-034
 -2.750000000000000E-002    1.047669325358261E-033
 -2.740000000000000E-002    1.327508821149331E-033
 -2.730000000000000E-002    1.532913404646422E-033
 -2.720000000000000E-002    1.561298142673429E-033
 -2.710000000000000E-002    1.269063526743830E-033
 -2.700000000000000E-002    4.721158014368150E-034
 -2.690000000000000E-002   -1.043112328409561E-033
 -2.680000000000000E-002   -3.492135009482893E-033
 -2.670000000000000E-002   -7.041851324626006E-033
 -2.660000000000000E-002   -1.173132151260015E-032
 -2.650000000000000E-002   -1.736149324775145E-032
 -2.640000000000000E-002   -2.335798370466002E-032
 -2.630000000000000E-002   -2.862142935539955E-032
 -2.620000000000000E-002   -3.139431479659591E-032
 -2.610000000000000E-002   -2.919056510797276E-032
 -2.600000000000000E-002   -1.885198691571486E-032
 -2.590000000000000E-002    3.190560912747779E-033
 -2.580000000000000E-002    4.036994904184720E-032
 -2.570000000000000E-002    9.508311508137058E-032
 -2.560000000000000E-002    1.674140179028423E-031
 -2.550000000000000E-002    2.535294379947672E-031
 -2.540000000000000E-002    3.439092068693835E-031
 -2.530000000000000E-002    4.217158381167430E-031
 -2.520000000000000E-002    4.617685359221933E-031
 -2.510000000000000E-002    4.307359016523212E-031
 -2.500000000000000E-002    2.892578714197372E-031
 -2.490000000000000E-002   -3.301777554022454E-033
 -2.480000000000000E-002   -4.809436261395980E-031
 -2.470000000000000E-002   -1.159821647026417E-030
 -2.460000000000000E-002   -2.024230239288928E-030
 -2.450000000000000E-002   -3.011164581719575E-030
 -2.440000000000000E-002   -3.995886218826485E-030
 -2.430000000000000E-002   -4.782029105993324E-030
 -2.420000000000000E-002   -5.100715377419036E-030
 -2.410000000000000E-002   -4.623650337090940E-030
 -2.400000000000000E-002   -2.994896995483361E-030
 -2.390000000000000E-002    1.152981793156498E-031
 -2.380000000000000E-002    4.933898147630423E-030
 -2.370000000000000E-002    1.148898059861701E-029
 -2.360000000000000E-002    1.950271452813868E-029
 -2.350000000000000E-002    2.828800298685646E-029
 -2.340000000000000E-002    3.666941615594567E-029
 -2.330000000000000E-002    4.295394581617483E-029
 -2.320000000000000E-002    4.497954282679154E-029
 -2.310000000000000E-002    4.026795997221604E-029
 -2.300000000000000E-002    2.630181763034353E-029
 -2.290000000000000E-002    9.331646138048081E-031
 -2.280000000000000E-002   -3.708792444645971E-029
 -2.270000000000000E-002   -8.750040218447066E-029
 -2.260000000000000E-002   -1.478982859202224E-028
 -2.250000000000000E-002   -2.131672233807706E-028
 -2.240000000000000E-002   -2.751078545312797E-028
 -2.230000000000000E-002   -3.223788802668925E-028
 -2.220000000000000E-002   -3.408961721007801E-028
 -2.210000000000000E-002   -3.148104455194096E-028
 -2.200000000000000E-002   -2.281500512780907E-028
 -2.190000000000000E-002   -6.715630265486288E-029
 -2.180000000000000E-002    1.767454097645718E-028
 -2.170000000000000E-002    5.035023553898226E-028
 -2.160000000000000E-002    9.008083849202510E-028
 -2.150000000000000E-002    1.340721814274379E-027
 -2.140000000000000E-002    1.777090981560925E-027
 -2.130000000000000E-002    2.144475772257483E-027
 -2.120000000000000E-002    2.359337391818302E-027
 -2.110000000000000E-002    2.324293625072242E-027
 -2.100000000000000E-002    1.936161293344505E-027
 -2.090000000000000E-002    1.098297289899965E-027
 -2.080000000000000E-002   -2.626352198619084E-028
 -2.070000000000000E-002   -2.175938876461655E-027
 -2.060000000000000E-002   -4.603467693488647E-027
 -2.050000000000000E-002   -7.415811932490327E-027
 -2.040000000000000E-002   -1.037150696158520E-026
 -2.030000000000000E-002   -1.310384018826944E-026
 -2.020000000000000E-002   -1.512076129295708E-026
 -2.010000000000000E-002   -1.582386821745108E-026
 -2.000000000000000E-002   -1.455209743242413E-026
 -1.990000000000000E-002   -1.065427664387693E-026
 -1.980000000000000E-002   -3.591796684988492E-027
 -1.970000000000000E-002    6.931771474974570E-027
 -1.960000000000000E-002    2.082322353318162E-026
 -1.950000000000000E-002    3.745049590045786E-026
 -1.940000000000000E-002    5.551499209878703E-026
 -1.930000000000000E-002    7.297504886287137E-026
 -1.920000000000000E-002    8.705401672025801E-026
 -1.910000000000000E-002    9.436602951183842E-026
 -1.900000000000000E-002    9.118644149884967E-026
 -1.890000000000000E-002    7.388068947472569E-026
 -1.880000000000000E-002    3.948470323002884E-026
 -1.870000000000000E-002   -1.359731784861104E-026
 -1.860000000000000E-002   -8.484363107533010E-026
 -1.850000000000000E-002   -1.709123215675419E-025
 -1.840000000000000E-002   -2.651109510402121E-025
 -1.830000000000000E-002   -3.571805419981572E-025
 -1.820000000000000E-002   -4.335348209477369E-025
 -1.810000000000000E-002   -4.780716704856523E-025
 -1.800000000000000E-002   -4.736231597203782E-025
 -1.790000000000000E-002   -4.040340271001632E-025
 -1.780000000000000E-002   -2.567603569600215E-025
 -1.770000000000000E-002   -2.576986682141513E-026
 -1.760000000000000E-002    2.855828872945970E-025
 -1.750000000000000E-002    6.621217975267496E-025
 -1.740000000000000E-002    1.075320680767268E-024
 -1.730000000000000E-002    1.483142029293089E-024
 -1.720000000000000E-002    1.831631018386473E-024
 -1.710000000000000E-002    2.058508839268827E-024
 -1.700000000000000E-002    2.098796971141757E-024
 -1.690000000000000E-002    1.892247264477939E-024
 -1.680000000000000E-002    1.392067366027640E-024
 -1.670000000000000E-002    5.741672797871353E-025
 -1.660000000000000E-002   -5.540675100719414E-025
 -1.650000000000000E-002   -1.946597720203727E-024
 -1.640000000000000E-002   -3.514291122159031E-024
 -1.630000000000000E-002   -5.124257210728642E-024
 -1.620000000000000E-002   -6.603770994403966E-024
 -1.610000000000000E-002   -7.749276603929936E-024
 -1.600000000000000E-002   -8.340571334130215E-024
 -1.590000000000000E-002   -8.159853003224281E-024
 -1.580000000000000E-002   -7.014891228764209E-024
 -1.570000000000000E-002   -4.765179552506641E-024
 -1.560000000000000E-002   -1.349534491089543E-024
 -1.550000000000000E-002    3.186781070369078E-024
 -1.540000000000000E-002    8.667764822737591E-024
 -1.530000000000000E-002    1.476804138434412E-023
 -1.520000000000000E-002    2.100323073194057E-023
 -1.510000000000000E-002    2.673316344321623E-023
 -1.500000000000000E-002    3.118210727364737E-023
 -1.490000000000000E-002    3.348011681824127E-023
 -1.480000000000000E-002    3.272892792131895E-023
 -1.470000000000000E-002    2.809414584320333E-023
 -1.460000000000000E-002    1.892264987917115E-023
 -1.450000000000000E-002    4.879994072653824E-024
 -1.440000000000000E-002   -1.390268783765821E-023
 -1.430000000000000E-002   -3.668872096542032E-023
 -1.420000000000000E-002   -6.202519556733136E-023
 -1.410000000000000E-002   -8.768836820105389E-023
 -1.400000000000000E-002   -1.107138804233801E-022
 -1.390000000000000E-002   -1.275381838476180E-022
 -1.380000000000000E-002   -1.342699551243935E-022
 -1.370000000000000E-002   -1.270966865508691E-022
 -1.360000000000000E-002   -1.028121754655813E-022
 -1.350000000000000E-002   -5.942703861383578E-023
 -1.340000000000000E-002    3.201119427742004E-024
 -1.330000000000000E-002    8.280425561398920E-023
 -1.320000000000000E-002    1.743100345856188E-022
 -1.310000000000000E-002    2.697247371665186E-022
 -1.300000000000000E-002    3.583888686209453E-022
 -1.290000000000000E-002    4.276710687091741E-022
 -1.280000000000000E-002    4.641171747416238E-022
 -1.270000000000000E-002    4.550069801583005E-022
 -1.260000000000000E-002    3.901976349658018E-022
 -1.250000000000000E-002    2.640606153432807E-022
 -1.240000000000000E-002    7.725974866643119E-023
 -1.230000000000000E-002   -1.619152370889190E-022
 -1.220000000000000E-002   -4.369414491405255E-022
 -1.210000000000000E-002   -7.234156019042522E-022
 -1.200000000000000E-002   -9.905063960572235E-022
 -1.190000000000000E-002   -1.203512986529318E-021
 -1.180000000000000E-002   -1.327378377877377E-021
 -1.170000000000000E-002   -1.330844135261382E-021
 -1.160000000000000E-002   -1.190794250357635E-021
 -1.150000000000000E-002   -8.962446482165957E-022
 -1.140000000000000E-002   -4.514152886802229E-022
 -1.130000000000000E-002    1.226141240920426E-022
 -1.120000000000000E-002    7.880151219970979E-022
 -1.110000000000000E-002    1.492222387473734E-021
 -1.100000000000000E-002    2.171723631426186E-021
 -1.090000000000000E-002    2.757254395665331E-021
 -1.080000000000000E-002    3.179821332990118E-021
 -1.070000000000000E-002    3.376867714018959E-021
 -1.060000000000000E-002    3.297908326062783E-021
 -1.050000000000000E-002    2.909099837365482E-021
 -1.040000000000000E-002    2.196461064902600E-021
 -1.030000000000000E-002    1.167764402615730E-021
 -1.020000000000000E-002   -1.465922317636519E-022
 -1.010000000000000E-002   -1.693227623504202E-021
 -1.000000000000000E-002   -3.395407915611942E-021
 -9.899999999999999E-003   -5.152343083108058E-021
 -9.800000000000000E-003   -6.838252333723913E-021
 -9.699999999999999E-003   -8.301895411603437E-021
 -9.599999999999999E-003   -9.367917506588000E-021
 -9.500000000000000E-003   -9.841882163064134E-021
 -9.399999999999999E-003   -9.521080326318302E-021
 -9.299999999999999E-003   -8.212924207322022E-021
 -9.200000000000000E-003   -5.761820846270179E-021
 -9.099999999999999E-003   -2.083869597490915E-021
 -8.999999999999999E-003    2.793369418931323E-021
 -8.900000000000000E-003    8.691126519215579E-021
 -8.799999999999999E-003    1.524696479330946E-020
 -8.699999999999999E-003    2.189839923073279E-020
 -8.600000000000000E-003    2.789165069494089E-020
 -8.499999999999999E-003    3.232322231503061E-020
 -8.399999999999999E-003    3.421868069159083E-020
 -8.300000000000000E-003    3.264786692189601E-020
 -8.199999999999999E-003    2.686916930715689E-020
 -8.100000000000000E-003    1.648829726198321E-020
 -8.000000000000000E-003    1.610331401549835E-021
 -7.899999999999999E-003   -1.704088969687355E-020
 -7.800000000000000E-003   -3.806350891524747E-020
 -7.699999999999999E-003   -5.940312523431208E-020
 -7.599999999999999E-003   -7.847994255594344E-020
 -7.499999999999999E-003   -9.242210548669136E-020
 -7.399999999999999E-003   -9.839384206854739E-020
 -7.299999999999999E-003   -9.398942565164204E-020
 -7.199999999999999E-003   -7.764747351265712E-020
 -7.100000000000000E-003   -4.902767748845609E-020
 -6.999999999999999E-003   -9.286670229569058E-021
 -6.899999999999999E-003    3.880629166884689E-020
 -6.800000000000000E-003    9.095891828106167E-020
 -6.699999999999999E-003    1.416715946164254E-019
 -6.599999999999999E-003    1.847684857639503E-019
 -6.499999999999999E-003    2.140983317643988E-019
 -6.399999999999999E-003    2.243262103957633E-019
 -6.299999999999999E-003    2.117127097332565E-019
 -6.199999999999999E-003    1.747655010655132E-019
 -6.100000000000000E-003    1.146541213721869E-019
 -5.999999999999999E-003    3.530407355548230E-020
 -5.899999999999999E-003   -5.687174041648915E-020
 -5.800000000000000E-003   -1.535921092887712E-019
 -5.699999999999999E-003   -2.456066223757790E-019
 -5.599999999999999E-003   -3.237524713578920E-019
 -5.499999999999999E-003   -3.800113902190629E-019
 -5.399999999999999E-003   -4.083986888500332E-019
 -5.299999999999999E-003   -4.055372221446661E-019
 -5.199999999999999E-003   -3.708193702866884E-019
 -5.099999999999999E-003   -3.061363870550631E-019
 -4.999999999999999E-003   -2.152415494995735E-019
 -4.899999999999999E-003   -1.028988646473142E-019
 -4.799999999999999E-003    2.596959534508396E-020
 -4.699999999999999E-003    1.669007746600452E-019
 -4.599999999999999E-003    3.160627399792791E-019
 -4.499999999999999E-003    4.698542831404424E-019
 -4.399999999999999E-003    6.239329834418910E-019
 -4.299999999999999E-003    7.718286083180614E-019
 -4.199999999999999E-003    9.034561776502665E-019
 -4.099999999999999E-003    1.003963600354013E-018
 -3.999999999999999E-003    1.053402215014293E-018
 -3.899999999999999E-003    1.027665148892478E-018
 -3.799999999999999E-003    9.009845044333472E-019
 -3.699999999999999E-003    6.500212078200918E-019
 -3.599999999999999E-003    2.592473713278771E-019
 -3.499999999999999E-003   -2.730396602302273E-019
 -3.399999999999999E-003   -9.290542260569016E-019
 -3.299999999999999E-003   -1.667403977443770E-018
 -3.199999999999999E-003   -2.421743520997738E-018
 -3.099999999999999E-003   -3.103238490890373E-018
 -2.999999999999999E-003   -3.607451657581999E-018
 -2.899999999999999E-003   -3.825622981553124E-018
 -2.799999999999999E-003   -3.659546332388157E-018
 -2.699999999999999E-003   -3.038439841204538E-018
 -2.599999999999999E-003   -1.935521785630501E-018
 -2.499999999999999E-003   -3.815738790798098E-019
 -2.399999999999999E-003    1.527277911640550E-018
 -2.299999999999999E-003    3.629920746516587E-018
 -2.199999999999999E-003    5.710218988317355E-018
 -2.099999999999999E-003    7.516768177594305E-018
 -1.999999999999999E-003    8.791076942761892E-018
 -1.899999999999999E-003    9.301253665971472E-018
 -1.799999999999999E-003    8.876936788454932E-018
 -1.699999999999999E-003    7.440378750140710E-018
 -1.599999999999999E-003    5.028478111916246E-018
 -1.499999999999999E-003    1.801284010974470E-018
 -1.399999999999999E-003   -1.965948653849627E-018
 -1.299999999999999E-003   -5.907797722274928E-018
 -1.199999999999999E-003   -9.608826978362561E-018
 -1.099999999999999E-003   -1.265420791455749E-017
 -9.999999999999989E-004   -1.468400556209122E-017
 -8.999999999999990E-004   -1.544303602628968E-017
 -7.999999999999990E-004   -1.481815887853096E-017
 -6.999999999999989E-004   -1.285622437100515E-017
 -5.999999999999990E-004   -9.758556320652131E-018
 -4.999999999999989E-004   -5.851523747158120E-018
 -3.999999999999989E-004   -1.536891888756423E-018
 -2.999999999999989E-004    2.770474396390308E-018
 -1.999999999999989E-004    6.707042220222814E-018
 -9.999999999999892E-005    1.001539111379242E-017
  1.084202172485504E-018    1.257831602474359E-017
  1.000000000000011E-004    1.442420945016316E-017
  2.000000000000011E-004    1.570049360163926E-017
  3.000000000000011E-004    1.661797905993340E-017
  4.000000000000011E-004    1.737528020336121E-017
  5.000000000000011E-004    1.807772920291636E-017
  6.000000000000011E-004    1.866842742231044E-017
  7.000000000000011E-004    1.888919450212196E-017
  8.000000000000011E-004    1.828576483251122E-017
  9.000000000000012E-004    1.626483452679465E-017
  1.000000000000001E-003    1.220114206854986E-017
  1.100000000000001E-003    5.582239647915916E-018
  1.200000000000001E-003   -3.831331886882357E-018
  1.300000000000001E-003   -1.585991677595435E-017
  1.400000000000001E-003   -2.980495196964378E-017
  1.500000000000001E-003   -4.442480025446726E-017
  1.600000000000001E-003   -5.800651113727494E-017
  1.700000000000001E-003   -6.853944682638551E-017
  1.800000000000001E-003   -7.397892285973086E-017
  1.900000000000001E-003   -7.256930191935269E-017
  2.000000000000001E-003   -6.318004831528050E-017
  2.100000000000001E-003   -4.559801192588347E-017
  2.200000000000001E-003   -2.071775831891691E-017
  2.300000000000001E-003    9.419479869877462E-018
  2.400000000000001E-003    4.176876192073517E-017
  2.500000000000001E-003    7.260954764616561E-017
  2.600000000000001E-003    9.803032601397355E-017
  2.700000000000001E-003    1.145097022141360E-016
  2.800000000000001E-003    1.195084401034926E-016
  2.900000000000001E-003    1.119729183617587E-016
  3.000000000000001E-003    9.265218262342208E-017
  3.100000000000001E-003    6.414946063347101E-017
  3.200000000000001E-003    3.066465861332091E-017
  3.300000000000001E-003   -2.568014075180176E-018
  3.400000000000001E-003   -3.008952706583625E-017
  3.500000000000001E-003   -4.716417081146446E-017
  3.600000000000001E-003   -5.071944031024797E-017
  3.700000000000001E-003   -4.011269448316373E-017
  3.800000000000001E-003   -1.756761247150290E-017
  3.900000000000001E-003    1.184021315182428E-017
  4.000000000000001E-003    4.070761920731437E-017
  4.100000000000001E-003    6.031773210160721E-017
  4.200000000000001E-003    6.203691948644214E-017
  4.300000000000001E-003    3.890988626859925E-017
  4.400000000000001E-003   -1.278860773014939E-017
  4.500000000000001E-003   -9.230994534029514E-017
  4.600000000000002E-003   -1.937412997905542E-016
  4.700000000000001E-003   -3.060527035518564E-016
  4.800000000000001E-003   -4.139663640224327E-016
  4.900000000000002E-003   -4.996098530005259E-016
  5.000000000000001E-003   -5.447850871451812E-016
  5.100000000000001E-003   -5.335705121188325E-016
  5.200000000000001E-003   -4.548945953695335E-016
  5.300000000000002E-003   -3.046916667611010E-016
  5.400000000000001E-003   -8.728470790028431E-017
  5.500000000000001E-003    1.842660929203160E-016
  5.600000000000002E-003    4.889674975375624E-016
  5.700000000000001E-003    7.997961546597089E-016
  5.800000000000001E-003    1.086473336451371E-015
  5.900000000000002E-003    1.318740314990949E-015
  6.000000000000001E-003    1.469672111377472E-015
  6.100000000000001E-003    1.518553889273687E-015
  6.200000000000002E-003    1.452909802071460E-015
  6.300000000000002E-003    1.269417335700527E-015
  6.400000000000001E-003    9.736346450540409E-016
  6.500000000000001E-003    5.786854134739871E-016
  6.600000000000002E-003    1.032430607133135E-016
  6.700000000000001E-003   -4.307070489704112E-016
  6.800000000000001E-003   -9.998007996816805E-016
  6.900000000000002E-003   -1.580461046124602E-015
  7.000000000000001E-003   -2.149003984671858E-015
  7.100000000000001E-003   -2.680650361757956E-015
  7.200000000000002E-003   -3.147706019628713E-015
  7.300000000000002E-003   -3.517463826888841E-015
  7.400000000000001E-003   -3.750593014844168E-015
  7.500000000000001E-003   -3.800866171986814E-015
  7.600000000000002E-003   -3.616992760858257E-015
  7.700000000000001E-003   -3.147062985000068E-015
  7.800000000000001E-003   -2.345687214422608E-015
  7.900000000000001E-003   -1.183378151730387E-015
  8.000000000000002E-003    3.428370534249003E-016
  8.100000000000001E-003    2.199078349188934E-015
  8.200000000000001E-003    4.306387483052357E-015
  8.300000000000002E-003    6.536527851759696E-015
  8.400000000000001E-003    8.713498664983504E-015
  8.500000000000002E-003    1.062190849022509E-014
  8.600000000000002E-003    1.202253999176488E-014
  8.700000000000001E-003    1.267444456992738E-014
  8.800000000000002E-003    1.236184042578340E-014
  8.900000000000002E-003    1.092314991643906E-014
  9.000000000000001E-003    8.278812439908495E-015
  9.100000000000002E-003    4.454205879093261E-015
  9.200000000000002E-003   -4.058194072320777E-016
  9.300000000000001E-003   -6.033630478001288E-015
  9.400000000000002E-003   -1.204843541481249E-014
  9.500000000000001E-003   -1.797913619939648E-014
  9.600000000000001E-003   -2.329911776768601E-014
  9.700000000000002E-003   -2.747016204716585E-014
  9.800000000000001E-003   -2.999145216534437E-014
  9.900000000000001E-003   -3.044883561560131E-014
  1.000000000000000E-002   -2.855932568355760E-014
  1.010000000000000E-002   -2.420621872802458E-014
  1.020000000000000E-002   -1.746119936960971E-014
  1.030000000000000E-002   -8.591170578328731E-015
  1.040000000000000E-002    1.950800167907711E-015
  1.050000000000000E-002    1.354941571624858E-014
  1.060000000000000E-002    2.546359907212347E-014
  1.070000000000000E-002    3.687212611700747E-014
  1.080000000000000E-002    4.692470480740522E-014
  1.090000000000000E-002    5.479481714306640E-014
  1.100000000000000E-002    5.973127435376545E-014
  1.110000000000000E-002    6.110621999279450E-014
  1.120000000000000E-002    5.845822468622440E-014
  1.130000000000000E-002    5.152980637540955E-014
  1.140000000000000E-002    4.029904544754430E-014
  1.150000000000000E-002    2.500483446282327E-014
  1.160000000000000E-002    6.164611441741362E-015
  1.170000000000000E-002   -1.541750789877151E-014
  1.180000000000000E-002   -3.865537812618543E-014
  1.190000000000000E-002   -6.220225087374712E-014
  1.200000000000000E-002   -8.449331293079591E-014
  1.210000000000000E-002   -1.038130062018503E-013
  1.220000000000000E-002   -1.183891429194751E-013
  1.230000000000000E-002   -1.265131703645354E-013
  1.240000000000000E-002   -1.266821948453079E-013
  1.250000000000000E-002   -1.177543333687588E-013
  1.260000000000000E-002   -9.910493810634356E-014
  1.270000000000000E-002   -7.076775539173027E-014
  1.280000000000000E-002   -3.354329487695785E-014
  1.290000000000000E-002    1.094347625117563E-014
  1.300000000000000E-002    6.025154927067596E-014
  1.310000000000000E-002    1.112092732198858E-013
  1.320000000000000E-002    1.600806738585078E-013
  1.330000000000000E-002    2.028084332259515E-013
  1.340000000000000E-002    2.353201158190143E-013
  1.350000000000000E-002    2.538757355317097E-013
  1.360000000000000E-002    2.554276523632220E-013
  1.370000000000000E-002    2.379593466455406E-013
  1.380000000000000E-002    2.007683012043787E-013
  1.390000000000000E-002    1.446607333153715E-013
  1.400000000000000E-002    7.203223558850320E-014
  1.410000000000000E-002   -1.318235626064837E-014
  1.420000000000000E-002   -1.056949680330436E-013
  1.430000000000000E-002   -1.991785056236695E-013
  1.440000000000000E-002   -2.866894440525928E-013
  1.450000000000000E-002   -3.611681091979110E-013
  1.460000000000000E-002   -4.159783546672833E-013
  1.470000000000000E-002   -4.454439243360330E-013
  1.480000000000000E-002   -4.453389205023744E-013
  1.490000000000000E-002   -4.132925613115680E-013
  1.500000000000000E-002   -3.490765494087362E-013
  1.510000000000000E-002   -2.547511840551971E-013
  1.520000000000000E-002   -1.346578672712371E-013
  1.530000000000000E-002    4.744273198631031E-015
  1.540000000000000E-002    1.551896950973139E-013
  1.550000000000000E-002    3.070495599575789E-013
  1.560000000000000E-002    4.498837311757988E-013
  1.570000000000000E-002    5.730737805464489E-013
  1.580000000000000E-002    6.665059198015664E-013
  1.590000000000000E-002    7.212693601943427E-013
  1.600000000000000E-002    7.303349772078144E-013
  1.610000000000000E-002    6.891758766423924E-013
  1.620000000000000E-002    5.962910438952030E-013
  1.630000000000000E-002    4.535913661785540E-013
  1.640000000000000E-002    2.666089833232141E-013
  1.650000000000000E-002    4.449236877054398E-014
  1.660000000000000E-002   -2.002424537102047E-013
  1.670000000000000E-002   -4.522250047160050E-013
  1.680000000000000E-002   -6.940111934543351E-013
  1.690000000000000E-002   -9.071163096089813E-013
  1.700000000000000E-002   -1.073259785553210E-012
  1.710000000000000E-002   -1.175756244360700E-012
  1.720000000000000E-002   -1.200962548671371E-012
  1.730000000000000E-002   -1.139669182075664E-012
  1.740000000000000E-002   -9.883121427910037E-013
  1.750000000000000E-002   -7.498760413330511E-013
  1.760000000000000E-002   -4.343703217350831E-013
  1.770000000000000E-002   -5.878251382403865E-014
  1.780000000000000E-002    3.535530205748129E-013
  1.790000000000000E-002    7.741839666984473E-013
  1.800000000000000E-002    1.171326739538462E-012
  1.810000000000000E-002    1.512114534614426E-012
  1.820000000000000E-002    1.765157850622330E-012
  1.830000000000000E-002    1.903223913455922E-012
  1.840000000000000E-002    1.905812899854719E-012
  1.850000000000000E-002    1.761400667495735E-012
  1.860000000000000E-002    1.469124053964198E-012
  1.870000000000000E-002    1.039725100435259E-012