 -4.000000000000000E-002    0.000000000000000E+000
 -3.990000000000000E-002    0.000000000000000E+000
 -3.980000000000000E-002    0.000000000000000E+000
 -3.970000000000000E-002    0.000000000000000E+000
 -3.960000000000000E-002    0.000000000000000E+000
 -3.950000000000000E-002    0.000000000000000E+000
 -3.940000000000000E-002    0.000000000000000E+000
 -3.930000000000000E-002    0.000000000000000E+000
 -3.920000000000000E-002    0.000000000000000E+000
 -3.910000000000000E-002    0.000000000000000E+000
 -3.900000000000000E-002    0.000000000000000E+000
 -3.890000000000000E-002    0.000000000000000E+000
 -3.880000000000000E-002    0.000000000000000E+000
 -3.870000000000000E-002    0.000000000000000E+000
 -3.860000000000000E-002    0.000000000000000E+000
 -3.850000000000000E-002    0.000000000000000E+000
 -3.840000000000000E-002    0.000000000000000E+000
 -3.830000000000000E-002    0.000000000000000E+000
 -3.820000000000000E-002    0.000000000000000E+000
 -3.810000000000000E-002    0.000000000000000E+000
 -3.800000000000000E-002    0.000000000000000E+000
 -3.790000000000000E-002    0.000000000000000E+000
 -3.780000000000000E-002    0.000000000000000E+000
 -3.770000000000000E-002    0.000000000000000E+000
 -3.760000000000000E-002    0.000000000000000E+000
 -3.750000000000000E-002    0.000000000000000E+000
 -3.740000000000000E-002    0.000000000000000E+000
 -3.730000000000000E-002    0.000000000000000E+000
 -3.720000000000000E-002    0.000000000000000E+000
 -3.710000000000000E-002    0.000000000000000E+000
 -3.700000000000000E-002    0.000000000000000E+000
 -3.690000000000000E-002    0.000000000000000E+000
 -3.680000000000000E-002    0.000000000000000E+000
 -3.670000000000000E-002    0.000000000000000E+000
 -3.660000000000000E-002   -5.516586361630292E-047
 -3.650000000000000E-002   -1.756055354314083E-047
 -3.640000000000000E-002    3.973438739377632E-046
 -3.630000000000000E-002    2.140072589148896E-045
 -3.620000000000000E-002    7.587827171379425E-045
 -3.610000000000000E-002    2.400495799356265E-044
 -3.600000000000000E-002    6.683648026014707E-044
 -3.590000000000000E-002    1.681157850436856E-043
 -3.580000000000000E-002    3.873771996026377E-043
 -3.570000000000000E-002    8.268132220488488E-043
 -3.560000000000000E-002    1.619231813687211E-042
 -3.550000000000000E-002    2.868072638686632E-042
 -3.540000000000000E-002    4.436750433608392E-042
 -3.530000000000000E-002    5.433453255833261E-042
 -3.520000000000000E-002    3.135904452251554E-042
 -3.510000000000000E-002   -8.955459054708895E-042
 -3.500000000000000E-002   -4.419481619213165E-041
 -3.490000000000000E-002   -1.268203923795332E-040
 -3.480000000000000E-002   -2.956497555383701E-040
 -3.470000000000000E-002   -6.037792482725311E-040
 -3.460000000000000E-002   -1.106597988302359E-039
 -3.450000000000000E-002   -1.824421279972338E-039
 -3.440000000000000E-002   -2.659026581284866E-039
 -3.430000000000000E-002   -3.238090317341269E-039
 -3.420000000000000E-002   -2.664441872273488E-039
 -3.410000000000000E-002    8.307514883665169E-040
 -3.400000000000000E-002    1.027383580435851E-038
 -3.390000000000000E-002    3.020351602691084E-038
 -3.380000000000000E-002    6.644101784146411E-038
 -3.370000000000000E-002    1.247699631197192E-037
 -3.360000000000000E-002    2.076435490219930E-037
 -3.350000000000000E-002    3.078493422848941E-037
 -3.340000000000000E-002    3.981824482295344E-037
 -3.330000000000000E-002    4.169429620948911E-037
 -3.320000000000000E-002    2.509210111818820E-037
 -3.310000000000000E-002   -2.791036750274617E-037
 -3.300000000000000E-002   -1.420217925809833E-036
 -3.290000000000000E-002   -3.459957176489883E-036
 -3.280000000000000E-002   -6.646483468228868E-036
 -3.270000000000000E-002   -1.102969143081542E-035
 -3.260000000000000E-002   -1.620092060740416E-035
 -3.250000000000000E-002   -2.092793357627324E-035
 -3.240000000000000E-002   -2.272297226972922E-035
 -3.230000000000000E-002   -1.745089114234351E-035
 -3.220000000000000E-002    8.184921740772830E-037
 -3.210000000000000E-002    3.939657003719718E-035
 -3.200000000000000E-002    1.055850842819426E-034
 -3.190000000000000E-002    2.038638167539871E-034
 -3.180000000000000E-002    3.313333806384693E-034
 -3.170000000000000E-002    4.714560617116348E-034
 -3.160000000000000E-002    5.868393370798128E-034
 -3.150000000000000E-002    6.128817121420380E-034
 -3.140000000000000E-002    4.554790989147200E-034
 -3.130000000000000E-002   -2.584289393154564E-036
 -3.120000000000000E-002   -8.809683862846777E-034
 -3.110000000000000E-002   -2.261512215166973E-033
 -3.100000000000000E-002   -4.125560253272521E-033
 -3.090000000000000E-002   -6.271879876772258E-033
 -3.080000000000000E-002   -8.227957260538415E-033
 -3.070000000000000E-002   -9.181132338711480E-033
 -3.060000000000000E-002   -7.971840676234779E-033
 -3.050000000000000E-002   -3.205294651645648E-033
 -3.040000000000000E-002    6.456346044922245E-033
 -3.030000000000000E-002    2.177097277884060E-032
 -3.020000000000000E-002    4.215187004309095E-032
 -3.010000000000000E-002    6.472700749545570E-032
 -3.000000000000000E-002    8.340505016852061E-032
 -2.990000000000000E-002    8.828117404877064E-032
 -2.980000000000000E-002    6.587520496885935E-032
 -2.970000000000000E-002    8.158946715691228E-034
 -2.960000000000000E-002   -1.204016332381372E-031
 -2.950000000000000E-002   -3.031428038703851E-031
 -2.940000000000000E-002   -5.358777981496679E-031
 -2.930000000000000E-002   -7.798124990492646E-031
 -2.920000000000000E-002   -9.589817180141556E-031
 -2.910000000000000E-002   -9.543544769691106E-031
 -2.900000000000000E-002   -6.069866203948920E-031
 -2.890000000000000E-002    2.636941670607589E-031
 -2.880000000000000E-002    1.820402795431883E-030
 -2.870000000000000E-002    4.143089715309633E-030
 -2.860000000000000E-002    7.138806096869090E-030
 -2.850000000000000E-002    1.043405047488985E-029
 -2.840000000000000E-002    1.326788224397798E-029
 -2.830000000000000E-002    1.441683210467101E-029
 -2.820000000000000E-002    1.219546604531015E-029
 -2.810000000000000E-002    4.585853982760837E-030
 -2.800000000000000E-002   -1.044955946751269E-029
 -2.790000000000000E-002   -3.442975066571437E-029
 -2.780000000000000E-002   -6.758134277101886E-029
 -2.770000000000000E-002   -1.078736337946455E-028
 -2.760000000000000E-002   -1.499843986962279E-028
 -2.750000000000000E-002   -1.844129505947762E-028
 -2.740000000000000E-002   -1.970554951246635E-028
 -2.730000000000000E-002   -1.696372610542282E-028
 -2.720000000000000E-002   -8.142707917225226E-029
 -2.710000000000000E-002    8.739317293827266E-029
 -2.700000000000000E-002    3.505036202390479E-028
 -2.690000000000000E-002    7.084808119941762E-028
 -2.680000000000000E-002    1.140671780614736E-027
 -2.670000000000000E-002    1.597073030608278E-027
 -2.660000000000000E-002    1.992022919645141E-027
 -2.650000000000000E-002    2.202092089448624E-027
 -2.640000000000000E-002    2.070919996606118E-027
 -2.630000000000000E-002    1.423691982447265E-027
 -2.620000000000000E-002    9.331165247759352E-029
 -2.610000000000000E-002   -2.041077072075333E-027
 -2.600000000000000E-002   -5.004764730532921E-027
 -2.590000000000000E-002   -8.671835668564308E-027
 -2.580000000000000E-002   -1.271111496592035E-026
 -2.570000000000000E-002   -1.654500899533858E-026
 -2.560000000000000E-002   -1.933529180324908E-026
 -2.550000000000000E-002   -2.001114622996996E-026
 -2.540000000000000E-002   -1.735367843048065E-026
 -2.530000000000000E-002   -1.014692500299964E-026
 -2.520000000000000E-002    2.602322738130041E-027
 -2.510000000000000E-002    2.138486902112943E-026
 -2.500000000000000E-002    4.587270225372912E-026
 -2.490000000000000E-002    7.460451125967975E-026
 -2.480000000000000E-002    1.047267243397171E-025
 -2.470000000000000E-002    1.318552502183865E-025
 -2.460000000000000E-002    1.501283386937099E-025
 -2.450000000000000E-002    1.525170745111719E-025
 -2.440000000000000E-002    1.314446945047198E-025
 -2.430000000000000E-002    7.973770922770412E-026
 -2.420000000000000E-002   -8.107817881807627E-027
 -2.410000000000000E-002   -1.344125795666693E-025
 -2.400000000000000E-002   -2.966772264577405E-025
 -2.390000000000000E-002   -4.860052337100847E-025
 -2.380000000000000E-002   -6.858215422716342E-025
 -2.370000000000000E-002   -8.711656000979513E-025
 -2.360000000000000E-002   -1.008859266309561E-024
 -2.350000000000000E-002   -1.058850205942440E-024
 -2.340000000000000E-002   -9.769952720326264E-025
 -2.330000000000000E-002   -7.194763110475270E-025
 -2.320000000000000E-002   -2.489208640903729E-025
 -2.310000000000000E-002    4.578751348100415E-025
 -2.300000000000000E-002    1.400961363272386E-024
 -2.290000000000000E-002    2.547624835141722E-024
 -2.280000000000000E-002    3.823168692404227E-024
 -2.270000000000000E-002    5.103492039547785E-024
 -2.260000000000000E-002    6.211308177550837E-024
 -2.250000000000000E-002    6.918193697082594E-024
 -2.240000000000000E-002    6.954855449504955E-024
 -2.230000000000000E-002    6.031918696102529E-024
 -2.220000000000000E-002    3.873009219842314E-024
 -2.210000000000000E-002    2.607861630275915E-025
 -2.200000000000000E-002   -4.905212475352742E-024
 -2.190000000000000E-002   -1.154259315589032E-023
 -2.180000000000000E-002   -1.931880127062327E-023
 -2.170000000000000E-002   -2.759276855360223E-023
 -2.160000000000000E-002   -3.537908686392255E-023
 -2.150000000000000E-002   -4.135066741252033E-023
 -2.140000000000000E-002   -4.389649028388401E-023
 -2.130000000000000E-002   -4.124902519054474E-023
 -2.120000000000000E-002   -3.169023142819385E-023
 -2.110000000000000E-002   -1.383554437130244E-023
 -2.100000000000000E-002    1.301850008358320E-023
 -2.090000000000000E-002    4.851402724372513E-023
 -2.080000000000000E-002    9.086819617476948E-023
 -2.070000000000000E-002    1.365922308475629E-022
 -2.060000000000000E-002    1.803708455107829E-022
 -2.050000000000000E-002    2.151828581742157E-022
 -2.040000000000000E-002    2.327334353742886E-022
 -2.030000000000000E-002    2.242427219238892E-022
 -2.020000000000000E-002    1.815925029681785E-022
 -2.010000000000000E-002    9.877440756142436E-023
 -2.000000000000000E-002   -2.648596022722786E-023
 -1.990000000000000E-002   -1.911252866028793E-022
 -1.980000000000000E-002   -3.854171277637157E-022
 -1.970000000000000E-002   -5.922213555504134E-022
 -1.960000000000000E-002   -7.871059275607749E-022
 -1.950000000000000E-002   -9.395920297283648E-022
 -1.940000000000000E-002   -1.015670683437406E-021
 -1.930000000000000E-002   -9.815847517465016E-022
 -1.920000000000000E-002   -8.086679190558626E-022
 -1.910000000000000E-002   -4.788157157494175E-022
 -1.900000000000000E-002    1.005223554127049E-023
 -1.890000000000000E-002    6.393418854647802E-022
 -1.880000000000000E-002    1.366831178752084E-021
 -1.870000000000000E-002    2.126257846985582E-021
 -1.860000000000000E-002    2.830113376475391E-021
 -1.850000000000000E-002    3.375983353558177E-021
 -1.840000000000000E-002    3.656328207844053E-021
 -1.830000000000000E-002    3.571077987642532E-021
 -1.820000000000000E-002    3.041883463871641E-021
 -1.810000000000000E-002    2.026419456075475E-021
 -1.800000000000000E-002    5.308537323031856E-022
 -1.790000000000000E-002   -1.381456363629672E-021
 -1.780000000000000E-002   -3.586727529495950E-021
 -1.770000000000000E-002   -5.904145718812077E-021
 -1.760000000000000E-002   -8.106296782573266E-021
 -1.750000000000000E-002   -9.936136859024109E-021
 -1.740000000000000E-002   -1.112912623032182E-020
 -1.730000000000000E-002   -1.143839989142795E-020
 -1.720000000000000E-002   -1.066045549230962E-020
 -1.710000000000000E-002   -8.658810596530211E-021
 -1.700000000000000E-002   -5.383524327359122E-021
 -1.690000000000000E-002   -8.852566196187271E-022
 -1.680000000000000E-002    4.676470808278940E-021
 -1.670000000000000E-002    1.103024922642265E-020
 -1.660000000000000E-002    1.779386250376995E-020
 -1.650000000000000E-002    2.447841134594704E-020
 -1.640000000000000E-002    3.049523919031077E-020
 -1.630000000000000E-002    3.516697650656585E-020
 -1.620000000000000E-002    3.774608993184374E-020
 -1.610000000000000E-002    3.744632738754389E-020
 -1.600000000000000E-002    3.349378153245157E-020
 -1.590000000000000E-002    2.520412745837717E-020
 -1.580000000000000E-002    1.209018560335916E-020
 -1.570000000000000E-002   -6.001036344263053E-021
 -1.560000000000000E-002   -2.873033194590157E-020
 -1.550000000000000E-002   -5.510534308100278E-020
 -1.540000000000000E-002   -8.334481362160311E-020
 -1.530000000000000E-002   -1.108046672884528E-019
 -1.520000000000000E-002   -1.340071628432284E-019
 -1.510000000000000E-002   -1.488123343794776E-019
 -1.500000000000000E-002   -1.507603380583038E-019
 -1.490000000000000E-002   -1.355930679321996E-019
 -1.480000000000000E-002   -9.993428583457638E-020
 -1.470000000000000E-002   -4.207188835406780E-020
 -1.460000000000000E-002    3.725166084309046E-020
 -1.450000000000000E-002    1.341671064791927E-019
 -1.440000000000000E-002    2.412716310465906E-019
 -1.430000000000000E-002    3.476353325326502E-019
 -1.420000000000000E-002    4.393441699540386E-019
 -1.410000000000000E-002    5.006491523755948E-019
 -1.400000000000000E-002    5.157112674198848E-019
 -1.390000000000000E-002    4.708311264083190E-019
 -1.380000000000000E-002    3.569439759110067E-019
 -1.370000000000000E-002    1.720608764930129E-019
 -1.360000000000000E-002   -7.673356881078879E-020
 -1.350000000000000E-002   -3.721412638837272E-019
 -1.340000000000000E-002   -6.867418460473629E-019
 -1.330000000000000E-002   -9.845796706343439E-019
 -1.320000000000000E-002   -1.224331592687662E-018
 -1.310000000000000E-002   -1.363911036588845E-018
 -1.300000000000000E-002   -1.366105509385893E-018
 -1.290000000000000E-002   -1.204604144254883E-018
 -1.280000000000000E-002   -8.695861047844041E-019
 -1.270000000000000E-002   -3.719523473059591E-019
 -1.260000000000000E-002    2.546667975074279E-019
 -1.250000000000000E-002    9.547981671034772E-019
 -1.240000000000000E-002    1.655235377579319E-018
 -1.230000000000000E-002    2.272245516375280E-018
 -1.220000000000000E-002    2.721239524125607E-018
 -1.210000000000000E-002    2.927794499872651E-018
 -1.200000000000000E-002    2.838543200989837E-018
 -1.190000000000000E-002    2.430275098066897E-018
 -1.180000000000000E-002    1.715676678085173E-018
 -1.170000000000000E-002    7.445015904969593E-019
 -1.160000000000000E-002   -4.004143478253150E-019
 -1.150000000000000E-002   -1.612073691989693E-018
 -1.140000000000000E-002   -2.772083905893530E-018
 -1.130000000000000E-002   -3.765402532677831E-018
 -1.120000000000000E-002   -4.494671819335620E-018
 -1.110000000000000E-002   -4.891615424162876E-018
 -1.100000000000000E-002   -4.923326685027360E-018
 -1.090000000000000E-002   -4.592093050259369E-018
 -1.080000000000000E-002   -3.928649315464777E-018
 -1.070000000000000E-002   -2.980164016985949E-018
 -1.060000000000000E-002   -1.795665470310898E-018
 -1.050000000000000E-002   -4.126121501941216E-019
 -1.040000000000000E-002    1.151302622303112E-018
 -1.030000000000000E-002    2.897523175964911E-018
 -1.020000000000000E-002    4.835025641558001E-018
 -1.010000000000000E-002    6.957853085054456E-018
 -1.000000000000000E-002    9.214726452044543E-018
 -9.899999999999999E-003    1.147654112617141E-017
 -9.800000000000000E-003    1.350988963725362E-017
 -9.699999999999999E-003    1.496592166950708E-017
 -9.599999999999999E-003    1.539329838295495E-017
 -9.500000000000000E-003    1.428142294756969E-017
 -9.399999999999999E-003    1.113555904299486E-017
 -9.299999999999999E-003    5.579234550788405E-018
 -9.200000000000000E-003   -2.527583636351396E-018
 -9.099999999999999E-003   -1.297264049132329E-017
 -8.999999999999999E-003   -2.510070976681041E-017
 -8.900000000000000E-003   -3.777259714949197E-017
 -8.799999999999999E-003   -4.939582700240198E-017
 -8.699999999999999E-003   -5.804183315305329E-017
 -8.600000000000000E-003   -6.165282596092761E-017
 -8.499999999999999E-003   -5.832654760139521E-017
 -8.399999999999999E-003   -4.665076316988870E-017
 -8.300000000000000E-003   -2.604425901837097E-017
 -8.199999999999999E-003    2.949928824359708E-018
 -8.100000000000000E-003    3.847721915717459E-017
 -8.000000000000000E-003    7.734334583204414E-017
 -7.899999999999999E-003    1.151835178214761E-016
 -7.800000000000000E-003    1.468427218931931E-016
 -7.699999999999999E-003    1.669496541670685E-016
 -7.599999999999999E-003    1.706325870578605E-016
 -7.499999999999999E-003    1.542936531308344E-016
 -7.399999999999999E-003    1.163339888045508E-016
 -7.299999999999999E-003    5.771232863951915E-017
 -7.199999999999999E-003   -1.777382857276528E-017
 -7.100000000000000E-003   -1.035690426073721E-016
 -6.999999999999999E-003   -1.908434460000093E-016
 -6.899999999999999E-003   -2.693633084006499E-016
 -6.800000000000000E-003   -3.286701895853973E-016
 -6.699999999999999E-003   -3.594327871399999E-016
 -6.599999999999999E-003   -3.547911973901195E-016
 -6.499999999999999E-003   -3.114933371819825E-016
 -6.399999999999999E-003   -2.306341375780934E-016
 -6.299999999999999E-003   -1.178494607664652E-016
 -6.199999999999999E-003    1.711068536456311E-017
 -6.100000000000000E-003    1.614130357244136E-016
 -5.999999999999999E-003    3.006601337202952E-016
 -5.899999999999999E-003    4.206916914818668E-016
 -5.800000000000000E-003    5.093983701490488E-016
 -5.699999999999999E-003    5.582558850003408E-016
 -5.599999999999999E-003    5.633130928256110E-016
 -5.499999999999999E-003    5.254462790417798E-016
 -5.399999999999999E-003    4.498115934291614E-016
 -5.299999999999999E-003    3.445726933598770E-016
 -5.199999999999999E-003    2.191288205286515E-016
 -5.099999999999999E-003    8.218745602195953E-017
 -4.999999999999999E-003   -5.990596851888930E-017
 -4.899999999999999E-003   -2.041762089743919E-016
 -4.799999999999999E-003   -3.510486615444259E-016
 -4.699999999999999E-003   -5.032548880527007E-016
 -4.599999999999999E-003   -6.636914580709851E-016
 -4.499999999999999E-003   -8.325578774668325E-016
 -4.399999999999999E-003   -1.004324484886337E-015
 -4.299999999999999E-003   -1.165235680260827E-015
 -4.199999999999999E-003   -1.292093012854575E-015
 -4.099999999999999E-003   -1.352962343040477E-015
 -3.999999999999999E-003   -1.310198346024049E-015
 -3.899999999999999E-003   -1.125802940660367E-015
 -3.799999999999999E-003   -7.686756789832215E-016
 -3.699999999999999E-003   -2.228477647644564E-016
 -3.599999999999999E-003    5.045994880953092E-016
 -3.499999999999999E-003    1.377461117747343E-015
 -3.399999999999999E-003    2.327706494312960E-015
 -3.299999999999999E-003    3.257400159096623E-015
 -3.199999999999999E-003    4.045949780761752E-015
 -3.099999999999999E-003    4.562612730812584E-015
 -2.999999999999999E-003    4.683297298194449E-015
 -2.899999999999999E-003    4.309801471536223E-015
 -2.799999999999999E-003    3.388903605055668E-015
 -2.699999999999999E-003    1.928297925552116E-015
 -2.599999999999999E-003    6.377306068818035E-018
 -2.499999999999999E-003   -2.226631145121809E-015
 -2.399999999999999E-003   -4.557692714683620E-015
 -2.299999999999999E-003   -6.730298103221903E-015
 -2.199999999999999E-003   -8.472656605726083E-015
 -2.099999999999999E-003   -9.531750806757310E-015
 -1.999999999999999E-003   -9.708942497390500E-015
 -1.899999999999999E-003   -8.892069438038723E-015
 -1.799999999999999E-003   -7.078915144895439E-015
 -1.699999999999999E-003   -4.387682342542220E-015
 -1.599999999999999E-003   -1.051636143663272E-015
 -1.499999999999999E-003    2.602752015546866E-015
 -1.399999999999999E-003    6.192364812460901E-015
 -1.299999999999999E-003    9.324449976614419E-015
 -1.199999999999999E-003    1.164783734944134E-014
 -1.099999999999999E-003    1.290093990449169E-014
 -9.999999999999989E-004    1.294903406289377E-014
 -8.999999999999990E-004    1.180446592220801E-014
 -7.999999999999990E-004    9.625718087795069E-015
 -6.999999999999989E-004    6.694416642233026E-015
 -5.999999999999990E-004    3.372942631953796E-015
 -4.999999999999989E-004    4.872498339451514E-017
 -3.999999999999989E-004   -2.926059865011033E-015
 -2.999999999999989E-004   -5.289272178318040E-015
 -1.999999999999989E-004   -6.908266019186580E-015
 -9.999999999999892E-005   -7.796214968201790E-015
  1.084202172485504E-018   -8.101123143362819E-015
  1.000000000000011E-004   -8.067994948616482E-015
  2.000000000000011E-004   -7.979659835581887E-015
  3.000000000000011E-004   -8.086242890184257E-015
  4.000000000000011E-004   -8.536383533492887E-015
  5.000000000000011E-004   -9.324305880921678E-015
  6.000000000000011E-004   -1.026533770451706E-014
  7.000000000000011E-004   -1.100844041012805E-014
  8.000000000000011E-004   -1.108820443522866E-014
  9.000000000000012E-004   -1.001146228957351E-014
  1.000000000000001E-003   -7.366324270686939E-015
  1.100000000000001E-003   -2.935467541775830E-015
  1.200000000000001E-003    3.207916002235182E-015
  1.300000000000001E-003    1.064300921255302E-014
  1.400000000000001E-003    1.860051670185202E-014
  1.500000000000001E-003    2.602768383346723E-014
  1.600000000000001E-003    3.171818198454215E-014
  1.700000000000001E-003    3.449392015727992E-014
  1.800000000000001E-003    3.341459062622106E-014
  1.900000000000001E-003    2.798221986260940E-014
  2.000000000000001E-003    1.830397594065190E-014
  2.100000000000001E-003    5.178448360393709E-015
  2.200000000000001E-003   -9.921248292202274E-015
  2.300000000000001E-003   -2.498032314242644E-014
  2.400000000000001E-003   -3.768598434847309E-014
  2.500000000000001E-003   -4.575744255727757E-014
  2.600000000000001E-003   -4.731996309606686E-014
  2.700000000000001E-003   -4.126770711655190E-014
  2.800000000000001E-003   -2.755464785887479E-014
  2.900000000000001E-003   -7.356777507299585E-015
  3.000000000000001E-003    1.693760853375624E-014
  3.100000000000001E-003    4.193031118618617E-014
  3.200000000000001E-003    6.360094116131624E-014
  3.300000000000001E-003    7.784220765738273E-014
  3.400000000000001E-003    8.107743195757924E-014
  3.500000000000001E-003    7.087492303225902E-014
  3.600000000000001E-003    4.646482095567749E-014
  3.700000000000001E-003    9.069450814947135E-015
  3.800000000000001E-003   -3.802235490739488E-014
  3.900000000000001E-003   -8.967408811579123E-014
  4.000000000000001E-003   -1.394097737667796E-013
  4.100000000000001E-003   -1.801637749455791E-013
  4.200000000000001E-003   -2.051842642200113E-013
  4.300000000000001E-003   -2.089724551948122E-013
  4.400000000000001E-003   -1.881258208392437E-013
  4.500000000000001E-003   -1.419585092147167E-013
  4.600000000000002E-003   -7.279746038512680E-014
  4.700000000000001E-003    1.410574194560144E-014
  4.800000000000001E-003    1.110529400831580E-013
  4.900000000000002E-003    2.087161164051707E-013
  5.000000000000001E-003    2.971891197457324E-013
  5.100000000000001E-003    3.671323270733420E-013
  5.200000000000001E-003    4.108502377117293E-013
  5.300000000000002E-003    4.231497493786685E-013
  5.400000000000001E-003    4.018575311825091E-013
  5.500000000000001E-003    3.479280535829068E-013
  5.600000000000002E-003    2.651388687944260E-013
  5.700000000000001E-003    1.594370339039937E-013
  5.800000000000001E-003    3.805953462243120E-014
  5.900000000000002E-003   -9.141102511583786E-014
  6.000000000000001E-003   -2.218826944449028E-013
  6.100000000000001E-003   -3.473299116087349E-013
  6.200000000000002E-003   -4.630058626943338E-013
  6.300000000000002E-003   -5.652603965393919E-013
  6.400000000000001E-003   -6.510159580376956E-013
  6.500000000000001E-003   -7.170328556730675E-013
  6.600000000000002E-003   -7.591562158633230E-013
  6.700000000000001E-003   -7.717653181121644E-013
  6.800000000000001E-003   -7.476347584874079E-013
  6.900000000000002E-003   -6.783612129296364E-013
  7.000000000000001E-003   -5.554178556231416E-013
  7.100000000000001E-003   -3.717801417349497E-013
  7.200000000000002E-003   -1.239412375104143E-013
  7.300000000000002E-003    1.859755606411768E-013
  7.400000000000001E-003    5.483766382646855E-013
  7.500000000000001E-003    9.450220972685757E-013
  7.600000000000002E-003    1.348865587844023E-012
  7.700000000000001E-003    1.725156332006015E-012
  7.800000000000001E-003    2.033889559128355E-012
  7.900000000000001E-003    2.233495002829704E-012
  8.000000000000002E-003    2.285447534374904E-012
  8.100000000000001E-003    2.159303424840879E-012
  8.200000000000001E-003    1.837533740064469E-012
  8.300000000000002E-003    1.319480357994585E-012
  8.400000000000001E-003    6.238011808591116E-013
  8.500000000000002E-003   -2.110867514796638E-013
  8.600000000000002E-003   -1.128833282585286E-012
  8.700000000000001E-003   -2.059236330751505E-012
  8.800000000000002E-003   -2.924260757637021E-012
  8.900000000000002E-003   -3.645397451966083E-012
  9.000000000000001E-003   -4.151552560143412E-012
  9.100000000000002E-003   -4.386537888099401E-012
  9.200000000000002E-003   -4.315243812494009E-012
  9.300000000000001E-003   -3.927708140481867E-012
  9.400000000000002E-003   -3.240550494994200E-012
  9.500000000000001E-003   -2.295565742871538E-012
  9.600000000000001E-003   -1.155645724028864E-012
  9.700000000000002E-003    1.014490340755983E-013
  9.800000000000001E-003    1.390660374029363E-012
  9.900000000000001E-003    2.627567009569645E-012
  1.000000000000000E-002    3.735670011704280E-012
  1.010000000000000E-002    4.652140693949768E-012
  1.020000000000000E-002    5.331386755884152E-012
  1.030000000000000E-002    5.746152184089626E-012
  1.040000000000000E-002    5.886253388298939E-012
  1.050000000000000E-002    5.755432817978934E-012
  1.060000000000000E-002    5.367105695143836E-012
  1.070000000000000E-002    4.739938729355541E-012
  1.080000000000000E-002    3.894207344139428E-012
  1.090000000000000E-002    2.849703506346078E-012
  1.100000000000000E-002    1.625663336338846E-012
  1.110000000000000E-002    2.427749338229705E-013
  1.120000000000000E-002   -1.273123055592374E-012
  1.130000000000000E-002   -2.886426232862584E-012
  1.140000000000000E-002   -4.547296972684791E-012
  1.150000000000000E-002   -6.188517280849883E-012
  1.160000000000000E-002   -7.724730405006031E-012
  1.170000000000000E-002   -9.054856786638806E-012
  1.180000000000000E-002   -1.006798506939324E-011
  1.190000000000000E-002   -1.065248939410839E-011
  1.200000000000000E-002   -1.070752154024949E-011
  1.210000000000000E-002   -1.015554317471024E-011
  1.220000000000000E-002   -8.954213056174216E-012
  1.230000000000000E-002   -7.105868596120951E-012
  1.240000000000000E-002   -4.663016469660044E-012
  1.250000000000000E-002   -1.728691492241379E-012
  1.260000000000000E-002    1.548801381305210E-012
  1.270000000000000E-002    4.986450915678818E-012
  1.280000000000000E-002    8.381330151773706E-012
  1.290000000000000E-002    1.152784633736253E-011
  1.300000000000000E-002    1.423525807261961E-011
  1.310000000000000E-002    1.634315361715154E-011
  1.320000000000000E-002    1.773280828757071E-011
  1.330000000000000E-002    1.833294830521892E-011
  1.340000000000000E-002    1.811928154561876E-011
  1.350000000000000E-002    1.710817589603334E-011
  1.360000000000000E-002    1.534583904539910E-011
  1.370000000000000E-002    1.289520347828145E-011
  1.380000000000000E-002    9.823216160054844E-012
  1.390000000000000E-002    6.191290531234952E-012
  1.400000000000000E-002    2.051291788069360E-012
  1.410000000000000E-002   -2.551445173433161E-012
  1.420000000000000E-002   -7.567777032781354E-012
  1.430000000000000E-002   -1.292820883580829E-011
  1.440000000000000E-002   -1.852264713987487E-011
  1.450000000000000E-002   -2.418005904588679E-011
  1.460000000000000E-002   -2.965233635073283E-011
  1.470000000000000E-002   -3.460671892126630E-011
  1.480000000000000E-002   -3.863047389591662E-011
  1.490000000000000E-002   -4.125025244127511E-011
  1.500000000000000E-002   -4.196668424052330E-011
  1.510000000000000E-002   -4.030259999359868E-011
  1.520000000000000E-002   -3.586104982549207E-011
  1.530000000000000E-002   -2.838737087545358E-011
  1.540000000000000E-002   -1.782810711187476E-011
  1.550000000000000E-002   -4.379094122877486E-012
  1.560000000000000E-002    1.148468495391952E-011
  1.570000000000000E-002    2.900342622624489E-011
  1.580000000000000E-002    4.715484045591171E-011
  1.590000000000000E-002    6.470539339854817E-011
  1.600000000000000E-002    8.028827248228404E-011
  1.610000000000000E-002    9.250271675753550E-011
  1.620000000000000E-002    1.000268863399926E-010
  1.630000000000000E-002    1.017344635199655E-010
  1.640000000000000E-002    9.680446094818813E-011
  1.650000000000000E-002    8.481408611002532E-011
  1.660000000000000E-002    6.580595337219228E-011
  1.670000000000000E-002    4.032303900163451E-011
  1.680000000000000E-002    9.408075644370455E-012
  1.690000000000000E-002   -2.543309735593260E-011
  1.700000000000000E-002   -6.230158339704130E-011
  1.710000000000000E-002   -9.900373103993673E-011
  1.720000000000000E-002   -1.331708901497793E-010
  1.730000000000000E-002   -1.623929363393557E-010
  1.740000000000000E-002   -1.843577913081246E-010
  1.750000000000000E-002   -1.969900015832673E-010
  1.760000000000000E-002   -1.985822222567931E-010
  1.770000000000000E-002   -1.879149400953748E-010
  1.780000000000000E-002   -1.643605368140278E-010
  1.790000000000000E-002   -1.279681363186045E-010
  1.800000000000000E-002   -7.952607513105599E-011
  1.810000000000000E-002   -2.059778840795027E-011
  1.820000000000000E-002    4.647358317139250E-011
  1.830000000000000E-002    1.185975613812604E-010
  1.840000000000000E-002    1.920115490840546E-010
  1.850000000000000E-002    2.624043106630073E-010
  1.860000000000000E-002    3.250913102957461E-010
  1.870000000000000E-002    3.752421776943148E-010