 -4.000000000000000E-002    0.000000000000000E+000
 -3.990000000000000E-002    0.000000000000000E+000
 -3.980000000000000E-002    0.000000000000000E+000
 -3.970000000000000E-002    0.000000000000000E+000
 -3.960000000000000E-002    0.000000000000000E+000
 -3.950000000000000E-002    0.000000000000000E+000
 -3.940000000000000E-002    0.000000000000000E+000
 -3.930000000000000E-002    0.000000000000000E+000
 -3.920000000000000E-002    0.000000000000000E+000
 -3.910000000000000E-002    0.000000000000000E+000
 -3.900000000000000E-002    0.000000000000000E+000
 -3.890000000000000E-002    0.000000000000000E+000
 -3.880000000000000E-002    0.000000000000000E+000
 -3.870000000000000E-002    0.000000000000000E+000
 -3.860000000000000E-002    0.000000000000000E+000
 -3.850000000000000E-002    0.000000000000000E+000
 -3.840000000000000E-002    0.000000000000000E+000
 -3.830000000000000E-002    0.000000000000000E+000
 -3.820000000000000E-002    0.000000000000000E+000
 -3.810000000000000E-002    0.000000000000000E+000
 -3.800000000000000E-002    0.000000000000000E+000
 -3.790000000000000E-002    0.000000000000000E+000
 -3.780000000000000E-002    0.000000000000000E+000
 -3.770000000000000E-002    0.000000000000000E+000
 -3.760000000000000E-002    0.000000000000000E+000
 -3.750000000000000E-002    0.000000000000000E+000
 -3.740000000000000E-002    0.000000000000000E+000
 -3.730000000000000E-002    0.000000000000000E+000
 -3.720000000000000E-002    0.000000000000000E+000
 -3.710000000000000E-002    0.000000000000000E+000
 -3.700000000000000E-002    0.000000000000000E+000
 -3.690000000000000E-002    0.000000000000000E+000
 -3.680000000000000E-002    0.000000000000000E+000
 -3.670000000000000E-002    0.000000000000000E+000
 -3.660000000000000E-002    0.000000000000000E+000
 -3.650000000000000E-002    0.000000000000000E+000
 -3.640000000000000E-002    0.000000000000000E+000
 -3.630000000000000E-002    0.000000000000000E+000
 -3.620000000000000E-002    0.000000000000000E+000
 -3.610000000000000E-002    0.000000000000000E+000
 -3.600000000000000E-002    0.000000000000000E+000
 -3.590000000000000E-002    0.000000000000000E+000
 -3.580000000000000E-002    0.000000000000000E+000
 -3.570000000000000E-002    0.000000000000000E+000
 -3.560000000000000E-002    0.000000000000000E+000
 -3.550000000000000E-002    0.000000000000000E+000
 -3.540000000000000E-002    0.000000000000000E+000
 -3.530000000000000E-002    0.000000000000000E+000
 -3.520000000000000E-002    0.000000000000000E+000
 -3.510000000000000E-002    0.000000000000000E+000
 -3.500000000000000E-002    0.000000000000000E+000
 -3.490000000000000E-002    0.000000000000000E+000
 -3.480000000000000E-002    0.000000000000000E+000
 -3.470000000000000E-002    0.000000000000000E+000
 -3.460000000000000E-002    0.000000000000000E+000
 -3.450000000000000E-002    0.000000000000000E+000
 -3.440000000000000E-002    0.000000000000000E+000
 -3.430000000000000E-002    0.000000000000000E+000
 -3.420000000000000E-002    0.000000000000000E+000
 -3.410000000000000E-002    0.000000000000000E+000
 -3.400000000000000E-002    0.000000000000000E+000
 -3.390000000000000E-002    0.000000000000000E+000
 -3.380000000000000E-002    0.000000000000000E+000
 -3.370000000000000E-002    0.000000000000000E+000
 -3.360000000000000E-002    0.000000000000000E+000
 -3.350000000000000E-002    0.000000000000000E+000
 -3.340000000000000E-002    0.000000000000000E+000
 -3.330000000000000E-002    0.000000000000000E+000
 -3.320000000000000E-002    0.000000000000000E+000
 -3.310000000000000E-002    0.000000000000000E+000
 -3.300000000000000E-002    0.000000000000000E+000
 -3.290000000000000E-002    0.000000000000000E+000
 -3.280000000000000E-002    0.000000000000000E+000
 -3.270000000000000E-002    0.000000000000000E+000
 -3.260000000000000E-002    0.000000000000000E+000
 -3.250000000000000E-002    0.000000000000000E+000
 -3.240000000000000E-002    0.000000000000000E+000
 -3.230000000000000E-002    0.000000000000000E+000
 -3.220000000000000E-002    0.000000000000000E+000
 -3.210000000000000E-002    0.000000000000000E+000
 -3.200000000000000E-002    0.000000000000000E+000
 -3.190000000000000E-002    0.000000000000000E+000
 -3.180000000000000E-002    0.000000000000000E+000
 -3.170000000000000E-002    0.000000000000000E+000
 -3.160000000000000E-002    0.000000000000000E+000
 -3.150000000000000E-002    0.000000000000000E+000
 -3.140000000000000E-002    0.000000000000000E+000
 -3.130000000000000E-002    0.000000000000000E+000
 -3.120000000000000E-002    0.000000000000000E+000
 -3.110000000000000E-002    0.000000000000000E+000
 -3.100000000000000E-002    0.000000000000000E+000
 -3.090000000000000E-002    0.000000000000000E+000
 -3.080000000000000E-002    0.000000000000000E+000
 -3.070000000000000E-002    0.000000000000000E+000
 -3.060000000000000E-002    0.000000000000000E+000
 -3.050000000000000E-002    0.000000000000000E+000
 -3.040000000000000E-002    0.000000000000000E+000
 -3.030000000000000E-002    0.000000000000000E+000
 -3.020000000000000E-002    0.000000000000000E+000
 -3.010000000000000E-002    0.000000000000000E+000
 -3.000000000000000E-002    0.000000000000000E+000
 -2.990000000000000E-002    0.000000000000000E+000
 -2.980000000000000E-002    0.000000000000000E+000
 -2.970000000000000E-002    0.000000000000000E+000
 -2.960000000000000E-002    0.000000000000000E+000
 -2.950000000000000E-002    0.000000000000000E+000
 -2.940000000000000E-002    0.000000000000000E+000
 -2.930000000000000E-002    0.000000000000000E+000
 -2.920000000000000E-002    0.000000000000000E+000
 -2.910000000000000E-002    0.000000000000000E+000
 -2.900000000000000E-002    0.000000000000000E+000
 -2.890000000000000E-002    0.000000000000000E+000
 -2.880000000000000E-002    0.000000000000000E+000
 -2.870000000000000E-002    0.000000000000000E+000
 -2.860000000000000E-002    0.000000000000000E+000
 -2.850000000000000E-002    0.000000000000000E+000
 -2.840000000000000E-002    0.000000000000000E+000
 -2.830000000000000E-002    0.000000000000000E+000
 -2.820000000000000E-002    0.000000000000000E+000
 -2.810000000000000E-002    0.000000000000000E+000
 -2.800000000000000E-002    0.000000000000000E+000
 -2.790000000000000E-002    0.000000000000000E+000
 -2.780000000000000E-002    0.000000000000000E+000
 -2.770000000000000E-002    0.000000000000000E+000
 -2.760000000000000E-002    0.000000000000000E+000
 -2.750000000000000E-002    0.000000000000000E+000
 -2.740000000000000E-002    0.000000000000000E+000
 -2.730000000000000E-002    0.000000000000000E+000
 -2.720000000000000E-002    0.000000000000000E+000
 -2.710000000000000E-002    0.000000000000000E+000
 -2.700000000000000E-002    0.000000000000000E+000
 -2.690000000000000E-002    0.000000000000000E+000
 -2.680000000000000E-002    0.000000000000000E+000
 -2.670000000000000E-002    0.000000000000000E+000
 -2.660000000000000E-002    0.000000000000000E+000
 -2.650000000000000E-002    0.000000000000000E+000
 -2.640000000000000E-002    0.000000000000000E+000
 -2.630000000000000E-002    0.000000000000000E+000
 -2.620000000000000E-002    0.000000000000000E+000
 -2.610000000000000E-002    0.000000000000000E+000
 -2.600000000000000E-002    0.000000000000000E+000
 -2.590000000000000E-002    0.000000000000000E+000
 -2.580000000000000E-002    0.000000000000000E+000
 -2.570000000000000E-002    0.000000000000000E+000
 -2.560000000000000E-002    0.000000000000000E+000
 -2.550000000000000E-002    0.000000000000000E+000
 -2.540000000000000E-002    0.000000000000000E+000
 -2.530000000000000E-002    0.000000000000000E+000
 -2.520000000000000E-002    0.000000000000000E+000
 -2.510000000000000E-002    0.000000000000000E+000
 -2.500000000000000E-002    0.000000000000000E+000
 -2.490000000000000E-002    0.000000000000000E+000
 -2.480000000000000E-002    0.000000000000000E+000
 -2.470000000000000E-002    0.000000000000000E+000
 -2.460000000000000E-002    0.000000000000000E+000
 -2.450000000000000E-002    0.000000000000000E+000
 -2.440000000000000E-002    0.000000000000000E+000
 -2.430000000000000E-002    0.000000000000000E+000
 -2.420000000000000E-002    0.000000000000000E+000
 -2.410000000000000E-002    0.000000000000000E+000
 -2.400000000000000E-002    0.000000000000000E+000
 -2.390000000000000E-002    0.000000000000000E+000
 -2.380000000000000E-002    0.000000000000000E+000
 -2.370000000000000E-002    0.000000000000000E+000
 -2.360000000000000E-002    0.000000000000000E+000
 -2.350000000000000E-002    0.000000000000000E+000
 -2.340000000000000E-002    0.000000000000000E+000
 -2.330000000000000E-002    0.000000000000000E+000
 -2.320000000000000E-002    0.000000000000000E+000
 -2.310000000000000E-002    0.000000000000000E+000
 -2.300000000000000E-002    0.000000000000000E+000
 -2.290000000000000E-002    0.000000000000000E+000
 -2.280000000000000E-002    0.000000000000000E+000
 -2.270000000000000E-002    0.000000000000000E+000
 -2.260000000000000E-002    0.000000000000000E+000
 -2.250000000000000E-002    0.000000000000000E+000
 -2.240000000000000E-002    0.000000000000000E+000
 -2.230000000000000E-002    0.000000000000000E+000
 -2.220000000000000E-002    0.000000000000000E+000
 -2.210000000000000E-002    0.000000000000000E+000
 -2.200000000000000E-002    0.000000000000000E+000
 -2.190000000000000E-002    0.000000000000000E+000
 -2.180000000000000E-002    0.000000000000000E+000
 -2.170000000000000E-002    0.000000000000000E+000
 -2.160000000000000E-002    0.000000000000000E+000
 -2.150000000000000E-002    0.000000000000000E+000
 -2.140000000000000E-002    0.000000000000000E+000
 -2.130000000000000E-002    0.000000000000000E+000
 -2.120000000000000E-002    0.000000000000000E+000
 -2.110000000000000E-002    0.000000000000000E+000
 -2.100000000000000E-002    0.000000000000000E+000
 -2.090000000000000E-002    0.000000000000000E+000
 -2.080000000000000E-002    0.000000000000000E+000
 -2.070000000000000E-002    0.000000000000000E+000
 -2.060000000000000E-002    0.000000000000000E+000
 -2.050000000000000E-002    0.000000000000000E+000
 -2.040000000000000E-002    0.000000000000000E+000
 -2.030000000000000E-002    0.000000000000000E+000
 -2.020000000000000E-002    0.000000000000000E+000
 -2.010000000000000E-002    0.000000000000000E+000
 -2.000000000000000E-002    0.000000000000000E+000
 -1.990000000000000E-002    0.000000000000000E+000
 -1.980000000000000E-002    0.000000000000000E+000
 -1.970000000000000E-002    0.000000000000000E+000
 -1.960000000000000E-002    0.000000000000000E+000
 -1.950000000000000E-002    0.000000000000000E+000
 -1.940000000000000E-002    0.000000000000000E+000
 -1.930000000000000E-002    0.000000000000000E+000
 -1.920000000000000E-002    0.000000000000000E+000
 -1.910000000000000E-002    0.000000000000000E+000
 -1.900000000000000E-002    0.000000000000000E+000
 -1.890000000000000E-002    0.000000000000000E+000
 -1.880000000000000E-002    0.000000000000000E+000
 -1.870000000000000E-002    0.000000000000000E+000
 -1.860000000000000E-002    0.000000000000000E+000
 -1.850000000000000E-002    0.000000000000000E+000
 -1.840000000000000E-002    0.000000000000000E+000
 -1.830000000000000E-002    0.000000000000000E+000
 -1.820000000000000E-002    0.000000000000000E+000
 -1.810000000000000E-002    0.000000000000000E+000
 -1.800000000000000E-002    0.000000000000000E+000
 -1.790000000000000E-002    0.000000000000000E+000
 -1.780000000000000E-002    0.000000000000000E+000
 -1.770000000000000E-002    0.000000000000000E+000
 -1.760000000000000E-002    0.000000000000000E+000
 -1.750000000000000E-002    0.000000000000000E+000
 -1.740000000000000E-002    0.000000000000000E+000
 -1.730000000000000E-002    0.000000000000000E+000
 -1.720000000000000E-002    0.000000000000000E+000
 -1.710000000000000E-002    0.000000000000000E+000
 -1.700000000000000E-002    2.138211768073757E-048
 -1.690000000000000E-002    4.276423536147513E-048
 -1.680000000000000E-002    6.414635304221270E-048
 -1.670000000000000E-002    8.552847072295026E-048
 -1.660000000000000E-002    1.069105884036878E-047
 -1.650000000000000E-002    1.069105884036878E-047
 -1.640000000000000E-002    2.071474216627302E-048
 -1.630000000000000E-002   -2.204949319520211E-048
 -1.620000000000000E-002   -2.204949319520211E-048
 -1.610000000000000E-002   -6.414635304221270E-048
 -1.600000000000000E-002    8.686322175187936E-048
 -1.590000000000000E-002    2.164906788652338E-047
 -1.580000000000000E-002   -7.430612159279704E-048
 -1.570000000000000E-002   -9.345346278729117E-047
 -1.560000000000000E-002   -2.164286344382217E-046
 -1.550000000000000E-002   -3.480233907128938E-046
 -1.540000000000000E-002   -5.161679596991591E-046
 -1.530000000000000E-002   -7.447830961545076E-046
 -1.520000000000000E-002   -9.593527724920159E-046
 -1.510000000000000E-002   -1.023819987805529E-045
 -1.500000000000000E-002   -9.911040477878895E-046
 -1.490000000000000E-002   -8.353461985678730E-046
 -1.480000000000000E-002   -4.197532380759840E-046
 -1.470000000000000E-002    4.683860739489298E-046
 -1.460000000000000E-002    1.694270451711404E-045
 -1.450000000000000E-002    3.320911182759922E-045
 -1.440000000000000E-002    5.157763520569776E-045
 -1.430000000000000E-002    7.365487514997218E-045
 -1.420000000000000E-002    9.815415173786217E-045
 -1.410000000000000E-002    1.224681449235373E-044
 -1.400000000000000E-002    1.371109206067263E-044
 -1.390000000000000E-002    1.402195493864164E-044
 -1.380000000000000E-002    1.330133886248683E-044
 -1.370000000000000E-002    1.006069455140355E-044
 -1.360000000000000E-002    3.929812285974461E-045
 -1.350000000000000E-002   -5.321214144962468E-045
 -1.340000000000000E-002   -1.985763357725890E-044
 -1.330000000000000E-002   -3.787969825505530E-044
 -1.320000000000000E-002   -6.070540912009408E-044
 -1.310000000000000E-002   -8.639512713538542E-044
 -1.300000000000000E-002   -1.134009389640198E-043
 -1.290000000000000E-002   -1.384230443910009E-043
 -1.280000000000000E-002   -1.574739765498496E-043
 -1.270000000000000E-002   -1.634041377641857E-043
 -1.260000000000000E-002   -1.488010009599788E-043
 -1.250000000000000E-002   -1.056408972274784E-043
 -1.240000000000000E-002   -2.492728368088732E-044
 -1.230000000000000E-002    1.007903865236822E-043
 -1.220000000000000E-002    2.758670810002362E-043
 -1.210000000000000E-002    5.001627278131614E-043
 -1.200000000000000E-002    7.650374400244570E-043
 -1.190000000000000E-002    1.054035320902534E-042
 -1.180000000000000E-002    1.337057243346551E-042
 -1.170000000000000E-002    1.570690590302209E-042
 -1.160000000000000E-002    1.698727204938881E-042
 -1.150000000000000E-002    1.651440588573723E-042
 -1.140000000000000E-002    1.348435035122304E-042
 -1.130000000000000E-002    7.109796808599752E-043
 -1.120000000000000E-002   -3.334422432485577E-043
 -1.110000000000000E-002   -1.835762496573320E-042
 -1.100000000000000E-002   -3.805123561060607E-042
 -1.090000000000000E-002   -6.193637130927160E-042
 -1.080000000000000E-002   -8.869738238790126E-042
 -1.070000000000000E-002   -1.160250893373078E-041
 -1.060000000000000E-002   -1.404412964865823E-041
 -1.050000000000000E-002   -1.572486473242597E-041
 -1.040000000000000E-002   -1.605998042803243E-041
 -1.030000000000000E-002   -1.437535323232388E-041
 -1.020000000000000E-002   -9.957807949150193E-042
 -1.010000000000000E-002   -2.135796947338040E-042
 -1.000000000000000E-002    9.613496485283490E-042
 -9.899999999999999E-003    2.552483949009960E-041
 -9.800000000000000E-003    4.537648004045309E-041
 -9.699999999999999E-003    6.831854727879577E-041
 -9.599999999999999E-003    9.269291197705695E-041
 -9.500000000000000E-003    1.158899679572188E-040
 -9.399999999999999E-003    1.342644084486729E-040
 -9.299999999999999E-003    1.431502408068682E-040
 -9.200000000000000E-003    1.370231593628847E-040
 -9.099999999999999E-003    1.098512049986489E-040
 -8.999999999999999E-003    5.567241594754943E-041
 -8.900000000000000E-003   -3.056970569920155E-041
 -8.799999999999999E-003   -1.519379765457965E-040
 -8.699999999999999E-003   -3.081827243174919E-040
 -8.600000000000000E-003   -4.942765725244210E-040
 -8.499999999999999E-003   -6.989252209792620E-040
 -8.399999999999999E-003   -9.032523984981872E-040
 -8.300000000000000E-003   -1.079918528931821E-039
 -8.199999999999999E-003   -1.192981170020636E-039
 -8.100000000000000E-003   -1.198863469337513E-039
 -8.000000000000000E-003   -1.048782149083434E-039
 -7.899999999999999E-003   -6.929831402126204E-040
 -7.800000000000000E-003   -8.699152201389415E-041
 -7.699999999999999E-003    8.000474507468676E-040
 -7.599999999999999E-003    1.975169131307620E-039
 -7.499999999999999E-003    3.410069701056895E-039
 -7.399999999999999E-003    5.029270207975179E-039
 -7.299999999999999E-003    6.699430316841152E-039
 -7.199999999999999E-003    8.221773140287697E-039
 -7.100000000000000E-003    9.330032396726308E-039
 -6.999999999999999E-003    9.696607239926109E-039
 -6.899999999999999E-003    8.949680658901839E-039
 -6.800000000000000E-003    6.703742676286649E-039
 -6.699999999999999E-003    2.605191783738433E-039
 -6.599999999999999E-003   -3.606667638652979E-039
 -6.499999999999999E-003   -1.202484949965850E-038
 -6.399999999999999E-003   -2.249036988311357E-038
 -6.299999999999999E-003   -3.450567718971996E-038
 -6.199999999999999E-003   -4.715656485881664E-038
 -6.100000000000000E-003   -5.905668894561346E-038
 -5.999999999999999E-003   -6.833167902942617E-038
 -5.899999999999999E-003   -7.266158646915388E-038
 -5.800000000000000E-003   -6.940043447800551E-038
 -5.699999999999999E-003   -5.578902428972775E-038
 -5.599999999999999E-003   -2.927113787170486E-038
 -5.499999999999999E-003    1.208614063985510E-038
 -5.399999999999999E-003    6.908125880965991E-038
 -5.299999999999999E-003    1.408067026760559E-037
 -5.199999999999999E-003    2.240684949206281E-037
 -5.099999999999999E-003    3.128697819104732E-037
 -4.999999999999999E-003    3.980526294796683E-037
 -4.899999999999999E-003    4.672089968136982E-037
 -4.799999999999999E-003    5.049801980662640E-037
 -4.699999999999999E-003    4.938613815988145E-037
 -4.599999999999999E-003    4.156052544451528E-037
 -4.499999999999999E-003    2.532792470403197E-037
 -4.399999999999999E-003   -6.034298194042061E-039
 -4.299999999999999E-003   -3.679951715478144E-037
 -4.199999999999999E-003   -8.274275919059272E-037
 -4.099999999999999E-003   -1.364741754885698E-036
 -3.999999999999999E-003   -1.942815770199426E-036
 -3.899999999999999E-003   -2.504918489941639E-036
 -3.799999999999999E-003   -2.974335911032137E-036
 -3.699999999999999E-003   -3.256404494839395E-036
 -3.599999999999999E-003   -3.243597447873003E-036
 -3.499999999999999E-003   -2.824178216833586E-036
 -3.399999999999999E-003   -1.894651764344016E-036
 -3.299999999999999E-003   -3.758604241128611E-037
 -3.199999999999999E-003    1.767955555509782E-036
 -3.099999999999999E-003    4.508448189054190E-036
 -2.999999999999999E-003    7.732792786634094E-036
 -2.899999999999999E-003    1.122635879657177E-035
 -2.799999999999999E-003    1.466169823747314E-035
 -2.699999999999999E-003    1.759752933598372E-035
 -2.599999999999999E-003    1.949147114514263E-035
 -2.499999999999999E-003    1.972990414259961E-035
 -2.399999999999999E-003    1.767739199555446E-035
 -2.299999999999999E-003    1.274655822663784E-035
 -2.199999999999999E-003    4.487051492288270E-036
 -2.099999999999999E-003   -7.310602388600651E-036
 -1.999999999999999E-003   -2.250373844706930E-035
 -1.899999999999999E-003   -4.048996267203639E-035
 -1.799999999999999E-003   -6.011762795213269E-035
 -1.699999999999999E-003   -7.963158360110459E-035
 -1.599999999999999E-003   -9.667300264267021E-035
 -1.499999999999999E-003   -1.083519323332968E-034
 -1.399999999999999E-003   -1.114087291417464E-034
 -1.299999999999999E-003   -1.024753072113858E-034
 -1.199999999999999E-003   -7.843850242578072E-035
 -1.099999999999999E-003   -3.689673556562582E-035
 -9.999999999999989E-004    2.331347113552446E-035
 -8.999999999999990E-004    1.015606055954604E-034
 -7.999999999999990E-004    1.948868342236813E-034
 -6.999999999999989E-004    2.975741730990475E-034
 -5.999999999999990E-004    4.008916394076291E-034
 -4.999999999999989E-004    4.931127473484592E-034
 -3.999999999999989E-004    5.598902293425323E-034
 -2.999999999999989E-004    5.850599290044455E-034
 -1.999999999999989E-004    5.519194496755343E-034
 -9.999999999999892E-005    4.449852195222798E-034
  1.084202172485504E-018    2.521764583657659E-034
  1.000000000000011E-004   -3.269053350467346E-035
  2.000000000000011E-004   -4.072896449913907E-034
  3.000000000000011E-004   -8.583182939457282E-034
  4.000000000000011E-004   -1.359508464054442E-033
  5.000000000000011E-004   -1.870495215169541E-033
  6.000000000000011E-004   -2.336942257648757E-033
  7.000000000000011E-004   -2.692301609032402E-033
  8.000000000000011E-004   -2.861515170945064E-033
  9.000000000000012E-004   -2.766836160377654E-033
  1.000000000000001E-003   -2.335754881859111E-033
  1.100000000000001E-003   -1.510782909825254E-033
  1.200000000000001E-003   -2.605419600922608E-034
  1.300000000000001E-003    1.408696994753000E-033
  1.400000000000001E-003    3.442189041806615E-033
  1.500000000000001E-003    5.728051458332491E-033
  1.600000000000001E-003    8.092374900093776E-033
  1.700000000000001E-003    1.029979091338510E-032
  1.800000000000001E-003    1.206106731779270E-032
  1.900000000000001E-003    1.304894903230796E-032
  2.000000000000001E-003    1.292292674788547E-032
  2.100000000000001E-003    1.136278803358804E-032
  2.200000000000001E-003    8.109804503686534E-033
  2.300000000000001E-003    3.013195782695350E-033
  2.400000000000001E-003   -3.921722081075966E-033
  2.500000000000001E-003   -1.248857528520014E-032
  2.600000000000001E-003   -2.224399631869650E-032
  2.700000000000001E-003   -3.248729824307997E-032
  2.800000000000001E-003   -4.226242233357072E-032
  2.900000000000001E-003   -5.038831663803458E-032
  3.000000000000001E-003   -5.552244146986992E-032
  3.100000000000001E-003   -5.625983129322146E-032
  3.200000000000001E-003   -5.126685969090194E-032
  3.300000000000001E-003   -3.944484110321980E-032
  3.400000000000001E-003   -2.011400188278153E-032
  3.500000000000001E-003    6.796534038523475E-033
  3.600000000000001E-003    4.057172370741416E-032
  3.700000000000001E-003    7.956917656399142E-032
  3.800000000000001E-003    1.211385614012552E-031
  3.900000000000001E-003    1.616269859281509E-031
  4.000000000000001E-003    1.964931375581810E-031
  4.100000000000001E-003    2.205475694043054E-031
  4.200000000000001E-003    2.283269332921948E-031
  4.300000000000001E-003    2.145983280447844E-031
  4.400000000000001E-003    1.749741836760394E-031
  4.500000000000001E-003    1.066013599086031E-031
  4.600000000000002E-003    8.870555743610096E-033
  4.700000000000001E-003   -1.159243819158086E-031
  4.800000000000001E-003   -2.620610074257422E-031
  4.900000000000002E-003   -4.200872168530949E-031
  5.000000000000001E-003   -5.768352797890224E-031
  5.100000000000001E-003   -7.158317424892532E-031
  5.200000000000001E-003   -8.181607519781425E-031
  5.300000000000002E-003   -8.638076299288163E-031
  5.400000000000001E-003   -8.334618347623167E-031
  5.500000000000001E-003   -7.107071868735089E-031
  5.600000000000002E-003   -4.844650976412554E-031
  5.700000000000001E-003   -1.514979293351663E-031
  5.800000000000001E-003    2.812764376466609E-031
  5.900000000000002E-003    7.949505658275624E-031
  6.000000000000001E-003    1.357585988701631E-030
  6.100000000000001E-003    1.924271587080362E-030
  6.200000000000002E-003    2.438546728591519E-030
  6.300000000000002E-003    2.835376179253226E-030
  6.400000000000001E-003    3.045744912584725E-030
  6.500000000000001E-003    3.002791072683009E-030
  6.600000000000002E-003    2.649198098247714E-030
  6.700000000000001E-003    1.945392953135897E-030
  6.800000000000001E-003    8.778742860105825E-031
  6.900000000000002E-003   -5.331596168591728E-031
  7.000000000000001E-003   -2.227849245613248E-030
  7.100000000000001E-003   -4.103394308787126E-030
  7.200000000000002E-003   -6.014430670611040E-030
  7.300000000000002E-003   -7.777889715778969E-030
  7.400000000000001E-003   -9.182873653024289E-030
  7.500000000000001E-003   -1.000570007128922E-029
  7.600000000000002E-003   -1.002974087747318E-029
  7.700000000000001E-003   -9.069109783897841E-030
  7.800000000000001E-003   -6.994622794173309E-030
  7.900000000000001E-003   -3.759844380204314E-030
  8.000000000000002E-003    5.754351527124486E-031
  8.100000000000001E-003    5.827339959981191E-030
  8.200000000000001E-003    1.167874745629819E-029
  8.300000000000002E-003    1.768175493919110E-029
  8.400000000000001E-003    2.327409302321542E-029
  8.500000000000002E-003    2.781090287705960E-029
  8.600000000000002E-003    3.061194646791978E-029
  8.700000000000001E-003    3.102281807991023E-029
  8.800000000000002E-003    2.848682352685961E-029
  8.900000000000002E-003    2.262246689185082E-029
  9.000000000000001E-003    1.329972580358192E-029
  9.100000000000002E-003    7.069639301400978E-031
  9.200000000000002E-003   -1.460043742966543E-029
  9.300000000000001E-003   -3.167866458989901E-029
  9.400000000000002E-003   -4.920927861595105E-029
  9.500000000000001E-003   -6.555422895133161E-029
  9.600000000000001E-003   -7.885511817591881E-029
  9.700000000000002E-003   -8.717565518057368E-029
  9.800000000000001E-003   -8.868155423296836E-029
  9.900000000000001E-003   -8.184712526911408E-029
  1.000000000000000E-002   -6.567255026811632E-029
  1.010000000000000E-002   -3.989163312062613E-029
  1.020000000000000E-002   -5.146510396040893E-030
  1.030000000000000E-002    3.689548441227318E-029
  1.040000000000000E-002    8.350666556751553E-029
  1.050000000000000E-002    1.309655348398482E-028
  1.060000000000000E-002    1.747387315576935E-028
  1.070000000000000E-002    2.097823583872091E-028
  1.080000000000000E-002    2.309551163842265E-028
  1.090000000000000E-002    2.335225418285543E-028
  1.100000000000000E-002    2.137177514145974E-028
  1.110000000000000E-002    1.693111674384461E-028
  1.120000000000000E-002    1.001320033484043E-028
  1.130000000000000E-002    8.477319840646519E-030
  1.140000000000000E-002   -1.006555815047772E-028
  1.150000000000000E-002   -2.195719217426551E-028
  1.160000000000000E-002   -3.381623037858720E-028
  1.170000000000000E-002   -4.444896072117903E-028
  1.180000000000000E-002   -5.256762272597791E-028
  1.190000000000000E-002   -5.690558328779485E-028
  1.200000000000000E-002   -5.635184120232416E-028
  1.210000000000000E-002   -5.009436955071244E-028
  1.220000000000000E-002   -3.775884555663257E-028
  1.230000000000000E-002   -1.952727116271174E-028
  1.240000000000000E-002    3.779820938932582E-029
  1.250000000000000E-002    3.067304890211565E-028
  1.260000000000000E-002    5.902858153055061E-028
  1.270000000000000E-002    8.619566813720298E-028
  1.280000000000000E-002    1.091793581157521E-027
  1.290000000000000E-002    1.248928230327084E-027
  1.300000000000000E-002    1.304653165594801E-027
  1.310000000000000E-002    1.235829796373814E-027
  1.320000000000000E-002    1.028323728012494E-027
  1.330000000000000E-002    6.801020164217417E-028
  1.340000000000000E-002    2.036011140748057E-028
  1.350000000000000E-002   -3.730222346143908E-028
  1.360000000000000E-002   -1.006095050509242E-027
  1.370000000000000E-002   -1.638330467577470E-027
  1.380000000000000E-002   -2.202531263841801E-027
  1.390000000000000E-002   -2.627024408439458E-027
  1.400000000000000E-002   -2.842552644217229E-027
  1.410000000000000E-002   -2.790146595994414E-027
  1.420000000000000E-002   -2.429299993706385E-027
  1.430000000000000E-002   -1.745623509563876E-027
  1.440000000000000E-002   -7.570512755972459E-028
  1.450000000000000E-002    4.823321779018136E-028
  1.460000000000000E-002    1.881690959663190E-027
  1.470000000000000E-002    3.316710580310176E-027
  1.480000000000000E-002    4.637087570610574E-027
  1.490000000000000E-002    5.678188945584268E-027
  1.500000000000000E-002    6.276364199225841E-027
  1.510000000000000E-002    6.286912099759445E-027
  1.520000000000000E-002    5.603226768901184E-027
  1.530000000000000E-002    4.175259902820282E-027
  1.540000000000000E-002    2.025174974729519E-027
  1.550000000000000E-002   -7.420120259217572E-028
  1.560000000000000E-002   -3.934858726423979E-027
  1.570000000000000E-002   -7.280647755391279E-027
  1.580000000000000E-002   -1.044026758661592E-026
  1.590000000000000E-002   -1.303295634581862E-026
  1.600000000000000E-002   -1.467000299797195E-026
  1.610000000000000E-002   -1.499536483416930E-026
  1.620000000000000E-002   -1.373005439043900E-026
  1.630000000000000E-002   -1.071618296428937E-026
  1.640000000000000E-002   -5.955861277712185E-027
  1.650000000000000E-002    3.601243291767469E-028
  1.660000000000000E-002    7.838761833252794E-027
  1.670000000000000E-002    1.589048776413388E-026
  1.680000000000000E-002    2.375686629298846E-026
  1.690000000000000E-002    3.056119836447559E-026
  1.700000000000000E-002    3.538060103743831E-026
  1.710000000000000E-002    3.733572704958152E-026
  1.720000000000000E-002    3.569153427139771E-026
  1.730000000000000E-002    2.996044519880759E-026
  1.740000000000000E-002    1.999730338658877E-026
  1.750000000000000E-002    6.074733004628220E-027
  1.760000000000000E-002   -1.107238956783707E-026
  1.770000000000000E-002   -3.024325882649786E-026
  1.780000000000000E-002   -4.981557636627110E-026
  1.790000000000000E-002   -6.784145560363891E-026
  1.800000000000000E-002   -8.219344428275793E-026
  1.810000000000000E-002   -9.075366152824995E-026
  1.820000000000000E-002   -9.163356563229285E-026
  1.830000000000000E-002   -8.340645371556956E-026
  1.840000000000000E-002   -6.533069912347809E-026
  1.850000000000000E-002   -3.753913401185973E-026
  1.860000000000000E-002   -1.169496285733692E-027
  1.870000000000000E-002    4.158688802165494E-026