 -4.000000000000000E-002    0.000000000000000E+000
 -3.990000000000000E-002    0.000000000000000E+000
 -3.980000000000000E-002    0.000000000000000E+000
 -3.970000000000000E-002    0.000000000000000E+000
 -3.960000000000000E-002    0.000000000000000E+000
 -3.950000000000000E-002    0.000000000000000E+000
 -3.940000000000000E-002    0.000000000000000E+000
 -3.930000000000000E-002    0.000000000000000E+000
 -3.920000000000000E-002    0.000000000000000E+000
 -3.910000000000000E-002    0.000000000000000E+000
 -3.900000000000000E-002    0.000000000000000E+000
 -3.890000000000000E-002    0.000000000000000E+000
 -3.880000000000000E-002    0.000000000000000E+000
 -3.870000000000000E-002    0.000000000000000E+000
 -3.860000000000000E-002    0.000000000000000E+000
 -3.850000000000000E-002    0.000000000000000E+000
 -3.840000000000000E-002    0.000000000000000E+000
 -3.830000000000000E-002    0.000000000000000E+000
 -3.820000000000000E-002    1.289600815988899E-047
 -3.810000000000000E-002    7.901988082234651E-047
 -3.800000000000000E-002    6.886350543008553E-046
 -3.790000000000000E-002    4.282004663517645E-045
 -3.780000000000000E-002    2.347579135631218E-044
 -3.770000000000000E-002    1.133569642014703E-043
 -3.760000000000000E-002    4.792090476808597E-043
 -3.750000000000000E-002    1.834591248033845E-042
 -3.740000000000000E-002    6.394229185087933E-042
 -3.730000000000000E-002    2.046402852998583E-041
 -3.720000000000000E-002    6.047956428002948E-041
 -3.710000000000000E-002    1.656592151956275E-040
 -3.700000000000000E-002    4.211859260564141E-040
 -3.690000000000000E-002    9.929626733999511E-040
 -3.680000000000000E-002    2.160193334972106E-039
 -3.670000000000000E-002    4.286967080554138E-039
 -3.660000000000000E-002    7.562558686201089E-039
 -3.650000000000000E-002    1.109944042461832E-038
 -3.640000000000000E-002    1.051167778164918E-038
 -3.630000000000000E-002   -7.720672987247096E-039
 -3.620000000000000E-002   -7.808332460324301E-038
 -3.610000000000000E-002   -2.788212131915489E-037
 -3.600000000000000E-002   -7.724866179897671E-037
 -3.590000000000000E-002   -1.872465327448043E-036
 -3.580000000000000E-002   -4.142661752681191E-036
 -3.570000000000000E-002   -8.530525086664459E-036
 -3.560000000000000E-002   -1.651508133350537E-035
 -3.550000000000000E-002   -3.021375872478406E-035
 -3.540000000000000E-002   -5.232532543889916E-035
 -3.530000000000000E-002   -8.568304276191277E-035
 -3.520000000000000E-002   -1.320501735293032E-034
 -3.510000000000000E-002   -1.896226087233339E-034
 -3.500000000000000E-002   -2.485508984295470E-034
 -3.490000000000000E-002   -2.837397361635958E-034
 -3.480000000000000E-002   -2.443677584650534E-034
 -3.470000000000000E-002   -4.019790182572668E-035
 -3.460000000000000E-002    4.739228926915253E-034
 -3.450000000000000E-002    1.511677264802945E-033
 -3.440000000000000E-002    3.359852545731253E-033
 -3.430000000000000E-002    6.362151155264140E-033
 -3.420000000000000E-002    1.086529790338520E-032
 -3.410000000000000E-002    1.710582430260861E-032
 -3.400000000000000E-002    2.501385823786507E-032
 -3.390000000000000E-002    3.391396433270883E-032
 -3.380000000000000E-002    4.211669409994283E-032
 -3.370000000000000E-002    4.642250715452053E-032
 -3.360000000000000E-002    4.160592130400425E-032
 -3.350000000000000E-002    2.001328161300765E-032
 -3.340000000000000E-002   -2.851124326226648E-032
 -3.330000000000000E-002   -1.160721385396049E-031
 -3.320000000000000E-002   -2.551763749384881E-031
 -3.310000000000000E-002   -4.558178601894729E-031
 -3.300000000000000E-002   -7.209038681732184E-031
 -3.290000000000000E-002   -1.039974199416531E-030
 -3.280000000000000E-002   -1.381599838726682E-030
 -3.270000000000000E-002   -1.685500270488785E-030
 -3.260000000000000E-002   -1.856257520517310E-030
 -3.250000000000000E-002   -1.761427742872279E-030
 -3.240000000000000E-002   -1.237634768802175E-030
 -3.230000000000000E-002   -1.085682444212252E-031
 -3.220000000000000E-002    1.781755982776934E-030
 -3.210000000000000E-002    4.519052403562500E-030
 -3.200000000000000E-002    8.054451372838895E-030
 -3.190000000000000E-002    1.213394207608042E-029
 -3.180000000000000E-002    1.623727745178960E-029
 -3.170000000000000E-002    1.955066685391948E-029
 -3.160000000000000E-002    2.100527839528989E-029
 -3.150000000000000E-002    1.941781443017181E-029
 -3.140000000000000E-002    1.376611998564284E-029
 -3.130000000000000E-002    3.617950500781192E-030
 -3.120000000000000E-002   -1.029980802405107E-029
 -3.110000000000000E-002   -2.545354942412987E-029
 -3.100000000000000E-002   -3.690680908837188E-029
 -3.090000000000000E-002   -3.698611367892870E-029
 -3.080000000000000E-002   -1.550111353276002E-029
 -3.070000000000000E-002    3.912678647183289E-029
 -3.060000000000000E-002    1.374586768531920E-028
 -3.050000000000000E-002    2.850560113162160E-028
 -3.040000000000000E-002    4.768134865467443E-028
 -3.030000000000000E-002    6.898385956217163E-028
 -3.020000000000000E-002    8.756227411187578E-028
 -3.010000000000000E-002    9.529108398212423E-028
 -3.000000000000000E-002    8.034401384000366E-028
 -2.990000000000000E-002    2.734678516021598E-028
 -2.980000000000000E-002   -8.154349475659772E-028
 -2.970000000000000E-002   -2.642696985622739E-027
 -2.960000000000000E-002   -5.349098005275225E-027
 -2.950000000000000E-002   -8.979588018829217E-027
 -2.940000000000000E-002   -1.340971654413163E-026
 -2.930000000000000E-002   -1.826079848020985E-026
 -2.920000000000000E-002   -2.281413736378861E-026
 -2.910000000000000E-002   -2.594056955479255E-026
 -2.900000000000000E-002   -2.606764822699024E-026
 -2.890000000000000E-002   -2.121172101845803E-026
 -2.880000000000000E-002   -9.104557743621612E-027
 -2.870000000000000E-002    1.255771404560274E-026
 -2.860000000000000E-002    4.572328800661938E-026
 -2.850000000000000E-002    9.144613745752687E-026
 -2.840000000000000E-002    1.492186862437131E-025
 -2.830000000000000E-002    2.162250819846999E-025
 -2.820000000000000E-002    2.866009947853977E-025
 -2.810000000000000E-002    3.508253578308049E-025
 -2.800000000000000E-002    3.954037719885353E-025
 -2.790000000000000E-002    4.030290239933447E-025
 -2.780000000000000E-002    3.534081905425932E-025
 -2.770000000000000E-002    2.249236818989594E-025
 -2.760000000000000E-002   -2.762367043840616E-027
 -2.750000000000000E-002   -3.451501319248041E-025
 -2.740000000000000E-002   -8.085151722654297E-025
 -2.730000000000000E-002   -1.384990503733508E-024
 -2.720000000000000E-002   -2.047603942923093E-024
 -2.710000000000000E-002   -2.745945143549163E-024
 -2.700000000000000E-002   -3.403296179714810E-024
 -2.690000000000000E-002   -3.916151296940598E-024
 -2.680000000000000E-002   -4.157055852712261E-024
 -2.670000000000000E-002   -3.981562648337710E-024
 -2.660000000000000E-002   -3.239835343954168E-024
 -2.650000000000000E-002   -1.793004348692059E-024
 -2.640000000000000E-002    4.661766676767317E-025
 -2.630000000000000E-002    3.589484559355367E-024
 -2.620000000000000E-002    7.547998590542157E-024
 -2.610000000000000E-002    1.220795340013914E-023
 -2.600000000000000E-002    1.731067306653198E-023
 -2.590000000000000E-002    2.245989998778931E-023
 -2.580000000000000E-002    2.711983249805095E-023
 -2.570000000000000E-002    3.062687030829290E-023
 -2.560000000000000E-002    3.221736354187806E-023
 -2.550000000000000E-002    3.107262574125867E-023
 -2.540000000000000E-002    2.638116804869717E-023
 -2.530000000000000E-002    1.741662162156870E-023
 -2.520000000000000E-002    3.628412336033306E-024
 -2.510000000000000E-002   -1.525924121392563E-023
 -2.500000000000000E-002   -3.914552632591744E-023
 -2.490000000000000E-002   -6.745501298279413E-023
 -2.480000000000000E-002   -9.905050714913713E-023
 -2.470000000000000E-002   -1.321647019342990E-022
 -2.460000000000000E-002   -1.643589048445608E-022
 -2.450000000000000E-002   -1.925180651393544E-022
 -2.440000000000000E-002   -2.128920757653681E-022
 -2.430000000000000E-002   -2.211948800650893E-022
 -2.420000000000000E-002   -2.127740149948798E-022
 -2.410000000000000E-002   -1.828640388000653E-022
 -2.400000000000000E-002   -1.269371186025969E-022
 -2.390000000000000E-002   -4.116111153241571E-023
 -2.380000000000000E-002    7.703028090891218E-023
 -2.370000000000000E-002    2.282613579056901E-022
 -2.360000000000000E-002    4.104547291860883E-022
 -2.350000000000000E-002    6.180312783643199E-022
 -2.340000000000000E-002    8.411406124063203E-022
 -2.330000000000000E-002    1.065021365651103E-021
 -2.320000000000000E-002    1.269619712974370E-021
 -2.310000000000000E-002    1.429618107565269E-021
 -2.300000000000000E-002    1.515038719178032E-021
 -2.290000000000000E-002    1.492579038853504E-021
 -2.280000000000000E-002    1.327808430682930E-021
 -2.270000000000000E-002    9.882933649765525E-022
 -2.260000000000000E-002    4.476286162202820E-022
 -2.250000000000000E-002   -3.097704467828324E-022
 -2.240000000000000E-002   -1.283406719836804E-021
 -2.230000000000000E-002   -2.451418210789721E-021
 -2.220000000000000E-002   -3.765875437258339E-021
 -2.210000000000000E-002   -5.149386532523422E-021
 -2.200000000000000E-002   -6.493802833564930E-021
 -2.190000000000000E-002   -7.661822432887970E-021
 -2.180000000000000E-002   -8.492164624912066E-021
 -2.170000000000000E-002   -8.808790646282076E-021
 -2.160000000000000E-002   -8.434278092221882E-021
 -2.150000000000000E-002   -7.207035826959002E-021
 -2.140000000000000E-002   -5.001508244871297E-021
 -2.130000000000000E-002   -1.749974065631053E-021
 -2.120000000000000E-002    2.535986821098369E-021
 -2.110000000000000E-002    7.746701122932533E-021
 -2.100000000000000E-002    1.366086357473240E-020
 -2.090000000000000E-002    1.993985514351943E-020
 -2.080000000000000E-002    2.613219189725393E-020
 -2.070000000000000E-002    3.168978071650026E-020
 -2.060000000000000E-002    3.599671511830750E-020
 -2.050000000000000E-002    3.841018094537723E-020
 -2.040000000000000E-002    3.831163169286423E-020
 -2.030000000000000E-002    3.516512573492199E-020
 -2.020000000000000E-002    2.857832663947285E-020
 -2.010000000000000E-002    1.836086206012775E-020
 -2.000000000000000E-002    4.574164754118835E-021
 -1.990000000000000E-002   -1.243292018269478E-020
 -1.980000000000000E-002   -3.200775818837535E-020
 -1.970000000000000E-002   -5.320030716667264E-020
 -1.960000000000000E-002   -7.479391787887404E-020
 -1.950000000000000E-002   -9.535976262255680E-020
 -1.940000000000000E-002   -1.133318900305672E-019
 -1.930000000000000E-002   -1.270973456234752E-019
 -1.920000000000000E-002   -1.350946460654976E-019
 -1.910000000000000E-002   -1.359124060181831E-019
 -1.900000000000000E-002   -1.283806849519196E-019
 -1.890000000000000E-002   -1.116484141133986E-019
 -1.880000000000000E-002   -8.524292663247527E-020
 -1.870000000000000E-002   -4.911033004120728E-020
 -1.860000000000000E-002   -3.639068475602545E-021
 -1.850000000000000E-002    5.032812043874196E-020
 -1.840000000000000E-002    1.114864201168625E-019
 -1.830000000000000E-002    1.780570487047433E-019
 -1.820000000000000E-002    2.477646319723174E-019
 -1.810000000000000E-002    3.178005286340387E-019
 -1.800000000000000E-002    3.847745537381171E-019
 -1.790000000000000E-002    4.446649476730889E-019
 -1.780000000000000E-002    4.927845535858572E-019
 -1.770000000000000E-002    5.237888190181969E-019
 -1.760000000000000E-002    5.317570142830616E-019
 -1.750000000000000E-002    5.103801248095352E-019
 -1.740000000000000E-002    4.532861429541734E-019
 -1.730000000000000E-002    3.545244942116332E-019
 -1.720000000000000E-002    2.092159776056107E-019
 -1.710000000000000E-002    1.435321310137811E-020
 -1.700000000000000E-002   -2.302896580469854E-019
 -1.690000000000000E-002   -5.212075122800151E-019
 -1.680000000000000E-002   -8.502722040396718E-019
 -1.670000000000000E-002   -1.204017310745012E-018
 -1.660000000000000E-002   -1.563233466533329E-018
 -1.650000000000000E-002   -1.903007435432397E-018
 -1.640000000000000E-002   -2.193324023335377E-018
 -1.630000000000000E-002   -2.400317169197579E-018
 -1.620000000000000E-002   -2.488204320221452E-018
 -1.610000000000000E-002   -2.421877016269441E-018
 -1.600000000000000E-002   -2.170041259583952E-018
 -1.590000000000000E-002   -1.708723324209831E-018
 -1.580000000000000E-002   -1.024885801836244E-018
 -1.570000000000000E-002   -1.198328925950411E-019
 -1.560000000000000E-002    9.879451949432664E-019
 -1.550000000000000E-002    2.260852872360635E-018
 -1.540000000000000E-002    3.641520227098926E-018
 -1.530000000000000E-002    5.053647280820380E-018
 -1.520000000000000E-002    6.404518348134904E-018
 -1.510000000000000E-002    7.589206727810120E-018
 -1.500000000000000E-002    8.496346218677518E-018
 -1.490000000000000E-002    9.015184078633894E-018
 -1.480000000000000E-002    9.043494765817948E-018
 -1.470000000000000E-002    8.495818125741712E-018
 -1.460000000000000E-002    7.311422030273378E-018
 -1.450000000000000E-002    5.461373621098148E-018
 -1.440000000000000E-002    2.954151701070837E-018
 -1.430000000000000E-002   -1.606650329997792E-019
 -1.420000000000000E-002   -3.790941404332444E-018
 -1.410000000000000E-002   -7.802897242019475E-018
 -1.400000000000000E-002   -1.202431992189293E-017
 -1.390000000000000E-002   -1.624985421525898E-017
 -1.380000000000000E-002   -2.024798872765649E-017
 -1.370000000000000E-002   -2.376931926436374E-017
 -1.360000000000000E-002   -2.655565911415035E-017
 -1.350000000000000E-002   -2.834961886306924E-017
 -1.340000000000000E-002   -2.890449699424059E-017
 -1.330000000000000E-002   -2.799443578949210E-017
 -1.320000000000000E-002   -2.542500457210004E-017
 -1.310000000000000E-002   -2.104459409199279E-017
 -1.300000000000000E-002   -1.475695669892812E-017
 -1.290000000000000E-002   -6.535268698826999E-018
 -1.280000000000000E-002    3.562158317213958E-018
 -1.270000000000000E-002    1.537478804244182E-017
 -1.260000000000000E-002    2.862219148391455E-017
 -1.250000000000000E-002    4.288721540845021E-017
 -1.240000000000000E-002    5.760216452029725E-017
 -1.230000000000000E-002    7.204075679735868E-017
 -1.220000000000000E-002    8.531915475680937E-017
 -1.210000000000000E-002    9.640947984131051E-017
 -1.200000000000000E-002    1.041691322369131E-016
 -1.190000000000000E-002    1.073885301844679E-016
 -1.180000000000000E-002    1.048586980973357E-016
 -1.170000000000000E-002    9.545842534078603E-017
 -1.160000000000000E-002    7.825872590975742E-017
 -1.150000000000000E-002    5.263969809916876E-017
 -1.140000000000000E-002    1.841262298690465E-017
 -1.130000000000000E-002   -2.406230164339737E-017
 -1.120000000000000E-002   -7.377409913323961E-017
 -1.110000000000000E-002   -1.289875529931938E-016
 -1.100000000000000E-002   -1.872109823847096E-016
 -1.090000000000000E-002   -2.452166162319010E-016
 -1.080000000000000E-002   -2.991232713857236E-016
 -1.070000000000000E-002   -3.445465848496816E-016
 -1.060000000000000E-002   -3.768176092435105E-016
 -1.050000000000000E-002   -3.912651062382307E-016
 -1.040000000000000E-002   -3.835500053183673E-016
 -1.030000000000000E-002   -3.500351063804539E-016
 -1.020000000000000E-002   -2.881672119748940E-016
 -1.010000000000000E-002   -1.968441496052017E-016
 -1.000000000000000E-002   -7.673712828989400E-017
 -9.899999999999999E-003    6.946196418487110E-017
 -9.800000000000000E-003    2.368973631828660E-016
 -9.699999999999999E-003    4.185344511353828E-016
 -9.599999999999999E-003    6.052909360002698E-016
 -9.500000000000000E-003    7.863230247584157E-016
 -9.399999999999999E-003    9.494659493313721E-016
 -9.299999999999999E-003    1.081818057141187E-015
 -9.200000000000000E-003    1.170445148888667E-015
 -9.099999999999999E-003    1.203173777104626E-015
 -8.999999999999999E-003    1.169433576663926E-015
 -8.900000000000000E-003    1.061102026521347E-015
 -8.799999999999999E-003    8.733030991169388E-016
 -8.699999999999999E-003    6.051104378966010E-016
 -8.600000000000000E-003    2.601073149509769E-016
 -8.499999999999999E-003   -1.532390620259104E-016
 -8.399999999999999E-003   -6.214220337252475E-016
 -8.300000000000000E-003   -1.125988436583248E-015
 -8.199999999999999E-003   -1.643895259542291E-015
 -8.100000000000000E-003   -2.148136849842056E-015
 -8.000000000000000E-003   -2.608644497584116E-015
 -7.899999999999999E-003   -2.993443578489781E-015
 -7.800000000000000E-003   -3.270047434006615E-015
 -7.699999999999999E-003   -3.407058641919995E-015
 -7.599999999999999E-003   -3.375939383248342E-015
 -7.499999999999999E-003   -3.152892777039109E-015
 -7.399999999999999E-003   -2.720799519858310E-015
 -7.299999999999999E-003   -2.071125904127314E-015
 -7.199999999999999E-003   -1.205714146657348E-015
 -7.100000000000000E-003   -1.383448035824875E-016
 -6.999999999999999E-003    1.104048990218501E-015
 -6.899999999999999E-003    2.480646620125560E-015
 -6.800000000000000E-003    3.936623596408172E-015
 -6.699999999999999E-003    5.403789424126942E-015
 -6.599999999999999E-003    6.802089929124861E-015
 -6.499999999999999E-003    8.042080163524248E-015
 -6.399999999999999E-003    9.028408053123479E-015
 -6.299999999999999E-003    9.664294717817971E-015
 -6.199999999999999E-003    9.856952237567183E-015
 -6.100000000000000E-003    9.523753495668775E-015
 -5.999999999999999E-003    8.598918712902863E-015
 -5.899999999999999E-003    7.040364789756763E-015
 -5.800000000000000E-003    4.836308314397206E-015
 -5.699999999999999E-003    2.011124687088107E-015
 -5.599999999999999E-003   -1.370060383894213E-015
 -5.499999999999999E-003   -5.198586732030288E-015
 -5.399999999999999E-003   -9.321781463916110E-015
 -5.299999999999999E-003   -1.354521685719564E-014
 -5.199999999999999E-003   -1.763800220943374E-014
 -5.099999999999999E-003   -2.134126771661449E-014
 -4.999999999999999E-003   -2.437974880472388E-014
 -4.899999999999999E-003   -2.647621976513609E-014
 -4.799999999999999E-003   -2.736820442599696E-014
 -4.699999999999999E-003   -2.682624459680411E-014
 -4.599999999999999E-003   -2.467272578072415E-014
 -4.499999999999999E-003   -2.080011000980635E-014
 -4.399999999999999E-003   -1.518734416217531E-014
 -4.299999999999999E-003   -7.913109488975807E-015
 -4.199999999999999E-003    8.352917510069430E-016
 -4.099999999999999E-003    1.075856351038780E-014
 -3.999999999999999E-003    2.144843397538356E-014
 -3.899999999999999E-003    3.239763131504788E-014
 -3.799999999999999E-003    4.301703243890596E-014
 -3.699999999999999E-003    5.265980707913130E-014
 -3.599999999999999E-003    6.065179191637676E-014
 -3.499999999999999E-003    6.632708257495812E-014
 -3.399999999999999E-003    6.906729292169839E-014
 -3.299999999999999E-003    6.834249481056389E-014
 -3.199999999999999E-003    6.375179057660877E-014
 -3.099999999999999E-003    5.506110793753367E-014
 -2.999999999999999E-003    4.223582241662984E-014
 -2.899999999999999E-003    2.546589801329080E-014
 -2.799999999999999E-003    5.181372207465068E-015
 -2.699999999999999E-003   -1.794359249656451E-014
 -2.599999999999999E-003   -4.299943045048414E-014
 -2.499999999999999E-003   -6.886348848870793E-014
 -2.399999999999999E-003   -9.423614474198631E-014
 -2.299999999999999E-003   -1.176903905091224E-013
 -2.199999999999999E-003   -1.377332988414101E-013
 -2.099999999999999E-003   -1.528780098919278E-013
 -1.999999999999999E-003   -1.617231568892417E-013
 -1.899999999999999E-003   -1.630369291809775E-013
 -1.799999999999999E-003   -1.558417516365296E-013
 -1.699999999999999E-003   -1.394954786094612E-013
 -1.599999999999999E-003   -1.137646062324654E-013
 -1.499999999999999E-003   -7.888482361723323E-014
 -1.399999999999999E-003   -3.560439016650024E-014
 -1.299999999999999E-003    1.479406560035181E-014
 -1.199999999999999E-003    7.049701354025222E-014
 -1.099999999999999E-003    1.291916518628083E-013
 -9.999999999999989E-004    1.881279308206899E-013
 -8.999999999999990E-004    2.442114022750249E-013
 -7.999999999999990E-004    2.941258824285094E-013
 -6.999999999999989E-004    3.344835170402555E-013
 -5.999999999999990E-004    3.619977695929152E-013
 -4.999999999999989E-004    3.736726106857609E-013
 -3.999999999999989E-004    3.670001895837345E-013
 -2.999999999999989E-004    3.401564332917539E-013
 -1.999999999999989E-004    2.921840898901059E-013
 -9.999999999999892E-005    2.231508422152170E-013
  1.084202172485504E-018    1.342701829613047E-013
  1.000000000000011E-004    2.797352554396856E-014
  2.000000000000011E-004   -9.207716817545998E-014
  3.000000000000011E-004   -2.210443737928415E-013
  4.000000000000011E-004   -3.530430553187418E-013
  5.000000000000011E-004   -4.813435547185584E-013
  6.000000000000011E-004   -5.986465570347747E-013
  7.000000000000011E-004   -6.974227562531822E-013
  8.000000000000011E-004   -7.703054230800093E-013
  9.000000000000012E-004   -8.105185685233857E-013
  1.000000000000001E-003   -8.123194637570752E-013
  1.100000000000001E-003   -7.714320656131676E-013
  1.200000000000001E-003   -6.854440505342633E-013
  1.300000000000001E-003   -5.541405249652468E-013
  1.400000000000001E-003   -3.797481692762082E-013
  1.500000000000001E-003   -1.670662329069280E-013
  1.600000000000001E-003    7.653474693465863E-014
  1.700000000000001E-003    3.412594571588039E-013
  1.800000000000001E-003    6.151860383645995E-013
  1.900000000000001E-003    8.847108272584261E-013
  2.000000000000001E-003    1.135131732003222E-012
  2.100000000000001E-003    1.351345585657343E-012
  2.200000000000001E-003    1.518631922393599E-012
  2.300000000000001E-003    1.623485902905233E-012
  2.400000000000001E-003    1.654459319799824E-012
  2.500000000000001E-003    1.602960589514032E-012
  2.600000000000001E-003    1.463968993368698E-012
  2.700000000000001E-003    1.236614881787231E-012
  2.800000000000001E-003    9.245859115336342E-013
  2.900000000000001E-003    5.363219110214690E-013
  3.000000000000001E-003    8.497300575152211E-014
  3.100000000000001E-003   -4.118930969541309E-013
  3.200000000000001E-003   -9.328419809131572E-013
  3.300000000000001E-003   -1.453364918812282E-012
  3.400000000000001E-003   -1.946895438572825E-012
  3.500000000000001E-003   -2.386008307302920E-012
  3.600000000000001E-003   -2.743756672975662E-012
  3.700000000000001E-003   -2.995085864817997E-012
  3.800000000000001E-003   -3.118260945901864E-012
  3.900000000000001E-003   -3.096233495670725E-012
  4.000000000000001E-003   -2.917878752620501E-012
  4.100000000000001E-003   -2.579029399352827E-012
  4.200000000000001E-003   -2.083239507778001E-012
  4.300000000000001E-003   -1.442222995249958E-012
  4.400000000000001E-003   -6.759171379192706E-013
  4.500000000000001E-003    1.878576630975239E-013
  4.600000000000002E-003    1.114160763467217E-012
  4.700000000000001E-003    2.062107099602258E-012
  4.800000000000001E-003    2.986437219898775E-012
  4.900000000000002E-003    3.839432203095010E-012
  5.000000000000001E-003    4.573105310244265E-012
  5.100000000000001E-003    5.141586764650790E-012
  5.200000000000001E-003    5.503595633854457E-012
  5.300000000000002E-003    5.624884926446441E-012
  5.400000000000001E-003    5.480528328441620E-012
  5.500000000000001E-003    5.056918788633863E-012
  5.600000000000002E-003    4.353354297753276E-012
  5.700000000000001E-003    3.383090072619151E-012
  5.800000000000001E-003    2.173755795391808E-012
  5.900000000000002E-003    7.670667165879593E-013
  6.000000000000001E-003   -7.822243520981198E-013
  6.100000000000001E-003   -2.408132803547346E-012
  6.200000000000002E-003   -4.035984333697290E-012
  6.300000000000002E-003   -5.585599594090424E-012
  6.400000000000001E-003   -6.975023053401620E-012
  6.500000000000001E-003   -8.124611274478870E-012
  6.600000000000002E-003   -8.961311984304308E-012
  6.700000000000001E-003   -9.422888610674698E-012
  6.800000000000001E-003   -9.461879053685968E-012
  6.900000000000002E-003   -9.049028846172332E-012
  7.000000000000001E-003   -8.175985833211451E-012
  7.100000000000001E-003   -6.857050140777248E-012
  7.200000000000002E-003   -5.129817951961320E-012
  7.300000000000002E-003   -3.054622256726858E-012
  7.400000000000001E-003   -7.127103083613475E-013
  7.500000000000001E-003    1.796801199179518E-012
  7.600000000000002E-003    4.361108328520827E-012
  7.700000000000001E-003    6.858850444106422E-012
  7.800000000000001E-003    9.165982415598473E-012
  7.900000000000001E-003    1.116207114018364E-011
  8.000000000000002E-003    1.273670189690688E-011
  8.100000000000001E-003    1.379563639852107E-011
  8.200000000000001E-003    1.426637820571945E-011
  8.300000000000002E-003    1.410280499480347E-011
  8.400000000000001E-003    1.328856259152836E-011
  8.500000000000002E-003    1.183900278465860E-011
  8.600000000000002E-003    9.801491480827513E-012
  8.700000000000001E-003    7.254009744011890E-012
  8.800000000000002E-003    4.302068941123566E-012
  8.900000000000002E-003    1.074053531124084E-012
  9.000000000000001E-003   -2.284810943760786E-012
  9.100000000000002E-003   -5.619570408241591E-012
  9.200000000000002E-003   -8.773392802969092E-012
  9.300000000000001E-003   -1.159573378005075E-011
  9.400000000000002E-003   -1.395041643587047E-011
  9.500000000000001E-003   -1.572314271044060E-011
  9.600000000000001E-003   -1.682804292322218E-011
  9.700000000000002E-003   -1.721286817612034E-011
  9.800000000000001E-003   -1.686248459948887E-011
  9.900000000000001E-003   -1.580044118157497E-011
  1.000000000000000E-002   -1.408843642269740E-011
  1.010000000000000E-002   -1.182363001332281E-011
  1.020000000000000E-002   -9.133848420618865E-012
  1.030000000000000E-002   -6.170852197015047E-012
  1.040000000000000E-002   -3.101927060431798E-012
  1.050000000000000E-002   -1.001671495781617E-013
  1.060000000000000E-002    2.666075921834341E-012
  1.070000000000000E-002    5.044087236933863E-012
  1.080000000000000E-002    6.907373267510353E-012
  1.090000000000000E-002    8.165394518873681E-012
  1.100000000000000E-002    8.771754127528788E-012
  1.110000000000000E-002    8.730297548528614E-012
  1.120000000000000E-002    8.098551724013988E-012
  1.130000000000000E-002    6.988051133881921E-012
  1.140000000000000E-002    5.561223660333472E-012
  1.150000000000000E-002    4.024649902058182E-012
  1.160000000000000E-002    2.618693450579912E-012
  1.170000000000000E-002    1.603693785767263E-012
  1.180000000000000E-002    1.243138893461518E-012
  1.190000000000000E-002    1.784475057983019E-012
  1.200000000000000E-002    3.438357587383892E-012
  1.210000000000000E-002    6.357440743711552E-012
  1.220000000000000E-002    1.061588330869471E-011
  1.230000000000000E-002    1.619086817638228E-011
  1.240000000000000E-002    2.294760729621816E-011
  1.250000000000000E-002    3.062905237417413E-011
  1.260000000000000E-002    3.885169034201304E-011
  1.270000000000000E-002    4.710844950706971E-011
  1.280000000000000E-002    5.477952446303887E-011
  1.290000000000000E-002    6.115161258447922E-011
  1.300000000000000E-002    6.544562889304161E-011
  1.310000000000000E-002    6.685248201387831E-011
  1.320000000000000E-002    6.457605508369217E-011
  1.330000000000000E-002    5.788197228074244E-011
  1.340000000000000E-002    4.615036824538807E-011
  1.350000000000000E-002    2.893027362720943E-011
  1.360000000000000E-002    5.993133102598936E-012
  1.370000000000000E-002   -2.261757157163139E-011
  1.380000000000000E-002   -5.654346982959544E-011
  1.390000000000000E-002   -9.507830736850123E-011
  1.400000000000000E-002   -1.371476149444004E-010
  1.410000000000000E-002   -1.813036833238967E-010
  1.420000000000000E-002   -2.257378298605256E-010
  1.430000000000000E-002   -2.683116489539794E-010
  1.440000000000000E-002   -3.066081067657771E-010
  1.450000000000000E-002   -3.380025063215764E-010
  1.460000000000000E-002   -3.597527966823129E-010
  1.470000000000000E-002   -3.691074135725036E-010
  1.480000000000000E-002   -3.634282896823589E-010
  1.490000000000000E-002   -3.403257552119304E-010
  1.500000000000000E-002   -2.978010707102954E-010
  1.510000000000000E-002   -2.343917825895950E-010
  1.520000000000000E-002   -1.493143088724937E-010
  1.530000000000000E-002   -4.259782422833329E-011
  1.540000000000000E-002    8.479692724545301E-011
  1.550000000000000E-002    2.308806766746531E-010
  1.560000000000000E-002    3.925663782506143E-010
  1.570000000000000E-002    5.656347252900628E-010
  1.580000000000000E-002    7.447396461911886E-010
  1.590000000000000E-002    9.234589090512671E-010
  1.600000000000000E-002    1.094393752352684E-009
  1.610000000000000E-002    1.249320387403440E-009
  1.620000000000000E-002    1.379394468122043E-009
  1.630000000000000E-002    1.475407640159419E-009
  1.640000000000000E-002    1.528093789479335E-009
  1.650000000000000E-002    1.528479971869499E-009
  1.660000000000000E-002    1.468274872469545E-009
  1.670000000000000E-002    1.340285326263745E-009
  1.680000000000000E-002    1.138848612864517E-009
  1.690000000000000E-002    8.602673885760848E-010
  1.700000000000000E-002    5.032305299509058E-010
  1.710000000000000E-002    6.920256523058689E-011
  1.720000000000000E-002   -4.372370548587008E-010
  1.730000000000000E-002   -1.008123101327414E-009
  1.740000000000000E-002   -1.631922106510686E-009
  1.750000000000000E-002   -2.293456614797377E-009
  1.760000000000000E-002   -2.973951439936911E-009
  1.770000000000000E-002   -3.651216617060744E-009
  1.780000000000000E-002   -4.299977980108271E-009
  1.790000000000000E-002   -4.892361643919528E-009
  1.800000000000000E-002   -5.398534833451133E-009
  1.810000000000000E-002   -5.787498643470506E-009
  1.820000000000000E-002   -6.028025853425764E-009
  1.830000000000000E-002   -6.089726438152299E-009
  1.840000000000000E-002   -5.944221684361442E-009
  1.850000000000000E-002   -5.566396647497446E-009
  1.860000000000000E-002   -4.935704073258724E-009
  1.870000000000000E-002   -4.037473971930540E-009