 -4.000000000000000E-002    0.000000000000000E+000
 -3.990000000000000E-002    0.000000000000000E+000
 -3.980000000000000E-002    0.000000000000000E+000
 -3.970000000000000E-002    0.000000000000000E+000
 -3.960000000000000E-002    0.000000000000000E+000
 -3.950000000000000E-002    0.000000000000000E+000
 -3.940000000000000E-002    0.000000000000000E+000
 -3.930000000000000E-002    0.000000000000000E+000
 -3.920000000000000E-002    0.000000000000000E+000
 -3.910000000000000E-002    0.000000000000000E+000
 -3.900000000000000E-002    0.000000000000000E+000
 -3.890000000000000E-002    0.000000000000000E+000
 -3.880000000000000E-002    0.000000000000000E+000
 -3.870000000000000E-002    0.000000000000000E+000
 -3.860000000000000E-002    0.000000000000000E+000
 -3.850000000000000E-002    0.000000000000000E+000
 -3.840000000000000E-002    0.000000000000000E+000
 -3.830000000000000E-002    0.000000000000000E+000
 -3.820000000000000E-002    0.000000000000000E+000
 -3.810000000000000E-002    0.000000000000000E+000
 -3.800000000000000E-002    0.000000000000000E+000
 -3.790000000000000E-002    0.000000000000000E+000
 -3.780000000000000E-002    0.000000000000000E+000
 -3.770000000000000E-002    0.000000000000000E+000
 -3.760000000000000E-002    0.000000000000000E+000
 -3.750000000000000E-002    0.000000000000000E+000
 -3.740000000000000E-002    0.000000000000000E+000
 -3.730000000000000E-002    0.000000000000000E+000
 -3.720000000000000E-002    0.000000000000000E+000
 -3.710000000000000E-002    0.000000000000000E+000
 -3.700000000000000E-002    0.000000000000000E+000
 -3.690000000000000E-002    0.000000000000000E+000
 -3.680000000000000E-002    0.000000000000000E+000
 -3.670000000000000E-002    0.000000000000000E+000
 -3.660000000000000E-002    0.000000000000000E+000
 -3.650000000000000E-002    0.000000000000000E+000
 -3.640000000000000E-002    0.000000000000000E+000
 -3.630000000000000E-002    0.000000000000000E+000
 -3.620000000000000E-002    0.000000000000000E+000
 -3.610000000000000E-002    0.000000000000000E+000
 -3.600000000000000E-002    0.000000000000000E+000
 -3.590000000000000E-002    0.000000000000000E+000
 -3.580000000000000E-002    0.000000000000000E+000
 -3.570000000000000E-002    0.000000000000000E+000
 -3.560000000000000E-002    0.000000000000000E+000
 -3.550000000000000E-002    0.000000000000000E+000
 -3.540000000000000E-002    0.000000000000000E+000
 -3.530000000000000E-002    0.000000000000000E+000
 -3.520000000000000E-002    0.000000000000000E+000
 -3.510000000000000E-002    0.000000000000000E+000
 -3.500000000000000E-002    0.000000000000000E+000
 -3.490000000000000E-002    0.000000000000000E+000
 -3.480000000000000E-002    0.000000000000000E+000
 -3.470000000000000E-002    0.000000000000000E+000
 -3.460000000000000E-002    0.000000000000000E+000
 -3.450000000000000E-002    0.000000000000000E+000
 -3.440000000000000E-002    0.000000000000000E+000
 -3.430000000000000E-002    0.000000000000000E+000
 -3.420000000000000E-002    0.000000000000000E+000
 -3.410000000000000E-002    0.000000000000000E+000
 -3.400000000000000E-002    0.000000000000000E+000
 -3.390000000000000E-002    0.000000000000000E+000
 -3.380000000000000E-002    0.000000000000000E+000
 -3.370000000000000E-002    0.000000000000000E+000
 -3.360000000000000E-002    0.000000000000000E+000
 -3.350000000000000E-002    0.000000000000000E+000
 -3.340000000000000E-002    0.000000000000000E+000
 -3.330000000000000E-002    0.000000000000000E+000
 -3.320000000000000E-002    0.000000000000000E+000
 -3.310000000000000E-002    0.000000000000000E+000
 -3.300000000000000E-002    0.000000000000000E+000
 -3.290000000000000E-002    0.000000000000000E+000
 -3.280000000000000E-002    0.000000000000000E+000
 -3.270000000000000E-002    0.000000000000000E+000
 -3.260000000000000E-002    0.000000000000000E+000
 -3.250000000000000E-002    0.000000000000000E+000
 -3.240000000000000E-002    0.000000000000000E+000
 -3.230000000000000E-002    0.000000000000000E+000
 -3.220000000000000E-002    0.000000000000000E+000
 -3.210000000000000E-002    0.000000000000000E+000
 -3.200000000000000E-002    0.000000000000000E+000
 -3.190000000000000E-002    0.000000000000000E+000
 -3.180000000000000E-002    0.000000000000000E+000
 -3.170000000000000E-002    0.000000000000000E+000
 -3.160000000000000E-002    0.000000000000000E+000
 -3.150000000000000E-002    0.000000000000000E+000
 -3.140000000000000E-002    0.000000000000000E+000
 -3.130000000000000E-002    0.000000000000000E+000
 -3.120000000000000E-002    0.000000000000000E+000
 -3.110000000000000E-002    0.000000000000000E+000
 -3.100000000000000E-002    0.000000000000000E+000
 -3.090000000000000E-002    0.000000000000000E+000
 -3.080000000000000E-002    0.000000000000000E+000
 -3.070000000000000E-002    0.000000000000000E+000
 -3.060000000000000E-002    0.000000000000000E+000
 -3.050000000000000E-002    0.000000000000000E+000
 -3.040000000000000E-002    0.000000000000000E+000
 -3.030000000000000E-002    0.000000000000000E+000
 -3.020000000000000E-002    0.000000000000000E+000
 -3.010000000000000E-002    0.000000000000000E+000
 -3.000000000000000E-002    0.000000000000000E+000
 -2.990000000000000E-002    0.000000000000000E+000
 -2.980000000000000E-002    0.000000000000000E+000
 -2.970000000000000E-002    0.000000000000000E+000
 -2.960000000000000E-002    0.000000000000000E+000
 -2.950000000000000E-002    0.000000000000000E+000
 -2.940000000000000E-002    0.000000000000000E+000
 -2.930000000000000E-002    0.000000000000000E+000
 -2.920000000000000E-002    0.000000000000000E+000
 -2.910000000000000E-002    0.000000000000000E+000
 -2.900000000000000E-002    0.000000000000000E+000
 -2.890000000000000E-002    0.000000000000000E+000
 -2.880000000000000E-002    0.000000000000000E+000
 -2.870000000000000E-002    0.000000000000000E+000
 -2.860000000000000E-002    0.000000000000000E+000
 -2.850000000000000E-002    0.000000000000000E+000
 -2.840000000000000E-002    0.000000000000000E+000
 -2.830000000000000E-002    0.000000000000000E+000
 -2.820000000000000E-002    0.000000000000000E+000
 -2.810000000000000E-002    0.000000000000000E+000
 -2.800000000000000E-002    0.000000000000000E+000
 -2.790000000000000E-002    0.000000000000000E+000
 -2.780000000000000E-002    0.000000000000000E+000
 -2.770000000000000E-002    0.000000000000000E+000
 -2.760000000000000E-002    0.000000000000000E+000
 -2.750000000000000E-002    0.000000000000000E+000
 -2.740000000000000E-002    0.000000000000000E+000
 -2.730000000000000E-002    0.000000000000000E+000
 -2.720000000000000E-002    0.000000000000000E+000
 -2.710000000000000E-002    0.000000000000000E+000
 -2.700000000000000E-002    0.000000000000000E+000
 -2.690000000000000E-002    0.000000000000000E+000
 -2.680000000000000E-002    0.000000000000000E+000
 -2.670000000000000E-002    0.000000000000000E+000
 -2.660000000000000E-002    0.000000000000000E+000
 -2.650000000000000E-002    0.000000000000000E+000
 -2.640000000000000E-002    0.000000000000000E+000
 -2.630000000000000E-002    0.000000000000000E+000
 -2.620000000000000E-002    0.000000000000000E+000
 -2.610000000000000E-002    0.000000000000000E+000
 -2.600000000000000E-002    0.000000000000000E+000
 -2.590000000000000E-002    0.000000000000000E+000
 -2.580000000000000E-002    0.000000000000000E+000
 -2.570000000000000E-002    0.000000000000000E+000
 -2.560000000000000E-002    0.000000000000000E+000
 -2.550000000000000E-002    0.000000000000000E+000
 -2.540000000000000E-002    0.000000000000000E+000
 -2.530000000000000E-002    0.000000000000000E+000
 -2.520000000000000E-002    0.000000000000000E+000
 -2.510000000000000E-002    0.000000000000000E+000
 -2.500000000000000E-002    0.000000000000000E+000
 -2.490000000000000E-002    0.000000000000000E+000
 -2.480000000000000E-002    0.000000000000000E+000
 -2.470000000000000E-002    0.000000000000000E+000
 -2.460000000000000E-002    0.000000000000000E+000
 -2.450000000000000E-002    0.000000000000000E+000
 -2.440000000000000E-002    0.000000000000000E+000
 -2.430000000000000E-002    0.000000000000000E+000
 -2.420000000000000E-002    0.000000000000000E+000
 -2.410000000000000E-002    0.000000000000000E+000
 -2.400000000000000E-002    0.000000000000000E+000
 -2.390000000000000E-002    0.000000000000000E+000
 -2.380000000000000E-002    0.000000000000000E+000
 -2.370000000000000E-002    0.000000000000000E+000
 -2.360000000000000E-002    0.000000000000000E+000
 -2.350000000000000E-002    0.000000000000000E+000
 -2.340000000000000E-002    0.000000000000000E+000
 -2.330000000000000E-002    0.000000000000000E+000
 -2.320000000000000E-002    0.000000000000000E+000
 -2.310000000000000E-002    0.000000000000000E+000
 -2.300000000000000E-002    0.000000000000000E+000
 -2.290000000000000E-002    0.000000000000000E+000
 -2.280000000000000E-002    0.000000000000000E+000
 -2.270000000000000E-002    0.000000000000000E+000
 -2.260000000000000E-002    0.000000000000000E+000
 -2.250000000000000E-002    0.000000000000000E+000
 -2.240000000000000E-002    0.000000000000000E+000
 -2.230000000000000E-002    0.000000000000000E+000
 -2.220000000000000E-002    0.000000000000000E+000
 -2.210000000000000E-002    0.000000000000000E+000
 -2.200000000000000E-002    0.000000000000000E+000
 -2.190000000000000E-002    0.000000000000000E+000
 -2.180000000000000E-002    0.000000000000000E+000
 -2.170000000000000E-002    0.000000000000000E+000
 -2.160000000000000E-002    0.000000000000000E+000
 -2.150000000000000E-002    0.000000000000000E+000
 -2.140000000000000E-002    0.000000000000000E+000
 -2.130000000000000E-002    0.000000000000000E+000
 -2.120000000000000E-002    0.000000000000000E+000
 -2.110000000000000E-002    0.000000000000000E+000
 -2.100000000000000E-002    0.000000000000000E+000
 -2.090000000000000E-002    0.000000000000000E+000
 -2.080000000000000E-002    0.000000000000000E+000
 -2.070000000000000E-002    0.000000000000000E+000
 -2.060000000000000E-002    0.000000000000000E+000
 -2.050000000000000E-002    0.000000000000000E+000
 -2.040000000000000E-002    0.000000000000000E+000
 -2.030000000000000E-002    0.000000000000000E+000
 -2.020000000000000E-002    0.000000000000000E+000
 -2.010000000000000E-002    0.000000000000000E+000
 -2.000000000000000E-002    0.000000000000000E+000
 -1.990000000000000E-002    0.000000000000000E+000
 -1.980000000000000E-002    0.000000000000000E+000
 -1.970000000000000E-002    0.000000000000000E+000
 -1.960000000000000E-002    0.000000000000000E+000
 -1.950000000000000E-002    0.000000000000000E+000
 -1.940000000000000E-002    0.000000000000000E+000
 -1.930000000000000E-002    0.000000000000000E+000
 -1.920000000000000E-002    0.000000000000000E+000
 -1.910000000000000E-002    0.000000000000000E+000
 -1.900000000000000E-002    0.000000000000000E+000
 -1.890000000000000E-002    0.000000000000000E+000
 -1.880000000000000E-002    2.138211768073757E-048
 -1.870000000000000E-002    4.276423536147513E-048
 -1.860000000000000E-002    6.414635304221270E-048
 -1.850000000000000E-002    8.552847072295026E-048
 -1.840000000000000E-002    1.069105884036878E-047
 -1.830000000000000E-002    1.069105884036878E-047
 -1.820000000000000E-002    2.071474216627302E-048
 -1.810000000000000E-002   -2.204949319520211E-048
 -1.800000000000000E-002   -4.343161087593968E-048
 -1.790000000000000E-002   -1.069105884036878E-047
 -1.780000000000000E-002   -4.209685984701058E-048
 -1.770000000000000E-002   -2.680799317483642E-047
 -1.760000000000000E-002   -6.016409675678702E-047
 -1.750000000000000E-002   -1.312194650082822E-046
 -1.740000000000000E-002   -2.284026203394348E-046
 -1.730000000000000E-002   -3.491728426708451E-046
 -1.720000000000000E-002   -5.262039464866377E-046
 -1.710000000000000E-002   -7.376466512459498E-046
 -1.700000000000000E-002   -7.990536325327132E-046
 -1.690000000000000E-002   -8.477376012689909E-046
 -1.680000000000000E-002   -7.873979038757960E-046
 -1.670000000000000E-002   -3.733835986737627E-046
 -1.660000000000000E-002    2.367327206473236E-046
 -1.650000000000000E-002    1.261077427359429E-045
 -1.640000000000000E-002    2.646299407410803E-045
 -1.630000000000000E-002    4.254605956438541E-045
 -1.620000000000000E-002    6.144410549064540E-045
 -1.610000000000000E-002    8.279547338608580E-045
 -1.600000000000000E-002    9.998800122366590E-045
 -1.590000000000000E-002    1.091246398867070E-044
 -1.580000000000000E-002    1.149871252555574E-044
 -1.570000000000000E-002    1.085245715378486E-044
 -1.560000000000000E-002    8.665853023822206E-045
 -1.550000000000000E-002    3.093251474433974E-045
 -1.540000000000000E-002   -4.437512685305181E-045
 -1.530000000000000E-002   -1.615184267428479E-044
 -1.520000000000000E-002   -3.157096333185773E-044
 -1.510000000000000E-002   -5.107208148102351E-044
 -1.500000000000000E-002   -7.376524860281149E-044
 -1.490000000000000E-002   -9.820111744665928E-044
 -1.480000000000000E-002   -1.219697225657776E-043
 -1.470000000000000E-002   -1.401171586059866E-043
 -1.460000000000000E-002   -1.488191637645687E-043
 -1.450000000000000E-002   -1.403609244589399E-043
 -1.440000000000000E-002   -1.079541480613288E-043
 -1.430000000000000E-002   -4.376696443236234E-044
 -1.420000000000000E-002    6.133851505192329E-044
 -1.410000000000000E-002    2.117856150279734E-043
 -1.400000000000000E-002    4.108448417251097E-043
 -1.390000000000000E-002    6.545249885918363E-043
 -1.380000000000000E-002    9.310369689110259E-043
 -1.370000000000000E-002    1.218634265397890E-042
 -1.360000000000000E-002    1.481123322127430E-042
 -1.350000000000000E-002    1.668803407329091E-042
 -1.340000000000000E-002    1.716094109873502E-042
 -1.330000000000000E-002    1.544329736233707E-042
 -1.320000000000000E-002    1.065506400457237E-042
 -1.310000000000000E-002    1.939599817043136E-043
 -1.300000000000000E-002   -1.145083388827463E-042
 -1.290000000000000E-002   -2.994885237188090E-042
 -1.280000000000000E-002   -5.347559233741389E-042
 -1.270000000000000E-002   -8.121722236280968E-042
 -1.260000000000000E-002   -1.113215003629853E-041
 -1.250000000000000E-002   -1.406964296660578E-041
 -1.240000000000000E-002   -1.648432276681639E-041
 -1.230000000000000E-002   -1.777998683607486E-041
 -1.220000000000000E-002   -1.723101356444832E-041
 -1.210000000000000E-002   -1.401984747774309E-041
 -1.200000000000000E-002   -7.310002332620664E-042
 -1.190000000000000E-002    3.644854728128980E-042
 -1.180000000000000E-002    1.935176816527062E-041
 -1.170000000000000E-002    3.989390017877781E-041
 -1.160000000000000E-002    6.472380524282106E-041
 -1.150000000000000E-002    9.243785053548476E-041
 -1.140000000000000E-002    1.205780168328608E-040
 -1.130000000000000E-002    1.454767779630387E-040
 -1.120000000000000E-002    1.622056885249059E-040
 -1.110000000000000E-002    1.646792337864250E-040
 -1.100000000000000E-002    1.459500719784020E-040
 -1.090000000000000E-002    9.877124903042107E-041
 -1.080000000000000E-002    1.645178920588395E-041
 -1.070000000000000E-002   -1.059811174592783E-040
 -1.060000000000000E-002   -2.703247436848096E-040
 -1.050000000000000E-002   -4.735184378309087E-040
 -1.040000000000000E-002   -7.058681909826926E-040
 -1.030000000000000E-002   -9.493741295407064E-040
 -1.020000000000000E-002   -1.176425218717536E-039
 -1.010000000000000E-002   -1.349218827884658E-039
 -1.000000000000000E-002   -1.420285993397742E-039
 -9.899999999999999E-003   -1.334549261793424E-039
 -9.800000000000000E-003   -1.033319509023179E-039
 -9.699999999999999E-003   -4.605370078219589E-040
 -9.599999999999999E-003    4.285795137929023E-040
 -9.500000000000000E-003    1.656581999316105E-039
 -9.399999999999999E-003    3.210999072129196E-039
 -9.299999999999999E-003    5.030590469515550E-039
 -9.200000000000000E-003    6.992087478484664E-039
 -9.099999999999999E-003    8.899381822534586E-039
 -8.999999999999999E-003    1.047769034274557E-038
 -8.900000000000000E-003    1.137561958455995E-038
 -8.799999999999999E-003    1.117830263269999E-038
 -8.699999999999999E-003    9.434641294830726E-039
 -8.600000000000000E-003    5.701122271092767E-039
 -8.499999999999999E-003   -3.964453833101233E-040
 -8.399999999999999E-003   -9.083788421178560E-039
 -8.300000000000000E-003   -2.034463747560651E-038
 -8.199999999999999E-003   -3.381903639318994E-038
 -8.100000000000000E-003   -4.870349956826290E-038
 -8.000000000000000E-003   -6.366702604491557E-038
 -7.899999999999999E-003   -7.680074240707155E-038
 -7.800000000000000E-003   -8.562217765081082E-038
 -7.699999999999999E-003   -8.715662878302082E-038
 -7.599999999999999E-003   -7.811734687893207E-038
 -7.499999999999999E-003   -5.520244477951897E-038
 -7.399999999999999E-003   -1.551825439121278E-038
 -7.299999999999999E-003    4.287362189343673E-038
 -7.199999999999999E-003    1.203058056489483E-037
 -7.100000000000000E-003    2.147934796383225E-037
 -6.999999999999999E-003    3.213293208031529E-037
 -6.899999999999999E-003    4.312800438421201E-037
 -6.800000000000000E-003    5.320047558596627E-037
 -6.699999999999999E-003    6.068357476244408E-037
 -6.599999999999999E-003    6.355724298385161E-037
 -6.499999999999999E-003    5.956323165231158E-037
 -6.399999999999999E-003    4.639775216548327E-037
 -6.299999999999999E-003    2.198790673625817E-037
 -6.199999999999999E-003   -1.514999641152741E-037
 -6.100000000000000E-003   -6.548358537742671E-037
 -5.999999999999999E-003   -1.279966549268500E-036
 -5.899999999999999E-003   -1.997242968127247E-036
 -5.800000000000000E-003   -2.753516863326224E-036
 -5.699999999999999E-003   -3.469531659987955E-036
 -5.599999999999999E-003   -4.039601465886998E-036
 -5.499999999999999E-003   -4.334514351334144E-036
 -5.399999999999999E-003   -4.208557080892994E-036
 -5.299999999999999E-003   -3.511365523564953E-036
 -5.199999999999999E-003   -2.104975706720584E-036
 -5.099999999999999E-003    1.140805056338586E-037
 -4.999999999999999E-003    3.188480606000123E-036
 -4.899999999999999E-003    7.071323353775918E-036
 -4.799999999999999E-003    1.159752089307087E-035
 -4.699999999999999E-003    1.645902901549283E-035
 -4.599999999999999E-003    2.118848130977805E-035
 -4.499999999999999E-003    2.515642541263436E-035
 -4.399999999999999E-003    2.758763961565424E-035
 -4.299999999999999E-003    2.760162992278491E-035
 -4.199999999999999E-003    2.428127581370690E-035
 -4.099999999999999E-003    1.677157036049629E-035
 -3.999999999999999E-003    4.407363257552180E-036
 -3.899999999999999E-003   -1.313499619199097E-035
 -3.799999999999999E-003   -3.567204064734320E-035
 -3.699999999999999E-003   -6.234881305881712E-035
 -3.599999999999999E-003   -9.149643585566889E-035
 -3.499999999999999E-003   -1.205368506014033E-034
 -3.399999999999999E-003   -1.459635084904639E-034
 -3.299999999999999E-003   -1.634275275767952E-034
 -3.199999999999999E-003   -1.679564606623148E-034
 -3.099999999999999E-003   -1.543265659613427E-034
 -2.999999999999999E-003   -1.175975881220222E-034
 -2.899999999999999E-003   -5.380306144311267E-035
 -2.799999999999999E-003    3.923254442442142E-035
 -2.699999999999999E-003    1.610034733049749E-034
 -2.599999999999999E-003    3.074405489067479E-034
 -2.499999999999999E-003    4.701454709540526E-034
 -2.399999999999999E-003    6.358730239577481E-034
 -2.299999999999999E-003    7.864080050353185E-034
 -2.199999999999999E-003    8.989861722045065E-034
 -2.099999999999999E-003    9.473954892978016E-034
 -1.999999999999999E-003    9.038562306651209E-034
 -1.899999999999999E-003    7.417232335408277E-034
 -1.799999999999999E-003    4.389670486690062E-034
 -1.699999999999999E-003   -1.771264077103640E-035
 -1.599999999999999E-003   -6.284135683037005E-034
 -1.499999999999999E-003   -1.375599093567191E-033
 -1.399999999999999E-003   -2.220238419698551E-033
 -1.299999999999999E-003   -3.099154960088010E-033
 -1.199999999999999E-003   -3.924285555006137E-033
 -1.099999999999999E-003   -4.584556613352015E-033
 -9.999999999999989E-004   -4.951010017598937E-033
 -8.999999999999990E-004   -4.885638361947138E-033
 -7.999999999999990E-004   -4.254102745897186E-033
 -6.999999999999989E-004   -2.942117737207686E-033
 -5.999999999999990E-004   -8.748078545016238E-034
 -4.999999999999989E-004    1.962241264562744E-033
 -3.999999999999989E-004    5.502088235486215E-033
 -2.999999999999989E-004    9.578119853206856E-033
 -1.999999999999989E-004    1.391119069759224E-032
 -9.999999999999892E-005    1.810536502159515E-032
  1.084202172485504E-018    2.165541217296987E-032
  1.000000000000011E-004    2.396882944997365E-032
  2.000000000000011E-004    2.440439978036368E-032
  3.000000000000011E-004    2.232799437314585E-032
  4.000000000000011E-004    1.718468181272446E-032
  5.000000000000011E-004    8.584031183427190E-033
  6.000000000000011E-004   -3.606894528149910E-033
  7.000000000000011E-004   -1.917081293386415E-032
  8.000000000000011E-004   -3.745814368764163E-032
  9.000000000000012E-004   -5.732776228012167E-032
  1.000000000000001E-003   -7.712391943459322E-032
  1.100000000000001E-003   -9.470249298046540E-032
  1.200000000000001E-003   -1.075181581741162E-031
  1.300000000000001E-003   -1.127809213377245E-031
  1.400000000000001E-003   -1.076848470836312E-031
  1.500000000000001E-003   -8.970531670859535E-032
  1.600000000000001E-003   -5.695208434832132E-032
  1.700000000000001E-003   -8.555875147895928E-033
  1.800000000000001E-003    5.494351237383627E-032
  1.900000000000001E-003    1.312493550307017E-031
  2.000000000000001E-003    2.160490927098003E-031
  2.100000000000001E-003    3.028975846799644E-031
  2.200000000000001E-003    3.832946561285616E-031
  2.300000000000001E-003    4.470036499371319E-031
  2.400000000000001E-003    4.826432187009326E-031
  2.500000000000001E-003    4.785661184127001E-031
  2.600000000000001E-003    4.240097955389755E-031
  2.700000000000001E-003    3.104717829995580E-031
  2.800000000000001E-003    1.332251989173101E-031
  2.900000000000001E-003   -1.071475413513480E-031
  3.000000000000001E-003   -4.033607777041199E-031
  3.100000000000001E-003   -7.403556012090137E-031
  3.200000000000001E-003   -1.094754008794423E-030
  3.300000000000001E-003   -1.435035608057106E-030
  3.400000000000001E-003   -1.722611021060128E-030
  3.500000000000001E-003   -1.913917309684287E-030
  3.600000000000001E-003   -1.963588382293804E-030
  3.700000000000001E-003   -1.828648568426227E-030
  3.800000000000001E-003   -1.473566565804004E-030
  3.900000000000001E-003   -8.758624850078741E-031
  4.000000000000001E-003   -3.183217416637992E-032
  4.100000000000001E-003    1.038176734414155E-030
  4.200000000000001E-003    2.285598836583679E-030
  4.300000000000001E-003    3.631310477675029E-030
  4.400000000000001E-003    4.965824980458782E-030
  4.500000000000001E-003    6.152646967264965E-030
  4.600000000000002E-003    7.035243895728127E-030
  4.700000000000001E-003    7.447821810259455E-030
  4.800000000000001E-003    7.229766587444260E-030
  4.900000000000002E-003    6.243173384289618E-030
  5.000000000000001E-003    4.392440379218028E-030
  5.100000000000001E-003    1.644435629311654E-030
  5.200000000000001E-003   -1.952682856198291E-030
  5.300000000000002E-003   -6.254252414460727E-030
  5.400000000000001E-003   -1.100991699323902E-029
  5.500000000000001E-003   -1.586287213283899E-029
  5.600000000000002E-003   -2.035967717123298E-029
  5.700000000000001E-003   -2.397214719814773E-029
  5.800000000000001E-003   -2.613204752836805E-029
  5.900000000000002E-003   -2.627810050216579E-029
  6.000000000000001E-003   -2.391348997410741E-029
  6.100000000000001E-003   -1.867051878056445E-029
  6.200000000000002E-003   -1.037760519856529E-029
  6.300000000000002E-003    8.776497605799978E-031
  6.400000000000001E-003    1.469652948489282E-029
  6.500000000000001E-003    3.033626956822263E-029
  6.600000000000002E-003    4.670380215317842E-029
  6.700000000000001E-003    6.238293093190186E-029
  6.800000000000001E-003    7.569988789203621E-029
  6.900000000000002E-003    8.482937373580371E-029
  7.000000000000001E-003    8.793969778511444E-029
  7.100000000000001E-003    8.337121975580305E-029
  7.200000000000002E-003    6.983780217760562E-029
  7.300000000000002E-003    4.663611935001690E-029
  7.400000000000001E-003    1.384387751527814E-029
  7.500000000000001E-003   -2.751552188595831E-029
  7.600000000000002E-003   -7.536545068120988E-029
  7.700000000000001E-003   -1.265489897767408E-028
  7.800000000000001E-003   -1.769024846109906E-028
  7.900000000000001E-003   -2.214440936245968E-028
  8.000000000000002E-003   -2.546834260071466E-028
  8.100000000000001E-003   -2.710472692780268E-028
  8.200000000000001E-003   -2.654038775551980E-028
  8.300000000000002E-003   -2.336545974744765E-028
  8.400000000000001E-003   -1.733483808251792E-028
  8.500000000000002E-003   -8.426293450839155E-029
  8.600000000000002E-003    3.111210891250609E-029
  8.700000000000001E-003    1.672578300834519E-028
  8.800000000000002E-003    3.155406762805334E-028
  8.900000000000002E-003    4.644141949959527E-028
  9.000000000000001E-003    5.999472017416073E-028
  9.100000000000002E-003    7.066912030695510E-028
  9.200000000000002E-003    7.688708273884294E-028
  9.300000000000001E-003    7.718425439686656E-028
  9.400000000000002E-003    7.037317158800986E-028
  9.500000000000001E-003    5.571215070188770E-028
  9.600000000000001E-003    3.306358131648982E-028
  9.700000000000002E-003    3.023996879464709E-029
  9.800000000000001E-003   -3.299247701619056E-028
  9.900000000000001E-003   -7.273458864792651E-028
  1.000000000000000E-002   -1.131724197897928E-027
  1.010000000000000E-002   -1.506431406428044E-027
  1.020000000000000E-002   -1.810859227430817E-027
  1.030000000000000E-002   -2.003599518794799E-027
  1.040000000000000E-002   -2.046291394855420E-027
  1.050000000000000E-002   -1.907882911348843E-027
  1.060000000000000E-002   -1.568958410528657E-027
  1.070000000000000E-002   -1.025715582304612E-027
  1.080000000000000E-002   -2.931330104907602E-028
  1.090000000000000E-002    5.931334280569966E-028
  1.100000000000000E-002    1.576543715705686E-027
  1.110000000000000E-002    2.581484150322955E-027
  1.120000000000000E-002    3.517269427640664E-027
  1.130000000000000E-002    4.284333109063360E-027
  1.140000000000000E-002    4.782371059335655E-027
  1.150000000000000E-002    4.919969856771273E-027
  1.160000000000000E-002    4.625017035347455E-027
  1.170000000000000E-002    3.854981822451703E-027
  1.180000000000000E-002    2.606016489951013E-027
  1.190000000000000E-002    9.197576375924359E-028
  1.200000000000000E-002   -1.113250329137323E-027
  1.210000000000000E-002   -3.354427311213280E-027
  1.220000000000000E-002   -5.622973318216017E-027
  1.230000000000000E-002   -7.706864753828829E-027
  1.240000000000000E-002   -9.378791986082659E-027
  1.250000000000000E-002   -1.041624163425497E-026
  1.260000000000000E-002   -1.062437679615866E-026
  1.270000000000000E-002   -9.859827951958897E-027
  1.280000000000000E-002   -8.053127298955060E-027
  1.290000000000000E-002   -5.227252870003531E-027
  1.300000000000000E-002   -1.509738990101829E-027
  1.310000000000000E-002    2.863952290629616E-027
  1.320000000000000E-002    7.557577675759414E-027
  1.330000000000000E-002    1.215275072129147E-026
  1.340000000000000E-002    1.617901080112166E-026
  1.350000000000000E-002    1.915404103949562E-026
  1.360000000000000E-002    2.063150489918423E-026
  1.370000000000000E-002    2.025269998897101E-026
  1.380000000000000E-002    1.779724432065411E-026
  1.390000000000000E-002    1.322728917686742E-026
  1.400000000000000E-002    6.719530036717896E-027
  1.410000000000000E-002   -1.320334758326461E-027
  1.420000000000000E-002   -1.026513553077133E-026
  1.430000000000000E-002   -1.929847682634218E-026
  1.440000000000000E-002   -2.747235472082994E-026
  1.450000000000000E-002   -3.378807973868441E-026
  1.460000000000000E-002   -3.729570001434306E-026
  1.470000000000000E-002   -3.720423125522209E-026
  1.480000000000000E-002   -3.299266762637908E-026
  1.490000000000000E-002   -2.450987786522237E-026
  1.500000000000000E-002   -1.205078801765952E-026
  1.510000000000000E-002    3.603372589170548E-027
  1.520000000000000E-002    2.119107030838817E-026
  1.530000000000000E-002    3.902990707938429E-026
  1.540000000000000E-002    5.513182987007862E-026
  1.550000000000000E-002    6.737131206098050E-026
  1.560000000000000E-002    7.369686632821134E-026
  1.570000000000000E-002    7.237052407885348E-026
  1.580000000000000E-002    6.221383903208120E-026
  1.590000000000000E-002    4.283496760770230E-026
  1.600000000000000E-002    1.480884552180008E-026
  1.610000000000000E-002   -2.021706224397303E-026
  1.620000000000000E-002   -5.951566838492284E-026
  1.630000000000000E-002   -9.938944325125296E-026
  1.640000000000000E-002   -1.354043165461589E-025
  1.650000000000000E-002   -1.627442197397265E-025
  1.660000000000000E-002   -1.766691242160035E-025
  1.670000000000000E-002   -1.730450064950956E-025
  1.680000000000000E-002   -1.489014989811248E-025
  1.690000000000000E-002   -1.029622742254668E-025
  1.700000000000000E-002   -3.608684222668571E-026
  1.710000000000000E-002    4.843823444320505E-026
  1.720000000000000E-002    1.448156113678265E-025
  1.730000000000000E-002    2.449048383613835E-025
  1.740000000000000E-002    3.386667904547600E-025
  1.750000000000000E-002    4.148847927605039E-025
  1.760000000000000E-002    4.621344487299816E-025
  1.770000000000000E-002    4.699409000836669E-025
  1.780000000000000E-002    4.300364273852879E-025
  1.790000000000000E-002    3.376034910573611E-025
  1.800000000000000E-002    1.923719638913592E-025
  1.810000000000000E-002   -5.660039015928932E-028
  1.820000000000000E-002   -2.303535998956278E-025
  1.830000000000000E-002   -4.804888537889709E-025
  1.840000000000000E-002   -7.295371402773770E-025
  1.850000000000000E-002   -9.524600387268163E-025
  1.860000000000000E-002   -1.122524882579855E-024
  1.870000000000000E-002   -1.213693157808482E-024