 -4.000000000000000E-002    0.000000000000000E+000
 -3.990000000000000E-002    0.000000000000000E+000
 -3.980000000000000E-002    0.000000000000000E+000
 -3.970000000000000E-002    0.000000000000000E+000
 -3.960000000000000E-002    0.000000000000000E+000
 -3.950000000000000E-002    5.295845908762491E-020
 -3.940000000000000E-002    5.063112417943116E-019
 -3.930000000000000E-002    2.593936335624651E-018
 -3.920000000000000E-002    9.407051587661263E-018
 -3.910000000000000E-002    2.691759889423044E-017
 -3.900000000000000E-002    6.418177065607834E-017
 -3.890000000000000E-002    1.312623153833832E-016
 -3.880000000000000E-002    2.330282688218400E-016
 -3.870000000000000E-002    3.571239066826806E-016
 -3.860000000000000E-002    4.553169315829094E-016
 -3.850000000000000E-002    4.192785123280730E-016
 -3.840000000000000E-002    5.453634453890996E-017
 -3.830000000000000E-002   -9.404847849172611E-016
 -3.820000000000000E-002   -2.980398984307362E-015
 -3.810000000000000E-002   -6.571818266475385E-015
 -3.800000000000000E-002   -1.225330034050066E-014
 -3.790000000000000E-002   -2.048694129319434E-014
 -3.780000000000000E-002   -3.149821422163209E-014
 -3.770000000000000E-002   -4.506985941586898E-014
 -3.760000000000000E-002   -6.030745643219623E-014
 -3.750000000000000E-002   -7.540717282047624E-014
 -3.740000000000000E-002   -8.746838472932487E-014
 -3.730000000000000E-002   -9.240258007071096E-014
 -3.720000000000000E-002   -8.499283021547834E-014
 -3.710000000000000E-002   -5.915307579477372E-014
 -3.700000000000000E-002   -8.421789127161508E-015
 -3.690000000000000E-002    7.329956934355769E-014
 -3.680000000000000E-002    1.907853609916365E-013
 -3.670000000000000E-002    3.463615654082811E-013
 -3.660000000000000E-002    5.387170447546910E-013
 -3.650000000000000E-002    7.617832847845558E-013
 -3.640000000000000E-002    1.003838532264210E-012
 -3.630000000000000E-002    1.247002482767083E-012
 -3.620000000000000E-002    1.467273994695275E-012
 -3.610000000000000E-002    1.635234705793396E-012
 -3.600000000000000E-002    1.717485004739586E-012
 -3.590000000000000E-002    1.678811321016026E-012
 -3.580000000000000E-002    1.485002227061825E-012
 -3.570000000000000E-002    1.106149255546338E-012
 -3.560000000000000E-002    5.201957609846812E-013
 -3.550000000000000E-002   -2.835592396169306E-013
 -3.540000000000000E-002   -1.301321003338770E-012
 -3.530000000000000E-002   -2.512340610401224E-012
 -3.520000000000000E-002   -3.877418418200438E-012
 -3.510000000000000E-002   -5.338578967361502E-012
 -3.500000000000000E-002   -6.820042032929261E-012
 -3.490000000000000E-002   -8.230505354749159E-012
 -3.480000000000000E-002   -9.466654211405525E-012
 -3.470000000000000E-002   -1.041772294709096E-011
 -3.460000000000000E-002   -1.097086665471252E-011
 -3.450000000000000E-002   -1.101706275910524E-011
 -3.440000000000000E-002   -1.045726882132281E-011
 -3.430000000000000E-002   -9.208587299202735E-012
 -3.420000000000000E-002   -7.210238310103667E-012
 -3.410000000000000E-002   -4.429191179256756E-012
 -3.400000000000000E-002   -8.653682418638833E-013
 -3.390000000000000E-002    3.443658507662413E-012
 -3.380000000000000E-002    8.418562377447046E-012
 -3.370000000000000E-002    1.393489718515222E-011
 -3.360000000000000E-002    1.982070459826901E-011
 -3.350000000000000E-002    2.585546340135269E-011
 -3.340000000000000E-002    3.177085170205685E-011
 -3.330000000000000E-002    3.725394811724526E-011
 -3.320000000000000E-002    4.195348320843512E-011
 -3.310000000000000E-002    4.548977995341033E-011
 -3.300000000000000E-002    4.746886635816835E-011
 -3.290000000000000E-002    4.750096010634522E-011
 -3.280000000000000E-002    4.522321733244818E-011
 -3.270000000000000E-002    4.032611743863054E-011
 -3.260000000000000E-002    3.258234992187111E-011
 -3.250000000000000E-002    2.187657717627139E-011
 -3.240000000000000E-002    8.233933484901981E-012
 -3.230000000000000E-002   -8.155185957272361E-012
 -3.220000000000000E-002   -2.691668147394058E-011
 -3.210000000000000E-002   -4.748319747362244E-011
 -3.200000000000000E-002   -6.909572582382714E-011
 -3.190000000000000E-002   -9.081795730358442E-011
 -3.180000000000000E-002   -1.115643489353287E-010
 -3.170000000000000E-002   -1.301416284653099E-010
 -3.160000000000000E-002   -1.453027377675050E-010
 -3.150000000000000E-002   -1.558107910543682E-010
 -3.140000000000000E-002   -1.605099216029707E-010
 -3.130000000000000E-002   -1.583989919674267E-010
 -3.120000000000000E-002   -1.487036700724758E-010
 -3.110000000000000E-002   -1.309422025316110E-010
 -3.100000000000000E-002   -1.049804106058894E-010
 -3.090000000000000E-002   -7.107191228497137E-011
 -3.080000000000000E-002   -2.988039466432565E-011
 -3.070000000000000E-002    1.751816634060960E-011
 -3.060000000000000E-002    6.965431797820343E-011
 -3.050000000000000E-002    1.247047387528815E-010
 -3.040000000000000E-002    1.805511737620281E-010
 -3.030000000000000E-002    2.348564490858923E-010
 -3.020000000000000E-002    2.851541127088000E-010
 -3.010000000000000E-002    3.289480613336368E-010
 -3.000000000000000E-002    3.638177825187953E-010
 -2.990000000000000E-002    3.875250979347115E-010
 -2.980000000000000E-002    3.981179951710366E-010
 -2.970000000000000E-002    3.940275012384703E-010
 -2.960000000000000E-002    3.741538522265222E-010
 -2.950000000000000E-002    3.379384313662072E-010
 -2.940000000000000E-002    2.854185793701060E-010
 -2.930000000000000E-002    2.172627810929428E-010
 -2.920000000000000E-002    1.347838266987219E-010
 -2.910000000000000E-002    3.992879781531678E-011
 -2.900000000000000E-002   -6.475519874102966E-011
 -2.890000000000000E-002   -1.761794962480326E-010
 -2.880000000000000E-002   -2.907960019561617E-010
 -2.870000000000000E-002   -4.047010463647390E-010
 -2.860000000000000E-002   -5.137583383959483E-010
 -2.850000000000000E-002   -6.137375382978320E-010
 -2.840000000000000E-002   -7.004634057324277E-010
 -2.830000000000000E-002   -7.699706576315621E-010
 -2.820000000000000E-002   -8.186585429048219E-010
 -2.810000000000000E-002   -8.434391341810344E-010
 -2.800000000000000E-002   -8.418734794592365E-010
 -2.790000000000000E-002   -8.122901977374121E-010
 -2.780000000000000E-002   -7.538819614533399E-010
 -2.770000000000000E-002   -6.667755662695762E-010
 -2.760000000000000E-002   -5.520734757303468E-010
 -2.750000000000000E-002   -4.118641185353605E-010
 -2.740000000000000E-002   -2.492005219990064E-010
 -2.730000000000000E-002   -6.804684145001190E-011
 -2.720000000000000E-002    1.268070769141896E-010
 -2.710000000000000E-002    3.298623796762927E-010
 -2.700000000000000E-002    5.350576918684968E-010
 -2.690000000000000E-002    7.359439660710428E-010
 -2.680000000000000E-002    9.258853806719902E-010
 -2.670000000000000E-002    1.098282599117857E-009
 -2.660000000000000E-002    1.246813343960588E-009
 -2.650000000000000E-002    1.365683563500668E-009
 -2.640000000000000E-002    1.449879730357950E-009
 -2.630000000000000E-002    1.495410774592886E-009
 -2.620000000000000E-002    1.499526145263552E-009
 -2.610000000000000E-002    1.460893928132854E-009
 -2.600000000000000E-002    1.379723816628372E-009
 -2.590000000000000E-002    1.257819300059410E-009
 -2.580000000000000E-002    1.098545489688805E-009
 -2.570000000000000E-002    9.067057252273917E-010
 -2.560000000000000E-002    6.883213043456372E-010
 -2.550000000000000E-002    4.503226460053169E-010
 -2.540000000000000E-002    2.001620400822278E-010
 -2.530000000000000E-002   -5.462821968494399E-011
 -2.520000000000000E-002   -3.069016623101419E-010
 -2.510000000000000E-002   -5.503526389655459E-010
 -2.500000000000000E-002   -7.799175671338037E-010
 -2.490000000000000E-002   -9.920820143729722E-010
 -2.480000000000000E-002   -1.185056655067733E-009
 -2.470000000000000E-002   -1.358790127575127E-009
 -2.460000000000000E-002   -1.514801380607950E-009
 -2.450000000000000E-002   -1.655827984479012E-009
 -2.440000000000000E-002   -1.785303109278683E-009
 -2.430000000000000E-002   -1.906694346561953E-009
 -2.420000000000000E-002   -2.022751738645528E-009
 -2.410000000000000E-002   -2.134729619523106E-009
 -2.400000000000000E-002   -2.241653977533964E-009
 -2.390000000000000E-002   -2.339714925020369E-009
 -2.380000000000000E-002   -2.421859057401071E-009
 -2.370000000000000E-002   -2.477646071257983E-009
 -2.360000000000000E-002   -2.493421256709903E-009
 -2.350000000000000E-002   -2.452829571750480E-009
 -2.340000000000000E-002   -2.337674318883750E-009
 -2.330000000000000E-002   -2.129090636920594E-009
 -2.320000000000000E-002   -1.808981411450017E-009
 -2.310000000000000E-002   -1.361633260210809E-009
 -2.300000000000000E-002   -7.754114245230238E-010
 -2.290000000000000E-002   -4.442028292408837E-011
 -2.280000000000000E-002    8.299891034552127E-010
 -2.270000000000000E-002    1.837981820371932E-009
 -2.260000000000000E-002    2.960376238043422E-009
 -2.250000000000000E-002    4.168237098149324E-009
 -2.240000000000000E-002    5.422982231294196E-009
 -2.230000000000000E-002    6.677038129058084E-009
 -2.220000000000000E-002    7.875038195633067E-009
 -2.210000000000000E-002    8.955539620642378E-009
 -2.200000000000000E-002    9.853203351606545E-009
 -2.190000000000000E-002    1.050136604257857E-008
 -2.180000000000000E-002    1.083491847056397E-008
 -2.170000000000000E-002    1.079340651895043E-008
 -2.160000000000000E-002    1.032425198283115E-008
 -2.150000000000000E-002    9.386022356874066E-009
 -2.140000000000000E-002    7.951670205919485E-009
 -2.130000000000000E-002    6.011672251121911E-009
 -2.120000000000000E-002    3.577020167941943E-009
 -2.110000000000000E-002    6.820240965338222E-010
 -2.100000000000000E-002   -2.613132156455160E-009
 -2.090000000000000E-002   -6.220111203370001E-009
 -2.080000000000000E-002   -1.002044910135466E-008
 -2.070000000000000E-002   -1.386398636099218E-008
 -2.060000000000000E-002   -1.756768466401027E-008
 -2.050000000000000E-002   -2.091499436815460E-008
 -2.040000000000000E-002   -2.365577240949956E-008
 -2.030000000000000E-002   -2.550683799430960E-008
 -2.020000000000000E-002   -2.615329217992759E-008
 -2.010000000000000E-002   -2.525059483128013E-008
 -2.000000000000000E-002   -2.242744991388279E-008
 -1.990000000000000E-002   -1.728961674874824E-008
 -1.980000000000000E-002   -9.424429489847228E-009
 -1.970000000000000E-002    1.593755429393234E-009
 -1.960000000000000E-002    1.619757156077460E-008
 -1.950000000000000E-002    3.482002422011253E-008
 -1.940000000000000E-002    5.788750834111938E-008
 -1.930000000000000E-002    8.581264590794940E-008
 -1.920000000000000E-002    1.189871071449970E-007
 -1.910000000000000E-002    1.577748732170655E-007
 -1.900000000000000E-002    2.025060065859768E-007
 -1.890000000000000E-002    2.534710602434421E-007
 -1.880000000000000E-002    3.109167867896731E-007
 -1.870000000000000E-002    3.750430316285062E-007
 -1.860000000000000E-002    4.460011221136359E-007
 -1.850000000000000E-002    5.238940282629343E-007
 -1.840000000000000E-002    6.087782407608048E-007
 -1.830000000000000E-002    7.006675343398049E-007
 -1.820000000000000E-002    7.995388585935054E-007
 -1.810000000000000E-002    9.053399504089315E-007
 -1.800000000000000E-002    1.017998935247474E-006
 -1.790000000000000E-002    1.137435540357150E-006
 -1.780000000000000E-002    1.263573663645014E-006
 -1.770000000000000E-002    1.396355247401032E-006
 -1.760000000000000E-002    1.535754671403164E-006
 -1.750000000000000E-002    1.681793905415159E-006
 -1.740000000000000E-002    1.834556635864536E-006
 -1.730000000000000E-002    1.994202464069401E-006
 -1.720000000000000E-002    2.160979197696126E-006
 -1.710000000000000E-002    2.335233801353966E-006
 -1.700000000000000E-002    2.517420121858074E-006
 -1.690000000000000E-002    2.708105101351952E-006
 -1.680000000000000E-002    2.907970938425717E-006
 -1.670000000000000E-002    3.117814397520761E-006
 -1.660000000000000E-002    3.338542327395679E-006
 -1.650000000000000E-002    3.571164868894326E-006
 -1.640000000000000E-002    3.816786628087838E-006
 -1.630000000000000E-002    4.076592756415578E-006
 -1.620000000000000E-002    4.351836329940174E-006
 -1.610000000000000E-002    4.643824597618429E-006
 -1.600000000000000E-002    4.953903475875420E-006
 -1.590000000000000E-002    5.283445453075437E-006
 -1.580000000000000E-002    5.633836782215169E-006
 -1.570000000000000E-002    6.006468831161588E-006
 -1.560000000000000E-002    6.402731606477388E-006
 -1.550000000000000E-002    6.824011926161017E-006
 -1.540000000000000E-002    7.271692852458825E-006
 -1.530000000000000E-002    7.747158514816877E-006
 -1.520000000000000E-002    8.251801707650641E-006
 -1.510000000000000E-002    8.787034777132247E-006
 -1.500000000000000E-002    9.354302242140307E-006
 -1.490000000000000E-002    9.955094019846286E-006
 -1.480000000000000E-002    1.059096123312633E-005
 -1.470000000000000E-002    1.126353229403153E-005
 -1.460000000000000E-002    1.197452627890081E-005
 -1.450000000000000E-002    1.272576434820495E-005
 -1.440000000000000E-002    1.351918327184338E-005
 -1.430000000000000E-002    1.435684736881965E-005
 -1.420000000000000E-002    1.524095113863446E-005
 -1.410000000000000E-002    1.617383009636165E-005
 -1.400000000000000E-002    1.715796381297775E-005
 -1.390000000000000E-002    1.819597712837379E-005
 -1.380000000000000E-002    1.929064853943033E-005
 -1.370000000000000E-002    2.044490909383094E-005
 -1.360000000000000E-002    2.166184881202240E-005
 -1.350000000000000E-002    2.294472078296416E-005
 -1.340000000000000E-002    2.429694739937446E-005
 -1.330000000000000E-002    2.572212573564982E-005
 -1.320000000000000E-002    2.722403881953125E-005
 -1.310000000000000E-002    2.880665882589902E-005
 -1.300000000000000E-002    3.047416322969443E-005
 -1.290000000000000E-002    3.223094135070437E-005
 -1.280000000000000E-002    3.408160217762388E-005
 -1.270000000000000E-002    3.603098149956865E-005
 -1.260000000000000E-002    3.808415471908421E-005
 -1.250000000000000E-002    4.024643068897759E-005
 -1.240000000000000E-002    4.252336808250618E-005
 -1.230000000000000E-002    4.492076295617610E-005
 -1.220000000000000E-002    4.744465885168295E-005
 -1.210000000000000E-002    5.010133604049479E-005
 -1.200000000000000E-002    5.289732111518103E-005
 -1.190000000000000E-002    5.583937098429186E-005
 -1.180000000000000E-002    5.893448018446701E-005
 -1.170000000000000E-002    6.218988623147594E-005
 -1.160000000000000E-002    6.561305741855495E-005
 -1.150000000000000E-002    6.921171795622403E-005
 -1.140000000000000E-002    7.299383692193842E-005
 -1.130000000000000E-002    7.696766763099328E-005
 -1.120000000000000E-002    8.114174368940842E-005
 -1.110000000000000E-002    8.552491373259802E-005
 -1.100000000000000E-002    9.012635235583671E-005
 -1.090000000000000E-002    9.495560849691070E-005
 -1.080000000000000E-002    1.000226013437647E-004
 -1.070000000000000E-002    1.053376891471415E-004
 -1.060000000000000E-002    1.109116645832922E-004
 -1.050000000000000E-002    1.167557944717047E-004
 -1.040000000000000E-002    1.228818538613898E-004
 -1.030000000000000E-002    1.293021220787107E-004
 -1.020000000000000E-002    1.360294304867495E-004
 -1.010000000000000E-002    1.430771542989457E-004
 -1.000000000000000E-002    1.504592470729815E-004
 -9.899999999999999E-003    1.581902231723028E-004
 -9.800000000000000E-003    1.662851722875294E-004
 -9.699999999999999E-003    1.747597753951981E-004
 -9.599999999999999E-003    1.836302823631535E-004
 -9.500000000000000E-003    1.929135198133102E-004
 -9.399999999999999E-003    2.026269227563894E-004
 -9.299999999999999E-003    2.127884935568986E-004
 -9.200000000000000E-003    2.234168109475266E-004
 -9.099999999999999E-003    2.345310494754366E-004
 -8.999999999999999E-003    2.461509880607770E-004
 -8.900000000000000E-003    2.582970090523586E-004
 -8.799999999999999E-003    2.709901099518399E-004
 -8.699999999999999E-003    2.842519462365388E-004
 -8.600000000000000E-003    2.981048022734398E-004
 -8.499999999999999E-003    3.125716508230929E-004
 -8.399999999999999E-003    3.276761805852808E-004
 -8.300000000000000E-003    3.434427756258748E-004
 -8.199999999999999E-003    3.598966148949768E-004
 -8.100000000000000E-003    3.770636448188080E-004
 -8.000000000000000E-003    3.949706553446493E-004
 -7.899999999999999E-003    4.136452256191805E-004
 -7.800000000000000E-003    4.331158423769826E-004
 -7.699999999999999E-003    4.534118664166591E-004
 -7.599999999999999E-003    4.745636274335090E-004
 -7.499999999999999E-003    4.966023867824459E-004
 -7.399999999999999E-003    5.195603867915330E-004
 -7.299999999999999E-003    5.434708366875511E-004
 -7.199999999999999E-003    5.683679901760935E-004
 -7.100000000000000E-003    5.942871130729235E-004
 -6.999999999999999E-003    6.212644836937909E-004
 -6.899999999999999E-003    6.493374155319806E-004
 -6.800000000000000E-003    6.785443536992533E-004
 -6.699999999999999E-003    7.089246778184137E-004
 -6.599999999999999E-003    7.405188376024845E-004
 -6.499999999999999E-003    7.733683288934849E-004
 -6.399999999999999E-003    8.075156250674531E-004
 -6.299999999999999E-003    8.430042426187741E-004
 -6.199999999999999E-003    8.798786870381199E-004
 -6.100000000000000E-003    9.181844136775166E-004
 -5.999999999999999E-003    9.579678803179647E-004
 -5.899999999999999E-003    9.992765675930335E-004
 -5.800000000000000E-003    1.042158831204575E-003
 -5.699999999999999E-003    1.086664073880656E-003
 -5.599999999999999E-003    1.132842606782434E-003
 -5.499999999999999E-003    1.180745784642281E-003
 -5.399999999999999E-003    1.230425856864355E-003
 -5.299999999999999E-003    1.281936140357599E-003
 -5.199999999999999E-003    1.335331060240754E-003
 -5.099999999999999E-003    1.390665983204714E-003
 -4.999999999999999E-003    1.447997447509244E-003
 -4.899999999999999E-003    1.507382918844474E-003
 -4.799999999999999E-003    1.568881165230966E-003
 -4.699999999999999E-003    1.632551957559244E-003
 -4.599999999999999E-003    1.698456403783144E-003
 -4.499999999999999E-003    1.766656567062872E-003
 -4.399999999999999E-003    1.837215740794999E-003
 -4.299999999999999E-003    1.910198306564214E-003
 -4.199999999999999E-003    1.985669845143011E-003
 -4.099999999999999E-003    2.063697054631774E-003
 -3.999999999999999E-003    2.144347683849719E-003
 -3.899999999999999E-003    2.227690468720327E-003
 -3.799999999999999E-003    2.313795029530376E-003
 -3.699999999999999E-003    2.402731984683776E-003
 -3.599999999999999E-003    2.494572884652177E-003
 -3.499999999999999E-003    2.589389992910063E-003
 -3.399999999999999E-003    2.687256163552494E-003
 -3.299999999999999E-003    2.788245010899709E-003
 -3.199999999999999E-003    2.892430519953112E-003
 -3.099999999999999E-003    2.999887086792660E-003
 -2.999999999999999E-003    3.110689768834381E-003
 -2.899999999999999E-003    3.224913978365365E-003
 -2.799999999999999E-003    3.342634964060457E-003
 -2.699999999999999E-003    3.463928689419618E-003
 -2.599999999999999E-003    3.588871156876384E-003
 -2.499999999999999E-003    3.717538581583154E-003
 -2.399999999999999E-003    3.850007062627098E-003
 -2.299999999999999E-003    3.986353060166745E-003
 -2.199999999999999E-003    4.126652869817265E-003
 -2.099999999999999E-003    4.270982615916661E-003
 -1.999999999999999E-003    4.419418477465470E-003
 -1.899999999999999E-003    4.572036498033860E-003
 -1.799999999999999E-003    4.728912571150073E-003
 -1.699999999999999E-003    4.890122708911758E-003
 -1.599999999999999E-003    5.055741934529682E-003
 -1.499999999999999E-003    5.225845119130951E-003
 -1.399999999999999E-003    5.400506909900371E-003
 -1.299999999999999E-003    5.579801164945840E-003
 -1.199999999999999E-003    5.763800977822532E-003
 -1.099999999999999E-003    5.952578608192212E-003
 -9.999999999999989E-004    6.146205323818683E-003
 -8.999999999999990E-004    6.344751572818576E-003
 -7.999999999999990E-004    6.548286472995702E-003
 -6.999999999999989E-004    6.756878164356080E-003
 -5.999999999999990E-004    6.970592479573738E-003
 -4.999999999999989E-004    7.189493329828781E-003
 -3.999999999999989E-004    7.413644148384545E-003
 -2.999999999999989E-004    7.643105070043209E-003
 -1.999999999999989E-004    7.877934187353570E-003
 -9.999999999999892E-005    8.118188167622714E-003
  1.084202172485504E-018    8.363920550451310E-003
  1.000000000000011E-004    8.615182345245017E-003
  2.000000000000011E-004    8.872021399062693E-003
  3.000000000000011E-004    9.134484021496751E-003
  4.000000000000011E-004    9.402611019345669E-003
  5.000000000000011E-004    9.676442922442689E-003
  6.000000000000011E-004    9.956013958792833E-003
  7.000000000000011E-004    1.024135734869656E-002
  8.000000000000011E-004    1.053250142353466E-002
  9.000000000000012E-004    1.082946985961879E-002
  1.000000000000001E-003    1.113228414846976E-002
  1.100000000000001E-003    1.144096072763372E-002
  1.200000000000001E-003    1.175551092081190E-002
  1.300000000000001E-003    1.207594328242301E-002
  1.400000000000001E-003    1.240226168583834E-002
  1.500000000000001E-003    1.273446341433735E-002
  1.600000000000001E-003    1.307254197399876E-002
  1.700000000000001E-003    1.341648618228830E-002
  1.800000000000001E-003    1.376627928163770E-002
  1.900000000000001E-003    1.412189844527902E-002
  2.000000000000001E-003    1.448331558298937E-002
  2.100000000000001E-003    1.485049680510312E-002
  2.200000000000001E-003    1.522340139690170E-002
  2.300000000000001E-003    1.560198416381166E-002
  2.400000000000001E-003    1.598619236124283E-002
  2.500000000000001E-003    1.637596590568217E-002
  2.600000000000001E-003    1.677124006279455E-002
  2.700000000000001E-003    1.717194157542153E-002
  2.800000000000001E-003    1.757798952529539E-002
  2.900000000000001E-003    1.798929823145422E-002
  3.000000000000001E-003    1.840577240638713E-002
  3.100000000000001E-003    1.882730858140786E-002
  3.200000000000001E-003    1.925379834870648E-002
  3.300000000000001E-003    1.968512097741303E-002
  3.400000000000001E-003    2.012115247395675E-002
  3.500000000000001E-003    2.056175699011505E-002
  3.600000000000001E-003    2.100679322693975E-002
  3.700000000000001E-003    2.145610872407514E-002
  3.800000000000001E-003    2.190954304196278E-002
  3.900000000000001E-003    2.236692661936109E-002
  4.000000000000001E-003    2.282808328953297E-002
  4.100000000000001E-003    2.329282592916697E-002
  4.200000000000001E-003    2.376095904582523E-002
  4.300000000000001E-003    2.423227850678366E-002
  4.400000000000001E-003    2.470656971061852E-002
  4.500000000000001E-003    2.518360940458505E-002
  4.600000000000002E-003    2.566316650126241E-002
  4.700000000000001E-003    2.614499740005444E-002
  4.800000000000001E-003    2.662885251511000E-002
  4.900000000000002E-003    2.711447143120566E-002
  5.000000000000001E-003    2.760158432264595E-002
  5.100000000000001E-003    2.808991324404293E-002
  5.200000000000001E-003    2.857916716952047E-002
  5.300000000000002E-003    2.906905077313326E-002
  5.400000000000001E-003    2.955925429207183E-002
  5.500000000000001E-003    3.004946246686187E-002
  5.600000000000002E-003    3.053934851229427E-002
  5.700000000000001E-003    3.102857687184580E-002
  5.800000000000001E-003    3.151680276887023E-002
  5.900000000000002E-003    3.200367383792539E-002
  6.000000000000001E-003    3.248882519653792E-002
  6.100000000000001E-003    3.297188438261586E-002
  6.200000000000002E-003    3.345247239319491E-002
  6.300000000000002E-003    3.393019767241331E-002
  6.400000000000001E-003    3.440466286270023E-002
  6.500000000000001E-003    3.487546149793014E-002
  6.600000000000002E-003    3.534217636370374E-002
  6.700000000000001E-003    3.580438444079578E-002
  6.800000000000001E-003    3.626165605523351E-002
  6.900000000000002E-003    3.671355143455737E-002
  7.000000000000001E-003    3.715962406804224E-002
  7.100000000000001E-003    3.759941925767178E-002
  7.200000000000002E-003    3.803248043693883E-002
  7.300000000000002E-003    3.845833749674030E-002
  7.400000000000001E-003    3.887651649367729E-002
  7.500000000000001E-003    3.928653809171612E-002
  7.600000000000002E-003    3.968791439144385E-002
  7.700000000000001E-003    4.008015882947907E-002
  7.800000000000001E-003    4.046277511118625E-002
  7.900000000000001E-003    4.083526229243027E-002
  8.000000000000002E-003    4.119711500686513E-002
  8.100000000000001E-003    4.154782435518443E-002
  8.200000000000001E-003    4.188687875889534E-002
  8.300000000000002E-003    4.221376632246834E-002
  8.400000000000001E-003    4.252796433756850E-002
  8.500000000000002E-003    4.282895783036813E-002
  8.600000000000002E-003    4.311622349792223E-002
  8.700000000000001E-003    4.338923638534689E-002
  8.800000000000002E-003    4.364747341767888E-002
  8.900000000000002E-003    4.389040969370030E-002
  9.000000000000001E-003    4.411752323727078E-002
  9.100000000000002E-003    4.432828734004345E-002
  9.200000000000002E-003    4.452218080143239E-002
  9.300000000000001E-003    4.469868361034710E-002
  9.400000000000002E-003    4.485727843825787E-002
  9.500000000000001E-003    4.499744941460401E-002
  9.600000000000001E-003    4.511868195863608E-002
  9.700000000000002E-003    4.522046815884150E-002
  9.800000000000001E-003    4.530230608957378E-002
  9.900000000000001E-003    4.536369755601648E-002
  1.000000000000000E-002    4.540414927788910E-002
  1.010000000000000E-002    4.542317442546919E-002
  1.020000000000000E-002    4.542029208410502E-002
  1.030000000000000E-002    4.539503181587576E-002
  1.040000000000000E-002    4.534692857405405E-002
  1.050000000000000E-002    4.527552765301426E-002
  1.060000000000000E-002    4.518038288951366E-002
  1.070000000000000E-002    4.506106180830174E-002
  1.080000000000000E-002    4.491713628177951E-002
  1.090000000000000E-002    4.474819495026450E-002
  1.100000000000000E-002    4.455383224761326E-002
  1.110000000000000E-002    4.433365826920725E-002
  1.120000000000000E-002    4.408729926558183E-002
  1.130000000000000E-002    4.381439197630288E-002
  1.140000000000000E-002    4.351458636687897E-002
  1.150000000000000E-002    4.318754798868467E-002
  1.160000000000000E-002    4.283295679502543E-002
  1.170000000000000E-002    4.245051246138881E-002
  1.180000000000000E-002    4.203992318486394E-002
  1.190000000000000E-002    4.160092119701779E-002
  1.200000000000000E-002    4.113324933611996E-002
  1.210000000000000E-002    4.063667595359802E-002
  1.220000000000000E-002    4.011097910795477E-002
  1.230000000000000E-002    3.955595813930961E-002
  1.240000000000000E-002    3.897143516538208E-002
  1.250000000000000E-002    3.835725252712608E-002
  1.260000000000000E-002    3.771326578535185E-002
  1.270000000000000E-002    3.703935703905893E-002
  1.280000000000000E-002    3.633542741303165E-002
  1.290000000000000E-002    3.560139715562537E-002
  1.300000000000000E-002    3.483721038214926E-002
  1.310000000000000E-002    3.404283506928890E-002
  1.320000000000000E-002    3.321825780207249E-002
  1.330000000000000E-002    3.236348843320049E-002
  1.340000000000000E-002    3.147856180877921E-002
  1.350000000000000E-002    3.056353386094813E-002
  1.360000000000000E-002    2.961848468543027E-002
  1.370000000000000E-002    2.864351951050759E-002
  1.380000000000000E-002    2.763876360561358E-002
  1.390000000000000E-002    2.660436758823714E-002
  1.400000000000000E-002    2.554050718735175E-002
  1.410000000000000E-002    2.444737935096705E-002
  1.420000000000000E-002    2.332520618387408E-002
  1.430000000000000E-002    2.217423567897611E-002
  1.440000000000000E-002    2.099473508882772E-002
  1.450000000000000E-002    1.978699981370796E-002
  1.460000000000000E-002    1.855134621181060E-002
  1.470000000000000E-002    1.728811566664804E-002
  1.480000000000000E-002    1.599767076323299E-002
  1.490000000000000E-002    1.468039842903312E-002
  1.500000000000000E-002    1.333670892926408E-002
  1.510000000000000E-002    1.196703313945062E-002
  1.520000000000000E-002    1.057182531436077E-002
  1.530000000000000E-002    9.151562353626286E-003
  1.540000000000000E-002    7.706740758806533E-003
  1.550000000000000E-002    6.237879749240766E-003
  1.560000000000000E-002    4.745519028880669E-003
  1.570000000000000E-002    3.230218101181957E-003
  1.580000000000000E-002    1.692555978924009E-003
  1.590000000000000E-002    1.331327413895297E-004
  1.600000000000000E-002   -1.447434732210552E-003
  1.610000000000000E-002   -3.048508792613848E-003
  1.620000000000000E-002   -4.669436630965414E-003
  1.630000000000000E-002   -6.309545812721019E-003
  1.640000000000000E-002   -7.968149641564488E-003
  1.650000000000000E-002   -9.644544643350940E-003
  1.660000000000000E-002   -1.133801049247489E-002
  1.670000000000000E-002   -1.304781478146467E-002
  1.680000000000000E-002   -1.477321079054970E-002
  1.690000000000000E-002   -1.651343968198934E-002
  1.700000000000000E-002   -1.826772986399529E-002
  1.710000000000000E-002   -2.003529849225319E-002
  1.720000000000000E-002   -2.181535112040684E-002
  1.730000000000000E-002   -2.360708681278954E-002
  1.740000000000000E-002   -2.540969357133363E-002
  1.750000000000000E-002   -2.722235476611320E-002
  1.760000000000000E-002   -2.904424386916830E-002
  1.770000000000000E-002   -3.087452978722464E-002
  1.780000000000000E-002   -3.271237703089990E-002
  1.790000000000000E-002   -3.455694823054774E-002
  1.800000000000000E-002   -3.640739839476095E-002
  1.810000000000000E-002   -3.826288494090266E-002
  1.820000000000000E-002   -4.012256009897848E-002
  1.830000000000000E-002   -4.198558067887254E-002
  1.840000000000000E-002   -4.385110242470463E-002
  1.850000000000000E-002   -4.571828436999140E-002
  1.860000000000000E-002   -4.758628727257506E-002
  1.870000000000000E-002   -4.945427642960336E-002