 -4.000000000000000E-002    0.000000000000000E+000
 -3.990000000000000E-002    0.000000000000000E+000
 -3.980000000000000E-002    0.000000000000000E+000
 -3.970000000000000E-002    0.000000000000000E+000
 -3.960000000000000E-002    0.000000000000000E+000
 -3.950000000000000E-002    0.000000000000000E+000
 -3.940000000000000E-002    0.000000000000000E+000
 -3.930000000000000E-002    0.000000000000000E+000
 -3.920000000000000E-002    0.000000000000000E+000
 -3.910000000000000E-002    0.000000000000000E+000
 -3.900000000000000E-002    0.000000000000000E+000
 -3.890000000000000E-002   -3.438775426780636E-037
 -3.880000000000000E-002   -7.073332914365941E-036
 -3.870000000000000E-002   -7.493521525256894E-035
 -3.860000000000000E-002   -5.437133785582540E-034
 -3.850000000000000E-002   -3.030967975142289E-033
 -3.840000000000000E-002   -1.380234712433817E-032
 -3.830000000000000E-002   -5.328188863085467E-032
 -3.820000000000000E-002   -1.785148604120236E-031
 -3.810000000000000E-002   -5.266540604384598E-031
 -3.800000000000000E-002   -1.377741061066980E-030
 -3.790000000000000E-002   -3.191618665432688E-030
 -3.780000000000000E-002   -6.452046083369531E-030
 -3.770000000000000E-002   -1.087671103118568E-029
 -3.760000000000000E-002   -1.302244716037596E-029
 -3.750000000000000E-002   -4.237536680958241E-031
 -3.740000000000000E-002    6.089849587122720E-029
 -3.730000000000000E-002    2.503027715710632E-028
 -3.720000000000000E-002    7.338812570812907E-028
 -3.710000000000000E-002    1.829492954586518E-027
 -3.700000000000000E-002    4.098549344656158E-027
 -3.690000000000000E-002    8.458534178397256E-027
 -3.680000000000000E-002    1.629168937675372E-026
 -3.670000000000000E-002    2.949388207663945E-026
 -3.660000000000000E-002    5.036159382713588E-026
 -3.650000000000000E-002    8.115631018704834E-026
 -3.640000000000000E-002    1.231234826401152E-025
 -3.630000000000000E-002    1.746974207981370E-025
 -3.620000000000000E-002    2.286264556862042E-025
 -3.610000000000000E-002    2.678505322307820E-025
 -3.600000000000000E-002    2.602118122738380E-025
 -3.590000000000000E-002    1.525320960806936E-025
 -3.580000000000000E-002   -1.347161172671808E-025
 -3.570000000000000E-002   -7.099941329305283E-025
 -3.560000000000000E-002   -1.707323074797651E-024
 -3.550000000000000E-002   -3.272725495681721E-024
 -3.540000000000000E-002   -5.535639752668453E-024
 -3.530000000000000E-002   -8.560684959695430E-024
 -3.520000000000000E-002   -1.227679876418089E-023
 -3.510000000000000E-002   -1.638435340264515E-023
 -3.500000000000000E-002   -2.024685968682961E-023
 -3.490000000000000E-002   -2.278225871805236E-023
 -3.480000000000000E-002   -2.237913701412371E-023
 -3.470000000000000E-002   -1.687405521926367E-023
 -3.460000000000000E-002   -3.635165454745859E-024
 -3.450000000000000E-002    2.019878529978320E-023
 -3.440000000000000E-002    5.728043363258946E-023
 -3.430000000000000E-002    1.093917718227295E-022
 -3.420000000000000E-002    1.765687994324129E-022
 -3.410000000000000E-002    2.560770403986256E-022
 -3.400000000000000E-002    3.413710272937674E-022
 -3.390000000000000E-002    4.212481254391641E-022
 -3.380000000000000E-002    4.794785187722381E-022
 -3.370000000000000E-002    4.952399369585964E-022
 -3.360000000000000E-002    4.446825985851929E-022
 -3.350000000000000E-002    3.038719664373025E-022
 -3.340000000000000E-002    5.318153319560601E-023
 -3.330000000000000E-002   -3.170762344763223E-022
 -3.320000000000000E-002   -8.003764855004855E-022
 -3.310000000000000E-002   -1.368114720509472E-021
 -3.300000000000000E-002   -1.965644525879409E-021
 -3.290000000000000E-002   -2.512069289355595E-021
 -3.280000000000000E-002   -2.905757843003797E-021
 -3.270000000000000E-002   -3.037291989231993E-021
 -3.260000000000000E-002   -2.810801403992326E-021
 -3.250000000000000E-002   -2.173264488378577E-021
 -3.240000000000000E-002   -1.149384598241057E-021
 -3.230000000000000E-002    1.228082661613876E-022
 -3.220000000000000E-002    1.363187662135542E-021
 -3.210000000000000E-002    2.137589527009905E-021
 -3.200000000000000E-002    1.874361346321310E-021
 -3.190000000000000E-002   -7.889590898758745E-023
 -3.180000000000000E-002   -4.348891256592905E-021
 -3.170000000000000E-002   -1.137618750001686E-020
 -3.160000000000000E-002   -2.120491835932173E-020
 -3.150000000000000E-002   -3.323841479806083E-020
 -3.140000000000000E-002   -4.599073726134416E-020
 -3.130000000000000E-002   -5.687900510183409E-020
 -3.120000000000000E-002   -6.211508872177433E-020
 -3.110000000000000E-002   -5.676443634803942E-020
 -3.100000000000000E-002   -3.504114439788316E-020
 -3.090000000000000E-002    9.101719100434611E-021
 -3.080000000000000E-002    8.105172267199532E-020
 -3.070000000000000E-002    1.842920045349495E-019
 -3.060000000000000E-002    3.188923091519180E-019
 -3.050000000000000E-002    4.798644482985396E-019
 -3.040000000000000E-002    6.555841087177667E-019
 -3.030000000000000E-002    8.265504039988776E-019
 -3.020000000000000E-002    9.648078720064509E-019
 -3.010000000000000E-002    1.034380395657543E-018
 -3.000000000000000E-002    9.930447986619326E-019
 -2.990000000000000E-002    7.956950398175619E-019
 -2.980000000000000E-002    3.994104461343156E-019
 -2.970000000000000E-002   -2.298639000572908E-019
 -2.960000000000000E-002   -1.109373161834976E-018
 -2.950000000000000E-002   -2.230980763553962E-018
 -2.940000000000000E-002   -3.552902171090045E-018
 -2.930000000000000E-002   -4.992927739584863E-018
 -2.920000000000000E-002   -6.424491418266739E-018
 -2.910000000000000E-002   -7.676975095432918E-018
 -2.900000000000000E-002   -8.541507101421996E-018
 -2.890000000000000E-002   -8.783170492791951E-018
 -2.880000000000000E-002   -8.159988518873001E-018
 -2.870000000000000E-002   -6.448309186148296E-018
 -2.860000000000000E-002   -3.473331901739781E-018
 -2.850000000000000E-002    8.574151657959797E-019
 -2.840000000000000E-002    6.520759603485363E-018
 -2.830000000000000E-002    1.334853638429466E-017
 -2.820000000000000E-002    2.100647194294814E-017
 -2.810000000000000E-002    2.898551582905248E-017
 -2.800000000000000E-002    3.660938772931945E-017
 -2.790000000000000E-002    4.306101936771330E-017
 -2.780000000000000E-002    4.742905085373142E-017
 -2.770000000000000E-002    4.877351992667253E-017
 -2.760000000000000E-002    4.620770619042994E-017
 -2.750000000000000E-002    3.899085230262990E-017
 -2.740000000000000E-002    2.662447413565314E-017
 -2.730000000000000E-002    8.943573430815181E-018
 -2.720000000000000E-002   -1.380661105029524E-017
 -2.710000000000000E-002   -4.091739421297674E-017
 -2.700000000000000E-002   -7.119469586163077E-017
 -2.690000000000000E-002   -1.029738469938731E-016
 -2.680000000000000E-002   -1.341734770855356E-016
 -2.670000000000000E-002   -1.623872152789359E-016
 -2.660000000000000E-002   -1.850087824056373E-016
 -2.650000000000000E-002   -1.993822087526679E-016
 -2.640000000000000E-002   -2.029676208346227E-016
 -2.630000000000000E-002   -1.935112799143177E-016
 -2.620000000000000E-002   -1.692096469056567E-016
 -2.610000000000000E-002   -1.288586855273804E-016
 -2.600000000000000E-002   -7.198317572210169E-017
 -2.590000000000000E-002    1.056452454154673E-018
 -2.580000000000000E-002    8.897806687820760E-017
 -2.570000000000000E-002    1.895090776698477E-016
 -2.560000000000000E-002    2.993309253371303E-016
 -2.550000000000000E-002    4.140342145214207E-016
 -2.540000000000000E-002    5.280877818391524E-016
 -2.530000000000000E-002    6.348295202515064E-016
 -2.520000000000000E-002    7.264989677684310E-016
 -2.510000000000000E-002    7.943372649021072E-016
 -2.500000000000000E-002    8.287893128867354E-016
 -2.490000000000000E-002    8.198468125636032E-016
 -2.480000000000000E-002    7.575671124834389E-016
 -2.470000000000000E-002    6.327949018878212E-016
 -2.460000000000000E-002    4.380941066870843E-016
 -2.450000000000000E-002    1.688707663491518E-016
 -2.440000000000000E-002   -1.753666537222936E-016
 -2.430000000000000E-002   -5.897021032523101E-016
 -2.420000000000000E-002   -1.062592426340814E-015
 -2.410000000000000E-002   -1.574898857356758E-015
 -2.400000000000000E-002   -2.099353688188710E-015
 -2.390000000000000E-002   -2.600654957421162E-015
 -2.380000000000000E-002   -3.036358892210143E-015
 -2.370000000000000E-002   -3.358698270542013E-015
 -2.360000000000000E-002   -3.517384692204817E-015
 -2.350000000000000E-002   -3.463350134797805E-015
 -2.340000000000000E-002   -3.153282497958875E-015
 -2.330000000000000E-002   -2.554679297605330E-015
 -2.320000000000000E-002   -1.651030135673900E-015
 -2.310000000000000E-002   -4.466428321848841E-016
 -2.300000000000000E-002    1.029430356019447E-015
 -2.290000000000000E-002    2.720930669349883E-015
 -2.280000000000000E-002    4.543912351643790E-015
 -2.270000000000000E-002    6.388640266709227E-015
 -2.260000000000000E-002    8.124111479362844E-015
 -2.250000000000000E-002    9.605207210256671E-015
 -2.240000000000000E-002    1.068222148093752E-014
 -2.230000000000000E-002    1.121224851825966E-014
 -2.220000000000000E-002    1.107164482701508E-014
 -2.210000000000000E-002    1.016856990324353E-014
 -2.200000000000000E-002    8.454478226175056E-015
 -2.190000000000000E-002    5.933398388807875E-015
 -2.180000000000000E-002    2.667911573135338E-015
 -2.170000000000000E-002   -1.219044669230748E-015
 -2.160000000000000E-002   -5.547119681161841E-015
 -2.150000000000000E-002   -1.008638932764018E-014
 -2.140000000000000E-002   -1.456978407251706E-014
 -2.130000000000000E-002   -1.870934927704539E-014
 -2.120000000000000E-002   -2.221513024054776E-014
 -2.110000000000000E-002   -2.481514082479970E-014
 -2.100000000000000E-002   -2.627473391151343E-014
 -2.090000000000000E-002   -2.641362836796116E-014
 -2.080000000000000E-002   -2.511906963760250E-014
 -2.070000000000000E-002   -2.235394270976241E-014
 -2.060000000000000E-002   -1.815919206961441E-014
 -2.050000000000000E-002   -1.265052927854822E-014
 -2.040000000000000E-002   -6.010043694271498E-015
 -2.030000000000000E-002    1.526033484558318E-015
 -2.020000000000000E-002    9.681741377726495E-015
 -2.010000000000000E-002    1.815600269320363E-014
 -2.000000000000000E-002    2.663551857808768E-014
 -1.990000000000000E-002    3.480429199124017E-014
 -1.980000000000000E-002    4.234874526593854E-014
 -1.970000000000000E-002    4.895820487703966E-014
 -1.960000000000000E-002    5.432141607745351E-014
 -1.950000000000000E-002    5.812080313429690E-014
 -1.940000000000000E-002    6.002698787792237E-014
 -1.930000000000000E-002    5.969667660033870E-014
 -1.920000000000000E-002    5.677709083669229E-014
 -1.910000000000000E-002    5.091997055472553E-014
 -1.900000000000000E-002    4.180720450877893E-014
 -1.890000000000000E-002    2.918875742210853E-014
 -1.880000000000000E-002    1.293183662615490E-014
 -1.870000000000000E-002   -6.921788429350085E-015
 -1.860000000000000E-002   -3.009558345010365E-014
 -1.850000000000000E-002   -5.602209325433872E-014
 -1.840000000000000E-002   -8.379912011809230E-014
 -1.830000000000000E-002   -1.121670271210251E-013
 -1.820000000000000E-002   -1.395155300032742E-013
 -1.810000000000000E-002   -1.639266108421858E-013
 -1.800000000000000E-002   -1.832576854019278E-013
 -1.790000000000000E-002   -1.952651731748501E-013
 -1.780000000000000E-002   -1.977649200302583E-013
 -1.770000000000000E-002   -1.888204783222749E-013
 -1.760000000000000E-002   -1.669463984377586E-013
 -1.750000000000000E-002   -1.313098425571581E-013
 -1.740000000000000E-002   -8.191100038171029E-014
 -1.730000000000000E-002   -1.972236345249270E-014
 -1.720000000000000E-002    5.323198043108024E-014
 -1.710000000000000E-002    1.338729183970651E-013
 -1.700000000000000E-002    2.181488588079873E-013
 -1.690000000000000E-002    3.012076626790210E-013
 -1.680000000000000E-002    3.776533672500583E-013
 -1.670000000000000E-002    4.418742091086776E-013
 -1.660000000000000E-002    4.884207811303238E-013
 -1.650000000000000E-002    5.124070047485882E-013
 -1.640000000000000E-002    5.099010834779876E-013
 -1.630000000000000E-002    4.782735408426969E-013
 -1.620000000000000E-002    4.164701665936799E-013
 -1.610000000000000E-002    3.251838003288485E-013
 -1.600000000000000E-002    2.069060789361888E-013
 -1.590000000000000E-002    6.585182352829810E-014
 -1.580000000000000E-002   -9.224027132243025E-014
 -1.570000000000000E-002   -2.604141073856899E-013
 -1.560000000000000E-002   -4.308845435130955E-013
 -1.550000000000000E-002   -5.954714626326802E-013
 -1.540000000000000E-002   -7.460415681251048E-013
 -1.530000000000000E-002   -8.749196206484670E-013
 -1.520000000000000E-002   -9.752342206515760E-013
 -1.510000000000000E-002   -1.041172260678265E-012
 -1.500000000000000E-002   -1.068132392998615E-012
 -1.490000000000000E-002   -1.052775604710632E-012
 -1.480000000000000E-002   -9.929928966235641E-013
 -1.470000000000000E-002   -8.878172292105914E-013
 -1.460000000000000E-002   -7.373200575538677E-013
 -1.450000000000000E-002   -5.425343116209915E-013
 -1.440000000000000E-002   -3.054450375869607E-013
 -1.430000000000000E-002   -2.907747838699706E-014
 -1.420000000000000E-002    2.823011895195700E-013
 -1.410000000000000E-002    6.228732181700218E-013
 -1.400000000000000E-002    9.848830375983825E-013
 -1.390000000000000E-002    1.358224644533399E-012
 -1.380000000000000E-002    1.730076240022739E-012
 -1.370000000000000E-002    2.084669412692494E-012
 -1.360000000000000E-002    2.403285112023999E-012
 -1.350000000000000E-002    2.664557802039124E-012
 -1.340000000000000E-002    2.845159259304191E-012
 -1.330000000000000E-002    2.920890276481281E-012
 -1.320000000000000E-002    2.868180005463178E-012
 -1.310000000000000E-002    2.665935275436956E-012
 -1.300000000000000E-002    2.297643025707180E-012
 -1.290000000000000E-002    1.753571100689724E-012
 -1.280000000000000E-002    1.032885946883924E-012
 -1.270000000000000E-002    1.454770674101934E-013
 -1.260000000000000E-002   -8.867297749514747E-013
 -1.250000000000000E-002   -2.029164956118085E-012
 -1.240000000000000E-002   -3.234879151220369E-012
 -1.230000000000000E-002   -4.445780150266204E-012
 -1.220000000000000E-002   -5.594874075561013E-012
 -1.210000000000000E-002   -6.609461228322778E-012
 -1.200000000000000E-002   -7.415136022227986E-012
 -1.190000000000000E-002   -7.940374983519978E-012
 -1.180000000000000E-002   -8.121416753627914E-012
 -1.170000000000000E-002   -7.907091975983297E-012
 -1.160000000000000E-002   -7.263244267945052E-012
 -1.150000000000000E-002   -6.176389630219611E-012
 -1.140000000000000E-002   -4.656305010807189E-012
 -1.130000000000000E-002   -2.737304643440840E-012
 -1.120000000000000E-002   -4.780689815111041E-013
 -1.110000000000000E-002    2.040035780382935E-012
 -1.100000000000000E-002    4.716036594237881E-012
 -1.090000000000000E-002    7.433688468067219E-012
 -1.080000000000000E-002    1.006675178338453E-011
 -1.070000000000000E-002    1.248490862231068E-011
 -1.060000000000000E-002    1.455991676063045E-011
 -1.050000000000000E-002    1.617165435788293E-011
 -1.040000000000000E-002    1.721370242022592E-011
 -1.030000000000000E-002    1.759820268793248E-011
 -1.020000000000000E-002    1.725979980717999E-011
 -1.010000000000000E-002    1.615858423147265E-011
 -1.000000000000000E-002    1.428202759929401E-011
 -9.899999999999999E-003    1.164601223016096E-011
 -9.800000000000000E-003    8.295046823551696E-012
 -9.699999999999999E-003    4.301889829581276E-012
 -9.599999999999999E-003   -2.333509265120394E-013
 -9.500000000000000E-003   -5.184456057046870E-012
 -9.399999999999999E-003   -1.040075718225519E-011
 -9.299999999999999E-003   -1.570916794018497E-011
 -9.200000000000000E-003   -2.091683651144817E-011
 -9.099999999999999E-003   -2.581459896698742E-011
 -8.999999999999999E-003   -3.018151212901213E-011
 -8.900000000000000E-003   -3.379072722829247E-011
 -8.799999999999999E-003   -3.641693311041833E-011
 -8.699999999999999E-003   -3.784545074218043E-011
 -8.600000000000000E-003   -3.788291271785112E-011
 -8.499999999999999E-003   -3.636920272025947E-011
 -8.399999999999999E-003   -3.319019506486597E-011
 -8.300000000000000E-003   -2.829051875439181E-011
 -8.199999999999999E-003   -2.168539443655446E-011
 -8.100000000000000E-003   -1.347045952503970E-011
 -8.000000000000000E-003   -3.828483982109038E-012
 -7.899999999999999E-003    6.968193665185119E-012
 -7.800000000000000E-003    1.856032390181092E-011
 -7.699999999999999E-003    3.051018094211463E-011
 -7.599999999999999E-003    4.231608172517323E-011
 -7.499999999999999E-003    5.343262492761629E-011
 -7.399999999999999E-003    6.329605271311224E-011
 -7.299999999999999E-003    7.135348429397217E-011
 -7.199999999999999E-003    7.709432554049958E-011
 -7.100000000000000E-003    8.008185153330585E-011
 -6.999999999999999E-003    7.998274933209282E-011
 -6.899999999999999E-003    7.659233359522967E-011
 -6.800000000000000E-003    6.985336621234654E-011
 -6.699999999999999E-003    5.986674621675110E-011
 -6.599999999999999E-003    4.689276194326097E-011
 -6.499999999999999E-003    3.134252488198908E-011
 -6.399999999999999E-003    1.375953911325374E-011
 -6.299999999999999E-003   -5.207412138057093E-012
 -6.199999999999999E-003   -2.483853921398333E-011
 -6.100000000000000E-003   -4.438210693334742E-011
 -5.999999999999999E-003   -6.309548885351192E-011
 -5.899999999999999E-003   -8.028544409410128E-011
 -5.800000000000000E-003   -9.534443357075524E-011
 -5.699999999999999E-003   -1.077805065727103E-010
 -5.599999999999999E-003   -1.172384361519607E-010
 -5.499999999999999E-003   -1.235106732200932E-010
 -5.399999999999999E-003   -1.265373742840736E-010
 -5.299999999999999E-003   -1.263957632310452E-010
 -5.199999999999999E-003   -1.232796181088329E-010
 -5.099999999999999E-003   -1.174709021069721E-010
 -4.999999999999999E-003   -1.093056973642984E-010
 -4.899999999999999E-003   -9.913724166342342E-011
 -4.799999999999999E-003   -8.729880032581783E-011
 -4.699999999999999E-003   -7.406962195473361E-011
 -4.599999999999999E-003   -5.964585862116967E-011
 -4.499999999999999E-003   -4.411934308227022E-011
 -4.399999999999999E-003   -2.746503894777989E-011
 -4.299999999999999E-003   -9.538728048889421E-012
 -4.199999999999999E-003    9.914971598843946E-012
 -4.099999999999999E-003    3.124429001381876E-011
 -3.999999999999999E-003    5.486213583228424E-011
 -3.899999999999999E-003    8.120906529952729E-011
 -3.799999999999999E-003    1.107082302418820E-010
 -3.699999999999999E-003    1.437136772889547E-010
 -3.599999999999999E-003    1.804531263891089E-010
 -3.499999999999999E-003    2.209668903312115E-010
 -3.399999999999999E-003    2.650444268086472E-010
 -3.299999999999999E-003    3.121606399721396E-010
 -3.199999999999999E-003    3.614147569450234E-010
 -3.099999999999999E-003    4.114747410826745E-010
 -2.999999999999999E-003    4.605313145343988E-010
 -2.899999999999999E-003    5.062665022989583E-010
 -2.799999999999999E-003    5.458419030967436E-010
 -2.699999999999999E-003    5.759127439197262E-010
 -2.599999999999999E-003    5.926737228576690E-010
 -2.499999999999999E-003    5.919420385633842E-010
 -2.399999999999999E-003    5.692824086659257E-010
 -2.299999999999999E-003    5.201770070156171E-010
 -2.199999999999999E-003    4.402410530449412E-010
 -2.099999999999999E-003    3.254820701422360E-010
 -1.999999999999999E-003    1.725968515936344E-010
 -1.899999999999999E-003   -2.070221023679949E-011
 -1.799999999999999E-003   -2.553450349671465E-010
 -1.699999999999999E-003   -5.305616023513962E-010
 -1.599999999999999E-003   -8.435591876951700E-010
 -1.499999999999999E-003   -1.189240252330332E-009
 -1.399999999999999E-003   -1.559983043358404E-009
 -1.299999999999999E-003   -1.945508393317316E-009
 -1.199999999999999E-003   -2.332852061634677E-009
 -1.099999999999999E-003   -2.706461041357307E-009
 -9.999999999999989E-004   -3.048428791603872E-009
 -8.999999999999990E-004   -3.338875979542520E-009
 -7.999999999999990E-004   -3.556480582221271E-009
 -6.999999999999989E-004   -3.679151421706396E-009
 -5.999999999999990E-004   -3.684834881288310E-009
 -4.999999999999989E-004   -3.552435730313611E-009
 -3.999999999999989E-004   -3.262826232189745E-009
 -2.999999999999989E-004   -2.799913950051915E-009
 -1.999999999999989E-004   -2.151731776936815E-009
 -9.999999999999892E-005   -1.311511199029366E-009
  1.084202172485504E-018   -2.786978665326865E-010
  1.000000000000011E-004    9.401341933287216E-010
  2.000000000000011E-004    2.330511710244503E-009
  3.000000000000011E-004    3.869473832392664E-009
  4.000000000000011E-004    5.525208551218603E-009
  5.000000000000011E-004    7.256946620360390E-009
  6.000000000000011E-004    9.015141751317138E-009
  7.000000000000011E-004    1.074196896186391E-008
  8.000000000000011E-004    1.237215699636946E-008
  9.000000000000012E-004    1.383416751264935E-008
  1.000000000000001E-003    1.505173242335160E-008
  1.100000000000001E-003    1.594574472418657E-008
  1.200000000000001E-003    1.643649253696873E-008
  1.300000000000001E-003    1.644621545301191E-008
  1.400000000000001E-003    1.590195894325934E-008
  1.500000000000001E-003    1.473867288731107E-008
  1.600000000000001E-003    1.290251374535293E-008
  1.700000000000001E-003    1.035427521213219E-008
  1.800000000000001E-003    7.072885783128702E-009
  1.900000000000001E-003    3.058859635178966E-009
  2.000000000000001E-003   -1.662357803476430E-009
  2.100000000000001E-003   -7.037278645349923E-009
  2.200000000000001E-003   -1.298159233127260E-008
  2.300000000000001E-003   -1.937781276784618E-008
  2.400000000000001E-003   -2.607345685221186E-008
  2.500000000000001E-003   -3.287985296044427E-008
  2.600000000000001E-003   -3.957164145422251E-008
  2.700000000000001E-003   -4.588706827354752E-008
  2.800000000000001E-003   -5.152904523997014E-008
  2.900000000000001E-003   -5.616708933602893E-008
  3.000000000000001E-003   -5.944001540697995E-008
  3.100000000000001E-003   -6.095949074144062E-008
  3.200000000000001E-003   -6.031425072578923E-008
  3.300000000000001E-003   -5.707501768218980E-008
  3.400000000000001E-003   -5.079993533659776E-008
  3.500000000000001E-003   -4.104037063708505E-008
  3.600000000000001E-003   -2.734697846526945E-008
  3.700000000000001E-003   -9.275950568176989E-009
  3.800000000000001E-003    1.360495369710691E-008
  3.900000000000001E-003    4.171052006144196E-008
  4.000000000000001E-003    7.543267021753783E-008
  4.100000000000001E-003    1.151355670177358E-007
  4.200000000000001E-003    1.611515348680098E-007
  4.300000000000001E-003    2.137777382557851E-007
  4.400000000000001E-003    2.732740951284050E-007
  4.500000000000001E-003    3.398619600788789E-007
  4.600000000000002E-003    4.137243000911194E-007
  4.700000000000001E-003    4.950067756786003E-007
  4.800000000000001E-003    5.838203803079530E-007
  4.900000000000002E-003    6.802451979232430E-007
  5.000000000000001E-003    7.843351908530066E-007
  5.100000000000001E-003    8.961245344013454E-007
  5.200000000000001E-003    1.015634607154028E-006
  5.300000000000002E-003    1.142881982620796E-006
  5.400000000000001E-003    1.277887670604835E-006
  5.500000000000001E-003    1.420686234028725E-006
  5.600000000000002E-003    1.571335856646640E-006
  5.700000000000001E-003    1.729928438758165E-006
  5.800000000000001E-003    1.896599759862641E-006
  5.900000000000002E-003    2.071538996362479E-006
  6.000000000000001E-003    2.254998171607928E-006
  6.100000000000001E-003    2.447300739355533E-006
  6.200000000000002E-003    2.648848990849125E-006
  6.300000000000002E-003    2.860130948487542E-006
  6.400000000000001E-003    3.081724507200932E-006
  6.500000000000001E-003    3.314302123376968E-006
  6.600000000000002E-003    3.558633115548084E-006
  6.700000000000001E-003    3.815583679185931E-006
  6.800000000000001E-003    4.086116690606254E-006
  6.900000000000002E-003    4.371289641089891E-006
  7.000000000000001E-003    4.672250903063170E-006
  7.100000000000001E-003    4.990235796026228E-006
  7.200000000000002E-003    5.326561656544879E-006
  7.300000000000002E-003    5.682621637441232E-006
  7.400000000000001E-003    6.059879238322644E-006
  7.500000000000001E-003    6.459861655509561E-006
  7.600000000000002E-003    6.884155447593132E-006
  7.700000000000001E-003    7.334400934321147E-006
  7.800000000000001E-003    7.812287072477574E-006
  7.900000000000001E-003    8.319551187600525E-006
  8.000000000000002E-003    8.857974078192389E-006
  8.100000000000001E-003    9.429382232898870E-006
  8.200000000000001E-003    1.003564832621399E-005
  8.300000000000002E-003    1.067869431370368E-005
  8.400000000000001E-003    1.136049497707266E-005
  8.500000000000002E-003    1.208308624956531E-005
  8.600000000000002E-003    1.284857098972321E-005
  8.700000000000001E-003    1.365912996674209E-005
  8.800000000000002E-003    1.451702987067687E-005
  8.900000000000002E-003    1.542463601276952E-005
  9.000000000000001E-003    1.638442311206775E-005
  9.100000000000002E-003    1.739898982236318E-005
  9.200000000000002E-003    1.847107029568738E-005
  9.300000000000001E-003    1.960354592285567E-005
  9.400000000000002E-003    2.079945992835989E-005
  9.500000000000001E-003    2.206202865407182E-005
  9.600000000000001E-003    2.339465129756600E-005
  9.700000000000002E-003    2.480092451793285E-005
  9.800000000000001E-003    2.628464726195981E-005
  9.900000000000001E-003    2.784983020601580E-005
  1.000000000000000E-002    2.950070516888417E-005
  1.010000000000000E-002    3.124172925323335E-005
  1.020000000000000E-002    3.307758738027903E-005
  1.030000000000000E-002    3.501319823919875E-005
  1.040000000000000E-002    3.705371952560513E-005
  1.050000000000000E-002    3.920454052566213E-005
  1.060000000000000E-002    4.147129823760925E-005
  1.070000000000000E-002    4.385986586282026E-005
  1.080000000000000E-002    4.637636076250834E-005
  1.090000000000000E-002    4.902715098000621E-005
  1.100000000000000E-002    5.181885235962018E-005
  1.110000000000000E-002    5.475833651048864E-005
  1.120000000000000E-002    5.785273616538612E-005
  1.130000000000000E-002    6.110946479993072E-005
  1.140000000000000E-002    6.453620857221512E-005
  1.150000000000000E-002    6.814095312137804E-005
  1.160000000000000E-002    7.193199229323400E-005
  1.170000000000000E-002    7.591794783276937E-005
  1.180000000000000E-002    8.010778892472982E-005
  1.190000000000000E-002    8.451085255995085E-005
  1.200000000000000E-002    8.913685644120812E-005
  1.210000000000000E-002    9.399592275780427E-005
  1.220000000000000E-002    9.909862086691051E-005
  1.230000000000000E-002    1.044559650878537E-004
  1.240000000000000E-002    1.100794504177491E-004
  1.250000000000000E-002    1.159810622380585E-004
  1.260000000000000E-002    1.221733140790297E-004
  1.270000000000000E-002    1.286692610163874E-004
  1.280000000000000E-002    1.354825168168646E-004
  1.290000000000000E-002    1.426272641991702E-004
  1.300000000000000E-002    1.501182873453556E-004
  1.310000000000000E-002    1.579709814647813E-004
  1.320000000000000E-002    1.662013532943861E-004
  1.330000000000000E-002    1.748260652802296E-004
  1.340000000000000E-002    1.838624072818478E-004
  1.350000000000000E-002    1.933283199199413E-004
  1.360000000000000E-002    2.032424284831717E-004
  1.370000000000000E-002    2.136240117195207E-004
  1.380000000000000E-002    2.244930420733731E-004
  1.390000000000000E-002    2.358701791970897E-004
  1.400000000000000E-002    2.477767806904506E-004
  1.410000000000000E-002    2.602349108866989E-004
  1.420000000000000E-002    2.732673560142671E-004
  1.430000000000000E-002    2.868976527914411E-004
  1.440000000000000E-002    3.011500430956967E-004
  1.450000000000000E-002    3.160495551692578E-004
  1.460000000000000E-002    3.316219754519974E-004
  1.470000000000000E-002    3.478939306531182E-004
  1.480000000000000E-002    3.648928257042480E-004
  1.490000000000000E-002    3.826469364447182E-004
  1.500000000000000E-002    4.011853952539412E-004
  1.510000000000000E-002    4.205382511029415E-004
  1.520000000000000E-002    4.407364938936695E-004
  1.530000000000000E-002    4.618120524406449E-004
  1.540000000000000E-002    4.837979310421317E-004
  1.550000000000000E-002    5.067281283317682E-004
  1.560000000000000E-002    5.306377384396562E-004
  1.570000000000000E-002    5.555629926616806E-004
  1.580000000000000E-002    5.815412542014764E-004
  1.590000000000000E-002    6.086110596706472E-004
  1.600000000000000E-002    6.368121448526147E-004
  1.610000000000000E-002    6.661855629083626E-004
  1.620000000000000E-002    6.967735526588102E-004
  1.630000000000000E-002    7.286196606985779E-004
  1.640000000000000E-002    7.617687124901839E-004
  1.650000000000000E-002    7.962668691492092E-004
  1.660000000000000E-002    8.321615918895349E-004
  1.670000000000000E-002    8.695015817910181E-004
  1.680000000000000E-002    9.083369736581985E-004
  1.690000000000000E-002    9.487191533285833E-004
  1.700000000000000E-002    9.907008113035677E-004
  1.710000000000000E-002    1.034335927710691E-003
  1.720000000000000E-002    1.079679788871287E-003
  1.730000000000000E-002    1.126788918189320E-003
  1.740000000000000E-002    1.175721221029055E-003
  1.750000000000000E-002    1.226535759677857E-003
  1.760000000000000E-002    1.279293047822978E-003
  1.770000000000000E-002    1.334054624842226E-003
  1.780000000000000E-002    1.390883578520738E-003
  1.790000000000000E-002    1.449844078485116E-003
  1.800000000000000E-002    1.511001784699431E-003
  1.810000000000000E-002    1.574423413312623E-003
  1.820000000000000E-002    1.640177391090134E-003
  1.830000000000000E-002    1.708333185346278E-003
  1.840000000000000E-002    1.778961718531060E-003
  1.850000000000000E-002    1.852135164654885E-003
  1.860000000000000E-002    1.927927532660087E-003
  1.870000000000000E-002    2.006413734815859E-003