 -4.000000000000000E-002    0.000000000000000E+000
 -3.990000000000000E-002    0.000000000000000E+000
 -3.980000000000000E-002    0.000000000000000E+000
 -3.970000000000000E-002    0.000000000000000E+000
 -3.960000000000000E-002    0.000000000000000E+000
 -3.950000000000000E-002    0.000000000000000E+000
 -3.940000000000000E-002    0.000000000000000E+000
 -3.930000000000000E-002    0.000000000000000E+000
 -3.920000000000000E-002    0.000000000000000E+000
 -3.910000000000000E-002    0.000000000000000E+000
 -3.900000000000000E-002    0.000000000000000E+000
 -3.890000000000000E-002    0.000000000000000E+000
 -3.880000000000000E-002    0.000000000000000E+000
 -3.870000000000000E-002   -8.867988242460926E-041
 -3.860000000000000E-002   -2.067256808043158E-039
 -3.850000000000000E-002   -2.449991662438740E-038
 -3.840000000000000E-002   -1.962929730113009E-037
 -3.830000000000000E-002   -1.192096761736316E-036
 -3.820000000000000E-002   -5.828222388119006E-036
 -3.810000000000000E-002   -2.375558229905783E-035
 -3.800000000000000E-002   -8.233027636394339E-035
 -3.790000000000000E-002   -2.443851837474625E-034
 -3.780000000000000E-002   -6.163424793462897E-034
 -3.770000000000000E-002   -1.270748342812259E-033
 -3.760000000000000E-002   -1.855328083679896E-033
 -3.750000000000000E-002   -3.452938158970822E-034
 -3.740000000000000E-002    1.013889613161189E-032
 -3.730000000000000E-002    4.822040234274520E-032
 -3.720000000000000E-002    1.571198353779322E-031
 -3.710000000000000E-002    4.250499981450404E-031
 -3.700000000000000E-002    1.011037912819712E-030
 -3.690000000000000E-002    2.164602047811944E-030
 -3.680000000000000E-002    4.209400997954337E-030
 -3.670000000000000E-002    7.432219752582383E-030
 -3.660000000000000E-002    1.178285189179683E-029
 -3.650000000000000E-002    1.626097749299319E-029
 -3.640000000000000E-002    1.787198278020108E-029
 -3.630000000000000E-002    1.012220177186981E-029
 -3.620000000000000E-002   -1.874340135270500E-029
 -3.610000000000000E-002   -8.712471107777733E-029
 -3.600000000000000E-002   -2.197854262817447E-028
 -3.590000000000000E-002   -4.438402625149727E-028
 -3.580000000000000E-002   -7.782782440919303E-028
 -3.570000000000000E-002   -1.214209184125002E-027
 -3.560000000000000E-002   -1.684198299559378E-027
 -3.550000000000000E-002   -2.022266804755485E-027
 -3.540000000000000E-002   -1.921972864055903E-027
 -3.530000000000000E-002   -9.083960838406652E-028
 -3.520000000000000E-002    1.650414390788962E-027
 -3.510000000000000E-002    6.458941641346550E-027
 -3.500000000000000E-002    1.410170470669124E-026
 -3.490000000000000E-002    2.471967786266594E-026
 -3.480000000000000E-002    3.756403378557081E-026
 -3.470000000000000E-002    5.049042181347067E-026
 -3.460000000000000E-002    5.953203571304596E-026
 -3.450000000000000E-002    5.877072538209076E-026
 -3.440000000000000E-002    4.078458807580794E-026
 -3.430000000000000E-002   -2.053788097051035E-027
 -3.420000000000000E-002   -7.527021577082525E-026
 -3.410000000000000E-002   -1.790836826754503E-025
 -3.400000000000000E-002   -3.048462700070674E-025
 -3.390000000000000E-002   -4.322240381657817E-025
 -3.380000000000000E-002   -5.287583350623231E-025
 -3.370000000000000E-002   -5.537623284552904E-025
 -3.360000000000000E-002   -4.682968617006233E-025
 -3.350000000000000E-002   -2.519161058721545E-025
 -3.340000000000000E-002    7.526275615635682E-026
 -3.330000000000000E-002    4.298270829571907E-025
 -3.320000000000000E-002    6.502473438793876E-025
 -3.310000000000000E-002    5.022248150414582E-025
 -3.300000000000000E-002   -2.815677283185724E-025
 -3.290000000000000E-002   -1.914800176688200E-024
 -3.280000000000000E-002   -4.418609822686095E-024
 -3.270000000000000E-002   -7.439697998726843E-024
 -3.260000000000000E-002   -1.005608426299882E-023
 -3.250000000000000E-002   -1.062766632870737E-023
 -3.240000000000000E-002   -6.774879538391686E-024
 -3.230000000000000E-002    4.413772232762777E-024
 -3.220000000000000E-002    2.584671710363698E-023
 -3.210000000000000E-002    5.950159477328399E-023
 -3.200000000000000E-002    1.051132321209146E-022
 -3.190000000000000E-002    1.586026599845847E-022
 -3.180000000000000E-002    2.105241699210523E-022
 -3.170000000000000E-002    2.449722125676468E-022
 -3.160000000000000E-002    2.395283260621892E-022
 -3.150000000000000E-002    1.668902428206491E-022
 -3.140000000000000E-002   -1.248355450241819E-024
 -3.130000000000000E-002   -2.877582556127349E-022
 -3.120000000000000E-002   -7.012418811133875E-022
 -3.110000000000000E-002   -1.225648914339406E-021
 -3.100000000000000E-002   -1.809993020305747E-021
 -3.090000000000000E-002   -2.360624070311614E-021
 -3.080000000000000E-002   -2.739114608545424E-021
 -3.070000000000000E-002   -2.768987482481824E-021
 -3.060000000000000E-002   -2.254005331309111E-021
 -3.050000000000000E-002   -1.009405744986507E-021
 -3.040000000000000E-002    1.094765241290172E-021
 -3.030000000000000E-002    4.082023913602107E-021
 -3.020000000000000E-002    7.816680440359807E-021
 -3.010000000000000E-002    1.196017513672673E-020
 -3.000000000000000E-002    1.594889746978170E-020
 -2.990000000000000E-002    1.900616446496363E-020
 -2.980000000000000E-002    2.019883044618909E-020
 -2.970000000000000E-002    1.854386193222908E-020
 -2.960000000000000E-002    1.316234328002197E-020
 -2.950000000000000E-002    3.468361785044390E-021
 -2.940000000000000E-002   -1.063025664666102E-020
 -2.930000000000000E-002   -2.855164672432985E-020
 -2.920000000000000E-002   -4.891772991903638E-020
 -2.910000000000000E-002   -6.952771426686446E-020
 -2.900000000000000E-002   -8.745720870748330E-020
 -2.890000000000000E-002   -9.929786099797074E-020
 -2.880000000000000E-002   -1.015310983060094E-019
 -2.870000000000000E-002   -9.100466419400015E-020
 -2.860000000000000E-002   -6.545682090331513E-020
 -2.850000000000000E-002   -2.401521815773299E-020
 -2.840000000000000E-002    3.240981074693015E-020
 -2.830000000000000E-002    1.009103349091195E-019
 -2.820000000000000E-002    1.765947347870040E-019
 -2.810000000000000E-002    2.528455169313571E-019
 -2.800000000000000E-002    3.217941539371841E-019
 -2.790000000000000E-002    3.749460390223280E-019
 -2.780000000000000E-002    4.038616841735091E-019
 -2.770000000000000E-002    4.007939442460594E-019
 -2.760000000000000E-002    3.592043321443830E-019
 -2.750000000000000E-002    2.741286397036677E-019
 -2.740000000000000E-002    1.424309488204937E-019
 -2.730000000000000E-002   -3.694539596651163E-020
 -2.720000000000000E-002   -2.625707657599766E-019
 -2.710000000000000E-002   -5.297984683466818E-019
 -2.700000000000000E-002   -8.295976791172188E-019
 -2.690000000000000E-002   -1.146961721508590E-018
 -2.680000000000000E-002   -1.459090435734803E-018
 -2.670000000000000E-002   -1.733768165015806E-018
 -2.660000000000000E-002   -1.928567538710582E-018
 -2.650000000000000E-002   -1.991644310444716E-018
 -2.640000000000000E-002   -1.864885257181028E-018
 -2.630000000000000E-002   -1.489976501961940E-018
 -2.620000000000000E-002   -8.175471363063768E-019
 -2.610000000000000E-002    1.810678658769158E-019
 -2.600000000000000E-002    1.500642959042150E-018
 -2.590000000000000E-002    3.089407954891203E-018
 -2.580000000000000E-002    4.839481691913052E-018
 -2.570000000000000E-002    6.583231656801135E-018
 -2.560000000000000E-002    8.098207047420907E-018
 -2.550000000000000E-002    9.122514445414463E-018
 -2.540000000000000E-002    9.381152309875180E-018
 -2.530000000000000E-002    8.622005366256093E-018
 -2.520000000000000E-002    6.658127038646196E-018
 -2.510000000000000E-002    3.411005540763140E-018
 -2.500000000000000E-002   -1.051925301567606E-018
 -2.490000000000000E-002   -6.492817537082380E-018
 -2.480000000000000E-002   -1.249859646907411E-017
 -2.470000000000000E-002   -1.850044003508803E-017
 -2.460000000000000E-002   -2.381899314969835E-017
 -2.450000000000000E-002   -2.773272051113061E-017
 -2.440000000000000E-002   -2.956253685685113E-017
 -2.430000000000000E-002   -2.876211026279750E-017
 -2.420000000000000E-002   -2.500085799711825E-017
 -2.410000000000000E-002   -1.822621272639260E-017
 -2.400000000000000E-002   -8.693791314689072E-018
 -2.390000000000000E-002    3.041557608619387E-018
 -2.380000000000000E-002    1.617461064747922E-017
 -2.370000000000000E-002    2.973215089943885E-017
 -2.360000000000000E-002    4.267585862972758E-017
 -2.350000000000000E-002    5.400785148812716E-017
 -2.340000000000000E-002    6.285938782398733E-017
 -2.330000000000000E-002    6.854559179572048E-017
 -2.320000000000000E-002    7.057569531507827E-017
 -2.310000000000000E-002    6.861799961133794E-017
 -2.300000000000000E-002    6.243060870075255E-017
 -2.290000000000000E-002    5.178002751648783E-017
 -2.280000000000000E-002    3.637771204955691E-017
 -2.270000000000000E-002    1.586704987168683E-017
 -2.260000000000000E-002   -1.011175591967373E-017
 -2.250000000000000E-002   -4.176424357163771E-017
 -2.240000000000000E-002   -7.889660992612457E-017
 -2.230000000000000E-002   -1.206115307440758E-016
 -2.220000000000000E-002   -1.649972541936772E-016
 -2.210000000000000E-002   -2.088805620110367E-016
 -2.200000000000000E-002   -2.477234185467756E-016
 -2.190000000000000E-002   -2.757374532731097E-016
 -2.180000000000000E-002   -2.862696129447683E-016
 -2.170000000000000E-002   -2.724756868852565E-016
 -2.160000000000000E-002   -2.282510482425339E-016
 -2.150000000000000E-002   -1.493338742061101E-016
 -2.140000000000000E-002   -3.444769507500510E-017
 -2.130000000000000E-002    1.136871731987146E-016
 -2.120000000000000E-002    2.876585696015139E-016
 -2.110000000000000E-002    4.751564685051546E-016
 -2.100000000000000E-002    6.593857681682298E-016
 -2.090000000000000E-002    8.201573874423802E-016
 -2.080000000000000E-002    9.356275327189843E-016
 -2.070000000000000E-002    9.845557755624511E-016
 -2.060000000000000E-002    9.488621362255256E-016
 -2.050000000000000E-002    8.161931872162720E-016
 -2.040000000000000E-002    5.821723604547355E-016
 -2.030000000000000E-002    2.520185115409706E-016
 -2.020000000000000E-002   -1.587278198429445E-016
 -2.010000000000000E-002   -6.245347265337803E-016
 -2.000000000000000E-002   -1.111306878840846E-015
 -1.990000000000000E-002   -1.578812101840638E-015
 -1.980000000000000E-002   -1.983884005924699E-015
 -1.970000000000000E-002   -2.284077542719710E-015
 -1.960000000000000E-002   -2.441396263928803E-015
 -1.950000000000000E-002   -2.425719706679458E-015
 -1.940000000000000E-002   -2.217598699676570E-015
 -1.930000000000000E-002   -1.810197643413141E-015
 -1.920000000000000E-002   -1.210278517127443E-015
 -1.910000000000000E-002   -4.382531405279624E-016
 -1.900000000000000E-002    4.725581078539697E-016
 -1.890000000000000E-002    1.477259327395181E-015
 -1.880000000000000E-002    2.521085491820849E-015
 -1.870000000000000E-002    3.541305984270102E-015
 -1.860000000000000E-002    4.469245354561232E-015
 -1.850000000000000E-002    5.232460797449653E-015
 -1.840000000000000E-002    5.757226786570580E-015
 -1.830000000000000E-002    5.971582068276773E-015
 -1.820000000000000E-002    5.809201418844219E-015
 -1.810000000000000E-002    5.214312041730845E-015
 -1.800000000000000E-002    4.147704836888794E-015
 -1.790000000000000E-002    2.593680196116452E-015
 -1.780000000000000E-002    5.674556330511996E-016
 -1.770000000000000E-002   -1.877725003464834E-015
 -1.760000000000000E-002   -4.644818607379167E-015
 -1.750000000000000E-002   -7.589746497653603E-015
 -1.740000000000000E-002   -1.052194540915422E-014
 -1.730000000000000E-002   -1.320975725912531E-014
 -1.720000000000000E-002   -1.539142861563753E-014
 -1.710000000000000E-002   -1.679190499554934E-014
 -1.700000000000000E-002   -1.714496093005139E-014
 -1.690000000000000E-002   -1.621943950497691E-014
 -1.680000000000000E-002   -1.384765292332250E-014
 -1.670000000000000E-002   -9.953350054852450E-015
 -1.660000000000000E-002   -4.576208972198573E-015
 -1.650000000000000E-002    2.110284682995872E-015
 -1.640000000000000E-002    9.790587878859844E-015
 -1.630000000000000E-002    1.801085140578091E-014
 -1.620000000000000E-002    2.619620649023909E-014
 -1.610000000000000E-002    3.368189539682539E-014
 -1.600000000000000E-002    3.975716785903654E-014
 -1.590000000000000E-002    4.371947377187284E-014
 -1.580000000000000E-002    4.493517400598796E-014
 -1.570000000000000E-002    4.290192069996150E-014
 -1.560000000000000E-002    3.730718012882721E-014
 -1.550000000000000E-002    2.807732393634439E-014
 -1.540000000000000E-002    1.541197106515549E-014
 -1.530000000000000E-002   -2.006473869413720E-016
 -1.520000000000000E-002   -1.799018708309445E-014
 -1.510000000000000E-002   -3.693356613976308E-014
 -1.500000000000000E-002   -5.580628312125836E-014
 -1.490000000000000E-002   -7.325290925730841E-014
 -1.480000000000000E-002   -8.787205443588721E-014
 -1.470000000000000E-002   -9.831005534067382E-014
 -1.460000000000000E-002   -1.033568321642126E-013
 -1.450000000000000E-002   -1.020372505256559E-013
 -1.440000000000000E-002   -9.369187135798566E-014
 -1.430000000000000E-002   -7.804216021574013E-014
 -1.420000000000000E-002   -5.523639815979253E-014
 -1.410000000000000E-002   -2.587433999369238E-014
 -1.400000000000000E-002    8.990035623148071E-015
 -1.390000000000000E-002    4.786726763379408E-014
 -1.380000000000000E-002    8.887151809987697E-014
 -1.370000000000000E-002    1.297785707321326E-013
 -1.360000000000000E-002    1.681021257888771E-013
 -1.350000000000000E-002    2.011876230120270E-013
 -1.340000000000000E-002    2.263243457823548E-013
 -1.330000000000000E-002    2.408758314222880E-013
 -1.320000000000000E-002    2.424291697679382E-013
 -1.310000000000000E-002    2.289618188949457E-013
 -1.300000000000000E-002    1.990224288749916E-013
 -1.290000000000000E-002    1.519186159317547E-013
 -1.280000000000000E-002    8.790107690889512E-014
 -1.270000000000000E-002    8.328376199301255E-015
 -1.260000000000000E-002   -8.420662151534803E-014
 -1.250000000000000E-002   -1.858099490669590E-013
 -1.240000000000000E-002   -2.913021805978057E-013
 -1.230000000000000E-002   -3.943352339333477E-013
 -1.220000000000000E-002   -4.876258863920286E-013
 -1.210000000000000E-002   -5.633111992416763E-013
 -1.200000000000000E-002   -6.134205359591460E-013
 -1.190000000000000E-002   -6.304458811243203E-013
 -1.180000000000000E-002   -6.079787912956338E-013
 -1.170000000000000E-002   -5.413689074518923E-013
 -1.160000000000000E-002   -4.283511479572774E-013
 -1.150000000000000E-002   -2.695816089960711E-013
 -1.140000000000000E-002   -6.902382731345315E-014
 -1.130000000000000E-002    1.658669974340159E-013
 -1.120000000000000E-002    4.242012514433180E-013
 -1.110000000000000E-002    6.919768744873115E-013
 -1.100000000000000E-002    9.526640255677712E-013
 -1.090000000000000E-002    1.188035129461184E-012
 -1.080000000000000E-002    1.379194142474071E-012
 -1.070000000000000E-002    1.507746401309943E-012
 -1.060000000000000E-002    1.557038303044678E-012
 -1.050000000000000E-002    1.513386767275147E-012
 -1.040000000000000E-002    1.367227796333396E-012
 -1.030000000000000E-002    1.114113561332051E-012
 -1.020000000000000E-002    7.555051762565261E-013
 -1.010000000000000E-002    2.993209979855050E-013
 -1.000000000000000E-002   -2.397887545682112E-013
 -9.899999999999999E-003   -8.404571406383838E-013
 -9.800000000000000E-003   -1.474922239707042E-012
 -9.699999999999999E-003   -2.109663773097184E-012
 -9.599999999999999E-003   -2.706378802031435E-012
 -9.500000000000000E-003   -3.223316132135651E-012
 -9.399999999999999E-003   -3.616993364569054E-012
 -9.299999999999999E-003   -3.844320555530637E-012
 -9.200000000000000E-003   -3.865124086075679E-012
 -9.099999999999999E-003   -3.645044827311887E-012
 -8.999999999999999E-003   -3.158724059330455E-012
 -8.900000000000000E-003   -2.393137899350960E-012
 -8.799999999999999E-003   -1.350863596679382E-012
 -8.699999999999999E-003   -5.300297630151455E-014
 -8.600000000000000E-003    1.458583306486162E-012
 -8.499999999999999E-003    3.120083789373692E-012
 -8.399999999999999E-003    4.845966459507892E-012
 -8.300000000000000E-003    6.530938137287277E-012
 -8.199999999999999E-003    8.053848513201054E-012
 -8.100000000000000E-003    9.283626848621425E-012
 -8.000000000000000E-003    1.008713718168333E-011
 -7.899999999999999E-003    1.033865045088098E-011
 -7.800000000000000E-003    9.930417447978747E-012
 -7.699999999999999E-003    8.783634482187462E-012
 -7.599999999999999E-003    6.858958576167347E-012
 -7.499999999999999E-003    4.165641410450326E-012
 -7.399999999999999E-003    7.683369576652483E-013
 -7.299999999999999E-003   -3.209248329579775E-012
 -7.199999999999999E-003   -7.584554574589064E-012
 -7.100000000000000E-003   -1.212067228526037E-011
 -6.999999999999999E-003   -1.653526345747255E-011
 -6.899999999999999E-003   -2.051374432257843E-011
 -6.800000000000000E-003   -2.372623996680508E-011
 -6.699999999999999E-003   -2.584749695568328E-011
 -6.599999999999999E-003   -2.657873023506978E-011
 -6.499999999999999E-003   -2.567020828674571E-011
 -6.399999999999999E-003   -2.294326228324477E-011
 -6.299999999999999E-003   -1.831038839459355E-011
 -6.199999999999999E-003   -1.179218045733964E-011
 -6.100000000000000E-003   -3.529877716254422E-012
 -5.999999999999999E-003    6.207523026278682E-012
 -5.899999999999999E-003    1.702247097850426E-011
 -5.800000000000000E-003    2.839513783586914E-011
 -5.699999999999999E-003    3.969724552597134E-011
 -5.599999999999999E-003    5.021375971320743E-011
 -5.499999999999999E-003    5.917242626873894E-011
 -5.399999999999999E-003    6.578079599670412E-011
 -5.299999999999999E-003    6.926999201645467E-011
 -5.199999999999999E-003    6.894388632797485E-011
 -5.099999999999999E-003    6.423185042573291E-011
 -4.999999999999999E-003    5.474262649080934E-011
 -4.899999999999999E-003    4.031624310567679E-011
 -4.799999999999999E-003    2.107032076325333E-011
 -4.699999999999999E-003   -2.563063300512512E-012
 -4.599999999999999E-003   -2.981411859243023E-011
 -4.499999999999999E-003   -5.956960705579877E-011
 -4.399999999999999E-003   -9.038790398952094E-011
 -4.299999999999999E-003   -1.205373913897045E-010
 -4.199999999999999E-003   -1.480592732949432E-010
 -4.099999999999999E-003   -1.708545930834151E-010
 -3.999999999999999E-003   -1.867929895340481E-010
 -3.899999999999999E-003   -1.938394788849374E-010
 -3.799999999999999E-003   -1.901932771957414E-010
 -3.699999999999999E-003   -1.744313668429456E-010
 -3.599999999999999E-003   -1.456483827313153E-010
 -3.499999999999999E-003   -1.035835797001745E-010
 -3.399999999999999E-003   -4.872546951929572E-011
 -3.299999999999999E-003    1.761427771684397E-011
 -3.199999999999999E-003    9.326586192678506E-011
 -3.099999999999999E-003    1.752110227098657E-010
 -2.999999999999999E-003    2.596415054187479E-010
 -2.899999999999999E-003    3.420681653842517E-010
 -2.799999999999999E-003    4.174797810094772E-010
 -2.699999999999999E-003    4.805481083172727E-010
 -2.599999999999999E-003    5.258735179392008E-010
 -2.499999999999999E-003    5.482627986271569E-010
 -2.399999999999999E-003    5.430287846833220E-010
 -2.299999999999999E-003    5.062997578981282E-010
 -2.199999999999999E-003    4.353248902230511E-010
 -2.099999999999999E-003    3.287608602135290E-010
 -1.999999999999999E-003    1.869247441420852E-010
 -1.899999999999999E-003    1.199725435795955E-011
 -1.799999999999999E-003   -1.918381626470000E-010
 -1.699999999999999E-003   -4.183343671638171E-010
 -1.599999999999999E-003   -6.592091552594984E-010
 -1.499999999999999E-003   -9.042726591390343E-010
 -1.399999999999999E-003   -1.141658797925163E-009
 -1.299999999999999E-003   -1.358162137091945E-009
 -1.199999999999999E-003   -1.539676160746885E-009
 -1.099999999999999E-003   -1.671725090218770E-009
 -9.999999999999989E-004   -1.740074340311478E-009
 -8.999999999999990E-004   -1.731401568918738E-009
 -7.999999999999990E-004   -1.634004815444197E-009
 -6.999999999999989E-004   -1.438521585310893E-009
 -5.999999999999990E-004   -1.138629391600451E-009
 -4.999999999999989E-004   -7.316982610836250E-010
 -3.999999999999989E-004   -2.193649452593495E-010
 -2.999999999999989E-004    3.919982987859675E-010
 -1.999999999999989E-004    1.090948418302977E-009
 -9.999999999999892E-005    1.860790915867486E-009
  1.084202172485504E-018    2.679573378115348E-009
  1.000000000000011E-004    3.520269940186699E-009
  2.000000000000011E-004    4.351165259962806E-009
  3.000000000000011E-004    5.136449721202105E-009
  4.000000000000011E-004    5.837026480002338E-009
  5.000000000000011E-004    6.411532444468156E-009
  6.000000000000011E-004    6.817568719284630E-009
  7.000000000000011E-004    7.013130853216478E-009
  8.000000000000011E-004    6.958226618856117E-009
  9.000000000000012E-004    6.616659239331087E-009
  1.000000000000001E-003    5.957943252269787E-009
  1.100000000000001E-003    4.959320342131219E-009
  1.200000000000001E-003    3.607821915256661E-009
  1.300000000000001E-003    1.902321987237932E-009
  1.400000000000001E-003   -1.444829468505959E-010
  1.500000000000001E-003   -2.504251963653353E-009
  1.600000000000001E-003   -5.131404597830781E-009
  1.700000000000001E-003   -7.961837783414992E-009
  1.800000000000001E-003   -1.091203625958791E-008
  1.900000000000001E-003   -1.387864544700520E-008
  2.000000000000001E-003   -1.673856407744596E-008
  2.100000000000001E-003   -1.934959803853348E-008
  2.200000000000001E-003   -2.155170834712957E-008
  2.300000000000001E-003   -2.316883858182508E-008
  2.400000000000001E-003   -2.401129550911964E-008
  2.500000000000001E-003   -2.387865223027008E-008
  2.600000000000001E-003   -2.256304915109589E-008
  2.700000000000001E-003   -1.985284755924103E-008
  2.800000000000001E-003   -1.553648276291695E-008
  2.900000000000001E-003   -9.406375641078387E-009
  3.000000000000001E-003   -1.262780372667439E-009
  3.100000000000001E-003    9.082609646315431E-009
  3.200000000000001E-003    2.180339274351779E-008
  3.300000000000001E-003    3.705575864324984E-008
  3.400000000000001E-003    5.497636829624785E-008
  3.500000000000001E-003    7.568098691359770E-008
  3.600000000000001E-003    9.926398982208369E-008
  3.700000000000001E-003    1.257986418004175E-007
  3.800000000000001E-003    1.553383343856416E-007
  3.900000000000001E-003    1.879186284153141E-007
  4.000000000000001E-003    2.235601228961773E-007
  4.100000000000001E-003    2.622720385082319E-007
  4.200000000000001E-003    3.040562968193857E-007
  4.300000000000001E-003    3.489121725243009E-007
  4.400000000000001E-003    3.968410071395769E-007
  4.500000000000001E-003    4.478512433075682E-007
  4.600000000000002E-003    5.019631027954022E-007
  4.700000000000001E-003    5.592131701502372E-007
  4.800000000000001E-003    6.196584508246956E-007
  4.900000000000002E-003    6.833798667456898E-007
  5.000000000000001E-003    7.504850734273436E-007
  5.100000000000001E-003    8.211108601258660E-007
  5.200000000000001E-003    8.954244509556426E-007
  5.300000000000002E-003    9.736243297659481E-007
  5.400000000000001E-003    1.055940464338451E-006
  5.500000000000001E-003    1.142634072482346E-006
  5.600000000000002E-003    1.233996911530668E-006
  5.700000000000001E-003    1.330350288047626E-006
  5.800000000000001E-003    1.432044008847646E-006
  5.900000000000002E-003    1.539455088633891E-006
  6.000000000000001E-003    1.652986865322503E-006
  6.100000000000001E-003    1.773067905685983E-006
  6.200000000000002E-003    1.900151321132113E-006
  6.300000000000002E-003    2.034714156475629E-006
  6.400000000000001E-003    2.177257048017824E-006
  6.500000000000001E-003    2.328304100077972E-006
  6.600000000000002E-003    2.488403433931549E-006
  6.700000000000001E-003    2.658126654345932E-006
  6.800000000000001E-003    2.838070778129266E-006
  6.900000000000002E-003    3.028857432460756E-006
  7.000000000000001E-003    3.231135588636559E-006
  7.100000000000001E-003    3.445581970360746E-006
  7.200000000000002E-003    3.672902493758543E-006
  7.300000000000002E-003    3.913834584007310E-006
  7.400000000000001E-003    4.169148899808825E-006
  7.500000000000001E-003    4.439651342065910E-006
  7.600000000000002E-003    4.726185954627999E-006
  7.700000000000001E-003    5.029636554015858E-006
  7.800000000000001E-003    5.350930341863766E-006
  7.900000000000001E-003    5.691039299819558E-006
  8.000000000000002E-003    6.050983527140176E-006
  8.100000000000001E-003    6.431832428618317E-006
  8.200000000000001E-003    6.834708587370220E-006
  8.300000000000002E-003    7.260788439031638E-006
  8.400000000000001E-003    7.711304437319378E-006
  8.500000000000002E-003    8.187547873947513E-006
  8.600000000000002E-003    8.690870808319530E-006
  8.700000000000001E-003    9.222687908452811E-006
  8.800000000000002E-003    9.784480226760657E-006
  8.900000000000002E-003    1.037779744007741E-005
  9.000000000000001E-003    1.100426232560218E-005
  9.100000000000002E-003    1.166557285210520E-005
  9.200000000000002E-003    1.236350848244185E-005
  9.300000000000001E-003    1.309993380844276E-005
  9.400000000000002E-003    1.387680394974378E-005
  9.500000000000001E-003    1.469616957153856E-005
  9.600000000000001E-003    1.556018120888891E-005
  9.700000000000002E-003    1.647109253931309E-005
  9.800000000000001E-003    1.743126778551119E-005
  9.900000000000001E-003    1.844318001272579E-005
  1.000000000000000E-002    1.950941979287666E-005
  1.010000000000000E-002    2.063269625515737E-005
  1.020000000000000E-002    2.181583719238182E-005
  1.030000000000000E-002    2.306179239798706E-005
  1.040000000000000E-002    2.437363826635443E-005
  1.050000000000000E-002    2.575457799788084E-005
  1.060000000000000E-002    2.720794564413827E-005
  1.070000000000000E-002    2.873720884688944E-005
  1.080000000000000E-002    3.034597683729984E-005
  1.090000000000000E-002    3.203800390872864E-005
  1.100000000000000E-002    3.381719704233746E-005
  1.110000000000000E-002    3.568762260176120E-005
  1.120000000000000E-002    3.765351646583698E-005
  1.130000000000000E-002    3.971929350081612E-005
  1.140000000000000E-002    4.188956252972169E-005
  1.150000000000000E-002    4.416912250029657E-005
  1.160000000000000E-002    4.656298171581079E-005
  1.170000000000000E-002    4.907637507442732E-005
  1.180000000000000E-002    5.171475286835049E-005
  1.190000000000000E-002    5.448380212240266E-005
  1.200000000000000E-002    5.738945731788244E-005
  1.210000000000000E-002    6.043789413788650E-005
  1.220000000000000E-002    6.363554239660671E-005
  1.230000000000000E-002    6.698908697124391E-005
  1.240000000000000E-002    7.050547718511131E-005
  1.250000000000000E-002    7.419192539322624E-005
  1.260000000000000E-002    7.805591910765360E-005
  1.270000000000000E-002    8.210521736614795E-005
  1.280000000000000E-002    8.634785708800470E-005
  1.290000000000000E-002    9.079217636527973E-005
  1.300000000000000E-002    9.544679272831461E-005
  1.310000000000000E-002    1.003206432683299E-004
  1.320000000000000E-002    1.054229662155827E-004
  1.330000000000000E-002    1.107633313548867E-004
  1.340000000000000E-002    1.163516415372744E-004
  1.350000000000000E-002    1.221981490820897E-004
  1.360000000000000E-002    1.283134655919410E-004
  1.370000000000000E-002    1.347085636734642E-004
  1.380000000000000E-002    1.413948068237904E-004
  1.390000000000000E-002    1.483839534487296E-004
  1.400000000000000E-002    1.556881523508756E-004
  1.410000000000000E-002    1.633199725917822E-004
  1.420000000000000E-002    1.712924084197577E-004
  1.430000000000000E-002    1.796188750655684E-004
  1.440000000000000E-002    1.883132302433208E-004
  1.450000000000000E-002    1.973898024395129E-004
  1.460000000000000E-002    2.068633411172696E-004
  1.470000000000000E-002    2.167490825143475E-004
  1.480000000000000E-002    2.270627534906890E-004
  1.490000000000000E-002    2.378205435486983E-004
  1.500000000000000E-002    2.490391474258571E-004
  1.510000000000000E-002    2.607357930545159E-004
  1.520000000000000E-002    2.729281937116766E-004
  1.530000000000000E-002    2.856346173056792E-004
  1.540000000000000E-002    2.988738663077312E-004
  1.550000000000000E-002    3.126652908609180E-004
  1.560000000000000E-002    3.270288369269823E-004
  1.570000000000000E-002    3.419849825849046E-004
  1.580000000000000E-002    3.575547811225304E-004
  1.590000000000000E-002    3.737599361075207E-004
  1.600000000000000E-002    3.906226510584878E-004
  1.610000000000000E-002    4.081658038627670E-004
  1.620000000000000E-002    4.264128144168746E-004
  1.630000000000000E-002    4.453877543279887E-004
  1.640000000000000E-002    4.651153171876219E-004
  1.650000000000000E-002    4.856207985121017E-004
  1.660000000000000E-002    5.069301228876229E-004
  1.670000000000000E-002    5.290699228230019E-004
  1.680000000000000E-002    5.520673727636784E-004
  1.690000000000000E-002    5.759504205858813E-004
  1.700000000000000E-002    6.007476203490886E-004
  1.710000000000000E-002    6.264882479182688E-004
  1.720000000000000E-002    6.532022241130881E-004
  1.730000000000000E-002    6.809201441431639E-004
  1.740000000000000E-002    7.096733360969598E-004
  1.750000000000000E-002    7.394938508655164E-004
  1.760000000000000E-002    7.704142715234450E-004
  1.770000000000000E-002    8.024680097265470E-004
  1.780000000000000E-002    8.356891303910875E-004
  1.790000000000000E-002    8.701123448564430E-004
  1.800000000000000E-002    9.057729665133123E-004
  1.810000000000000E-002    9.427070535337950E-004
  1.820000000000000E-002    9.809512461608626E-004
  1.830000000000000E-002    1.020542906600095E-003
  1.840000000000000E-002    1.061520007239528E-003
  1.850000000000000E-002    1.103921086785049E-003
  1.860000000000000E-002    1.147785467930818E-003
  1.870000000000000E-002    1.193153002798779E-003