 -4.000000000000000E-002    0.000000000000000E+000
 -3.990000000000000E-002    0.000000000000000E+000
 -3.980000000000000E-002    0.000000000000000E+000
 -3.970000000000000E-002    0.000000000000000E+000
 -3.960000000000000E-002    0.000000000000000E+000
 -3.950000000000000E-002    0.000000000000000E+000
 -3.940000000000000E-002    0.000000000000000E+000
 -3.930000000000000E-002    0.000000000000000E+000
 -3.920000000000000E-002    0.000000000000000E+000
 -3.910000000000000E-002    0.000000000000000E+000
 -3.900000000000000E-002    0.000000000000000E+000
 -3.890000000000000E-002    3.569145417253844E-035
 -3.880000000000000E-002    9.794975827792642E-034
 -3.870000000000000E-002    1.286733241559659E-032
 -3.860000000000000E-002    1.107902131697680E-031
 -3.850000000000000E-002    7.122585921906637E-031
 -3.840000000000000E-002    3.669980665809643E-030
 -3.830000000000000E-002    1.583551964726846E-029
 -3.820000000000000E-002    5.891878571727519E-029
 -3.810000000000000E-002    1.929173185614912E-028
 -3.800000000000000E-002    5.639337446551836E-028
 -3.790000000000000E-002    1.486410417440078E-027
 -3.780000000000000E-002    3.554681064398367E-027
 -3.770000000000000E-002    7.732397730778653E-027
 -3.760000000000000E-002    1.526987909981350E-026
 -3.750000000000000E-002    2.713464641059924E-026
 -3.740000000000000E-002    4.242505315978830E-026
 -3.730000000000000E-002    5.505099805300871E-026
 -3.720000000000000E-002    4.799137033051179E-026
 -3.710000000000000E-002   -1.502054815630421E-026
 -3.700000000000000E-002   -1.990813581780316E-025
 -3.690000000000000E-002   -6.049500255540617E-025
 -3.680000000000000E-002   -1.365046532030253E-024
 -3.670000000000000E-002   -2.615707909760271E-024
 -3.660000000000000E-002   -4.428828062782463E-024
 -3.650000000000000E-002   -6.685871178741327E-024
 -3.640000000000000E-002   -8.885119453957211E-024
 -3.630000000000000E-002   -9.893542289061003E-024
 -3.620000000000000E-002   -7.691248408082222E-024
 -3.610000000000000E-002    7.912636387606977E-025
 -3.600000000000000E-002    1.958223639799122E-023
 -3.590000000000000E-002    5.311112990024606E-023
 -3.580000000000000E-002    1.049548520695542E-022
 -3.570000000000000E-002    1.757124093012797E-022
 -3.560000000000000E-002    2.599929615379674E-022
 -3.550000000000000E-002    3.427926295635637E-022
 -3.540000000000000E-002    3.959493649515723E-022
 -3.530000000000000E-002    3.758534996978886E-022
 -3.520000000000000E-002    2.240444225263939E-022
 -3.510000000000000E-002   -1.274218986730589E-022
 -3.500000000000000E-002   -7.440917536419377E-022
 -3.490000000000000E-002   -1.669708451471855E-021
 -3.480000000000000E-002   -2.899709347848341E-021
 -3.470000000000000E-002   -4.350171164435634E-021
 -3.460000000000000E-002   -5.827310683964612E-021
 -3.450000000000000E-002   -7.005187271219329E-021
 -3.440000000000000E-002   -7.421085534225025E-021
 -3.430000000000000E-002   -6.498421600799708E-021
 -3.420000000000000E-002   -3.605225006775193E-021
 -3.410000000000000E-002    1.848032484162467E-021
 -3.400000000000000E-002    1.027412268006819E-020
 -3.390000000000000E-002    2.174920136375842E-020
 -3.380000000000000E-002    3.584639572240670E-020
 -3.370000000000000E-002    5.148801992785866E-020
 -3.360000000000000E-002    6.684409446295307E-020
 -3.350000000000000E-002    7.930268386619381E-020
 -3.340000000000000E-002    8.553096302456659E-020
 -3.330000000000000E-002    8.163692643148432E-020
 -3.320000000000000E-002    6.343357435573936E-020
 -3.310000000000000E-002    2.680455231591843E-020
 -3.300000000000000E-002   -3.182452535817009E-020
 -3.290000000000000E-002   -1.148908044116860E-019
 -3.280000000000000E-002   -2.229387672155014E-019
 -3.270000000000000E-002   -3.536568872870281E-019
 -3.260000000000000E-002   -5.006689240906311E-019
 -3.250000000000000E-002   -6.520936561148939E-019
 -3.240000000000000E-002   -7.889927163966329E-019
 -3.230000000000000E-002   -8.839920796917609E-019
 -3.220000000000000E-002   -9.005735098920570E-019
 -3.210000000000000E-002   -7.937477954518171E-019
 -3.200000000000000E-002   -5.129753148775846E-019
 -3.190000000000000E-002   -8.203896700548832E-021
 -3.180000000000000E-002    7.603458436499064E-019
 -3.170000000000000E-002    1.808574255926739E-018
 -3.160000000000000E-002    3.111903115352516E-018
 -3.150000000000000E-002    4.587696930757294E-018
 -3.140000000000000E-002    6.080037258758591E-018
 -3.130000000000000E-002    7.351357335667580E-018
 -3.120000000000000E-002    8.086126700712167E-018
 -3.110000000000000E-002    7.911584570427378E-018
 -3.100000000000000E-002    6.439101181771291E-018
 -3.090000000000000E-002    3.326946356251328E-018
 -3.080000000000000E-002   -1.638886654255865E-018
 -3.070000000000000E-002   -8.454188913146816E-018
 -3.060000000000000E-002   -1.680992668231379E-017
 -3.050000000000000E-002   -2.602731193761558E-017
 -3.040000000000000E-002   -3.503439002488157E-017
 -3.030000000000000E-002   -4.240273753785599E-017
 -3.020000000000000E-002   -4.645744713746851E-017
 -3.010000000000000E-002   -4.546393286137720E-017
 -3.000000000000000E-002   -3.788186021461227E-017
 -2.990000000000000E-002   -2.266152081635104E-017
 -2.980000000000000E-002    4.564068671968241E-019
 -2.970000000000000E-002    3.068719868968126E-017
 -2.960000000000000E-002    6.604772525612402E-017
 -2.950000000000000E-002    1.033490263294979E-016
 -2.940000000000000E-002    1.383677067465151E-016
 -2.930000000000000E-002    1.662032699101945E-016
 -2.920000000000000E-002    1.817975877169469E-016
 -2.910000000000000E-002    1.805611026902663E-016
 -2.900000000000000E-002    1.590239595964148E-016
 -2.890000000000000E-002    1.154160096530435E-016
 -2.880000000000000E-002    5.008195943799176E-017
 -2.870000000000000E-002   -3.434074976037494E-017
 -2.860000000000000E-002   -1.330152103155835E-016
 -2.850000000000000E-002   -2.392539766565492E-016
 -2.840000000000000E-002   -3.450576792865798E-016
 -2.830000000000000E-002   -4.417377745352713E-016
 -2.820000000000000E-002   -5.205014187549743E-016
 -2.810000000000000E-002   -5.728902361905118E-016
 -2.800000000000000E-002   -5.910127245566286E-016
 -2.790000000000000E-002   -5.675848129631410E-016
 -2.780000000000000E-002   -4.958799677324754E-016
 -2.770000000000000E-002   -3.697692292773862E-016
 -2.760000000000000E-002   -1.840756921797717E-016
 -2.750000000000000E-002    6.454457487288734E-017
 -2.740000000000000E-002    3.760660365530494E-016
 -2.730000000000000E-002    7.449271890075733E-016
 -2.720000000000000E-002    1.157468568342366E-015
 -2.710000000000000E-002    1.589434455675688E-015
 -2.700000000000000E-002    2.004192036737710E-015
 -2.690000000000000E-002    2.352425347696754E-015
 -2.680000000000000E-002    2.574025981541659E-015
 -2.670000000000000E-002    2.602692824909474E-015
 -2.660000000000000E-002    2.373370671427814E-015
 -2.650000000000000E-002    1.832131654509005E-015
 -2.640000000000000E-002    9.475157617714876E-016
 -2.630000000000000E-002   -2.782033702158212E-016
 -2.620000000000000E-002   -1.799745889578619E-015
 -2.610000000000000E-002   -3.523584974444126E-015
 -2.600000000000000E-002   -5.308523407907609E-015
 -2.590000000000000E-002   -6.973259405705827E-015
 -2.580000000000000E-002   -8.311153710598299E-015
 -2.570000000000000E-002   -9.111248597783116E-015
 -2.560000000000000E-002   -9.183405595341714E-015
 -2.550000000000000E-002   -8.384442625516796E-015
 -2.540000000000000E-002   -6.641584827161847E-015
 -2.530000000000000E-002   -3.969561612306170E-015
 -2.520000000000000E-002   -4.783455421618009E-016
 -2.510000000000000E-002    3.630176414476248E-015
 -2.500000000000000E-002    8.076625008518312E-015
 -2.490000000000000E-002    1.252781258573127E-014
 -2.480000000000000E-002    1.662625213747749E-014
 -2.470000000000000E-002    2.002100995054781E-014
 -2.460000000000000E-002    2.239523441557337E-014
 -2.450000000000000E-002    2.348648594554865E-014
 -2.440000000000000E-002    2.309768951771389E-014
 -2.430000000000000E-002    2.109885216090426E-014
 -2.420000000000000E-002    1.742215776725517E-014
 -2.410000000000000E-002    1.205511151067671E-014
 -2.400000000000000E-002    5.037492286438435E-015
 -2.390000000000000E-002   -3.532466333109792E-015
 -2.380000000000000E-002   -1.347915068702216E-014
 -2.370000000000000E-002   -2.451772791096800E-014
 -2.360000000000000E-002   -3.621351239556902E-014
 -2.350000000000000E-002   -4.794104747491194E-014
 -2.340000000000000E-002   -5.885495880549770E-014
 -2.330000000000000E-002   -6.788630807263472E-014
 -2.320000000000000E-002   -7.377732205320328E-014
 -2.310000000000000E-002   -7.516339783076617E-014
 -2.300000000000000E-002   -7.070469858666239E-014
 -2.290000000000000E-002   -5.926092798012712E-014
 -2.280000000000000E-002   -4.009336827524338E-014
 -2.270000000000000E-002   -1.307000847357180E-014
 -2.260000000000000E-002    2.115655026439788E-014
 -2.250000000000000E-002    6.103030638379689E-014
 -2.240000000000000E-002    1.040610087189885E-013
 -2.230000000000000E-002    1.469017922176372E-013
 -2.220000000000000E-002    1.855433352305971E-013
 -2.210000000000000E-002    2.156175229985253E-013
 -2.200000000000000E-002    2.327879658299708E-013
 -2.190000000000000E-002    2.331913124750979E-013
 -2.180000000000000E-002    2.138842056954533E-013
 -2.170000000000000E-002    1.732471692396171E-013
 -2.160000000000000E-002    1.113003441437412E-013
 -2.150000000000000E-002    2.989484085443055E-014
 -2.140000000000000E-002   -6.724267490221578E-014
 -2.130000000000000E-002   -1.746186190340617E-013
 -2.120000000000000E-002   -2.852261547395657E-013
 -2.110000000000000E-002   -3.909230830612383E-013
 -2.100000000000000E-002   -4.829061850603623E-013
 -2.090000000000000E-002   -5.522520658976297E-013
 -2.080000000000000E-002   -5.904967804104541E-013
 -2.070000000000000E-002   -5.902321511167750E-013
 -2.060000000000000E-002   -5.457013918732228E-013
 -2.050000000000000E-002   -4.533786461267710E-013
 -2.040000000000000E-002   -3.125159233010729E-013
 -2.030000000000000E-002   -1.256309641106632E-013
 -2.020000000000000E-002    1.011014220997787E-013
 -2.010000000000000E-002    3.576078550983108E-013
 -2.000000000000000E-002    6.298905463775998E-013
 -1.990000000000000E-002    9.002885065823172E-013
 -1.980000000000000E-002    1.148091955125889E-012
 -1.970000000000000E-002    1.350556074859732E-012
 -1.960000000000000E-002    1.484324648307738E-012
 -1.950000000000000E-002    1.527226587184332E-012
 -1.940000000000000E-002    1.460350839463710E-012
 -1.930000000000000E-002    1.270249877315968E-012
 -1.920000000000000E-002    9.510718444941182E-013
 -1.910000000000000E-002    5.063928688419740E-013
 -1.900000000000000E-002   -4.948785503728689E-014
 -1.890000000000000E-002   -6.910025085246997E-013
 -1.880000000000000E-002   -1.381684359611044E-012
 -1.870000000000000E-002   -2.075538949242687E-012
 -1.860000000000000E-002   -2.719416660850433E-012
 -1.850000000000000E-002   -3.256287727288591E-012
 -1.840000000000000E-002   -3.629231442811145E-012
 -1.830000000000000E-002   -3.785878782692274E-012
 -1.820000000000000E-002   -3.682995958701458E-012
 -1.810000000000000E-002   -3.290875771906858E-012
 -1.800000000000000E-002   -2.597205866802245E-012
 -1.790000000000000E-002   -1.610111761311427E-012
 -1.780000000000000E-002   -3.601124963381291E-013
 -1.770000000000000E-002    1.099221475977786E-012
 -1.760000000000000E-002    2.692063969846216E-012
 -1.750000000000000E-002    4.322684387677288E-012
 -1.740000000000000E-002    5.879395397383681E-012
 -1.730000000000000E-002    7.240074874610061E-012
 -1.720000000000000E-002    8.279157064322559E-012
 -1.710000000000000E-002    8.875890442237198E-012
 -1.700000000000000E-002    8.923537230644130E-012
 -1.690000000000000E-002    8.339050169063350E-012
 -1.680000000000000E-002    7.072614549337466E-012
 -1.670000000000000E-002    5.116308890659104E-012
 -1.660000000000000E-002    2.511045385348561E-012
 -1.650000000000000E-002   -6.490885708567606E-013
 -1.640000000000000E-002   -4.215908439430476E-012
 -1.630000000000000E-002   -7.990297638948541E-012
 -1.620000000000000E-002   -1.172985702602925E-011
 -1.610000000000000E-002   -1.516108813935650E-011
 -1.600000000000000E-002   -1.799572670852977E-011
 -1.590000000000000E-002   -1.995041871373656E-011
 -1.580000000000000E-002   -2.076848980279762E-011
 -1.570000000000000E-002   -2.024226149773851E-011
 -1.560000000000000E-002   -1.823414679335332E-011
 -1.550000000000000E-002   -1.469473172229767E-011
 -1.540000000000000E-002   -9.676184626822547E-012
 -1.530000000000000E-002   -3.339617492903597E-012
 -1.520000000000000E-002    4.044528516409704E-012
 -1.510000000000000E-002    1.210352161262390E-011
 -1.500000000000000E-002    2.037674076018869E-011
 -1.490000000000000E-002    2.833688030815491E-011
 -1.480000000000000E-002    3.541702021951452E-011
 -1.470000000000000E-002    4.104233552279919E-011
 -1.460000000000000E-002    4.466501668975585E-011
 -1.450000000000000E-002    4.580086267907500E-011
 -1.440000000000000E-002    4.406596203618769E-011
 -1.430000000000000E-002    3.921176127073593E-011
 -1.420000000000000E-002    3.115676096094410E-011
 -1.410000000000000E-002    2.001285517802297E-011
 -1.400000000000000E-002    6.104213145833852E-012
 -1.390000000000000E-002   -1.002363492631913E-011
 -1.380000000000000E-002   -2.760685904058150E-011
 -1.370000000000000E-002   -4.568075407149138E-011
 -1.360000000000000E-002   -6.311332644700450E-011
 -1.350000000000000E-002   -7.865599666755969E-011
 -1.340000000000000E-002   -9.101116431548037E-011
 -1.330000000000000E-002   -9.891483439151778E-011
 -1.320000000000000E-002   -1.012306696211899E-010
 -1.310000000000000E-002   -9.705005380660012E-011
 -1.300000000000000E-002   -8.579094996762471E-011
 -1.290000000000000E-002   -6.728719665500075E-011
 -1.280000000000000E-002   -4.185925779234769E-011
 -1.270000000000000E-002   -1.035774479742067E-011
 -1.260000000000000E-002    2.582783013319218E-011
 -1.250000000000000E-002    6.480032536028910E-011
 -1.240000000000000E-002    1.042286696241809E-010
 -1.230000000000000E-002    1.414629933178934E-010
 -1.220000000000000E-002    1.736863499785638E-010
 -1.210000000000000E-002    1.980949641131597E-010
 -1.200000000000000E-002    2.120958567228642E-010
 -1.190000000000000E-002    2.135087757186812E-010
 -1.180000000000000E-002    2.007583283639354E-010
 -1.170000000000000E-002    1.730423995027068E-010
 -1.160000000000000E-002    1.304640849371298E-010
 -1.150000000000000E-002    7.411655887754691E-011
 -1.140000000000000E-002    6.112734828496043E-012
 -1.130000000000000E-002   -7.044519090597332E-011
 -1.120000000000000E-002   -1.515584554300426E-010
 -1.110000000000000E-002   -2.324858189965008E-010
 -1.100000000000000E-002   -3.079555831551888E-010
 -1.090000000000000E-002   -3.724296712158116E-010
 -1.080000000000000E-002   -4.204113817888790E-010
 -1.070000000000000E-002   -4.467859620098178E-010
 -1.060000000000000E-002   -4.471805759516077E-010
 -1.050000000000000E-002   -4.183268528882071E-010
 -1.040000000000000E-002   -3.584064165999647E-010
 -1.030000000000000E-002   -2.673565940986842E-010
 -1.020000000000000E-002   -1.471110225050456E-010
 -1.010000000000000E-002   -1.749004459234026E-012
 -1.000000000000000E-002    1.624720114861248E-010
 -9.899999999999999E-003    3.372231079181464E-010
 -9.800000000000000E-003    5.123657978939953E-010
 -9.699999999999999E-003    6.763760869978818E-010
 -9.599999999999999E-003    8.169263003415144E-010
 -9.500000000000000E-003    9.216061474439685E-010
 -9.399999999999999E-003    9.787506121748061E-010
 -9.299999999999999E-003    9.783285385839571E-010
 -9.200000000000000E-003    9.128345435096470E-010
 -9.099999999999999E-003    7.781190999015817E-010
 -8.999999999999999E-003    5.740889311870737E-010
 -8.900000000000000E-003    3.052128874544289E-010
 -8.799999999999999E-003   -1.922282641392334E-011
 -8.699999999999999E-003   -3.851525652333353E-010
 -8.600000000000000E-003   -7.740863908499710E-010
 -8.499999999999999E-003   -1.163785468495619E-009
 -8.399999999999999E-003   -1.529239906477914E-009
 -8.300000000000000E-003   -1.843909718579390E-009
 -8.199999999999999E-003   -2.081172501309986E-009
 -8.100000000000000E-003   -2.215906160161109E-009
 -8.000000000000000E-003   -2.226127114393228E-009
 -7.899999999999999E-003   -2.094598152733286E-009
 -7.800000000000000E-003   -1.810320556185633E-009
 -7.699999999999999E-003   -1.369828656031556E-009
 -7.599999999999999E-003   -7.782097546802509E-010
 -7.499999999999999E-003   -4.978197802067719E-011
 -7.399999999999999E-003    7.916290983021975E-010
 -7.299999999999999E-003    1.712862999725957E-009
 -7.199999999999999E-003    2.672081424554530E-009
 -7.100000000000000E-003    3.619933303491945E-009
 -6.999999999999999E-003    4.501229475146334E-009
 -6.899999999999999E-003    5.257113984211504E-009
 -6.800000000000000E-003    5.827688755134433E-009
 -6.699999999999999E-003    6.155028983235393E-009
 -6.599999999999999E-003    6.186489450897677E-009
 -6.499999999999999E-003    5.878176809837535E-009
 -6.399999999999999E-003    5.198439265709394E-009
 -6.299999999999999E-003    4.131199564785282E-009
 -6.199999999999999E-003    2.678947313827597E-009
 -6.100000000000000E-003    8.652110197802030E-010
 -5.999999999999999E-003   -1.263663786168495E-009
 -5.899999999999999E-003   -3.637568069124853E-009
 -5.800000000000000E-003   -6.162617063645635E-009
 -5.699999999999999E-003   -8.722123731597930E-009
 -5.599999999999999E-003   -1.117854461978192E-008
 -5.499999999999999E-003   -1.337633303894433E-008
 -5.399999999999999E-003   -1.514557037410104E-008
 -5.299999999999999E-003   -1.630620540792096E-008
 -5.199999999999999E-003   -1.667267669590652E-008
 -5.099999999999999E-003   -1.605869510039612E-008
 -4.999999999999999E-003   -1.428193519960172E-008
 -4.899999999999999E-003   -1.116840740827777E-008
 -4.799999999999999E-003   -6.556306602409455E-009
 -4.699999999999999E-003   -2.991651274804131E-010
 -4.599999999999999E-003    7.731817747776429E-009
 -4.499999999999999E-003    1.764633768120198E-008
 -4.399999999999999E-003    2.953447677943520E-008
 -4.299999999999999E-003    4.346709821172898E-008
 -4.199999999999999E-003    5.949709463340566E-008
 -4.099999999999999E-003    7.766136487397814E-008
 -3.999999999999999E-003    9.798347068755836E-008
 -3.899999999999999E-003    1.204767548872416E-007
 -3.799999999999999E-003    1.451477930287561E-007
 -3.699999999999999E-003    1.720000497020751E-007
 -3.599999999999999E-003    2.010375477501394E-007
 -3.499999999999999E-003    2.322683941176823E-007
 -3.399999999999999E-003    2.657079923648550E-007
 -3.299999999999999E-003    3.013819422559676E-007
 -3.199999999999999E-003    3.393283842975413E-007
 -3.099999999999999E-003    3.795997977591012E-007
 -2.999999999999999E-003    4.222641934098531E-007
 -2.899999999999999E-003    4.674058923438830E-007
 -2.799999999999999E-003    5.151256662295012E-007
 -2.699999999999999E-003    5.655404931773752E-007
 -2.599999999999999E-003    6.187832534777352E-007
 -2.499999999999999E-003    6.750021183122733E-007
 -2.399999999999999E-003    7.343601598551585E-007
 -2.299999999999999E-003    7.970349048671605E-007
 -2.199999999999999E-003    8.632184343892122E-007
 -2.099999999999999E-003    9.331175866819856E-007
 -1.999999999999999E-003    1.006954786701801E-006
 -1.899999999999999E-003    1.084968895236256E-006
 -1.799999999999999E-003    1.167416530288342E-006
 -1.699999999999999E-003    1.254573417216073E-006
 -1.599999999999999E-003    1.346735555085634E-006
 -1.499999999999999E-003    1.444220791868900E-006
 -1.399999999999999E-003    1.547369609082487E-006
 -1.299999999999999E-003    1.656545915472991E-006
 -1.199999999999999E-003    1.772137566093865E-006
 -1.099999999999999E-003    1.894556196891349E-006
 -9.999999999999989E-004    2.024237660567200E-006
 -8.999999999999990E-004    2.161641326191972E-006
 -7.999999999999990E-004    2.307250423685076E-006
 -6.999999999999989E-004    2.461571751402845E-006
 -5.999999999999990E-004    2.625135442057197E-006
 -4.999999999999989E-004    2.798496437167075E-006
 -3.999999999999989E-004    2.982233853795449E-006
 -2.999999999999989E-004    3.176952744625901E-006
 -1.999999999999989E-004    3.383284515856922E-006
 -9.999999999999892E-005    3.601888061690468E-006
  1.084202172485504E-018    3.833450078758353E-006
  1.000000000000011E-004    4.078685911920780E-006
  2.000000000000011E-004    4.338340164260104E-006
  3.000000000000011E-004    4.613185939260218E-006
  4.000000000000011E-004    4.904024922252958E-006
  5.000000000000011E-004    5.211686926708561E-006
  6.000000000000011E-004    5.537029327080760E-006
  7.000000000000011E-004    5.880938189247556E-006
  8.000000000000011E-004    6.244327289176493E-006
  9.000000000000012E-004    6.628141989004340E-006
  1.000000000000001E-003    7.033359039515931E-006
  1.100000000000001E-003    7.460993488339425E-006
  1.200000000000001E-003    7.912101652148177E-006
  1.300000000000001E-003    8.387787077465436E-006
  1.400000000000001E-003    8.889208017959311E-006
  1.500000000000001E-003    9.417585646392474E-006
  1.600000000000001E-003    9.974212121576744E-006
  1.700000000000001E-003    1.056046053909416E-005
  1.800000000000001E-003    1.117779180435360E-005
  1.900000000000001E-003    1.182776366642621E-005
  2.000000000000001E-003    1.251203980454285E-005
  2.100000000000001E-003    1.323239491262568E-005
  2.200000000000001E-003    1.399072089689081E-005
  2.300000000000001E-003    1.478903387597251E-005
  2.400000000000001E-003    1.562947404997997E-005
  2.500000000000001E-003    1.651430893931735E-005
  2.600000000000001E-003    1.744593267042411E-005
  2.700000000000001E-003    1.842686645577709E-005
  2.800000000000001E-003    1.945975166633367E-005
  2.900000000000001E-003    2.054734383085599E-005
  3.000000000000001E-003    2.169250677956088E-005
  3.100000000000001E-003    2.289820527653126E-005
  3.200000000000001E-003    2.416749326007602E-005
  3.300000000000001E-003    2.550350309436368E-005
  3.400000000000001E-003    2.690943861289289E-005
  3.500000000000001E-003    2.838856369609785E-005
  3.600000000000001E-003    2.994420414923221E-005
  3.700000000000001E-003    3.157973594490126E-005
  3.800000000000001E-003    3.329859231883685E-005
  3.900000000000001E-003    3.510427017839635E-005
  4.000000000000001E-003    3.700034586941782E-005
  4.100000000000001E-003    3.899048915912350E-005
  4.200000000000001E-003    4.107848477020845E-005
  4.300000000000001E-003    4.326826589575101E-005
  4.400000000000001E-003    4.556393379445413E-005
  4.500000000000001E-003    4.796980087078150E-005
  4.600000000000002E-003    5.049041220308957E-005
  4.700000000000001E-003    5.313057878235836E-005
  4.800000000000001E-003    5.589540123746298E-005
  4.900000000000002E-003    5.879029730220136E-005
  5.000000000000001E-003    6.182099834715565E-005
  5.100000000000001E-003    6.499357226233507E-005
  5.200000000000001E-003    6.831441365224083E-005
  5.300000000000002E-003    7.179023784750623E-005
  5.400000000000001E-003    7.542807817857028E-005
  5.500000000000001E-003    7.923525312686482E-005
  5.600000000000002E-003    8.321934538391014E-005
  5.700000000000001E-003    8.738819046309382E-005
  5.800000000000001E-003    9.174984854223366E-005
  5.900000000000002E-003    9.631257996039940E-005
  6.000000000000001E-003    1.010848367541666E-004
  6.100000000000001E-003    1.060752480896334E-004
  6.200000000000002E-003    1.112926151494256E-004
  6.300000000000002E-003    1.167459211780221E-004
  6.400000000000001E-003    1.224443218167872E-004
  6.500000000000001E-003    1.283971639969744E-004
  6.600000000000002E-003    1.346140372545011E-004
  6.700000000000001E-003    1.411047560292276E-004
  6.800000000000001E-003    1.478794213608606E-004
  6.900000000000002E-003    1.549484208114289E-004
  7.000000000000001E-003    1.623224940689133E-004
  7.100000000000001E-003    1.700127160588143E-004
  7.200000000000002E-003    1.780305849791305E-004
  7.300000000000002E-003    1.863880182418330E-004
  7.400000000000001E-003    1.950973467110695E-004
  7.500000000000001E-003    2.041713683683475E-004
  7.600000000000002E-003    2.136233611173540E-004
  7.700000000000001E-003    2.234670566320709E-004
  7.800000000000001E-003    2.337166500033918E-004
  7.900000000000001E-003    2.443868118983865E-004
  8.000000000000002E-003    2.554926942941013E-004
  8.100000000000001E-003    2.670498561274483E-004
  8.200000000000001E-003    2.790743264323209E-004
  8.300000000000002E-003    2.915825556632719E-004
  8.400000000000001E-003    3.045914202871483E-004
  8.500000000000002E-003    3.181182111124427E-004
  8.600000000000002E-003    3.321806210514824E-004
  8.700000000000001E-003    3.467967201573958E-004
  8.800000000000002E-003    3.619850068850714E-004
  8.900000000000002E-003    3.777643626446369E-004
  9.000000000000001E-003    3.941540729338214E-004
  9.100000000000002E-003    4.111738401105057E-004
  9.200000000000002E-003    4.288437486866028E-004
  9.300000000000001E-003    4.471843210471745E-004
  9.400000000000002E-003    4.662165362049409E-004
  9.500000000000001E-003    4.859617301625680E-004
  9.600000000000001E-003    5.064416553111679E-004
  9.700000000000002E-003    5.276785947533640E-004
  9.800000000000001E-003    5.496951670282168E-004
  9.900000000000001E-003    5.725144132609678E-004
  1.000000000000000E-002    5.961598351548906E-004
  1.010000000000000E-002    6.206554155442511E-004
  1.020000000000000E-002    6.460255306687226E-004
  1.030000000000000E-002    6.722950410941568E-004
  1.040000000000000E-002    6.994891965098005E-004
  1.050000000000000E-002    7.276337492228323E-004
  1.060000000000000E-002    7.567549646493013E-004
  1.070000000000000E-002    7.868795281330623E-004
  1.080000000000000E-002    8.180346307564728E-004
  1.090000000000000E-002    8.502478784692019E-004
  1.100000000000000E-002    8.835474075653256E-004
  1.110000000000000E-002    9.179617477510794E-004
  1.120000000000000E-002    9.535199523005927E-004
  1.130000000000000E-002    9.902513553714210E-004
  1.140000000000000E-002    1.028185867339254E-003
  1.150000000000000E-002    1.067353652284802E-003
  1.160000000000000E-002    1.107785168735414E-003
  1.170000000000000E-002    1.149511305555360E-003
  1.180000000000000E-002    1.192563132736406E-003
  1.190000000000000E-002    1.236972007719589E-003
  1.200000000000000E-002    1.282769632904789E-003
  1.210000000000000E-002    1.329987616708901E-003
  1.220000000000000E-002    1.378657940456890E-003
  1.230000000000000E-002    1.428812615160432E-003
  1.240000000000000E-002    1.480483846605278E-003
  1.250000000000000E-002    1.533703915154550E-003
  1.260000000000000E-002    1.588505056538992E-003
  1.270000000000000E-002    1.644919500484163E-003
  1.280000000000000E-002    1.702979673156096E-003
  1.290000000000000E-002    1.762717920732282E-003
  1.300000000000000E-002    1.824166452940095E-003
  1.310000000000000E-002    1.887357575525060E-003
  1.320000000000000E-002    1.952323540037153E-003
  1.330000000000000E-002    2.019096403891518E-003
  1.340000000000000E-002    2.087708193639868E-003
  1.350000000000000E-002    2.158190715329527E-003
  1.360000000000000E-002    2.230575676394584E-003
  1.370000000000000E-002    2.304894597173191E-003
  1.380000000000000E-002    2.381178781779996E-003
  1.390000000000000E-002    2.459459244045374E-003
  1.400000000000000E-002    2.539766615408492E-003
  1.410000000000000E-002    2.622131345240726E-003
  1.420000000000000E-002    2.706583164982836E-003
  1.430000000000000E-002    2.793151494150901E-003
  1.440000000000000E-002    2.881865124710364E-003
  1.450000000000000E-002    2.972752230152217E-003
  1.460000000000000E-002    3.065839964900251E-003
  1.470000000000000E-002    3.161155308612240E-003
  1.480000000000000E-002    3.258723675779743E-003
  1.490000000000000E-002    3.358570213659225E-003
  1.500000000000000E-002    3.460718700349510E-003
  1.510000000000000E-002    3.565192113121888E-003
  1.520000000000000E-002    3.672012411190528E-003
  1.530000000000000E-002    3.781200142468210E-003
  1.540000000000000E-002    3.892774661392787E-003
  1.550000000000000E-002    4.006754808632532E-003
  1.560000000000000E-002    4.123157375980660E-003
  1.570000000000000E-002    4.241997747106861E-003
  1.580000000000000E-002    4.363290521081284E-003
  1.590000000000000E-002    4.487048370466285E-003
  1.600000000000000E-002    4.613281934134509E-003
  1.610000000000000E-002    4.742001040363260E-003
  1.620000000000000E-002    4.873213182009125E-003
  1.630000000000000E-002    5.006924441551385E-003
  1.640000000000000E-002    5.143139007264885E-003
  1.650000000000000E-002    5.281858719003009E-003
  1.660000000000000E-002    5.423083946756738E-003
  1.670000000000000E-002    5.566812392745695E-003
  1.680000000000000E-002    5.713040053386332E-003
  1.690000000000000E-002    5.861760561917270E-003
  1.700000000000000E-002    6.012965304471794E-003
  1.710000000000000E-002    6.166643464885335E-003
  1.720000000000000E-002    6.322781739440444E-003
  1.730000000000000E-002    6.481364485865924E-003
  1.740000000000000E-002    6.642373371000471E-003
  1.750000000000000E-002    6.805788100630047E-003
  1.760000000000000E-002    6.971584817778717E-003
  1.770000000000000E-002    7.139737769472041E-003
  1.780000000000000E-002    7.310217874273231E-003
  1.790000000000000E-002    7.482993111567174E-003
  1.800000000000000E-002    7.658028918495693E-003
  1.810000000000000E-002    7.835287607109056E-003
  1.820000000000000E-002    8.014728165770178E-003
  1.830000000000000E-002    8.196305900390227E-003
  1.840000000000000E-002    8.379973580564998E-003
  1.850000000000000E-002    8.565680353431582E-003
  1.860000000000000E-002    8.753371596990047E-003
  1.870000000000000E-002    8.942989907801860E-003