 -4.000000000000000E-002    0.000000000000000E+000
 -3.990000000000000E-002    0.000000000000000E+000
 -3.980000000000000E-002    0.000000000000000E+000
 -3.970000000000000E-002    0.000000000000000E+000
 -3.960000000000000E-002    0.000000000000000E+000
 -3.950000000000000E-002    0.000000000000000E+000
 -3.940000000000000E-002    0.000000000000000E+000
 -3.930000000000000E-002    0.000000000000000E+000
 -3.920000000000000E-002    0.000000000000000E+000
 -3.910000000000000E-002    0.000000000000000E+000
 -3.900000000000000E-002    0.000000000000000E+000
 -3.890000000000000E-002    0.000000000000000E+000
 -3.880000000000000E-002    0.000000000000000E+000
 -3.870000000000000E-002    0.000000000000000E+000
 -3.860000000000000E-002    0.000000000000000E+000
 -3.850000000000000E-002    0.000000000000000E+000
 -3.840000000000000E-002    0.000000000000000E+000
 -3.830000000000000E-002    6.448302351611729E-046
 -3.820000000000000E-002    9.187788962207613E-045
 -3.810000000000000E-002    7.326813632108411E-044
 -3.800000000000000E-002    4.140463758695520E-043
 -3.790000000000000E-002    1.707026450446703E-042
 -3.780000000000000E-002    4.492620240595967E-042
 -3.770000000000000E-002    1.440210801782297E-043
 -3.760000000000000E-002   -8.217827680131875E-041
 -3.750000000000000E-002   -6.033518798575204E-040
 -3.740000000000000E-002   -3.019072796046802E-039
 -3.730000000000000E-002   -1.232609848432037E-038
 -3.720000000000000E-002   -4.359509234798845E-038
 -3.710000000000000E-002   -1.374250710962027E-037
 -3.700000000000000E-002   -3.922528588517206E-037
 -3.690000000000000E-002   -1.023029940079017E-036
 -3.680000000000000E-002   -2.449200707685600E-036
 -3.670000000000000E-002   -5.385579808256112E-036
 -3.660000000000000E-002   -1.083180644068896E-035
 -3.650000000000000E-002   -1.969339743787352E-035
 -3.640000000000000E-002   -3.148622788843056E-035
 -3.630000000000000E-002   -4.118079969774396E-035
 -3.620000000000000E-002   -3.284584207742692E-035
 -3.610000000000000E-002    3.131506068475843E-035
 -3.600000000000000E-002    2.269938323374011E-034
 -3.590000000000000E-002    6.862577724429551E-034
 -3.580000000000000E-002    1.609182154583197E-033
 -3.570000000000000E-002    3.247687471002497E-033
 -3.560000000000000E-002    5.823805132384315E-033
 -3.550000000000000E-002    9.325377506245438E-033
 -3.540000000000000E-002    1.310889555235919E-032
 -3.530000000000000E-002    1.524823212271413E-032
 -3.520000000000000E-002    1.162536512724968E-032
 -3.510000000000000E-002   -5.102083022736412E-033
 -3.500000000000000E-002   -4.626983418216259E-032
 -3.490000000000000E-002   -1.269490720876146E-031
 -3.480000000000000E-002   -2.634332613894829E-031
 -3.470000000000000E-002   -4.668096470091894E-031
 -3.460000000000000E-002   -7.307995185989073E-031
 -3.450000000000000E-002   -1.012547957523597E-030
 -3.440000000000000E-002   -1.206677649996915E-030
 -3.430000000000000E-002   -1.116173178876972E-030
 -3.420000000000000E-002   -4.288160192833664E-031
 -3.410000000000000E-002    1.285292945521556E-030
 -3.400000000000000E-002    4.532211300185350E-030
 -3.390000000000000E-002    9.780127615859324E-030
 -3.380000000000000E-002    1.724421970578624E-029
 -3.370000000000000E-002    2.655200839968879E-029
 -3.360000000000000E-002    3.629647810750045E-029
 -3.350000000000000E-002    4.352917092033155E-029
 -3.340000000000000E-002    4.330980884213538E-029
 -3.330000000000000E-002    2.850673399333095E-029
 -3.320000000000000E-002   -9.881336642888024E-030
 -3.310000000000000E-002   -8.156165264079450E-029
 -3.300000000000000E-002   -1.946305965917308E-028
 -3.290000000000000E-002   -3.518983975135435E-028
 -3.280000000000000E-002   -5.458848589154177E-028
 -3.270000000000000E-002   -7.528948076684906E-028
 -3.260000000000000E-002   -9.270921518375280E-028
 -3.250000000000000E-002   -9.960748127028414E-028
 -3.240000000000000E-002   -8.600119886969324E-028
 -3.230000000000000E-002   -3.967925036613936E-028
 -3.220000000000000E-002    5.243087021741463E-028
 -3.210000000000000E-002    2.018372258903423E-027
 -3.200000000000000E-002    4.148942903576048E-027
 -3.190000000000000E-002    6.881135864613312E-027
 -3.180000000000000E-002    1.002663272957315E-026
 -3.170000000000000E-002    1.318617954242242E-026
 -3.160000000000000E-002    1.569822997324642E-026
 -3.150000000000000E-002    1.660557342204582E-026
 -3.140000000000000E-002    1.465510904287568E-026
 -3.130000000000000E-002    8.349327638461703E-027
 -3.120000000000000E-002   -3.928546946493636E-027
 -3.110000000000000E-002   -2.369092468049589E-026
 -3.100000000000000E-002   -5.199789339263471E-026
 -3.090000000000000E-002   -8.896254314332692E-026
 -3.080000000000000E-002   -1.330993719651057E-025
 -3.070000000000000E-002   -1.805322101225542E-025
 -3.060000000000000E-002   -2.241254004771684E-025
 -3.050000000000000E-002   -2.526748446996340E-025
 -3.040000000000000E-002   -2.503937469568698E-025
 -3.030000000000000E-002   -1.970426851231509E-025
 -3.020000000000000E-002   -6.916287247118425E-026
 -3.010000000000000E-002    1.570626675335005E-025
 -3.000000000000000E-002    5.008273291791330E-025
 -2.990000000000000E-002    9.692983312098529E-025
 -2.980000000000000E-002    1.547907728790089E-024
 -2.970000000000000E-002    2.189124198581453E-024
 -2.960000000000000E-002    2.801412550095949E-024
 -2.950000000000000E-002    3.241161685124628E-024
 -2.940000000000000E-002    3.311399821573957E-024
 -2.930000000000000E-002    2.771825266167193E-024
 -2.920000000000000E-002    1.364665996709890E-024
 -2.910000000000000E-002   -1.140252466668658E-024
 -2.900000000000000E-002   -4.880476364404770E-024
 -2.890000000000000E-002   -9.819429881708087E-024
 -2.880000000000000E-002   -1.565768736767697E-023
 -2.870000000000000E-002   -2.175279363892995E-023
 -2.860000000000000E-002   -2.706965038549683E-023
 -2.850000000000000E-002   -3.018773364901184E-023
 -2.840000000000000E-002   -2.939172835115133E-023
 -2.830000000000000E-002   -2.286660529581685E-023
 -2.820000000000000E-002   -9.005324960931252E-024
 -2.810000000000000E-002    1.318309306830864E-023
 -2.800000000000000E-002    4.360410565633704E-023
 -2.790000000000000E-002    8.061537651700065E-023
 -2.780000000000000E-002    1.206674289267565E-022
 -2.770000000000000E-002    1.581604605035248E-022
 -2.760000000000000E-002    1.856309630298703E-022
 -2.750000000000000E-002    1.943582329450950E-022
 -2.740000000000000E-002    1.754299159163810E-022
 -2.730000000000000E-002    1.212280000726537E-022
 -2.720000000000000E-002    2.720022717890305E-023
 -2.710000000000000E-002   -1.063192720904768E-022
 -2.700000000000000E-002   -2.725617775194940E-022
 -2.690000000000000E-002   -4.574159454191305E-022
 -2.680000000000000E-002   -6.395123996245669E-022
 -2.670000000000000E-002   -7.915608642659842E-022
 -2.660000000000000E-002   -8.830277440816872E-022
 -2.650000000000000E-002   -8.840041001503432E-022
 -2.640000000000000E-002   -7.698467810079970E-022
 -2.630000000000000E-002   -5.259263288403536E-022
 -2.620000000000000E-002   -1.516506240950269E-022
 -2.610000000000000E-002    3.370904451398678E-022
 -2.600000000000000E-002    9.077521063536019E-022
 -2.590000000000000E-002    1.513568667290781E-021
 -2.580000000000000E-002    2.098410255163423E-021
 -2.570000000000000E-002    2.603286973764655E-021
 -2.560000000000000E-002    2.973187655563792E-021
 -2.550000000000000E-002    3.162619618269133E-021
 -2.540000000000000E-002    3.138253171609841E-021
 -2.530000000000000E-002    2.877586733068539E-021
 -2.520000000000000E-002    2.363520988415248E-021
 -2.510000000000000E-002    1.576087530756737E-021
 -2.500000000000000E-002    4.840335828374954E-022
 -2.490000000000000E-002   -9.598193121050054E-022
 -2.480000000000000E-002   -2.814991399059113E-021
 -2.470000000000000E-002   -5.137633581838739E-021
 -2.460000000000000E-002   -7.950684914107677E-021
 -2.450000000000000E-002   -1.120115563549422E-020
 -2.440000000000000E-002   -1.471008819657738E-020
 -2.430000000000000E-002   -1.812535924495798E-020
 -2.420000000000000E-002   -2.089138424974578E-020
 -2.410000000000000E-002   -2.225173638916146E-020
 -2.400000000000000E-002   -2.129949131969363E-020
 -2.390000000000000E-002   -1.708496734248113E-020
 -2.380000000000000E-002   -8.781209958153786E-021
 -2.370000000000000E-002    4.105166759670770E-021
 -2.360000000000000E-002    2.150453410551313E-020
 -2.350000000000000E-002    4.257635074915743E-020
 -2.340000000000000E-002    6.557196212382796E-020
 -2.330000000000000E-002    8.781862382811537E-020
 -2.320000000000000E-002    1.058664308502627E-019
 -2.310000000000000E-002    1.158195156990592E-019
 -2.300000000000000E-002    1.138424850913456E-019
 -2.290000000000000E-002    9.679587349027610E-020
 -2.280000000000000E-002    6.291699230168151E-020
 -2.270000000000000E-002    1.243234102525858E-020
 -2.260000000000000E-002   -5.202675664716871E-020
 -2.250000000000000E-002   -1.253251409932093E-019
 -2.240000000000000E-002   -2.001265404262544E-019
 -2.230000000000000E-002   -2.676222737798427E-019
 -2.220000000000000E-002   -3.186310602969048E-019
 -2.210000000000000E-002   -3.449292058465327E-019
 -2.200000000000000E-002   -3.405960934556965E-019
 -2.190000000000000E-002   -3.031150038230189E-019
 -2.180000000000000E-002   -2.339711664483626E-019
 -2.170000000000000E-002   -1.385481457057269E-019
 -2.160000000000000E-002   -2.523914845775633E-020
 -2.150000000000000E-002    9.614869671559205E-020
 -2.140000000000000E-002    2.164401995043059E-019
 -2.130000000000000E-002    3.291689559243288E-019
 -2.120000000000000E-002    4.321632448966502E-019
 -2.110000000000000E-002    5.281127366555192E-019
 -2.100000000000000E-002    6.237048627269072E-019
 -2.090000000000000E-002    7.271630293814409E-019
 -2.080000000000000E-002    8.443671885090391E-019
 -2.070000000000000E-002    9.741366581949138E-019
 -2.060000000000000E-002    1.103629458388269E-018
 -2.050000000000000E-002    1.205072513369164E-018
 -2.040000000000000E-002    1.235092844729222E-018
 -2.030000000000000E-002    1.137709364124009E-018
 -2.020000000000000E-002    8.515451841531264E-019
 -2.010000000000000E-002    3.210644123119551E-019
 -2.000000000000000E-002   -4.892729186634452E-019
 -1.990000000000000E-002   -1.579961341952372E-018
 -1.980000000000000E-002   -2.903256541915405E-018
 -1.970000000000000E-002   -4.354937150990219E-018
 -1.960000000000000E-002   -5.773929467825109E-018
 -1.950000000000000E-002   -6.951893956491142E-018
 -1.940000000000000E-002   -7.653469434755098E-018
 -1.930000000000000E-002   -7.646036180497008E-018
 -1.920000000000000E-002   -6.735869623344965E-018
 -1.910000000000000E-002   -4.805758768260862E-018
 -1.900000000000000E-002   -1.847991988759413E-018
 -1.890000000000000E-002    2.013655373798193E-018
 -1.880000000000000E-002    6.518355209190657E-018
 -1.870000000000000E-002    1.128242707545208E-017
 -1.860000000000000E-002    1.583357084229443E-017
 -1.850000000000000E-002    1.966182162334121E-017
 -1.840000000000000E-002    2.228046451828871E-017
 -1.830000000000000E-002    2.328753202968339E-017
 -1.820000000000000E-002    2.241741954903057E-017
 -1.810000000000000E-002    1.957303919379533E-017
 -1.800000000000000E-002    1.483192542022222E-017
 -1.790000000000000E-002    8.424511595730722E-018
 -1.780000000000000E-002    6.886448098875767E-019
 -1.770000000000000E-002   -7.989754692256992E-018
 -1.760000000000000E-002   -1.723552805783242E-017
 -1.750000000000000E-002   -2.672633697090236E-017
 -1.740000000000000E-002   -3.620330055604771E-017
 -1.730000000000000E-002   -4.544101529452115E-017
 -1.720000000000000E-002   -5.417658835437144E-017
 -1.710000000000000E-002   -6.200829924199091E-017
 -1.700000000000000E-002   -6.828552845118745E-017
 -1.690000000000000E-002   -7.202049274680249E-017
 -1.680000000000000E-002   -7.185622369505001E-017
 -1.670000000000000E-002   -6.612277824964969E-017
 -1.660000000000000E-002   -5.300323650586661E-017
 -1.650000000000000E-002   -3.081369189819845E-017
 -1.640000000000000E-002    1.621279573197464E-018
 -1.630000000000000E-002    4.454084022717471E-017
 -1.620000000000000E-002    9.683270995807561E-017
 -1.610000000000000E-002    1.557101965324150E-016
 -1.600000000000000E-002    2.165639079837183E-016
 -1.590000000000000E-002    2.730592019898931E-016
 -1.580000000000000E-002    3.175240661156115E-016
 -1.570000000000000E-002    3.416329653141103E-016
 -1.560000000000000E-002    3.373452583870763E-016
 -1.550000000000000E-002    2.980083903199342E-016
 -1.540000000000000E-002    2.194957878051211E-016
 -1.530000000000000E-002    1.012236374797987E-016
 -1.520000000000000E-002   -5.311309943793105E-017
 -1.510000000000000E-002   -2.352240206604186E-016
 -1.500000000000000E-002   -4.324199645257603E-016
 -1.490000000000000E-002   -6.283524934131437E-016
 -1.480000000000000E-002   -8.042531351297084E-016
 -1.470000000000000E-002   -9.405567345645200E-016
 -1.460000000000000E-002   -1.018736004783402E-015
 -1.450000000000000E-002   -1.023141560261234E-015
 -1.440000000000000E-002   -9.426397191091659E-016
 -1.430000000000000E-002   -7.718724633018864E-016
 -1.420000000000000E-002   -5.120223400985561E-016
 -1.410000000000000E-002   -1.710421279110669E-016
 -1.400000000000000E-002    2.366116347208762E-016
 -1.390000000000000E-002    6.906375391721442E-016
 -1.380000000000000E-002    1.165798759745567E-015
 -1.370000000000000E-002    1.632942008762511E-015
 -1.360000000000000E-002    2.060023411233887E-015
 -1.350000000000000E-002    2.413109739005839E-015
 -1.340000000000000E-002    2.657412019679976E-015
 -1.330000000000000E-002    2.758489607286633E-015
 -1.320000000000000E-002    2.683814815087459E-015
 -1.310000000000000E-002    2.404893968108575E-015
 -1.300000000000000E-002    1.900075261682379E-015
 -1.290000000000000E-002    1.158050079246356E-015
 -1.280000000000000E-002    1.818713578109088E-016
 -1.270000000000000E-002   -1.006893192656359E-015
 -1.260000000000000E-002   -2.364454235049028E-015
 -1.250000000000000E-002   -3.822266874337195E-015
 -1.240000000000000E-002   -5.286451995869362E-015
 -1.230000000000000E-002   -6.639885171352052E-015
 -1.220000000000000E-002   -7.747466452970489E-015
 -1.210000000000000E-002   -8.464752964078667E-015
 -1.200000000000000E-002   -8.649717636739392E-015
 -1.190000000000000E-002   -8.176928504625340E-015
 -1.180000000000000E-002   -6.953007581658915E-015
 -1.170000000000000E-002   -4.931861575173583E-015
 -1.160000000000000E-002   -2.127995315201057E-015
 -1.150000000000000E-002    1.373813813696269E-015
 -1.140000000000000E-002    5.413980081340764E-015
 -1.130000000000000E-002    9.759836779248953E-015
 -1.120000000000000E-002    1.411418894635306E-014
 -1.110000000000000E-002    1.813063360760433E-014
 -1.100000000000000E-002    2.143494040999653E-014
 -1.090000000000000E-002    2.365120874981526E-014
 -1.080000000000000E-002    2.443107991604245E-014
 -1.070000000000000E-002    2.348400530170164E-014
 -1.060000000000000E-002    2.060647056168033E-014
 -1.050000000000000E-002    1.570812971915210E-014
 -1.040000000000000E-002    8.833019689961997E-015
 -1.030000000000000E-002    1.742313032153243E-016
 -1.020000000000000E-002   -9.919282963446134E-015
 -1.010000000000000E-002   -2.094483987217595E-014
 -1.000000000000000E-002   -3.225792539446025E-014
 -9.899999999999999E-003   -4.309446762680814E-014
 -9.800000000000000E-003   -5.260379106645969E-014
 -9.699999999999999E-003   -5.989217407170330E-014
 -9.599999999999999E-003   -6.407636377574418E-014
 -9.500000000000000E-003   -6.434568350522289E-014
 -9.399999999999999E-003   -6.003036328669513E-014
 -9.299999999999999E-003   -5.067271667377462E-014
 -9.200000000000000E-003   -3.609656254519501E-014
 -9.099999999999999E-003   -1.646940340487950E-014
 -8.999999999999999E-003    7.648995597000918E-015
 -8.900000000000000E-003    3.527813969166357E-014
 -8.799999999999999E-003    6.501465164458807E-014
 -8.699999999999999E-003    9.506172834807988E-014
 -8.600000000000000E-003    1.232936039934121E-013
 -8.499999999999999E-003    1.473562671104230E-013
 -8.399999999999999E-003    1.648027903986189E-013
 -8.300000000000000E-003    1.732585117569995E-013
 -8.199999999999999E-003    1.706083338211704E-013
 -8.100000000000000E-003    1.551955916573926E-013
 -8.000000000000000E-003    1.260193265102756E-013
 -7.899999999999999E-003    8.291542281556256E-014
 -7.800000000000000E-003    2.670592686017093E-014
 -7.699999999999999E-003   -4.069906349734875E-014
 -7.599999999999999E-003   -1.162616001269999E-013
 -7.499999999999999E-003   -1.958510142573387E-013
 -7.399999999999999E-003   -2.743635625473710E-013
 -7.299999999999999E-003   -3.459323680387366E-013
 -7.199999999999999E-003   -4.042280773886727E-013
 -7.100000000000000E-003   -4.428444732265590E-013
 -6.999999999999999E-003   -4.557560338279899E-013
 -6.899999999999999E-003   -4.378264681121535E-013
 -6.800000000000000E-003   -3.853393685573447E-013
 -6.699999999999999E-003   -2.965143895963702E-013
 -6.599999999999999E-003   -1.719658838678635E-013
 -6.499999999999999E-003   -1.505735405198047E-014
 -6.399999999999999E-003    1.678955929168713E-013
 -6.299999999999999E-003    3.676177685866270E-013
 -6.199999999999999E-003    5.720971528868538E-013
 -6.100000000000000E-003    7.670597551270208E-013
 -5.999999999999999E-003    9.366998806638472E-013
 -5.899999999999999E-003    1.064647436634063E-012
 -5.800000000000000E-003    1.135130356131189E-012
 -5.699999999999999E-003    1.134267103740096E-012
 -5.599999999999999E-003    1.051403174574167E-012
 -5.499999999999999E-003    8.803900005074277E-013
 -5.399999999999999E-003    6.206961702900283E-013
 -5.299999999999999E-003    2.782415815425498E-013
 -5.199999999999999E-003   -1.341457423213152E-013
 -5.099999999999999E-003   -5.967319359333170E-013
 -4.999999999999999E-003   -1.083391623233946E-012
 -4.899999999999999E-003   -1.562656141227554E-012
 -4.799999999999999E-003   -1.999279725133503E-012
 -4.699999999999999E-003   -2.356268893511194E-012
 -4.599999999999999E-003   -2.597284573525123E-012
 -4.499999999999999E-003   -2.689293902875029E-012
 -4.399999999999999E-003   -2.605319535373234E-012
 -4.299999999999999E-003   -2.327116198202419E-012
 -4.199999999999999E-003   -1.847589503520534E-012
 -4.099999999999999E-003   -1.172767622913939E-012
 -3.999999999999999E-003   -3.231416501293408E-013
 -3.899999999999999E-003    6.657966990916222E-013
 -3.799999999999999E-003    1.743966337017824E-012
 -3.699999999999999E-003    2.848166488968982E-012
 -3.599999999999999E-003    3.904663354193311E-012
 -3.499999999999999E-003    4.832887998932956E-012
 -3.399999999999999E-003    5.550163812960879E-012
 -3.299999999999999E-003    5.977288259410639E-012
 -3.199999999999999E-003    6.044701689464771E-012
 -3.099999999999999E-003    5.698882986362766E-012
 -2.999999999999999E-003    4.908519135000255E-012
 -2.899999999999999E-003    3.669941869882960E-012
 -2.799999999999999E-003    2.011286445909752E-012
 -2.699999999999999E-003   -5.156932627086584E-015
 -2.599999999999999E-003   -2.282859623368594E-012
 -2.499999999999999E-003   -4.693594837340008E-012
 -2.399999999999999E-003   -7.082769480207472E-012
 -2.299999999999999E-003   -9.277514548444014E-012
 -2.199999999999999E-003   -1.109725202263057E-011
 -2.099999999999999E-003   -1.236620714496449E-011
 -1.999999999999999E-003   -1.292709845370622E-011
 -1.899999999999999E-003   -1.265505542178993E-011
 -1.799999999999999E-003   -1.147066502064190E-011
 -1.699999999999999E-003   -9.351036462643345E-012
 -1.599999999999999E-003   -6.337786495143504E-012
 -1.499999999999999E-003   -2.541032526209670E-012
 -1.399999999999999E-003    1.861308023787249E-012
 -1.299999999999999E-003    6.629281508831325E-012
 -1.199999999999999E-003    1.147175173803708E-011
 -1.099999999999999E-003    1.606196663809954E-011
 -9.999999999999989E-004    2.005710575541633E-011
 -8.999999999999990E-004    2.312073174347313E-011
 -7.999999999999990E-004    2.494679395606432E-011
 -6.999999999999989E-004    2.528365645714956E-011
 -5.999999999999990E-004    2.395652034399283E-011
 -4.999999999999989E-004    2.088659982718944E-011
 -3.999999999999989E-004    1.610553758256320E-011
 -2.999999999999989E-004    9.763721778063598E-012
 -1.999999999999989E-004    2.131440736565513E-012
 -9.999999999999892E-005   -6.407827759877767E-012
  1.084202172485504E-018   -1.537228226314407E-011
  1.000000000000011E-004   -2.420463760035876E-011
  2.000000000000011E-004   -3.230224650150572E-011
  3.000000000000011E-004   -3.905328075437005E-011
  4.000000000000011E-004   -4.387720294318084E-011
  5.000000000000011E-004   -4.626728015601706E-011
  6.000000000000011E-004   -4.583245297872582E-011
  7.000000000000011E-004   -4.233559229783328E-011
  8.000000000000011E-004   -3.572499929775024E-011
  9.000000000000012E-004   -2.615614039521521E-011
  1.000000000000001E-003   -1.400092896849591E-011
  1.100000000000001E-003    1.575505343151496E-013
  1.200000000000001E-003    1.554607859538662E-011
  1.300000000000001E-003    3.123821613574500E-011
  1.400000000000001E-003    4.620597363708398E-011
  1.500000000000001E-003    5.938374828876164E-011
  1.600000000000001E-003    6.974086143767012E-011
  1.700000000000001E-003    7.635785255754326E-011
  1.800000000000001E-003    7.850096648851909E-011
  1.900000000000001E-003    7.568894003937631E-011
  2.000000000000001E-003    6.774624070708346E-011
  2.100000000000001E-003    5.483765444396638E-011
  2.200000000000001E-003    3.748020856264332E-011
  2.300000000000001E-003    1.652999972323475E-011
  2.400000000000001E-003   -6.856662684566569E-012
  2.500000000000001E-003   -3.128625847364796E-011
  2.600000000000001E-003   -5.521184142882320E-011
  2.700000000000001E-003   -7.703235531103962E-011
  2.800000000000001E-003   -9.520083310139705E-011
  2.900000000000001E-003   -1.083339920979189E-010
  3.000000000000001E-003   -1.153152883512372E-010
  3.100000000000001E-003   -1.153838668657229E-010
  3.200000000000001E-003   -1.082025773217049E-010
  3.300000000000001E-003   -9.389964989640485E-011
  3.400000000000001E-003   -7.308020364682012E-011
  3.500000000000001E-003   -4.680585754681813E-011
  3.600000000000001E-003   -1.654284070881127E-011
  3.700000000000001E-003    1.591919111433422E-011
  3.800000000000001E-003    4.857315320282459E-011
  3.900000000000001E-003    7.931936990815668E-011
  4.000000000000001E-003    1.061019002101469E-010
  4.100000000000001E-003    1.270478689677557E-010
  4.200000000000001E-003    1.406009132023798E-010
  4.300000000000001E-003    1.456396240491813E-010
  4.400000000000001E-003    1.415724578744760E-010
  4.500000000000001E-003    1.284013899675436E-010
  4.600000000000002E-003    1.067482111598184E-010
  4.700000000000001E-003    7.783934746321184E-011
  4.800000000000001E-003    4.344768939652666E-011
  4.900000000000002E-003    5.792681049930328E-012
  5.000000000000001E-003   -3.259696115290521E-011
  5.100000000000001E-003   -6.905036929731791E-011
  5.200000000000001E-003   -1.009411720622912E-010
  5.300000000000002E-003   -1.258810766111165E-010
  5.400000000000001E-003   -1.419062779149018E-010
  5.500000000000001E-003   -1.476420262946062E-010
  5.600000000000002E-003   -1.424315701425362E-010
  5.700000000000001E-003   -1.264174840831508E-010
  5.800000000000001E-003   -1.005666327913395E-010
  5.900000000000002E-003   -6.663410829123696E-011
  6.000000000000001E-003   -2.706617853701666E-011
  6.100000000000001E-003    1.515263871845493E-011
  6.200000000000002E-003    5.669851563790995E-011
  6.300000000000002E-003    9.413943387147672E-011
  6.400000000000001E-003    1.241816542566319E-010
  6.500000000000001E-003    1.439133633817517E-010
  6.600000000000002E-003    1.510272918023386E-010
  6.700000000000001E-003    1.440060792763779E-010
  6.800000000000001E-003    1.222572024591093E-010
  6.900000000000002E-003    8.618862034067477E-011
  7.000000000000001E-003    3.722118218628151E-011
  7.100000000000001E-003   -2.226122872153618E-011
  7.200000000000002E-003   -8.901809976462956E-011
  7.300000000000002E-003   -1.591059144554472E-010
  7.400000000000001E-003   -2.280672482600996E-010
  7.500000000000001E-003   -2.911423488308038E-010
  7.600000000000002E-003   -3.434904888980351E-010
  7.700000000000001E-003   -3.804099898948288E-010
  7.800000000000001E-003   -3.975484385249702E-010
  7.900000000000001E-003   -3.910970301771179E-010
  8.000000000000002E-003   -3.579667219802278E-010
  8.100000000000001E-003   -2.959459090792195E-010
  8.200000000000001E-003   -2.038418561057870E-010
  8.300000000000002E-003   -8.160845024375398E-011
  8.400000000000001E-003    6.953707344461039E-011
  8.500000000000002E-003    2.470067475867429E-010
  8.600000000000002E-003    4.467454316380946E-010
  8.700000000000001E-003    6.631494151621775E-010
  8.800000000000002E-003    8.890069938142951E-010
  8.900000000000002E-003    1.115473842427378E-009
  9.000000000000001E-003    1.332096814359894E-009
  9.100000000000002E-003    1.526904495711120E-009
  9.200000000000002E-003    1.686582802090277E-009
  9.300000000000001E-003    1.796757381728774E-009
  9.400000000000002E-003    1.842400284509987E-009
  9.500000000000001E-003    1.808378181161895E-009
  9.600000000000001E-003    1.680154318874900E-009
  9.700000000000002E-003    1.444649235810729E-009
  9.800000000000001E-003    1.091259260154518E-009
  9.900000000000001E-003    6.130188393206954E-010
  1.000000000000000E-002    7.883761764399358E-012
  1.010000000000000E-002   -7.199005009176072E-010
  1.020000000000000E-002   -1.558395586270936E-009
  1.030000000000000E-002   -2.486591509697123E-009
  1.040000000000000E-002   -3.473123892848673E-009
  1.050000000000000E-002   -4.475169257541491E-009
  1.060000000000000E-002   -5.437595701946141E-009
  1.070000000000000E-002   -6.292458079229501E-009
  1.080000000000000E-002   -6.958906755021203E-009
  1.090000000000000E-002   -7.343577217133665E-009
  1.100000000000000E-002   -7.341500658464093E-009
  1.110000000000000E-002   -6.837555859824658E-009
  1.120000000000000E-002   -5.708452116457522E-009
  1.130000000000000E-002   -3.825196046949849E-009
  1.140000000000000E-002   -1.055971433800944E-009
  1.150000000000000E-002    2.730681632289406E-009
  1.160000000000000E-002    7.662519852118571E-009
  1.170000000000000E-002    1.386024951004504E-008
  1.180000000000000E-002    2.143433934298845E-008
  1.190000000000000E-002    3.048217713522249E-008
  1.200000000000000E-002    4.108574632761685E-008
  1.210000000000000E-002    5.330995709968869E-008
  1.220000000000000E-002    6.720175918386075E-008
  1.230000000000000E-002    8.279013501340942E-008
  1.240000000000000E-002    1.000869766056825E-007
  1.250000000000000E-002    1.190889044838978E-007
  1.260000000000000E-002    1.397798878847662E-007
  1.270000000000000E-002    1.621346317684189E-007
  1.280000000000000E-002    1.861225392174197E-007
  1.290000000000000E-002    2.117120823938139E-007
  1.300000000000000E-002    2.388753868993481E-007
  1.310000000000000E-002    2.675927647622842E-007
  1.320000000000000E-002    2.978570172752536E-007
  1.330000000000000E-002    3.296773634551309E-007
  1.340000000000000E-002    3.630826076518423E-007
  1.350000000000000E-002    3.981235876567208E-007
  1.360000000000000E-002    4.348748229026246E-007
  1.370000000000000E-002    4.734350319013486E-007
  1.380000000000000E-002    5.139268958966393E-007
  1.390000000000000E-002    5.564958981392916E-007
  1.400000000000000E-002    6.013082157958582E-007
  1.410000000000000E-002    6.485482290682479E-007
  1.420000000000000E-002    6.984154777428725E-007
  1.430000000000000E-002    7.511212911840500E-007
  1.440000000000000E-002    8.068857076122666E-007
  1.450000000000000E-002    8.659343737184055E-007
  1.460000000000000E-002    9.284960937299209E-007
  1.470000000000000E-002    9.948007576654794E-007
  1.480000000000000E-002    1.065078403778105E-006
  1.490000000000000E-002    1.139559208059764E-006
  1.500000000000000E-002    1.218474113959653E-006
  1.510000000000000E-002    1.302056516972329E-006
  1.520000000000000E-002    1.390545286939937E-006
  1.530000000000000E-002    1.484187553691629E-006
  1.540000000000000E-002    1.583243053695560E-006
  1.550000000000000E-002    1.687988269797555E-006
  1.560000000000000E-002    1.798720697011457E-006
  1.570000000000000E-002    1.915763064555056E-006
  1.580000000000000E-002    2.039467184472125E-006
  1.590000000000000E-002    2.170217257995040E-006
  1.600000000000000E-002    2.308432207899098E-006
  1.610000000000000E-002    2.454567006200598E-006
  1.620000000000000E-002    2.609113757161447E-006
  1.630000000000000E-002    2.772601014169280E-006
  1.640000000000000E-002    2.945592744903390E-006
  1.650000000000000E-002    3.128686248602153E-006
  1.660000000000000E-002    3.322509417238896E-006
  1.670000000000000E-002    3.527717723603772E-006
  1.680000000000000E-002    3.744990907164602E-006
  1.690000000000000E-002    3.975029963980451E-006
  1.700000000000000E-002    4.218553512186399E-006
  1.710000000000000E-002    4.476295914195686E-006
  1.720000000000000E-002    4.749004368069346E-006
  1.730000000000000E-002    5.037438904155199E-006
  1.740000000000000E-002    5.342371401044644E-006
  1.750000000000000E-002    5.664586510340304E-006
  1.760000000000000E-002    6.004884840262039E-006
  1.770000000000000E-002    6.364085407298351E-006
  1.780000000000000E-002    6.743030408451225E-006
  1.790000000000000E-002    7.142590576661218E-006
  1.800000000000000E-002    7.563672954215587E-006
  1.810000000000000E-002    8.007226492822986E-006
  1.820000000000000E-002    8.474252756295381E-006
  1.830000000000000E-002    8.965812035550436E-006
  1.840000000000000E-002    9.483032816111806E-006
  1.850000000000000E-002    1.002711899103722E-005
  1.860000000000000E-002    1.059935960235500E-005
  1.870000000000000E-002    1.120113308308638E-005