 -4.000000000000000E-002    0.000000000000000E+000
 -3.990000000000000E-002    0.000000000000000E+000
 -3.980000000000000E-002    0.000000000000000E+000
 -3.970000000000000E-002    0.000000000000000E+000
 -3.960000000000000E-002    0.000000000000000E+000
 -3.950000000000000E-002    0.000000000000000E+000
 -3.940000000000000E-002    0.000000000000000E+000
 -3.930000000000000E-002    0.000000000000000E+000
 -3.920000000000000E-002    0.000000000000000E+000
 -3.910000000000000E-002    0.000000000000000E+000
 -3.900000000000000E-002    0.000000000000000E+000
 -3.890000000000000E-002    0.000000000000000E+000
 -3.880000000000000E-002    0.000000000000000E+000
 -3.870000000000000E-002    0.000000000000000E+000
 -3.860000000000000E-002    0.000000000000000E+000
 -3.850000000000000E-002    0.000000000000000E+000
 -3.840000000000000E-002    0.000000000000000E+000
 -3.830000000000000E-002    0.000000000000000E+000
 -3.820000000000000E-002    0.000000000000000E+000
 -3.810000000000000E-002    0.000000000000000E+000
 -3.800000000000000E-002    0.000000000000000E+000
 -3.790000000000000E-002    0.000000000000000E+000
 -3.780000000000000E-002    0.000000000000000E+000
 -3.770000000000000E-002    0.000000000000000E+000
 -3.760000000000000E-002    0.000000000000000E+000
 -3.750000000000000E-002    0.000000000000000E+000
 -3.740000000000000E-002    0.000000000000000E+000
 -3.730000000000000E-002    0.000000000000000E+000
 -3.720000000000000E-002    0.000000000000000E+000
 -3.710000000000000E-002    0.000000000000000E+000
 -3.700000000000000E-002    0.000000000000000E+000
 -3.690000000000000E-002    0.000000000000000E+000
 -3.680000000000000E-002    0.000000000000000E+000
 -3.670000000000000E-002    0.000000000000000E+000
 -3.660000000000000E-002    0.000000000000000E+000
 -3.650000000000000E-002    0.000000000000000E+000
 -3.640000000000000E-002    0.000000000000000E+000
 -3.630000000000000E-002    0.000000000000000E+000
 -3.620000000000000E-002    0.000000000000000E+000
 -3.610000000000000E-002    0.000000000000000E+000
 -3.600000000000000E-002    0.000000000000000E+000
 -3.590000000000000E-002    0.000000000000000E+000
 -3.580000000000000E-002    0.000000000000000E+000
 -3.570000000000000E-002    0.000000000000000E+000
 -3.560000000000000E-002    0.000000000000000E+000
 -3.550000000000000E-002    0.000000000000000E+000
 -3.540000000000000E-002    0.000000000000000E+000
 -3.530000000000000E-002    0.000000000000000E+000
 -3.520000000000000E-002    0.000000000000000E+000
 -3.510000000000000E-002    0.000000000000000E+000
 -3.500000000000000E-002    0.000000000000000E+000
 -3.490000000000000E-002    0.000000000000000E+000
 -3.480000000000000E-002    0.000000000000000E+000
 -3.470000000000000E-002    0.000000000000000E+000
 -3.460000000000000E-002    0.000000000000000E+000
 -3.450000000000000E-002    0.000000000000000E+000
 -3.440000000000000E-002    0.000000000000000E+000
 -3.430000000000000E-002    0.000000000000000E+000
 -3.420000000000000E-002    0.000000000000000E+000
 -3.410000000000000E-002    0.000000000000000E+000
 -3.400000000000000E-002    0.000000000000000E+000
 -3.390000000000000E-002    0.000000000000000E+000
 -3.380000000000000E-002    0.000000000000000E+000
 -3.370000000000000E-002    0.000000000000000E+000
 -3.360000000000000E-002    0.000000000000000E+000
 -3.350000000000000E-002    0.000000000000000E+000
 -3.340000000000000E-002    0.000000000000000E+000
 -3.330000000000000E-002    0.000000000000000E+000
 -3.320000000000000E-002    0.000000000000000E+000
 -3.310000000000000E-002    0.000000000000000E+000
 -3.300000000000000E-002    0.000000000000000E+000
 -3.290000000000000E-002    0.000000000000000E+000
 -3.280000000000000E-002    0.000000000000000E+000
 -3.270000000000000E-002    0.000000000000000E+000
 -3.260000000000000E-002    0.000000000000000E+000
 -3.250000000000000E-002    0.000000000000000E+000
 -3.240000000000000E-002    0.000000000000000E+000
 -3.230000000000000E-002    0.000000000000000E+000
 -3.220000000000000E-002    0.000000000000000E+000
 -3.210000000000000E-002    0.000000000000000E+000
 -3.200000000000000E-002    0.000000000000000E+000
 -3.190000000000000E-002    0.000000000000000E+000
 -3.180000000000000E-002    0.000000000000000E+000
 -3.170000000000000E-002    0.000000000000000E+000
 -3.160000000000000E-002    0.000000000000000E+000
 -3.150000000000000E-002    0.000000000000000E+000
 -3.140000000000000E-002    0.000000000000000E+000
 -3.130000000000000E-002    0.000000000000000E+000
 -3.120000000000000E-002    0.000000000000000E+000
 -3.110000000000000E-002    0.000000000000000E+000
 -3.100000000000000E-002    0.000000000000000E+000
 -3.090000000000000E-002    0.000000000000000E+000
 -3.080000000000000E-002    0.000000000000000E+000
 -3.070000000000000E-002    0.000000000000000E+000
 -3.060000000000000E-002    0.000000000000000E+000
 -3.050000000000000E-002    0.000000000000000E+000
 -3.040000000000000E-002    0.000000000000000E+000
 -3.030000000000000E-002    0.000000000000000E+000
 -3.020000000000000E-002    0.000000000000000E+000
 -3.010000000000000E-002    0.000000000000000E+000
 -3.000000000000000E-002    0.000000000000000E+000
 -2.990000000000000E-002    0.000000000000000E+000
 -2.980000000000000E-002    0.000000000000000E+000
 -2.970000000000000E-002    0.000000000000000E+000
 -2.960000000000000E-002    0.000000000000000E+000
 -2.950000000000000E-002    0.000000000000000E+000
 -2.940000000000000E-002    0.000000000000000E+000
 -2.930000000000000E-002    0.000000000000000E+000
 -2.920000000000000E-002    0.000000000000000E+000
 -2.910000000000000E-002   -6.414635304221270E-048
 -2.900000000000000E-002    6.614847958560634E-048
 -2.890000000000000E-002    6.454677835089142E-047
 -2.880000000000000E-002    1.224787087432222E-046
 -2.870000000000000E-002    2.882503330159168E-047
 -2.860000000000000E-002   -7.785812540282076E-047
 -2.850000000000000E-002   -2.966801454724677E-047
 -2.840000000000000E-002   -4.602468204256421E-047
 -2.830000000000000E-002   -1.797555619878803E-046
 -2.820000000000000E-002   -4.781410515364500E-046
 -2.810000000000000E-002   -5.708033519513883E-046
 -2.800000000000000E-002   -3.318549242169120E-046
 -2.790000000000000E-002    5.511228829665971E-046
 -2.780000000000000E-002    1.803677633174851E-045
 -2.770000000000000E-002    3.034107199391657E-045
 -2.760000000000000E-002    3.681344808579679E-045
 -2.750000000000000E-002    3.213043740348907E-045
 -2.740000000000000E-002    1.474075551276005E-045
 -2.730000000000000E-002   -3.492556159623960E-045
 -2.720000000000000E-002   -1.234817959538095E-044
 -2.710000000000000E-002   -2.708348741539764E-044
 -2.700000000000000E-002   -4.852908238127512E-044
 -2.690000000000000E-002   -7.809836157886351E-044
 -2.680000000000000E-002   -1.163929229783660E-043
 -2.670000000000000E-002   -1.603906485125023E-043
 -2.660000000000000E-002   -2.033371725323782E-043
 -2.650000000000000E-002   -2.340707760197312E-043
 -2.640000000000000E-002   -2.355386382940447E-043
 -2.630000000000000E-002   -1.786911578329499E-043
 -2.620000000000000E-002   -2.915579170056453E-044
 -2.610000000000000E-002    2.569955716412169E-043
 -2.600000000000000E-002    7.292102987271742E-043
 -2.590000000000000E-002    1.433994116593121E-042
 -2.580000000000000E-002    2.403859633264200E-042
 -2.570000000000000E-002    3.637412024194179E-042
 -2.560000000000000E-002    5.077020117822421E-042
 -2.550000000000000E-002    6.578183512507120E-042
 -2.540000000000000E-002    7.867305688542891E-042
 -2.530000000000000E-002    8.508205401006193E-042
 -2.520000000000000E-002    7.863665833110422E-042
 -2.510000000000000E-002    5.076606620979270E-042
 -2.500000000000000E-002   -9.236035436493301E-043
 -2.490000000000000E-002   -1.136324580866715E-041
 -2.480000000000000E-002   -2.749944032803308E-041
 -2.470000000000000E-002   -5.039616018036617E-041
 -2.460000000000000E-002   -8.057347714616633E-041
 -2.450000000000000E-002   -1.175137091776864E-040
 -2.440000000000000E-002   -1.590071758536598E-040
 -2.430000000000000E-002   -2.003565271609010E-040
 -2.420000000000000E-002   -2.334980243652252E-040
 -2.410000000000000E-002   -2.461357276498484E-040
 -2.400000000000000E-002   -2.210798019314368E-040
 -2.390000000000000E-002   -1.360641380895837E-040
 -2.380000000000000E-002    3.559279998408908E-041
 -2.370000000000000E-002    3.230101854252668E-040
 -2.360000000000000E-002    7.539217682002602E-040
 -2.350000000000000E-002    1.348470150293172E-039
 -2.340000000000000E-002    2.110176033572727E-039
 -2.330000000000000E-002    3.013905489199996E-039
 -2.320000000000000E-002    3.991121943684763E-039
 -2.310000000000000E-002    4.913409440112191E-039
 -2.300000000000000E-002    5.576272704543559E-039
 -2.290000000000000E-002    5.686458283825038E-039
 -2.280000000000000E-002    4.857442943832128E-039
 -2.270000000000000E-002    2.619211130115718E-039
 -2.260000000000000E-002   -1.550447089197330E-039
 -2.250000000000000E-002   -8.165344684384193E-039
 -2.240000000000000E-002   -1.763388195774081E-038
 -2.230000000000000E-002   -3.012083320420943E-038
 -2.220000000000000E-002   -4.536776266366170E-038
 -2.210000000000000E-002   -6.247923119000758E-038
 -2.200000000000000E-002   -7.969228620617018E-038
 -2.190000000000000E-002   -9.415979300513908E-038
 -2.180000000000000E-002   -1.017932520749982E-037
 -2.170000000000000E-002   -9.722622792391623E-038
 -2.160000000000000E-002   -7.397286656560611E-038
 -2.150000000000000E-002   -2.486410867073136E-038
 -2.140000000000000E-002    5.715766806153671E-038
 -2.130000000000000E-002    1.778212038286937E-037
 -2.120000000000000E-002    3.398568852268913E-037
 -2.110000000000000E-002    5.409053629721071E-037
 -2.100000000000000E-002    7.711172974565680E-037
 -2.090000000000000E-002    1.010666971484666E-036
 -2.080000000000000E-002    1.227527815955485E-036
 -2.070000000000000E-002    1.375995632005379E-036
 -2.060000000000000E-002    1.396567463089336E-036
 -2.050000000000000E-002    1.217879649672079E-036
 -2.040000000000000E-002    7.614368324087827E-037
 -2.030000000000000E-002   -5.020793051549441E-038
 -2.020000000000000E-002   -1.281357291182641E-036
 -2.010000000000000E-002   -2.967063560660243E-036
 -2.000000000000000E-002   -5.093463523746032E-036
 -1.990000000000000E-002   -7.575740808700392E-036
 -1.980000000000000E-002   -1.023579916402730E-035
 -1.970000000000000E-002   -1.278274961862000E-035
 -1.960000000000000E-002   -1.480031107743075E-035
 -1.950000000000000E-002   -1.574611916570498E-035
 -1.940000000000000E-002   -1.496852243980470E-035
 -1.930000000000000E-002   -1.174646590555461E-035
 -1.920000000000000E-002   -5.357353509297788E-036
 -1.910000000000000E-002    4.823941091643909E-036
 -1.900000000000000E-002    1.919465239955481E-035
 -1.890000000000000E-002    3.776624555710128E-035
 -1.880000000000000E-002    5.998845298891860E-035
 -1.870000000000000E-002    8.457126530313334E-035
 -1.860000000000000E-002    1.093278575144168E-034
 -1.850000000000000E-002    1.310688071138908E-034
 -1.840000000000000E-002    1.455836635525573E-034
 -1.830000000000000E-002    1.477499854156772E-034
 -1.820000000000000E-002    1.318095601495961E-034
 -1.810000000000000E-002    9.184646682649639E-035
 -1.800000000000000E-002    2.248915713719312E-035
 -1.790000000000000E-002   -8.016115595737574E-035
 -1.780000000000000E-002   -2.174025276175554E-034
 -1.770000000000000E-002   -3.866681244626866E-034
 -1.760000000000000E-002   -5.802336490609357E-034
 -1.750000000000000E-002   -7.840510732151670E-034
 -1.740000000000000E-002   -9.769106854031978E-034
 -1.730000000000000E-002   -1.130173045949599E-033
 -1.720000000000000E-002   -1.208335395761190E-033
 -1.710000000000000E-002   -1.170697765069336E-033
 -1.700000000000000E-002   -9.743583895622145E-034
 -1.690000000000000E-002   -5.786899017370523E-034
 -1.680000000000000E-002    4.868123785890255E-035
 -1.670000000000000E-002    9.245507244627977E-034
 -1.660000000000000E-002    2.041860595556227E-033
 -1.650000000000000E-002    3.361141367683913E-033
 -1.640000000000000E-002    4.802629965855800E-033
 -1.630000000000000E-002    6.240319621550004E-033
 -1.620000000000000E-002    7.499436302728224E-033
 -1.610000000000000E-002    8.358976328014623E-033
 -1.600000000000000E-002    8.560940277344575E-033
 -1.590000000000000E-002    7.827682189615163E-033
 -1.580000000000000E-002    5.888314441796140E-033
 -1.570000000000000E-002    2.514333787287954E-033
 -1.560000000000000E-002   -2.436453644447337E-033
 -1.550000000000000E-002   -8.970019157762141E-033
 -1.540000000000000E-002   -1.690414650127124E-032
 -1.530000000000000E-002   -2.582005740954404E-032
 -1.520000000000000E-002   -3.502497864778320E-032
 -1.510000000000000E-002   -4.353435192065571E-032
 -1.500000000000000E-002   -5.008317769933152E-032
 -1.490000000000000E-002   -5.317590497018295E-032
 -1.480000000000000E-002   -5.118293149518096E-032
 -1.470000000000000E-002   -4.248905651902484E-032
 -1.460000000000000E-002   -2.569454197600563E-032
 -1.450000000000000E-002    1.365919468447045E-034
 -1.440000000000000E-002    3.519449610551025E-032
 -1.430000000000000E-002    7.863000934622835E-032
 -1.420000000000000E-002    1.282817861207533E-031
 -1.410000000000000E-002    1.804652887020588E-031
 -1.400000000000000E-002    2.298717601062836E-031
 -1.390000000000000E-002    2.696296996911235E-031
 -1.380000000000000E-002    2.915797316626279E-031
 -1.370000000000000E-002    2.868059561044339E-031
 -1.360000000000000E-002    2.464506939783975E-031
 -1.350000000000000E-002    1.628138323218451E-031
 -1.340000000000000E-002    3.070397553870902E-032
 -1.330000000000000E-002   -1.510350208841863E-031
 -1.320000000000000E-002   -3.779468644343309E-031
 -1.310000000000000E-002   -6.385107136614499E-031
 -1.300000000000000E-002   -9.130375456083142E-031
 -1.290000000000000E-002   -1.173173814620175E-030
 -1.280000000000000E-002   -1.382290066197652E-030
 -1.270000000000000E-002   -1.497020957405596E-030
 -1.260000000000000E-002   -1.470176194428911E-030
 -1.250000000000000E-002   -1.255153319613997E-030
 -1.240000000000000E-002   -8.118434781732517E-031
 -1.230000000000000E-002   -1.138375272833235E-031
 -1.220000000000000E-002    8.434883852484820E-031
 -1.210000000000000E-002    2.034681564428589E-030
 -1.200000000000000E-002    3.396653464502756E-030
 -1.190000000000000E-002    4.823031293867055E-030
 -1.180000000000000E-002    6.161772314796653E-030
 -1.170000000000000E-002    7.217488911586164E-030
 -1.160000000000000E-002    7.759835663186085E-030
 -1.150000000000000E-002    7.539092128411471E-030
 -1.140000000000000E-002    6.309566598722574E-030
 -1.130000000000000E-002    3.860741466396717E-030
 -1.120000000000000E-002    5.511670033378539E-032
 -1.110000000000000E-002   -5.129438684459666E-030
 -1.100000000000000E-002   -1.155633114107632E-029
 -1.090000000000000E-002   -1.889069624354023E-029
 -1.080000000000000E-002   -2.656967707991745E-029
 -1.070000000000000E-002   -3.378944699383428E-029
 -1.060000000000000E-002   -3.951625871719795E-029
 -1.050000000000000E-002   -4.252849435946198E-029
 -1.040000000000000E-002   -4.149535462865546E-029
 -1.030000000000000E-002   -3.509550364596711E-029
 -1.020000000000000E-002   -2.217546352132576E-029
 -1.010000000000000E-002   -1.942746696584133E-030
 -1.000000000000000E-002    2.581683755802389E-029
 -9.899999999999999E-003    6.051466764053271E-029
 -9.800000000000000E-003    1.005510051526009E-028
 -9.699999999999999E-003    1.431522133483465E-028
 -9.599999999999999E-003    1.842873278248124E-028
 -9.500000000000000E-003    2.186997873991167E-028
 -9.399999999999999E-003    2.400889044029613E-028
 -9.299999999999999E-003    2.414701199882476E-028
 -9.200000000000000E-003    2.157322875760110E-028
 -9.099999999999999E-003    1.563939876997882E-028
 -8.999999999999999E-003    5.853958547181428E-029
 -8.900000000000000E-003   -8.011058725888738E-029
 -8.799999999999999E-003   -2.580708534529775E-028
 -8.699999999999999E-003   -4.690072402969885E-028
 -8.600000000000000E-003   -7.008342183743973E-028
 -8.499999999999999E-003   -9.351479859647254E-028
 -8.399999999999999E-003   -1.147164332419899E-027
 -8.300000000000000E-003   -1.306328279897439E-027
 -8.199999999999999E-003   -1.377742232841011E-027
 -8.100000000000000E-003   -1.324515116747055E-027
 -8.000000000000000E-003   -1.111071145906848E-027
 -7.899999999999999E-003   -7.073633336576854E-028
 -7.800000000000000E-003   -9.382695359693139E-029
 -7.699999999999999E-003    7.332232129296891E-028
 -7.599999999999999E-003    1.756182535887213E-027
 -7.499999999999999E-003    2.931296622330749E-027
 -7.399999999999999E-003    4.185027508984517E-027
 -7.299999999999999E-003    5.412395168871762E-027
 -7.199999999999999E-003    6.478067866031716E-027
 -7.100000000000000E-003    7.220912394359329E-027
 -6.999999999999999E-003    7.462581287476669E-027
 -6.899999999999999E-003    7.020463593593138E-027
 -6.800000000000000E-003    5.724978831724614E-027
 -6.699999999999999E-003    3.440743928095431E-027
 -6.599999999999999E-003    9.061866715222776E-029
 -6.499999999999999E-003   -4.318946265317175E-027
 -6.399999999999999E-003   -9.673436423767342E-027
 -6.299999999999999E-003   -1.572936519446243E-026
 -6.199999999999999E-003   -2.210006750430728E-026
 -6.100000000000000E-003   -2.825155678901817E-026
 -5.999999999999999E-003   -3.351174798757331E-026
 -5.899999999999999E-003   -3.709600666723310E-026
 -5.800000000000000E-003   -3.815117412743679E-026
 -5.699999999999999E-003   -3.581905102441410E-026
 -5.599999999999999E-003   -2.931862373778426E-026
 -5.499999999999999E-003   -1.804439235639648E-026
 -5.399999999999999E-003   -1.675708931643590E-027
 -5.299999999999999E-003    1.971031921283563E-026
 -5.199999999999999E-003    4.553232217695252E-026
 -5.099999999999999E-003    7.461663805260888E-026
 -4.999999999999999E-003    1.051413750973517E-025
 -4.899999999999999E-003    1.346268515180537E-025
 -4.799999999999999E-003    1.599862340801137E-025
 -4.699999999999999E-003    1.776480533662889E-025
 -4.599999999999999E-003    1.837588109168659E-025
 -4.499999999999999E-003    1.744683115563507E-025
 -4.399999999999999E-003    1.462932270702414E-025
 -4.299999999999999E-003    9.654579398285242E-026
 -4.199999999999999E-003    2.380485457136801E-026
 -4.099999999999999E-003   -7.160373696449281E-026
 -3.999999999999999E-003   -1.871600231749974E-025
 -3.899999999999999E-003   -3.177869503939289E-025
 -3.799999999999999E-003   -4.556281516442786E-025
 -3.699999999999999E-003   -5.900243411093590E-025
 -3.599999999999999E-003   -7.077440135533828E-025
 -3.499999999999999E-003   -7.935129595714991E-025
 -3.399999999999999E-003   -8.308734485530255E-025
 -3.299999999999999E-003   -8.033791400129239E-025
 -3.199999999999999E-003   -6.961027185704946E-025
 -3.099999999999999E-003   -4.973992988171221E-025
 -2.999999999999999E-003   -2.008287491668170E-025
 -2.899999999999999E-003    1.928982166818329E-025
 -2.799999999999999E-003    6.741233952788153E-025
 -2.699999999999999E-003    1.222795564243380E-024
 -2.599999999999999E-003    1.807598481269098E-024
 -2.499999999999999E-003    2.385877458316528E-024
 -2.399999999999999E-003    2.904571759396359E-024
 -2.299999999999999E-003    3.302323793508127E-024
 -2.199999999999999E-003    3.512865802871332E-024
 -2.099999999999999E-003    3.469699006969864E-024
 -1.999999999999999E-003    3.111960972331247E-024
 -1.899999999999999E-003    2.391250748375128E-024
 -1.799999999999999E-003    1.279028688249724E-024
 -1.699999999999999E-003   -2.259276083002535E-025
 -1.599999999999999E-003   -2.090666454416885E-024
 -1.499999999999999E-003   -4.242563865817616E-024
 -1.399999999999999E-003   -6.565999701872360E-024
 -1.299999999999999E-003   -8.902028147692585E-024
 -1.199999999999999E-003   -1.105179184063187E-023
 -1.099999999999999E-003   -1.278426028279065E-023
 -9.999999999999989E-004   -1.384864601416265E-023
 -8.999999999999990E-004   -1.399150280880901E-023
 -7.999999999999990E-004   -1.297809686081176E-023
 -6.999999999999989E-004   -1.061718274773837E-023
 -5.999999999999990E-004   -6.787800061822593E-024
 -4.999999999999989E-004   -1.466222563265654E-024
 -3.999999999999989E-004    5.249267595505584E-024
 -2.999999999999989E-004    1.311841970927594E-023
 -1.999999999999989E-004    2.174671827124320E-023
 -9.999999999999892E-005    3.058354250995348E-023
  1.084202172485504E-018    3.893332324815564E-023
  1.000000000000011E-004    4.598164752984484E-023
  2.000000000000011E-004    5.083743117981069E-023
  3.000000000000011E-004    5.259110059730609E-023
  4.000000000000011E-004    5.038737798228118E-023
  5.000000000000011E-004    4.350966104850711E-023
  6.000000000000011E-004    3.147134876256868E-023
  7.000000000000011E-004    1.410785264027362E-023
  8.000000000000011E-004   -8.338353353447325E-024
  9.000000000000012E-004   -3.514838850341214E-023
  1.000000000000001E-003   -6.508257241271687E-023
  1.100000000000001E-003   -9.637010487327562E-023
  1.200000000000001E-003   -1.267409778135290E-022
  1.300000000000001E-003   -1.535064450870077E-022
  1.400000000000001E-003   -1.736915890302673E-022
  1.500000000000001E-003   -1.842198866834859E-022
  1.600000000000001E-003   -1.821453458739677E-022
  1.700000000000001E-003   -1.649227272511632E-022
  1.800000000000001E-003   -1.307013256640454E-022
  1.900000000000001E-003   -7.862292593039672E-023
  2.000000000000001E-003   -9.099922790212312E-024
  2.100000000000001E-003    7.595342301660032E-023
  2.200000000000001E-003    1.729651640449769E-022
  2.300000000000001E-003    2.766536679382169E-022
  2.400000000000001E-003    3.801046288188146E-022
  2.500000000000001E-003    4.749969722505455E-022
  2.600000000000001E-003    5.519889809043637E-022
  2.700000000000001E-003    6.012652480524941E-022
  2.800000000000001E-003    6.132317967985679E-022
  2.900000000000001E-003    5.793321199209786E-022
  3.000000000000001E-003    4.929417992828851E-022
  3.100000000000001E-003    3.502845443929222E-022
  3.200000000000001E-003    1.512992739438656E-022
  3.300000000000001E-003   -9.962112152055943E-023
  3.400000000000001E-003   -3.931039566729264E-022
  3.500000000000001E-003   -7.145674482960718E-022
  3.600000000000001E-003   -1.044363648898348E-021
  3.700000000000001E-003   -1.358352896339299E-021
  3.800000000000001E-003   -1.628946589144856E-021
  3.900000000000001E-003   -1.826623333598802E-021
  4.000000000000001E-003   -1.921886383616871E-021
  4.100000000000001E-003   -1.887589516939381E-021
  4.200000000000001E-003   -1.701515614013892E-021
  4.300000000000001E-003   -1.349047605116678E-021
  4.400000000000001E-003   -8.257399416147115E-022
  4.500000000000001E-003   -1.395653949867172E-022
  4.600000000000002E-003    6.873975711468473E-022
  4.700000000000001E-003    1.618075380586949E-021
  4.800000000000001E-003    2.600520065189075E-021
  4.900000000000002E-003    3.569215992489685E-021
  5.000000000000001E-003    4.447680654889811E-021
  5.100000000000001E-003    5.152391379828677E-021
  5.200000000000001E-003    5.597960274159607E-021
  5.300000000000002E-003    5.703380285532207E-021
  5.400000000000001E-003    5.399039796795172E-021
  5.500000000000001E-003    4.634092734184329E-021
  5.600000000000002E-003    3.383675974077517E-021
  5.700000000000001E-003    1.655383418527421E-021
  5.800000000000001E-003   -5.056313757451498E-022
  5.900000000000002E-003   -3.013556717383367E-021
  6.000000000000001E-003   -5.741410454809672E-021
  6.100000000000001E-003   -8.523589460383948E-021
  6.200000000000002E-003   -1.116180820266690E-020
  6.300000000000002E-003   -1.343453270494493E-020
  6.400000000000001E-003   -1.510977051559277E-020
  6.500000000000001E-003   -1.596080391234512E-020
  6.600000000000002E-003   -1.578413671920105E-020
  6.700000000000001E-003   -1.441864734145386E-020
  6.800000000000001E-003   -1.176470545190789E-020
  6.900000000000002E-003   -7.801768176543905E-021
  7.000000000000001E-003   -2.602892480515185E-021
  7.100000000000001E-003    3.655442581770432E-021
  7.200000000000002E-003    1.068968391346878E-020
  7.300000000000002E-003    1.811298093903607E-020
  7.400000000000001E-003    2.544728111388937E-020
  7.500000000000001E-003    3.214412769402423E-020
  7.600000000000002E-003    3.761396933554668E-020
  7.700000000000001E-003    4.126308038114308E-020
  7.800000000000001E-003    4.253654480815945E-020
  7.900000000000001E-003    4.096499393329324E-020
  8.000000000000002E-003    3.621218834517552E-020
  8.100000000000001E-003    2.812008357817025E-020
  8.200000000000001E-003    1.674763291026679E-020
  8.300000000000002E-003    2.399529390876492E-021
  8.400000000000001E-003   -1.435870510258699E-020
  8.500000000000002E-003   -3.270239602598573E-020
  8.600000000000002E-003   -5.156851473225341E-020
  8.700000000000001E-003   -6.969681873423146E-020
  8.800000000000002E-003   -8.569129618844337E-020
  8.900000000000002E-003   -9.810034323934018E-020
  9.000000000000001E-003   -1.055124948527808E-019
  9.100000000000002E-003   -1.066630430660421E-019
  9.200000000000002E-003   -1.005452789546772E-019
  9.300000000000001E-003   -8.651904712819505E-020
  9.400000000000002E-003   -6.440847761656744E-020
  9.500000000000001E-003   -3.458024776700167E-020
  9.600000000000001E-003    2.005743104224406E-021
  9.700000000000002E-003    4.378072333936168E-020
  9.800000000000001E-003    8.859231240381583E-020
  9.900000000000001E-003    1.337743388906112E-019
  1.000000000000000E-002    1.762623096229118E-019
  1.010000000000000E-002    2.127523840600078E-019
  1.020000000000000E-002    2.398984792785652E-019
  1.030000000000000E-002    2.545385740962979E-019
  1.040000000000000E-002    2.539382540329893E-019
  1.050000000000000E-002    2.360368540007124E-019
  1.060000000000000E-002    1.996790314039494E-019
  1.070000000000000E-002    1.448142058634500E-019
  1.080000000000000E-002    7.264577915064906E-020
  1.090000000000000E-002   -1.428667273856227E-020
  1.100000000000000E-002   -1.121060144563313E-019
  1.110000000000000E-002   -2.156875435435952E-019
  1.120000000000000E-002   -3.188454143045460E-019
  1.130000000000000E-002   -4.146147518203391E-019
  1.140000000000000E-002   -4.956220552921057E-019
  1.150000000000000E-002   -5.545296555788580E-019
  1.160000000000000E-002   -5.845328951069521E-019
  1.170000000000000E-002   -5.798832051230617E-019
  1.180000000000000E-002   -5.364047791979145E-019
  1.190000000000000E-002   -4.519691434489485E-019
  1.200000000000000E-002   -3.268912848510098E-019
  1.210000000000000E-002   -1.642108676669901E-019
  1.220000000000000E-002    3.017311696833305E-020
  1.230000000000000E-002    2.475412168874498E-019
  1.240000000000000E-002    4.765834379383109E-019
  1.250000000000000E-002    7.038272990109059E-019
  1.260000000000000E-002    9.142589786179735E-019
  1.270000000000000E-002    1.092119241630443E-018
  1.280000000000000E-002    1.221842210668386E-018
  1.290000000000000E-002    1.289091536276762E-018
  1.300000000000000E-002    1.281838322319820E-018
  1.310000000000000E-002    1.191414704987541E-018
  1.320000000000000E-002    1.013472316033920E-018
  1.330000000000000E-002    7.487722872910314E-019
  1.340000000000000E-002    4.037376378414145E-019
  1.350000000000000E-002   -9.295837606584118E-021
  1.360000000000000E-002   -4.721788737965671E-019
  1.370000000000000E-002   -9.614320407522644E-019
  1.380000000000000E-002   -1.449125082941102E-018
  1.390000000000000E-002   -1.904139874586084E-018
  1.400000000000000E-002   -2.293779950935147E-018
  1.410000000000000E-002   -2.585663027416724E-018
  1.420000000000000E-002   -2.749806599679281E-018
  1.430000000000000E-002   -2.760798870729734E-018
  1.440000000000000E-002   -2.599923842734504E-018
  1.450000000000000E-002   -2.257104297926619E-018
  1.460000000000000E-002   -1.732520980578698E-018
  1.470000000000000E-002   -1.037767399840710E-018
  1.480000000000000E-002   -1.964205132293380E-019
  1.490000000000000E-002    7.560740579534707E-019
  1.500000000000000E-002    1.773270780169586E-018
  1.510000000000000E-002    2.799375210926024E-018
  1.520000000000000E-002    3.771660191768606E-018
  1.530000000000000E-002    4.623582286150557E-018
  1.540000000000000E-002    5.288480453363444E-018
  1.550000000000000E-002    5.703695048129220E-018
  1.560000000000000E-002    5.814897299547310E-018
  1.570000000000000E-002    5.580382755956797E-018
  1.580000000000000E-002    4.975066925989066E-018
  1.590000000000000E-002    3.993900127924060E-018
  1.600000000000000E-002    2.654426600814649E-018
  1.610000000000000E-002    9.982406517086395E-019
  1.620000000000000E-002   -9.088754705802128E-019
  1.630000000000000E-002   -2.978281450986919E-018
  1.640000000000000E-002   -5.101361801638551E-018
  1.650000000000000E-002   -7.153955954630793E-018
  1.660000000000000E-002   -9.002235024271284E-018
  1.670000000000000E-002   -1.050982673874208E-017
  1.680000000000000E-002   -1.154589606916560E-017
  1.690000000000000E-002   -1.199378517241985E-017
  1.700000000000000E-002   -1.175975778350562E-017
  1.710000000000000E-002   -1.078131294270113E-017
  1.720000000000000E-002   -9.034520951981754E-018
  1.730000000000000E-002   -6.539813934279398E-018
  1.740000000000000E-002   -3.365711897794591E-018
  1.750000000000000E-002    3.699881483434703E-019
  1.760000000000000E-002    4.501908104104833E-018
  1.770000000000000E-002    8.821898046378308E-018
  1.780000000000000E-002    1.308701382013940E-017
  1.790000000000000E-002    1.703052637075158E-017
  1.800000000000000E-002    2.037563460394513E-017
  1.810000000000000E-002    2.285133092783190E-017
  1.820000000000000E-002    2.420970101481705E-017
  1.830000000000000E-002    2.424373145549197E-017
  1.840000000000000E-002    2.280459964539526E-017
  1.850000000000000E-002    1.981730438215933E-017
  1.860000000000000E-002    1.529348573212614E-017
  1.870000000000000E-002    9.340327416323988E-018