 -4.000000000000000E-002    0.000000000000000E+000
 -3.990000000000000E-002    0.000000000000000E+000
 -3.980000000000000E-002    0.000000000000000E+000
 -3.970000000000000E-002    0.000000000000000E+000
 -3.960000000000000E-002    0.000000000000000E+000
 -3.950000000000000E-002    0.000000000000000E+000
 -3.940000000000000E-002    0.000000000000000E+000
 -3.930000000000000E-002    0.000000000000000E+000
 -3.920000000000000E-002    0.000000000000000E+000
 -3.910000000000000E-002    1.458091088873260E-031
 -3.900000000000000E-002    3.985814926453885E-030
 -3.890000000000000E-002    4.995693129195326E-029
 -3.880000000000000E-002    4.055704653475409E-028
 -3.870000000000000E-002    2.456660002237450E-027
 -3.860000000000000E-002    1.197826997243730E-026
 -3.850000000000000E-002    4.925963807183937E-026
 -3.840000000000000E-002    1.762760692116822E-025
 -3.830000000000000E-002    5.611502674602842E-025
 -3.820000000000000E-002    1.615018712716732E-024
 -3.810000000000000E-002    4.253807958581256E-024
 -3.800000000000000E-002    1.034943386945985E-023
 -3.790000000000000E-002    2.342497479674459E-023
 -3.780000000000000E-002    4.958904330714291E-023
 -3.770000000000000E-002    9.855886009341995E-023
 -3.760000000000000E-002    1.843497558078392E-022
 -3.750000000000000E-002    3.247842992630370E-022
 -3.740000000000000E-002    5.384087312093530E-022
 -3.730000000000000E-002    8.367808445673386E-022
 -3.720000000000000E-002    1.209601022329555E-021
 -3.710000000000000E-002    1.600116379469421E-021
 -3.700000000000000E-002    1.869085547738465E-021
 -3.690000000000000E-002    1.747874067455985E-021
 -3.680000000000000E-002    7.854567579806382E-022
 -3.670000000000000E-002   -1.699489349070136E-021
 -3.660000000000000E-002   -6.641779038818958E-021
 -3.650000000000000E-002   -1.519902737269797E-020
 -3.640000000000000E-002   -2.862910334071062E-020
 -3.630000000000000E-002   -4.803270609899927E-020
 -3.620000000000000E-002   -7.392064922568988E-020
 -3.610000000000000E-002   -1.055802860270440E-019
 -3.600000000000000E-002   -1.402467925274495E-019
 -3.590000000000000E-002   -1.721354169617827E-019
 -3.580000000000000E-002   -1.914605055347312E-019
 -3.570000000000000E-002   -1.836507398239528E-019
 -3.560000000000000E-002   -1.290575924864523E-019
 -3.550000000000000E-002   -3.528299262226152E-021
 -3.540000000000000E-002    2.197473577121210E-019
 -3.530000000000000E-002    5.667321892090762E-019
 -3.520000000000000E-002    1.057107901296663E-018
 -3.510000000000000E-002    1.696866549790052E-018
 -3.500000000000000E-002    2.469222300298173E-018
 -3.490000000000000E-002    3.324589457698619E-018
 -3.480000000000000E-002    4.170890741236091E-018
 -3.470000000000000E-002    4.865989874617321E-018
 -3.460000000000000E-002    5.214478389994808E-018
 -3.450000000000000E-002    4.971298824070737E-018
 -3.440000000000000E-002    3.854621751392820E-018
 -3.430000000000000E-002    1.569908639440282E-018
 -3.420000000000000E-002   -2.153861103205877E-018
 -3.410000000000000E-002   -7.516273779646965E-018
 -3.400000000000000E-002   -1.458821295911956E-017
 -3.390000000000000E-002   -2.324969857950782E-017
 -3.380000000000000E-002   -3.312940988617505E-017
 -3.370000000000000E-002   -4.355427682800534E-017
 -3.360000000000000E-002   -5.351866980985083E-017
 -3.350000000000000E-002   -6.168285443716223E-017
 -3.340000000000000E-002   -6.640930935484018E-017
 -3.330000000000000E-002   -6.584304723112687E-017
 -3.320000000000000E-002   -5.803846847574297E-017
 -3.310000000000000E-002   -4.113059115240170E-017
 -3.300000000000000E-002   -1.354351141482795E-017
 -3.290000000000000E-002    2.577593233541381E-017
 -3.280000000000000E-002    7.711525092520486E-017
 -3.270000000000000E-002    1.397625717335857E-016
 -3.260000000000000E-002    2.118011561509363E-016
 -3.250000000000000E-002    2.899500009625857E-016
 -3.240000000000000E-002    3.694656825303063E-016
 -3.230000000000000E-002    4.441173078166907E-016
 -3.220000000000000E-002    5.062438468431199E-016
 -3.210000000000000E-002    5.469022880752965E-016
 -3.200000000000000E-002    5.561165736810848E-016
 -3.190000000000000E-002    5.232430405850370E-016
 -3.180000000000000E-002    4.374748376633141E-016
 -3.170000000000000E-002    2.885171547579745E-016
 -3.160000000000000E-002    6.747029938861346E-017
 -3.150000000000000E-002   -2.320425992735792E-016
 -3.140000000000000E-002   -6.124785225432835E-016
 -3.130000000000000E-002   -1.070711762039270E-015
 -3.120000000000000E-002   -1.596155991965713E-015
 -3.110000000000000E-002   -2.168788817783016E-015
 -3.100000000000000E-002   -2.757279073908585E-015
 -3.090000000000000E-002   -3.317508469342149E-015
 -3.080000000000000E-002   -3.791865088710343E-015
 -3.070000000000000E-002   -4.109749734268161E-015
 -3.060000000000000E-002   -4.189756800823499E-015
 -3.050000000000000E-002   -3.943948722611122E-015
 -3.040000000000000E-002   -3.284519318014190E-015
 -3.030000000000000E-002   -2.132928836977647E-015
 -3.020000000000000E-002   -4.312888933875671E-016
 -3.010000000000000E-002    1.844602311983534E-015
 -3.000000000000000E-002    4.671590732364404E-015
 -2.990000000000000E-002    7.966298393311377E-015
 -2.980000000000000E-002    1.157483126429921E-014
 -2.970000000000000E-002    1.526705596779001E-014
 -2.960000000000000E-002    1.873744427756925E-014
 -2.950000000000000E-002    2.161424174703971E-014
 -2.940000000000000E-002    2.347817165809639E-014
 -2.930000000000000E-002    2.389106834698148E-014
 -2.920000000000000E-002    2.243374927637458E-014
 -2.910000000000000E-002    1.875119613824830E-014
 -2.900000000000000E-002    1.260183192841204E-014
 -2.890000000000000E-002    3.906517741284702E-015
 -2.880000000000000E-002   -7.207968908420460E-015
 -2.870000000000000E-002   -2.037664743411735E-014
 -2.860000000000000E-002   -3.498069083309823E-014
 -2.850000000000000E-002   -5.015304349941962E-014
 -2.840000000000000E-002   -6.480833411093275E-014
 -2.830000000000000E-002   -7.769797227580270E-014
 -2.820000000000000E-002   -8.748873608994216E-014
 -2.810000000000000E-002   -9.286042416770157E-014
 -2.800000000000000E-002   -9.261555360390172E-014
 -2.790000000000000E-002   -8.579208092048513E-014
 -2.780000000000000E-002   -7.176886447200512E-014
 -2.770000000000000E-002   -5.035348149499707E-014
 -2.760000000000000E-002   -2.184316709689575E-014
 -2.750000000000000E-002    1.294812910205220E-014
 -2.740000000000000E-002    5.270019204924102E-014
 -2.730000000000000E-002    9.563426548683609E-014
 -2.720000000000000E-002    1.395936710106538E-013
 -2.710000000000000E-002    1.821495198177386E-013
 -2.700000000000000E-002    2.207209638136893E-013
 -2.690000000000000E-002    2.526986123461900E-013
 -2.680000000000000E-002    2.755604199969577E-013
 -2.670000000000000E-002    2.869720111916388E-013
 -2.660000000000000E-002    2.848677576766150E-013
 -2.650000000000000E-002    2.675138884367963E-013
 -2.640000000000000E-002    2.335605825147247E-013
 -2.630000000000000E-002    1.820941155393072E-013
 -2.620000000000000E-002    1.127028848016465E-013
 -2.610000000000000E-002    2.557078419068445E-014
 -2.600000000000000E-002   -7.839249553925591E-014
 -2.590000000000000E-002   -1.973817230074097E-013
 -2.580000000000000E-002   -3.284950310404233E-013
 -2.570000000000000E-002   -4.675215655652040E-013
 -2.560000000000000E-002   -6.087509120405652E-013
 -2.550000000000000E-002   -7.448480567297212E-013
 -2.540000000000000E-002   -8.668441864919191E-013
 -2.530000000000000E-002   -9.642951629172053E-013
 -2.520000000000000E-002   -1.025651740014217E-012
 -2.510000000000000E-002   -1.038870299233526E-012
 -2.500000000000000E-002   -9.922695184667439E-013
 -2.490000000000000E-002   -8.756078110385515E-013
 -2.480000000000000E-002   -6.813216410603335E-013
 -2.470000000000000E-002   -4.058310434807067E-013
 -2.460000000000000E-002   -5.078887082816590E-014
 -2.450000000000000E-002    3.758719897939723E-013
 -2.440000000000000E-002    8.592435961546569E-013
 -2.430000000000000E-002    1.377243736270147E-012
 -2.420000000000000E-002    1.901026700896601E-012
 -2.410000000000000E-002    2.396071638132270E-012
 -2.400000000000000E-002    2.823959624076816E-012
 -2.390000000000000E-002    3.144774523019189E-012
 -2.380000000000000E-002    3.319995942457737E-012
 -2.370000000000000E-002    3.315680297299860E-012
 -2.360000000000000E-002    3.105676182776594E-012
 -2.350000000000000E-002    2.674587021743281E-012
 -2.340000000000000E-002    2.020190724892719E-012
 -2.330000000000000E-002    1.155054197351841E-012
 -2.320000000000000E-002    1.071335036229811E-013
 -2.310000000000000E-002   -1.080758530520336E-012
 -2.300000000000000E-002   -2.352644400673089E-012
 -2.290000000000000E-002   -3.642142474099081E-012
 -2.280000000000000E-002   -4.876107751956318E-012
 -2.270000000000000E-002   -5.978872880853387E-012
 -2.260000000000000E-002   -6.876756111731127E-012
 -2.250000000000000E-002   -7.502478087881365E-012
 -2.240000000000000E-002   -7.799150242853002E-012
 -2.230000000000000E-002   -7.723555394592687E-012
 -2.220000000000000E-002   -7.248528968775069E-012
 -2.210000000000000E-002   -6.364366393594872E-012
 -2.200000000000000E-002   -5.079287850553851E-012
 -2.190000000000000E-002   -3.419105265938674E-012
 -2.180000000000000E-002   -1.426309311326876E-012
 -2.170000000000000E-002    8.411746805295740E-013
 -2.160000000000000E-002    3.311316604775451E-012
 -2.150000000000000E-002    5.899223524764704E-012
 -2.140000000000000E-002    8.508220632586149E-012
 -2.130000000000000E-002    1.103083149163047E-011
 -2.120000000000000E-002    1.334985837903708E-011
 -2.110000000000000E-002    1.533989423894635E-011
 -2.100000000000000E-002    1.686967219789982E-011
 -2.090000000000000E-002    1.780568042530984E-011
 -2.080000000000000E-002    1.801741604889871E-011
 -2.070000000000000E-002    1.738449770888225E-011
 -2.060000000000000E-002    1.580563272271654E-011
 -2.050000000000000E-002    1.320917390019319E-011
 -2.040000000000000E-002    9.564631883543596E-012
 -2.030000000000000E-002    4.894264343929569E-012
 -2.020000000000000E-002   -7.164557239765457E-013
 -2.010000000000000E-002   -7.110812674669638E-012
 -2.000000000000000E-002   -1.405664965172971E-011
 -1.990000000000000E-002   -2.124726886400732E-011
 -1.980000000000000E-002   -2.830840091914117E-011
 -1.970000000000000E-002   -3.481181308935873E-011
 -1.960000000000000E-002   -4.029552808716230E-011
 -1.950000000000000E-002   -4.429004361917764E-011
 -1.940000000000000E-002   -4.634923765622283E-011
 -1.930000000000000E-002   -4.608406438120521E-011
 -1.920000000000000E-002   -4.319666765299102E-011
 -1.910000000000000E-002   -3.751222617171837E-011
 -1.900000000000000E-002   -2.900577157451416E-011
 -1.890000000000000E-002   -1.782140736724085E-011
 -1.880000000000000E-002   -4.281748114717647E-012
 -1.870000000000000E-002    1.111389112400073E-011
 -1.860000000000000E-002    2.770328777408169E-011
 -1.850000000000000E-002    4.468682942693568E-011
 -1.840000000000000E-002    6.116365603386917E-011
 -1.830000000000000E-002    7.617643666701465E-011
 -1.820000000000000E-002    8.876212767241334E-011
 -1.810000000000000E-002    9.800562313612546E-011
 -1.800000000000000E-002    1.030930032849275E-010
 -1.790000000000000E-002    1.033612374339542E-010
 -1.780000000000000E-002    9.834143043560278E-011
 -1.770000000000000E-002    8.779341270239697E-011
 -1.760000000000000E-002    7.173002285348393E-011
 -1.750000000000000E-002    5.043028131209015E-011
 -1.740000000000000E-002    2.444124279063652E-011
 -1.730000000000000E-002   -5.431016676773810E-012
 -1.720000000000000E-002   -3.814045814485682E-011
 -1.710000000000000E-002   -7.242914208136115E-011
 -1.700000000000000E-002   -1.068632915515163E-010
 -1.690000000000000E-002   -1.398764783604620E-010
 -1.680000000000000E-002   -1.698192472841831E-010
 -1.670000000000000E-002   -1.950148479592025E-010
 -1.660000000000000E-002   -2.138208491675060E-010
 -1.650000000000000E-002   -2.246962768391339E-010
 -1.640000000000000E-002   -2.262738949208843E-010
 -1.630000000000000E-002   -2.174364456525525E-010
 -1.620000000000000E-002   -1.973950555635555E-010
 -1.610000000000000E-002   -1.657667468677523E-010
 -1.600000000000000E-002   -1.226474777517860E-010
 -1.590000000000000E-002   -6.867514597232131E-011
 -1.580000000000000E-002   -5.077123484746635E-012
 -1.570000000000000E-002    6.630421268855328E-011
 -1.560000000000000E-002    1.430141943357177E-010
 -1.550000000000000E-002    2.220222401462617E-010
 -1.540000000000000E-002    2.997961995305643E-010
 -1.530000000000000E-002    3.724166810346291E-010
 -1.520000000000000E-002    4.357307343818036E-010
 -1.510000000000000E-002    4.855413412175864E-010
 -1.500000000000000E-002    5.178257373202181E-010
 -1.490000000000000E-002    5.289727948100041E-010
 -1.480000000000000E-002    5.160265029257701E-010
 -1.470000000000000E-002    4.769209485249174E-010
 -1.460000000000000E-002    4.106911090824820E-010
 -1.450000000000000E-002    3.176433775988398E-010
 -1.440000000000000E-002    1.994712494039322E-010
 -1.430000000000000E-002    5.930439435118781E-011
 -1.420000000000000E-002   -9.831814714081554E-011
 -1.410000000000000E-002   -2.675547183983837E-010
 -1.400000000000000E-002   -4.414473141578190E-010
 -1.390000000000000E-002   -6.121819942060856E-010
 -1.380000000000000E-002   -7.714129545356035E-010
 -1.370000000000000E-002   -9.106357692829671E-010
 -1.360000000000000E-002   -1.021592004849557E-009
 -1.350000000000000E-002   -1.096684394184387E-009
 -1.340000000000000E-002   -1.129382369027985E-009
 -1.330000000000000E-002   -1.114596121372281E-009
 -1.320000000000000E-002   -1.049000453093490E-009
 -1.310000000000000E-002   -9.312920746780759E-010
 -1.300000000000000E-002   -7.623664148942656E-010
 -1.290000000000000E-002   -5.454056407173795E-010
 -1.280000000000000E-002   -2.858719383130461E-010
 -1.270000000000000E-002    8.593950721392819E-012
 -1.260000000000000E-002    3.283665221806299E-010
 -1.250000000000000E-002    6.621155413799047E-010
 -1.240000000000000E-002    9.971628181680014E-010
 -1.230000000000000E-002    1.319905048659831E-009
 -1.220000000000000E-002    1.616289648172704E-009
 -1.210000000000000E-002    1.872329385428430E-009
 -1.200000000000000E-002    2.074640697266377E-009
 -1.190000000000000E-002    2.210989675795210E-009
 -1.180000000000000E-002    2.270828268617469E-009
 -1.170000000000000E-002    2.245803353702811E-009
 -1.160000000000000E-002    2.130220052118832E-009
 -1.150000000000000E-002    1.921439843583174E-009
 -1.140000000000000E-002    1.620194985997719E-009
 -1.130000000000000E-002    1.230799769242863E-009
 -1.120000000000000E-002    7.612417904589420E-010
 -1.110000000000000E-002    2.231387485721306E-010
 -1.100000000000000E-002   -3.684501821178738E-010
 -1.090000000000000E-002   -9.953640857183860E-010
 -1.080000000000000E-002   -1.636830408086576E-009
 -1.070000000000000E-002   -2.270097251133763E-009
 -1.060000000000000E-002   -2.871192611583034E-009
 -1.050000000000000E-002   -3.415785671377339E-009
 -1.040000000000000E-002   -3.880120441069682E-009
 -1.030000000000000E-002   -4.241982329705332E-009
 -1.020000000000000E-002   -4.481658850327268E-009
 -1.010000000000000E-002   -4.582845415395190E-009
 -1.000000000000000E-002   -4.533456500297361E-009
 -9.899999999999999E-003   -4.326299642741717E-009
 -9.800000000000000E-003   -3.959575079454507E-009
 -9.699999999999999E-003   -3.437178187898141E-009
 -9.599999999999999E-003   -2.768781976746791E-009
 -9.500000000000000E-003   -1.969699507879422E-009
 -9.399999999999999E-003   -1.060526675822352E-009
 -9.299999999999999E-003   -6.658702699154378E-011
 -9.200000000000000E-003    9.827981758244292E-010
 -9.099999999999999E-003    2.055176197027716E-009
 -8.999999999999999E-003    3.115927489226892E-009
 -8.900000000000000E-003    4.129283920239409E-009
 -8.799999999999999E-003    5.059357522062023E-009
 -8.699999999999999E-003    5.871143199086696E-009
 -8.600000000000000E-003    6.531459091600305E-009
 -8.499999999999999E-003    7.009802904096332E-009
 -8.399999999999999E-003    7.279107059489331E-009
 -8.300000000000000E-003    7.316390515026080E-009
 -8.199999999999999E-003    7.103308503704735E-009
 -8.100000000000000E-003    6.626620962336953E-009
 -8.000000000000000E-003    5.878598293851603E-009
 -7.899999999999999E-003    4.857393764016526E-009
 -7.800000000000000E-003    3.567415724500547E-009
 -7.699999999999999E-003    2.019731191318999E-009
 -7.599999999999999E-003    2.325318071345127E-010
 -7.499999999999999E-003   -1.768310409069355E-009
 -7.399999999999999E-003   -3.948579651918576E-009
 -7.299999999999999E-003   -6.264927410475871E-009
 -7.199999999999999E-003   -8.663969143595655E-009
 -7.100000000000000E-003   -1.108125998009296E-008
 -6.999999999999999E-003   -1.344018533219751E-008
 -6.899999999999999E-003   -1.565078536429939E-008
 -6.800000000000000E-003   -1.760856351092446E-008
 -6.699999999999999E-003   -1.919333361246297E-008
 -6.599999999999999E-003   -2.026815978161358E-008
 -6.499999999999999E-003   -2.067846132657859E-008
 -6.399999999999999E-003   -2.025134678134264E-008
 -6.299999999999999E-003   -1.879525920625895E-008
 -6.199999999999999E-003   -1.609997834345982E-008
 -6.100000000000000E-003   -1.193706414762417E-008
 -5.999999999999999E-003   -6.060769554496651E-009
 -5.899999999999999E-003    1.790530233777866E-009
 -5.800000000000000E-003    1.189239799511912E-008
 -5.699999999999999E-003    2.453186602987877E-008
 -5.599999999999999E-003    4.000447783703535E-008
 -5.499999999999999E-003    5.861094967323802E-008
 -5.399999999999999E-003    8.065341135045128E-008
 -5.299999999999999E-003    1.064315298662567E-007
 -5.199999999999999E-003    1.362384084330285E-007
 -5.099999999999999E-003    1.703566291527365E-007
 -4.999999999999999E-003    2.090544149226519E-007
 -4.899999999999999E-003    2.525823127228497E-007
 -4.799999999999999E-003    3.011702267178051E-007
 -4.699999999999999E-003    3.550252963340180E-007
 -4.599999999999999E-003    4.143306091186261E-007
 -4.499999999999999E-003    4.792446050365360E-007
 -4.399999999999999E-003    5.499020478993930E-007
 -4.299999999999999E-003    6.264154241851334E-007
 -4.199999999999999E-003    7.088780286869018E-007
 -4.099999999999999E-003    7.973676906869251E-007
 -3.999999999999999E-003    8.919516565035545E-007
 -3.899999999999999E-003    9.926923945903650E-007
 -3.799999999999999E-003    1.099654050425756E-006
 -3.699999999999999E-003    1.212909572050732E-006
 -3.599999999999999E-003    1.332547991270822E-006
 -3.499999999999999E-003    1.458682198547503E-006
 -3.399999999999999E-003    1.591456417099947E-006
 -3.299999999999999E-003    1.731053756098816E-006
 -3.199999999999999E-003    1.877702921311125E-006
 -3.099999999999999E-003    2.031684590189908E-006
 -2.999999999999999E-003    2.193337559770010E-006
 -2.899999999999999E-003    2.363062833915257E-006
 -2.799999999999999E-003    2.541328348293311E-006
 -2.699999999999999E-003    2.728671288747058E-006
 -2.599999999999999E-003    2.925700930202224E-006
 -2.499999999999999E-003    3.133099199586055E-006
 -2.399999999999999E-003    3.351621123286668E-006
 -2.299999999999999E-003    3.582094525153271E-006
 -2.199999999999999E-003    3.825418223620208E-006
 -2.099999999999999E-003    4.082560020910455E-006
 -1.999999999999999E-003    4.354554472261686E-006
 -1.899999999999999E-003    4.642499673977414E-006
 -1.799999999999999E-003    4.947554255157852E-006
 -1.699999999999999E-003    5.270932899685344E-006
 -1.599999999999999E-003    5.613903079817579E-006
 -1.499999999999999E-003    5.977780547837898E-006
 -1.399999999999999E-003    6.363926604472573E-006
 -1.299999999999999E-003    6.773743851373042E-006
 -1.199999999999999E-003    7.208673906237419E-006
 -1.099999999999999E-003    7.670193778728038E-006
 -9.999999999999989E-004    8.159815043855382E-006
 -8.999999999999990E-004    8.679084067309886E-006
 -7.999999999999990E-004    9.229579987044014E-006
 -6.999999999999989E-004    9.812918322839118E-006
 -5.999999999999990E-004    1.043075553942235E-005
 -4.999999999999989E-004    1.108479136525915E-005
 -3.999999999999989E-004    1.177677585416054E-005
 -2.999999999999989E-004    1.250852020865191E-005
 -1.999999999999989E-004    1.328190362823622E-005
 -9.999999999999892E-005    1.409888489872873E-005
  1.084202172485504E-018    1.496151500927520E-005
  1.000000000000011E-004    1.587195304975913E-005
  2.000000000000011E-004    1.683247388244196E-005
  3.000000000000011E-004    1.784548779140196E-005
  4.000000000000011E-004    1.891355176168497E-005
  5.000000000000011E-004    2.003938131080896E-005
  6.000000000000011E-004    2.122586513974970E-005
  7.000000000000011E-004    2.247607169664049E-005
  8.000000000000011E-004    2.379326230350169E-005
  9.000000000000012E-004    2.518089418021953E-005
  1.000000000000001E-003    2.664262730100681E-005
  1.100000000000001E-003    2.818232868977842E-005
  1.200000000000001E-003    2.980406885886357E-005
  1.300000000000001E-003    3.151212303812647E-005
  1.400000000000001E-003    3.331097514344936E-005
  1.500000000000001E-003    3.520530753775696E-005
  1.600000000000001E-003    3.719999858144093E-005
  1.700000000000001E-003    3.930012544412025E-005
  1.800000000000001E-003    4.151095427123031E-005
  1.900000000000001E-003    4.383794069467848E-005
  2.000000000000001E-003    4.628673483603103E-005
  2.100000000000001E-003    4.886318049791368E-005
  2.200000000000001E-003    5.157331398918036E-005
  2.300000000000001E-003    5.442337139349058E-005
  2.400000000000001E-003    5.741981018534128E-005
  2.500000000000001E-003    6.056931311385252E-005
  2.600000000000001E-003    6.387878913933362E-005
  2.700000000000001E-003    6.735540912027955E-005
  2.800000000000001E-003    7.100661833412200E-005
  2.900000000000001E-003    7.484015215737175E-005
  3.000000000000001E-003    7.886405612535618E-005
  3.100000000000001E-003    8.308671910323532E-005
  3.200000000000001E-003    8.751688075669358E-005
  3.300000000000001E-003    9.216366365838003E-005
  3.400000000000001E-003    9.703659388475658E-005
  3.500000000000001E-003    1.021456113197131E-004
  3.600000000000001E-003    1.075010903259076E-004
  3.700000000000001E-003    1.131138684338022E-004
  3.800000000000001E-003    1.189952365704281E-004
  3.900000000000001E-003    1.251569834631180E-004
  4.000000000000001E-003    1.316113799442718E-004
  4.100000000000001E-003    1.383711874774114E-004
  4.200000000000001E-003    1.454496739734077E-004
  4.300000000000001E-003    1.528606045507801E-004
  4.400000000000001E-003    1.606182672660502E-004
  4.500000000000001E-003    1.687374441589003E-004
  4.600000000000002E-003    1.772334224453516E-004
  4.700000000000001E-003    1.861220130694242E-004
  4.800000000000001E-003    1.954195405874070E-004
  4.900000000000002E-003    2.051428421558794E-004
  5.000000000000001E-003    2.153092903986504E-004
  5.100000000000001E-003    2.259367750280197E-004
  5.200000000000001E-003    2.370437357203817E-004
  5.300000000000002E-003    2.486491621939290E-004
  5.400000000000001E-003    2.607725907994816E-004
  5.500000000000001E-003    2.734341633546216E-004
  5.600000000000002E-003    2.866546018172214E-004
  5.700000000000001E-003    3.004552551029476E-004
  5.800000000000001E-003    3.148581373261876E-004
  5.900000000000002E-003    3.298858898416056E-004
  6.000000000000001E-003    3.455618847721339E-004
  6.100000000000001E-003    3.619101621290967E-004
  6.200000000000002E-003    3.789555421746737E-004
  6.300000000000002E-003    3.967235884299341E-004
  6.400000000000001E-003    4.152406516354906E-004
  6.500000000000001E-003    4.345339485428971E-004
  6.600000000000002E-003    4.546314478524659E-004
  6.700000000000001E-003    4.755620622735779E-004
  6.800000000000001E-003    4.973555824992458E-004
  6.900000000000002E-003    5.200426363758683E-004
  7.000000000000001E-003    5.436547864127305E-004
  7.100000000000001E-003    5.682245349262666E-004
  7.200000000000002E-003    5.937853117483015E-004
  7.300000000000002E-003    6.203715612322889E-004
  7.400000000000001E-003    6.480185837449412E-004
  7.500000000000001E-003    6.767627079436135E-004
  7.600000000000002E-003    7.066411781590340E-004
  7.700000000000001E-003    7.376922691314880E-004
  7.800000000000001E-003    7.699551340303060E-004
  7.900000000000001E-003    8.034698739472421E-004
  8.000000000000002E-003    8.382775457117140E-004
  8.100000000000001E-003    8.744201033669177E-004
  8.200000000000001E-003    9.119405386246192E-004
  8.300000000000002E-003    9.508825752967042E-004
  8.400000000000001E-003    9.912909383994483E-004
  8.500000000000002E-003    1.033211187429258E-003
  8.600000000000002E-003    1.076689763282408E-003
  8.700000000000001E-003    1.121774075340332E-003
  8.800000000000002E-003    1.168512271565357E-003
  8.900000000000002E-003    1.216953496391880E-003
  9.000000000000001E-003    1.267147609533796E-003
  9.100000000000002E-003    1.319145426261969E-003
  9.200000000000002E-003    1.372998675773152E-003
  9.300000000000001E-003    1.428759927898830E-003
  9.400000000000002E-003    1.486482642312413E-003
  9.500000000000001E-003    1.546221176028034E-003
  9.600000000000001E-003    1.608030754369066E-003
  9.700000000000002E-003    1.671967720985879E-003
  9.800000000000001E-003    1.738089070132741E-003
  9.900000000000001E-003    1.806452981024577E-003
  1.000000000000000E-002    1.877118574446731E-003
  1.010000000000000E-002    1.950145685777878E-003
  1.020000000000000E-002    2.025595244774794E-003
  1.030000000000000E-002    2.103528967958284E-003
  1.040000000000000E-002    2.184009677124252E-003
  1.050000000000000E-002    2.267100657216493E-003
  1.060000000000000E-002    2.352866398702655E-003
  1.070000000000000E-002    2.441371744765586E-003
  1.080000000000000E-002    2.532682654076863E-003
  1.090000000000000E-002    2.626865483221273E-003
  1.100000000000000E-002    2.723987152029867E-003
  1.110000000000000E-002    2.824115200453367E-003
  1.120000000000000E-002    2.927317613551555E-003
  1.130000000000000E-002    3.033662799975842E-003
  1.140000000000000E-002    3.143219356666725E-003
  1.150000000000000E-002    3.256055978450106E-003
  1.160000000000000E-002    3.372241724503846E-003
  1.170000000000000E-002    3.491845413207941E-003
  1.180000000000000E-002    3.614936099187223E-003
  1.190000000000000E-002    3.741582947916373E-003
  1.200000000000000E-002    3.871854571250642E-003
  1.210000000000000E-002    4.005819908728478E-003
  1.220000000000000E-002    4.143547001838877E-003
  1.230000000000000E-002    4.285103866525363E-003
  1.240000000000000E-002    4.430558159337634E-003
  1.250000000000000E-002    4.579977305535192E-003
  1.260000000000000E-002    4.733427618946268E-003
  1.270000000000000E-002    4.890975335688481E-003
  1.280000000000000E-002    5.052686343451093E-003
  1.290000000000000E-002    5.218624809586232E-003
  1.300000000000000E-002    5.388855181251180E-003
  1.310000000000000E-002    5.563440439113904E-003
  1.320000000000000E-002    5.742443051529333E-003
  1.330000000000000E-002    5.925923875653297E-003
  1.340000000000000E-002    6.113943115330296E-003
  1.350000000000000E-002    6.306559633330136E-003
  1.360000000000000E-002    6.503830737860401E-003
  1.370000000000000E-002    6.705812426491604E-003
  1.380000000000000E-002    6.912558657285876E-003
  1.390000000000000E-002    7.124122061970807E-003
  1.400000000000000E-002    7.340553483084359E-003
  1.410000000000000E-002    7.561901488583432E-003
  1.420000000000000E-002    7.788213111417719E-003
  1.430000000000000E-002    8.019531506210847E-003
  1.440000000000000E-002    8.255898347842825E-003
  1.450000000000000E-002    8.497352808755292E-003
  1.460000000000000E-002    8.743930635821774E-003
  1.470000000000000E-002    8.995665043469235E-003
  1.480000000000000E-002    9.252585430697288E-003
  1.490000000000000E-002    9.514718841403754E-003
  1.500000000000000E-002    9.782088061953589E-003
  1.510000000000000E-002    1.005471254838470E-002
  1.520000000000000E-002    1.033260801893102E-002
  1.530000000000000E-002    1.061578641803984E-002
  1.540000000000000E-002    1.090425503654939E-002
  1.550000000000000E-002    1.119801738446981E-002
  1.560000000000000E-002    1.149707265732395E-002
  1.570000000000000E-002    1.180141543300503E-002
  1.580000000000000E-002    1.211103549132910E-002
  1.590000000000000E-002    1.242591867921304E-002
  1.600000000000000E-002    1.274604515353978E-002
  1.610000000000000E-002    1.307139048637059E-002
  1.620000000000000E-002    1.340192517890175E-002
  1.630000000000000E-002    1.373761418027006E-002
  1.640000000000000E-002    1.407841623572925E-002
  1.650000000000000E-002    1.442428611715062E-002
  1.660000000000000E-002    1.477517182106393E-002
  1.670000000000000E-002    1.513101491708291E-002
  1.680000000000000E-002    1.549175285103820E-002
  1.690000000000000E-002    1.585731410597455E-002
  1.700000000000000E-002    1.622762384766310E-002
  1.710000000000000E-002    1.660259802953708E-002
  1.720000000000000E-002    1.698214760711452E-002
  1.730000000000000E-002    1.736617568144869E-002
  1.740000000000000E-002    1.775457901212569E-002
  1.750000000000000E-002    1.814724627156374E-002
  1.760000000000000E-002    1.854405884109552E-002
  1.770000000000000E-002    1.894489257994314E-002
  1.780000000000000E-002    1.934961335384837E-002
  1.790000000000000E-002    1.975808251253016E-002
  1.800000000000000E-002    2.017014925347634E-002
  1.810000000000000E-002    2.058565782876543E-002
  1.820000000000000E-002    2.100444385934849E-002
  1.830000000000000E-002    2.142633373698090E-002
  1.840000000000000E-002    2.185114854254996E-002
  1.850000000000000E-002    2.227869910624310E-002
  1.860000000000000E-002    2.270878975337319E-002
  1.870000000000000E-002    2.314121434583494E-002