 -4.000000000000000E-002    0.000000000000000E+000
 -3.990000000000000E-002    0.000000000000000E+000
 -3.980000000000000E-002    0.000000000000000E+000
 -3.970000000000000E-002    0.000000000000000E+000
 -3.960000000000000E-002    0.000000000000000E+000
 -3.950000000000000E-002    0.000000000000000E+000
 -3.940000000000000E-002    0.000000000000000E+000
 -3.930000000000000E-002    0.000000000000000E+000
 -3.920000000000000E-002    0.000000000000000E+000
 -3.910000000000000E-002    0.000000000000000E+000
 -3.900000000000000E-002    0.000000000000000E+000
 -3.890000000000000E-002    0.000000000000000E+000
 -3.880000000000000E-002    0.000000000000000E+000
 -3.870000000000000E-002    0.000000000000000E+000
 -3.860000000000000E-002    0.000000000000000E+000
 -3.850000000000000E-002    0.000000000000000E+000
 -3.840000000000000E-002    0.000000000000000E+000
 -3.830000000000000E-002    0.000000000000000E+000
 -3.820000000000000E-002    0.000000000000000E+000
 -3.810000000000000E-002    0.000000000000000E+000
 -3.800000000000000E-002    0.000000000000000E+000
 -3.790000000000000E-002    0.000000000000000E+000
 -3.780000000000000E-002    0.000000000000000E+000
 -3.770000000000000E-002    0.000000000000000E+000
 -3.760000000000000E-002    0.000000000000000E+000
 -3.750000000000000E-002    0.000000000000000E+000
 -3.740000000000000E-002    0.000000000000000E+000
 -3.730000000000000E-002    0.000000000000000E+000
 -3.720000000000000E-002    0.000000000000000E+000
 -3.710000000000000E-002    0.000000000000000E+000
 -3.700000000000000E-002    0.000000000000000E+000
 -3.690000000000000E-002    0.000000000000000E+000
 -3.680000000000000E-002    0.000000000000000E+000
 -3.670000000000000E-002    0.000000000000000E+000
 -3.660000000000000E-002    0.000000000000000E+000
 -3.650000000000000E-002    0.000000000000000E+000
 -3.640000000000000E-002    0.000000000000000E+000
 -3.630000000000000E-002    0.000000000000000E+000
 -3.620000000000000E-002    0.000000000000000E+000
 -3.610000000000000E-002    0.000000000000000E+000
 -3.600000000000000E-002    0.000000000000000E+000
 -3.590000000000000E-002    0.000000000000000E+000
 -3.580000000000000E-002    0.000000000000000E+000
 -3.570000000000000E-002    0.000000000000000E+000
 -3.560000000000000E-002    0.000000000000000E+000
 -3.550000000000000E-002    0.000000000000000E+000
 -3.540000000000000E-002    0.000000000000000E+000
 -3.530000000000000E-002    0.000000000000000E+000
 -3.520000000000000E-002    0.000000000000000E+000
 -3.510000000000000E-002    0.000000000000000E+000
 -3.500000000000000E-002    0.000000000000000E+000
 -3.490000000000000E-002    0.000000000000000E+000
 -3.480000000000000E-002    0.000000000000000E+000
 -3.470000000000000E-002    0.000000000000000E+000
 -3.460000000000000E-002    0.000000000000000E+000
 -3.450000000000000E-002    0.000000000000000E+000
 -3.440000000000000E-002    0.000000000000000E+000
 -3.430000000000000E-002    0.000000000000000E+000
 -3.420000000000000E-002    0.000000000000000E+000
 -3.410000000000000E-002    0.000000000000000E+000
 -3.400000000000000E-002    0.000000000000000E+000
 -3.390000000000000E-002    0.000000000000000E+000
 -3.380000000000000E-002    0.000000000000000E+000
 -3.370000000000000E-002    0.000000000000000E+000
 -3.360000000000000E-002    0.000000000000000E+000
 -3.350000000000000E-002    0.000000000000000E+000
 -3.340000000000000E-002    0.000000000000000E+000
 -3.330000000000000E-002    0.000000000000000E+000
 -3.320000000000000E-002    0.000000000000000E+000
 -3.310000000000000E-002    0.000000000000000E+000
 -3.300000000000000E-002    0.000000000000000E+000
 -3.290000000000000E-002    0.000000000000000E+000
 -3.280000000000000E-002    0.000000000000000E+000
 -3.270000000000000E-002    0.000000000000000E+000
 -3.260000000000000E-002    0.000000000000000E+000
 -3.250000000000000E-002    0.000000000000000E+000
 -3.240000000000000E-002    0.000000000000000E+000
 -3.230000000000000E-002    0.000000000000000E+000
 -3.220000000000000E-002    0.000000000000000E+000
 -3.210000000000000E-002    0.000000000000000E+000
 -3.200000000000000E-002    0.000000000000000E+000
 -3.190000000000000E-002    0.000000000000000E+000
 -3.180000000000000E-002    0.000000000000000E+000
 -3.170000000000000E-002    0.000000000000000E+000
 -3.160000000000000E-002    0.000000000000000E+000
 -3.150000000000000E-002    0.000000000000000E+000
 -3.140000000000000E-002    0.000000000000000E+000
 -3.130000000000000E-002    0.000000000000000E+000
 -3.120000000000000E-002    0.000000000000000E+000
 -3.110000000000000E-002    0.000000000000000E+000
 -3.100000000000000E-002    0.000000000000000E+000
 -3.090000000000000E-002    0.000000000000000E+000
 -3.080000000000000E-002    0.000000000000000E+000
 -3.070000000000000E-002    0.000000000000000E+000
 -3.060000000000000E-002    0.000000000000000E+000
 -3.050000000000000E-002    0.000000000000000E+000
 -3.040000000000000E-002    0.000000000000000E+000
 -3.030000000000000E-002    0.000000000000000E+000
 -3.020000000000000E-002    0.000000000000000E+000
 -3.010000000000000E-002    0.000000000000000E+000
 -3.000000000000000E-002    0.000000000000000E+000
 -2.990000000000000E-002    0.000000000000000E+000
 -2.980000000000000E-002    0.000000000000000E+000
 -2.970000000000000E-002    0.000000000000000E+000
 -2.960000000000000E-002    0.000000000000000E+000
 -2.950000000000000E-002    0.000000000000000E+000
 -2.940000000000000E-002    0.000000000000000E+000
 -2.930000000000000E-002    0.000000000000000E+000
 -2.920000000000000E-002    0.000000000000000E+000
 -2.910000000000000E-002    0.000000000000000E+000
 -2.900000000000000E-002    0.000000000000000E+000
 -2.890000000000000E-002    0.000000000000000E+000
 -2.880000000000000E-002    0.000000000000000E+000
 -2.870000000000000E-002    0.000000000000000E+000
 -2.860000000000000E-002    0.000000000000000E+000
 -2.850000000000000E-002    0.000000000000000E+000
 -2.840000000000000E-002    0.000000000000000E+000
 -2.830000000000000E-002    0.000000000000000E+000
 -2.820000000000000E-002    0.000000000000000E+000
 -2.810000000000000E-002    0.000000000000000E+000
 -2.800000000000000E-002    0.000000000000000E+000
 -2.790000000000000E-002    0.000000000000000E+000
 -2.780000000000000E-002    0.000000000000000E+000
 -2.770000000000000E-002    0.000000000000000E+000
 -2.760000000000000E-002    0.000000000000000E+000
 -2.750000000000000E-002    0.000000000000000E+000
 -2.740000000000000E-002    0.000000000000000E+000
 -2.730000000000000E-002    0.000000000000000E+000
 -2.720000000000000E-002    0.000000000000000E+000
 -2.710000000000000E-002    0.000000000000000E+000
 -2.700000000000000E-002    0.000000000000000E+000
 -2.690000000000000E-002    0.000000000000000E+000
 -2.680000000000000E-002    0.000000000000000E+000
 -2.670000000000000E-002    0.000000000000000E+000
 -2.660000000000000E-002    0.000000000000000E+000
 -2.650000000000000E-002    0.000000000000000E+000
 -2.640000000000000E-002    0.000000000000000E+000
 -2.630000000000000E-002    0.000000000000000E+000
 -2.620000000000000E-002    0.000000000000000E+000
 -2.610000000000000E-002    0.000000000000000E+000
 -2.600000000000000E-002    0.000000000000000E+000
 -2.590000000000000E-002    0.000000000000000E+000
 -2.580000000000000E-002    0.000000000000000E+000
 -2.570000000000000E-002    0.000000000000000E+000
 -2.560000000000000E-002    0.000000000000000E+000
 -2.550000000000000E-002    0.000000000000000E+000
 -2.540000000000000E-002    0.000000000000000E+000
 -2.530000000000000E-002    0.000000000000000E+000
 -2.520000000000000E-002    0.000000000000000E+000
 -2.510000000000000E-002    0.000000000000000E+000
 -2.500000000000000E-002    0.000000000000000E+000
 -2.490000000000000E-002    0.000000000000000E+000
 -2.480000000000000E-002    0.000000000000000E+000
 -2.470000000000000E-002    0.000000000000000E+000
 -2.460000000000000E-002    0.000000000000000E+000
 -2.450000000000000E-002    0.000000000000000E+000
 -2.440000000000000E-002    0.000000000000000E+000
 -2.430000000000000E-002    0.000000000000000E+000
 -2.420000000000000E-002    0.000000000000000E+000
 -2.410000000000000E-002    0.000000000000000E+000
 -2.400000000000000E-002    0.000000000000000E+000
 -2.390000000000000E-002    0.000000000000000E+000
 -2.380000000000000E-002    0.000000000000000E+000
 -2.370000000000000E-002    0.000000000000000E+000
 -2.360000000000000E-002    0.000000000000000E+000
 -2.350000000000000E-002    0.000000000000000E+000
 -2.340000000000000E-002    0.000000000000000E+000
 -2.330000000000000E-002    0.000000000000000E+000
 -2.320000000000000E-002    0.000000000000000E+000
 -2.310000000000000E-002    0.000000000000000E+000
 -2.300000000000000E-002    0.000000000000000E+000
 -2.290000000000000E-002    0.000000000000000E+000
 -2.280000000000000E-002    0.000000000000000E+000
 -2.270000000000000E-002    0.000000000000000E+000
 -2.260000000000000E-002    0.000000000000000E+000
 -2.250000000000000E-002    0.000000000000000E+000
 -2.240000000000000E-002    0.000000000000000E+000
 -2.230000000000000E-002    0.000000000000000E+000
 -2.220000000000000E-002    0.000000000000000E+000
 -2.210000000000000E-002    0.000000000000000E+000
 -2.200000000000000E-002    0.000000000000000E+000
 -2.190000000000000E-002    0.000000000000000E+000
 -2.180000000000000E-002    0.000000000000000E+000
 -2.170000000000000E-002    0.000000000000000E+000
 -2.160000000000000E-002    0.000000000000000E+000
 -2.150000000000000E-002    0.000000000000000E+000
 -2.140000000000000E-002    0.000000000000000E+000
 -2.130000000000000E-002    0.000000000000000E+000
 -2.120000000000000E-002    0.000000000000000E+000
 -2.110000000000000E-002    0.000000000000000E+000
 -2.100000000000000E-002    0.000000000000000E+000
 -2.090000000000000E-002    0.000000000000000E+000
 -2.080000000000000E-002    0.000000000000000E+000
 -2.070000000000000E-002    0.000000000000000E+000
 -2.060000000000000E-002    0.000000000000000E+000
 -2.050000000000000E-002    0.000000000000000E+000
 -2.040000000000000E-002    0.000000000000000E+000
 -2.030000000000000E-002    0.000000000000000E+000
 -2.020000000000000E-002    0.000000000000000E+000
 -2.010000000000000E-002    0.000000000000000E+000
 -2.000000000000000E-002    0.000000000000000E+000
 -1.990000000000000E-002    0.000000000000000E+000
 -1.980000000000000E-002    0.000000000000000E+000
 -1.970000000000000E-002    0.000000000000000E+000
 -1.960000000000000E-002    0.000000000000000E+000
 -1.950000000000000E-002    0.000000000000000E+000
 -1.940000000000000E-002    0.000000000000000E+000
 -1.930000000000000E-002    0.000000000000000E+000
 -1.920000000000000E-002    0.000000000000000E+000
 -1.910000000000000E-002    0.000000000000000E+000
 -1.900000000000000E-002    0.000000000000000E+000
 -1.890000000000000E-002    0.000000000000000E+000
 -1.880000000000000E-002    0.000000000000000E+000
 -1.870000000000000E-002    0.000000000000000E+000
 -1.860000000000000E-002    0.000000000000000E+000
 -1.850000000000000E-002    0.000000000000000E+000
 -1.840000000000000E-002    0.000000000000000E+000
 -1.830000000000000E-002    0.000000000000000E+000
 -1.820000000000000E-002    0.000000000000000E+000
 -1.810000000000000E-002    0.000000000000000E+000
 -1.800000000000000E-002    0.000000000000000E+000
 -1.790000000000000E-002    0.000000000000000E+000
 -1.780000000000000E-002    0.000000000000000E+000
 -1.770000000000000E-002    0.000000000000000E+000
 -1.760000000000000E-002    0.000000000000000E+000
 -1.750000000000000E-002    0.000000000000000E+000
 -1.740000000000000E-002    0.000000000000000E+000
 -1.730000000000000E-002    0.000000000000000E+000
 -1.720000000000000E-002    0.000000000000000E+000
 -1.710000000000000E-002    0.000000000000000E+000
 -1.700000000000000E-002    0.000000000000000E+000
 -1.690000000000000E-002    0.000000000000000E+000
 -1.680000000000000E-002    0.000000000000000E+000
 -1.670000000000000E-002    0.000000000000000E+000
 -1.660000000000000E-002    0.000000000000000E+000
 -1.650000000000000E-002    0.000000000000000E+000
 -1.640000000000000E-002    0.000000000000000E+000
 -1.630000000000000E-002    0.000000000000000E+000
 -1.620000000000000E-002    0.000000000000000E+000
 -1.610000000000000E-002    0.000000000000000E+000
 -1.600000000000000E-002    0.000000000000000E+000
 -1.590000000000000E-002    0.000000000000000E+000
 -1.580000000000000E-002    0.000000000000000E+000
 -1.570000000000000E-002    0.000000000000000E+000
 -1.560000000000000E-002    0.000000000000000E+000
 -1.550000000000000E-002    0.000000000000000E+000
 -1.540000000000000E-002    0.000000000000000E+000
 -1.530000000000000E-002    0.000000000000000E+000
 -1.520000000000000E-002    0.000000000000000E+000
 -1.510000000000000E-002    0.000000000000000E+000
 -1.500000000000000E-002    0.000000000000000E+000
 -1.490000000000000E-002    0.000000000000000E+000
 -1.480000000000000E-002    0.000000000000000E+000
 -1.470000000000000E-002    0.000000000000000E+000
 -1.460000000000000E-002    0.000000000000000E+000
 -1.450000000000000E-002    0.000000000000000E+000
 -1.440000000000000E-002    0.000000000000000E+000
 -1.430000000000000E-002    0.000000000000000E+000
 -1.420000000000000E-002    0.000000000000000E+000
 -1.410000000000000E-002    0.000000000000000E+000
 -1.400000000000000E-002    0.000000000000000E+000
 -1.390000000000000E-002    0.000000000000000E+000
 -1.380000000000000E-002    0.000000000000000E+000
 -1.370000000000000E-002    0.000000000000000E+000
 -1.360000000000000E-002    0.000000000000000E+000
 -1.350000000000000E-002    0.000000000000000E+000
 -1.340000000000000E-002    0.000000000000000E+000
 -1.330000000000000E-002    0.000000000000000E+000
 -1.320000000000000E-002    0.000000000000000E+000
 -1.310000000000000E-002    0.000000000000000E+000
 -1.300000000000000E-002    0.000000000000000E+000
 -1.290000000000000E-002    0.000000000000000E+000
 -1.280000000000000E-002    0.000000000000000E+000
 -1.270000000000000E-002    0.000000000000000E+000
 -1.260000000000000E-002    0.000000000000000E+000
 -1.250000000000000E-002    0.000000000000000E+000
 -1.240000000000000E-002    0.000000000000000E+000
 -1.230000000000000E-002    0.000000000000000E+000
 -1.220000000000000E-002    0.000000000000000E+000
 -1.210000000000000E-002    0.000000000000000E+000
 -1.200000000000000E-002    0.000000000000000E+000
 -1.190000000000000E-002    0.000000000000000E+000
 -1.180000000000000E-002    0.000000000000000E+000
 -1.170000000000000E-002    0.000000000000000E+000
 -1.160000000000000E-002    0.000000000000000E+000
 -1.150000000000000E-002    0.000000000000000E+000
 -1.140000000000000E-002    0.000000000000000E+000
 -1.130000000000000E-002    0.000000000000000E+000
 -1.120000000000000E-002    0.000000000000000E+000
 -1.110000000000000E-002    0.000000000000000E+000
 -1.100000000000000E-002    0.000000000000000E+000
 -1.090000000000000E-002    0.000000000000000E+000
 -1.080000000000000E-002    0.000000000000000E+000
 -1.070000000000000E-002    0.000000000000000E+000
 -1.060000000000000E-002    0.000000000000000E+000
 -1.050000000000000E-002    0.000000000000000E+000
 -1.040000000000000E-002    0.000000000000000E+000
 -1.030000000000000E-002    0.000000000000000E+000
 -1.020000000000000E-002    0.000000000000000E+000
 -1.010000000000000E-002    0.000000000000000E+000
 -1.000000000000000E-002    0.000000000000000E+000
 -9.899999999999999E-003    0.000000000000000E+000
 -9.800000000000000E-003    0.000000000000000E+000
 -9.699999999999999E-003    0.000000000000000E+000
 -9.599999999999999E-003    0.000000000000000E+000
 -9.500000000000000E-003    0.000000000000000E+000
 -9.399999999999999E-003    0.000000000000000E+000
 -9.299999999999999E-003    0.000000000000000E+000
 -9.200000000000000E-003    0.000000000000000E+000
 -9.099999999999999E-003    0.000000000000000E+000
 -8.999999999999999E-003    0.000000000000000E+000
 -8.900000000000000E-003    0.000000000000000E+000
 -8.799999999999999E-003    0.000000000000000E+000
 -8.699999999999999E-003    0.000000000000000E+000
 -8.600000000000000E-003    0.000000000000000E+000
 -8.499999999999999E-003    0.000000000000000E+000
 -8.399999999999999E-003    0.000000000000000E+000
 -8.300000000000000E-003    0.000000000000000E+000
 -8.199999999999999E-003    0.000000000000000E+000
 -8.100000000000000E-003    0.000000000000000E+000
 -8.000000000000000E-003    0.000000000000000E+000
 -7.899999999999999E-003    0.000000000000000E+000
 -7.800000000000000E-003    0.000000000000000E+000
 -7.699999999999999E-003    0.000000000000000E+000
 -7.599999999999999E-003    0.000000000000000E+000
 -7.499999999999999E-003    0.000000000000000E+000
 -7.399999999999999E-003    0.000000000000000E+000
 -7.299999999999999E-003    0.000000000000000E+000
 -7.199999999999999E-003    0.000000000000000E+000
 -7.100000000000000E-003    0.000000000000000E+000
 -6.999999999999999E-003    0.000000000000000E+000
 -6.899999999999999E-003    0.000000000000000E+000
 -6.800000000000000E-003    0.000000000000000E+000
 -6.699999999999999E-003    0.000000000000000E+000
 -6.599999999999999E-003    0.000000000000000E+000
 -6.499999999999999E-003    0.000000000000000E+000
 -6.399999999999999E-003    0.000000000000000E+000
 -6.299999999999999E-003    0.000000000000000E+000
 -6.199999999999999E-003    0.000000000000000E+000
 -6.100000000000000E-003    0.000000000000000E+000
 -5.999999999999999E-003    0.000000000000000E+000
 -5.899999999999999E-003    0.000000000000000E+000
 -5.800000000000000E-003    0.000000000000000E+000
 -5.699999999999999E-003    0.000000000000000E+000
 -5.599999999999999E-003    0.000000000000000E+000
 -5.499999999999999E-003    0.000000000000000E+000
 -5.399999999999999E-003    0.000000000000000E+000
 -5.299999999999999E-003    0.000000000000000E+000
 -5.199999999999999E-003    0.000000000000000E+000
 -5.099999999999999E-003    0.000000000000000E+000
 -4.999999999999999E-003    0.000000000000000E+000
 -4.899999999999999E-003    0.000000000000000E+000
 -4.799999999999999E-003    0.000000000000000E+000
 -4.699999999999999E-003    0.000000000000000E+000
 -4.599999999999999E-003    0.000000000000000E+000
 -4.499999999999999E-003    0.000000000000000E+000
 -4.399999999999999E-003    0.000000000000000E+000
 -4.299999999999999E-003    0.000000000000000E+000
 -4.199999999999999E-003    0.000000000000000E+000
 -4.099999999999999E-003    0.000000000000000E+000
 -3.999999999999999E-003    0.000000000000000E+000
 -3.899999999999999E-003    0.000000000000000E+000
 -3.799999999999999E-003    0.000000000000000E+000
 -3.699999999999999E-003    0.000000000000000E+000
 -3.599999999999999E-003    0.000000000000000E+000
 -3.499999999999999E-003    0.000000000000000E+000
 -3.399999999999999E-003    0.000000000000000E+000
 -3.299999999999999E-003    0.000000000000000E+000
 -3.199999999999999E-003    0.000000000000000E+000
 -3.099999999999999E-003    0.000000000000000E+000
 -2.999999999999999E-003    0.000000000000000E+000
 -2.899999999999999E-003    0.000000000000000E+000
 -2.799999999999999E-003    0.000000000000000E+000
 -2.699999999999999E-003    0.000000000000000E+000
 -2.599999999999999E-003    0.000000000000000E+000
 -2.499999999999999E-003    0.000000000000000E+000
 -2.399999999999999E-003    0.000000000000000E+000
 -2.299999999999999E-003    0.000000000000000E+000
 -2.199999999999999E-003    0.000000000000000E+000
 -2.099999999999999E-003    0.000000000000000E+000
 -1.999999999999999E-003    0.000000000000000E+000
 -1.899999999999999E-003    0.000000000000000E+000
 -1.799999999999999E-003    0.000000000000000E+000
 -1.699999999999999E-003    0.000000000000000E+000
 -1.599999999999999E-003    0.000000000000000E+000
 -1.499999999999999E-003    0.000000000000000E+000
 -1.399999999999999E-003    0.000000000000000E+000
 -1.299999999999999E-003    0.000000000000000E+000
 -1.199999999999999E-003    0.000000000000000E+000
 -1.099999999999999E-003    6.414635304221270E-048
 -9.999999999999989E-004    1.282927060844254E-047
 -8.999999999999990E-004    1.282927060844254E-047
 -7.999999999999990E-004    1.282927060844254E-047
 -6.999999999999989E-004    1.282927060844254E-047
 -5.999999999999990E-004    6.414635304221270E-048
 -4.999999999999989E-004   -2.585875387122444E-047
 -3.999999999999989E-004   -6.454677835089142E-047
 -2.999999999999989E-004   -1.096494381347797E-046
 -1.999999999999989E-004   -1.547520979186679E-046
 -9.999999999999892E-005   -1.996545450482168E-046
  1.084202172485504E-018   -2.445569921777657E-046
  1.000000000000011E-004   -3.317960323151750E-046
  2.000000000000011E-004   -3.803470479729173E-046
  3.000000000000011E-004   -3.159609617698548E-046
  4.000000000000011E-004   -1.808136745660189E-046
  5.000000000000011E-004    1.865829311571373E-046
  6.000000000000011E-004    6.246740003296204E-046
  7.000000000000011E-004    1.190630133232914E-045
  8.000000000000011E-004    1.808330990923593E-045
  9.000000000000012E-004    2.322275453928498E-045
  1.000000000000001E-003    2.778248466034563E-045
  1.100000000000001E-003    2.543005661229504E-045
  1.200000000000001E-003    1.951820722655153E-045
  1.300000000000001E-003    8.354663669187375E-046
  1.400000000000001E-003   -8.781287459915120E-046
  1.500000000000001E-003   -3.237755375083753E-045
  1.600000000000001E-003   -7.480630785808067E-045
  1.700000000000001E-003   -1.212424660747069E-044
  1.800000000000001E-003   -1.737172907560795E-044
  1.900000000000001E-003   -2.194557068212579E-044
  2.000000000000001E-003   -2.510525608983043E-044
  2.100000000000001E-003   -2.645485990995051E-044
  2.200000000000001E-003   -2.526683162381665E-044
  2.300000000000001E-003   -1.986261683658943E-044
  2.400000000000001E-003   -8.708390090046526E-045
  2.500000000000001E-003    8.469324616266920E-045
  2.600000000000001E-003    3.218429695541315E-044
  2.700000000000001E-003    6.103621805904510E-044
  2.800000000000001E-003    9.306940564369222E-044
  2.900000000000001E-003    1.250131983562047E-043
  3.000000000000001E-003    1.531862819388005E-043
  3.100000000000001E-003    1.704596611542157E-043
  3.200000000000001E-003    1.711592067115406E-043
  3.300000000000001E-003    1.464164581410546E-043
  3.400000000000001E-003    9.077840154654164E-044
  3.500000000000001E-003    7.760697198803301E-047
  3.600000000000001E-003   -1.263169031807232E-043
  3.700000000000001E-003   -2.855830991182421E-043
  3.800000000000001E-003   -4.687885251051827E-043
  3.900000000000001E-003   -6.575322426031452E-043
  4.000000000000001E-003   -8.278902900011624E-043
  4.100000000000001E-003   -9.480052108135170E-043
  4.200000000000001E-003   -9.811589231738483E-043
  4.300000000000001E-003   -8.884058409916966E-043
  4.400000000000001E-003   -6.321332614014004E-043
  4.500000000000001E-003   -1.863451675392404E-043
  4.600000000000002E-003    4.598738866325662E-043
  4.700000000000001E-003    1.292141899041937E-042
  4.800000000000001E-003    2.264065312042584E-042
  4.900000000000002E-003    3.291771322546694E-042
  5.000000000000001E-003    4.250503725440230E-042
  5.100000000000001E-003    4.979135263754033E-042
  5.200000000000001E-003    5.285106453655913E-042
  5.300000000000002E-003    4.966184254831214E-042
  5.400000000000001E-003    3.831087388090856E-042
  5.500000000000001E-003    1.734006576846853E-042
  5.600000000000002E-003   -1.390005706158429E-042
  5.700000000000001E-003   -5.486088754819358E-042
  5.800000000000001E-003   -1.033857731819963E-041
  5.900000000000002E-003   -1.554524015634851E-041
  6.000000000000001E-003   -2.050803707648864E-041
  6.100000000000001E-003   -2.444272322664048E-041
  6.200000000000002E-003   -2.642346038237216E-041
  6.300000000000002E-003   -2.546185628715249E-041
  6.400000000000001E-003   -2.062684610757571E-041
  6.500000000000001E-003   -1.119268205749150E-041
  6.600000000000002E-003    3.177317518012334E-042
  6.700000000000001E-003    2.225372469995538E-041
  6.800000000000001E-003    4.506301938226730E-041
  6.900000000000002E-003    6.976279069327321E-041
  7.000000000000001E-003    9.359965150013816E-041
  7.100000000000001E-003    1.129659331439295E-040
  7.200000000000002E-003    1.236145002949903E-040
  7.300000000000002E-003    1.210267956407071E-040
  7.400000000000001E-003    1.009546141643742E-040
  7.500000000000001E-003    6.010590975814726E-041
  7.600000000000002E-003   -3.061111951575258E-042
  7.700000000000001E-003   -8.752250609599277E-041
  7.800000000000001E-003   -1.889508786090105E-040
  7.900000000000001E-003   -2.991943522253513E-040
  8.000000000000002E-003   -4.061072351568240E-040
  8.100000000000001E-003   -4.938939563628032E-040
  8.200000000000001E-003   -5.440711346504158E-040
  8.300000000000002E-003   -5.371370411201671E-040
  8.400000000000001E-003   -4.549392543455326E-040
  8.500000000000002E-003   -2.836410191962174E-040
  8.600000000000002E-003   -1.707793809085480E-041
  8.700000000000001E-003    3.398540751024282E-040
  8.800000000000002E-003    7.682241087117163E-040
  8.900000000000002E-003    1.233079327597867E-039
  9.000000000000001E-003    1.683032205165087E-039
  9.100000000000002E-003    2.052000657137835E-039
  9.200000000000002E-003    2.263557790805875E-039
  9.300000000000001E-003    2.238120944456415E-039
  9.400000000000002E-003    1.902894579977082E-039
  9.500000000000001E-003    1.204076273958827E-039
  9.600000000000001E-003    1.203225997834541E-040
  9.700000000000002E-003   -1.323974657812248E-039
  9.800000000000001E-003   -3.047532031562239E-039
  9.900000000000001E-003   -4.905340179763492E-039
  1.000000000000000E-002   -6.688482480656512E-039
  1.010000000000000E-002   -8.132706513469723E-039
  1.020000000000000E-002   -8.937308405474232E-039
  1.030000000000000E-002   -8.794910868202595E-039
  1.040000000000000E-002   -7.431405908688358E-039
  1.050000000000000E-002   -4.653667281891542E-039
  1.060000000000000E-002   -4.008277321705649E-040
  1.070000000000000E-002    5.206861383037556E-039
  1.080000000000000E-002    1.182908229388149E-038
  1.090000000000000E-002    1.888479970105924E-038
  1.100000000000000E-002    2.555830296987939E-038
  1.110000000000000E-002    3.083918148341281E-038
  1.120000000000000E-002    3.360094741687479E-038
  1.130000000000000E-002    3.271909286835373E-038
  1.140000000000000E-002    2.722417231309139E-038
  1.150000000000000E-002    1.647928754896706E-038
  1.160000000000000E-002    3.649552368622328E-040
  1.170000000000000E-002   -2.055185460934710E-038
  1.180000000000000E-002   -4.489225129357939E-038
  1.190000000000000E-002   -7.041349508926858E-038
  1.200000000000000E-002   -9.405918713934966E-038
  1.210000000000000E-002   -1.121344781680882E-037
  1.220000000000000E-002   -1.206186715876275E-037
  1.230000000000000E-002   -1.156123445580568E-037
  1.240000000000000E-002   -9.389691380934226E-038
  1.250000000000000E-002   -5.356271207111851E-038
  1.260000000000000E-002    5.360090590096919E-039
  1.270000000000000E-002    8.035273875897470E-038
  1.280000000000000E-002    1.660390039160821E-037
  1.290000000000000E-002    2.540971910671814E-037
  1.300000000000000E-002    3.335440600992860E-037
  1.310000000000000E-002    3.914568840322661E-037
  1.320000000000000E-002    4.141584839885483E-037
  1.330000000000000E-002    3.888343614078659E-037
  1.340000000000000E-002    3.054834119069792E-037
  1.350000000000000E-002    1.590315153847846E-037
  1.360000000000000E-002   -4.863237397440081E-038
  1.370000000000000E-002   -3.069932766366705E-037
  1.380000000000000E-002   -5.959471525191275E-037
  1.390000000000000E-002   -8.858576557747599E-037
  1.400000000000000E-002   -1.138903939594854E-036
  1.410000000000000E-002   -1.311887130729336E-036
  1.420000000000000E-002   -1.360513838023817E-036
  1.430000000000000E-002   -1.244978119672410E-036
  1.440000000000000E-002   -9.364415051329374E-037
  1.450000000000000E-002   -4.237823595523197E-037
  1.460000000000000E-002    2.802186045838312E-037
  1.470000000000000E-002    1.134235344620498E-036
  1.480000000000000E-002    2.066325985277704E-036
  1.490000000000000E-002    2.975386662427540E-036
  1.500000000000000E-002    3.736863904448694E-036
  1.510000000000000E-002    4.213073027201727E-036
  1.520000000000000E-002    4.267942273650164E-036
  1.530000000000000E-002    3.785364381783788E-036
  1.540000000000000E-002    2.689636689925513E-036
  1.550000000000000E-002    9.658019013615170E-037
  1.560000000000000E-002   -1.322850222729383E-036
  1.570000000000000E-002   -4.023173712371187E-036
  1.580000000000000E-002   -6.889495456769209E-036
  1.590000000000000E-002   -9.592500084781081E-036
  1.600000000000000E-002   -1.174140480468051E-035
  1.610000000000000E-002   -1.291980810394991E-035
  1.620000000000000E-002   -1.273386675215487E-035
  1.630000000000000E-002   -1.086946789117178E-035
  1.640000000000000E-002   -7.153039406423426E-036
  1.650000000000000E-002   -1.608819004722323E-036
  1.660000000000000E-002    5.495876857556908E-036
  1.670000000000000E-002    1.362632046461980E-035
  1.680000000000000E-002    2.198529689913525E-035
  1.690000000000000E-002    2.955372445924708E-035
  1.700000000000000E-002    3.517017349427830E-035
  1.710000000000000E-002    3.764813475894318E-035
  1.720000000000000E-002    3.592451479761530E-035
  1.730000000000000E-002    2.922716935704669E-035
  1.740000000000000E-002    1.724386322828847E-035
  1.750000000000000E-002    2.706414842320612E-037
  1.760000000000000E-002   -2.068467173656721E-035
  1.770000000000000E-002   -4.386809430602255E-035
  1.780000000000000E-002   -6.683459018600248E-035
  1.790000000000000E-002   -8.660618454873335E-035
  1.800000000000000E-002   -9.993578116372447E-035
  1.810000000000000E-002   -1.036661332545376E-034
  1.820000000000000E-002   -9.515839874933624E-035
  1.830000000000000E-002   -7.274963615543246E-035
  1.840000000000000E-002   -3.618572671342692E-035
  1.850000000000000E-002    1.303259383783313E-035
  1.860000000000000E-002    7.145514074128484E-035
  1.870000000000000E-002    1.336981114909806E-034