 -4.000000000000000E-002    0.000000000000000E+000
 -3.990000000000000E-002    0.000000000000000E+000
 -3.980000000000000E-002    0.000000000000000E+000
 -3.970000000000000E-002    0.000000000000000E+000
 -3.960000000000000E-002    0.000000000000000E+000
 -3.950000000000000E-002    0.000000000000000E+000
 -3.940000000000000E-002    0.000000000000000E+000
 -3.930000000000000E-002    0.000000000000000E+000
 -3.920000000000000E-002    0.000000000000000E+000
 -3.910000000000000E-002    0.000000000000000E+000
 -3.900000000000000E-002    0.000000000000000E+000
 -3.890000000000000E-002    0.000000000000000E+000
 -3.880000000000000E-002    0.000000000000000E+000
 -3.870000000000000E-002    0.000000000000000E+000
 -3.860000000000000E-002    0.000000000000000E+000
 -3.850000000000000E-002    0.000000000000000E+000
 -3.840000000000000E-002    0.000000000000000E+000
 -3.830000000000000E-002    0.000000000000000E+000
 -3.820000000000000E-002    0.000000000000000E+000
 -3.810000000000000E-002    0.000000000000000E+000
 -3.800000000000000E-002    0.000000000000000E+000
 -3.790000000000000E-002    0.000000000000000E+000
 -3.780000000000000E-002    0.000000000000000E+000
 -3.770000000000000E-002    0.000000000000000E+000
 -3.760000000000000E-002    0.000000000000000E+000
 -3.750000000000000E-002    0.000000000000000E+000
 -3.740000000000000E-002    0.000000000000000E+000
 -3.730000000000000E-002    0.000000000000000E+000
 -3.720000000000000E-002    0.000000000000000E+000
 -3.710000000000000E-002    0.000000000000000E+000
 -3.700000000000000E-002    0.000000000000000E+000
 -3.690000000000000E-002    0.000000000000000E+000
 -3.680000000000000E-002    0.000000000000000E+000
 -3.670000000000000E-002    0.000000000000000E+000
 -3.660000000000000E-002    0.000000000000000E+000
 -3.650000000000000E-002    0.000000000000000E+000
 -3.640000000000000E-002    0.000000000000000E+000
 -3.630000000000000E-002    0.000000000000000E+000
 -3.620000000000000E-002    0.000000000000000E+000
 -3.610000000000000E-002    0.000000000000000E+000
 -3.600000000000000E-002    0.000000000000000E+000
 -3.590000000000000E-002    0.000000000000000E+000
 -3.580000000000000E-002    0.000000000000000E+000
 -3.570000000000000E-002    0.000000000000000E+000
 -3.560000000000000E-002    0.000000000000000E+000
 -3.550000000000000E-002    0.000000000000000E+000
 -3.540000000000000E-002    0.000000000000000E+000
 -3.530000000000000E-002    0.000000000000000E+000
 -3.520000000000000E-002    0.000000000000000E+000
 -3.510000000000000E-002    0.000000000000000E+000
 -3.500000000000000E-002    0.000000000000000E+000
 -3.490000000000000E-002    0.000000000000000E+000
 -3.480000000000000E-002    0.000000000000000E+000
 -3.470000000000000E-002    0.000000000000000E+000
 -3.460000000000000E-002    0.000000000000000E+000
 -3.450000000000000E-002    2.138211768073757E-048
 -3.440000000000000E-002    4.276423536147513E-048
 -3.430000000000000E-002    4.625211174183960E-047
 -3.420000000000000E-002    1.387563352255188E-046
 -3.410000000000000E-002    2.419516175495668E-046
 -3.400000000000000E-002    4.290982762849989E-046
 -3.390000000000000E-002    6.582206232261231E-046
 -3.380000000000000E-002    9.271137090534192E-046
 -3.370000000000000E-002    9.645855491184710E-046
 -3.360000000000000E-002    6.798424842572757E-046
 -3.350000000000000E-002   -4.653960319950375E-046
 -3.340000000000000E-002   -3.652891126841787E-045
 -3.330000000000000E-002   -8.778971401853999E-045
 -3.320000000000000E-002   -1.983649511001075E-044
 -3.310000000000000E-002   -3.996840090043762E-044
 -3.300000000000000E-002   -7.292336660770078E-044
 -3.290000000000000E-002   -1.232228737063190E-043
 -3.280000000000000E-002   -1.959562981907073E-043
 -3.270000000000000E-002   -2.903205540337415E-043
 -3.260000000000000E-002   -3.981553033422343E-043
 -3.250000000000000E-002   -4.941929614207598E-043
 -3.240000000000000E-002   -5.248904707381224E-043
 -3.230000000000000E-002   -3.888411968563931E-043
 -3.220000000000000E-002    8.057968886071444E-044
 -3.210000000000000E-002    1.137295616588235E-042
 -3.200000000000000E-002    3.135795830203544E-042
 -3.190000000000000E-002    6.525413991719831E-042
 -3.180000000000000E-002    1.181148800969848E-041
 -3.170000000000000E-002    1.944577534293718E-041
 -3.160000000000000E-002    2.961717249406562E-041
 -3.150000000000000E-002    4.190816626553593E-041
 -3.140000000000000E-002    5.475909012077275E-041
 -3.130000000000000E-002    6.473941954002595E-041
 -3.120000000000000E-002    6.562326976517012E-041
 -3.110000000000000E-002    4.736155278874804E-041
 -3.100000000000000E-002   -4.866918665053951E-042
 -3.090000000000000E-002   -1.111642934858679E-040
 -3.080000000000000E-002   -2.964323121137458E-040
 -3.070000000000000E-002   -5.881010926980959E-040
 -3.060000000000000E-002   -1.011018124519725E-039
 -3.050000000000000E-002   -1.578271965914786E-039
 -3.040000000000000E-002   -2.276679189025969E-039
 -3.030000000000000E-002   -3.045930197989751E-039
 -3.020000000000000E-002   -3.751127778252661E-039
 -3.010000000000000E-002   -4.149875537167069E-039
 -3.000000000000000E-002   -3.857419986543029E-039
 -2.990000000000000E-002   -2.316745418536871E-039
 -2.980000000000000E-002    1.214903768993932E-039
 -2.970000000000000E-002    7.646067299577886E-039
 -2.960000000000000E-002    1.797471168607055E-038
 -2.950000000000000E-002    3.312709452339798E-038
 -2.940000000000000E-002    5.368040392859865E-038
 -2.930000000000000E-002    7.943943180771452E-038
 -2.920000000000000E-002    1.088474386099120E-037
 -2.910000000000000E-002    1.382332460392119E-037
 -2.900000000000000E-002    1.609351319155546E-037
 -2.890000000000000E-002    1.664006173698117E-037
 -2.880000000000000E-002    1.394423184577082E-037
 -2.870000000000000E-002    5.993215128144404E-038
 -2.860000000000000E-002   -9.666760337215880E-038
 -2.850000000000000E-002   -3.574221851644383E-037
 -2.840000000000000E-002   -7.480880635467720E-037
 -2.830000000000000E-002   -1.286694934778375E-036
 -2.820000000000000E-002   -1.974010219196682E-036
 -2.810000000000000E-002   -2.780620216195356E-036
 -2.800000000000000E-002   -3.630878359781578E-036
 -2.790000000000000E-002   -4.384793927951724E-036
 -2.780000000000000E-002   -4.820105046760244E-036
 -2.770000000000000E-002   -4.618283956175656E-036
 -2.760000000000000E-002   -3.359990133808876E-036
 -2.750000000000000E-002   -5.373033974795071E-037
 -2.740000000000000E-002    4.408361772190528E-036
 -2.730000000000000E-002    1.201295342933834E-035
 -2.720000000000000E-002    2.267195742511988E-035
 -2.710000000000000E-002    3.647164790073137E-035
 -2.700000000000000E-002    5.296868626971717E-035
 -2.690000000000000E-002    7.092672075180497E-035
 -2.680000000000000E-002    8.803208985185630E-035
 -2.670000000000000E-002    1.006282543735390E-034
 -2.660000000000000E-002    1.035291414009770E-034
 -2.650000000000000E-002    8.999327116869945E-035
 -2.640000000000000E-002    5.195982382472117E-035
 -2.630000000000000E-002   -1.933997667453765E-035
 -2.620000000000000E-002   -1.322841204602993E-034
 -2.610000000000000E-002   -2.931835198722662E-034
 -2.600000000000000E-002   -5.039876863769053E-034
 -2.590000000000000E-002   -7.594161355934851E-034
 -2.580000000000000E-002   -1.043680993746005E-033
 -2.570000000000000E-002   -1.327124834922132E-033
 -2.560000000000000E-002   -1.563284736001887E-033
 -2.550000000000000E-002   -1.687092659845633E-033
 -2.540000000000000E-002   -1.615104099048875E-033
 -2.530000000000000E-002   -1.248778502817458E-033
 -2.520000000000000E-002   -4.818631623076629E-034
 -2.510000000000000E-002    7.871906851229184E-034
 -2.500000000000000E-002    2.637178543926587E-033
 -2.490000000000000E-002    5.100438397114867E-033
 -2.480000000000000E-002    8.134319268370489E-033
 -2.470000000000000E-002    1.158976708039781E-032
 -2.460000000000000E-002    1.518030961760298E-032
 -2.450000000000000E-002    1.845616342400871E-032
 -2.440000000000000E-002    2.078957737310800E-032
 -2.430000000000000E-002    2.137866047410736E-032
 -2.420000000000000E-002    1.927748580364123E-032
 -2.410000000000000E-002    1.346000959762850E-032
 -2.400000000000000E-002    2.923882901837861E-033
 -2.390000000000000E-002   -1.316259980683422E-032
 -2.380000000000000E-002   -3.527163422545797E-032
 -2.370000000000000E-002   -6.329234635241973E-032
 -2.360000000000000E-002   -9.628728006181970E-032
 -2.350000000000000E-002   -1.322521096869113E-031
 -2.340000000000000E-002   -1.679105477915152E-031
 -2.330000000000000E-002   -1.985845507347392E-031
 -2.320000000000000E-002   -2.181861282885824E-031
 -2.310000000000000E-002   -2.193800583630046E-031
 -2.300000000000000E-002   -1.939649862917071E-031
 -2.290000000000000E-002   -1.335123225614997E-031
 -2.280000000000000E-002   -3.028707819551295E-032
 -2.270000000000000E-002    1.215490607607482E-031
 -2.260000000000000E-002    3.244839844826253E-031
 -2.250000000000000E-002    5.760222123925565E-031
 -2.240000000000000E-002    8.669905381466838E-031
 -2.230000000000000E-002    1.179949411575764E-030
 -2.220000000000000E-002    1.487926927359652E-030
 -2.210000000000000E-002    1.753735956419433E-030
 -2.200000000000000E-002    1.930167494067634E-030
 -2.190000000000000E-002    1.961365502195816E-030
 -2.180000000000000E-002    1.785675156385731E-030
 -2.170000000000000E-002    1.340205804129877E-030
 -2.160000000000000E-002    5.672565590489253E-031
 -2.150000000000000E-002   -5.773911881757855E-031
 -2.140000000000000E-002   -2.114507464802699E-030
 -2.130000000000000E-002   -4.030220153491324E-030
 -2.120000000000000E-002   -6.264337570525039E-030
 -2.110000000000000E-002   -8.699267067328646E-030
 -2.100000000000000E-002   -1.115095049006099E-029
 -2.090000000000000E-002   -1.336356228028860E-029
 -2.080000000000000E-002   -1.500996559757190E-029
 -2.070000000000000E-002   -1.570004358641520E-029
 -2.060000000000000E-002   -1.499897221245364E-029
 -2.050000000000000E-002   -1.245716311592378E-029
 -2.040000000000000E-002   -7.652969981059611E-030
 -2.030000000000000E-002   -2.482382725090243E-031
 -2.020000000000000E-002    9.944648835945102E-030
 -2.010000000000000E-002    2.288735874243844E-029
 -2.000000000000000E-002    3.823710113893590E-029
 -1.990000000000000E-002    5.527255707736581E-029
 -1.980000000000000E-002    7.283407765151031E-029
 -1.970000000000000E-002    8.928993897901466E-029
 -1.960000000000000E-002    1.025417650338382E-028
 -1.950000000000000E-002    1.100824598870576E-028
 -1.940000000000000E-002    1.091188506694830E-028
 -1.930000000000000E-002    9.676810953773143E-029
 -1.920000000000000E-002    7.033204733213885E-029
 -1.910000000000000E-002    2.764578779500439E-029
 -1.900000000000000E-002   -3.251203029773791E-029
 -1.890000000000000E-002   -1.099716858694494E-028
 -1.880000000000000E-002   -2.027237490973812E-028
 -1.870000000000000E-002   -3.065180756997417E-028
 -1.860000000000000E-002   -4.145692367665430E-028
 -1.850000000000000E-002   -5.174349350876089E-028
 -1.840000000000000E-002   -6.031358532122477E-028
 -1.830000000000000E-002   -6.575807085168665E-028
 -1.820000000000000E-002   -6.653469158076122E-028
 -1.810000000000000E-002   -6.108441763830551E-028
 -1.800000000000000E-002   -4.798554022680161E-028
 -1.790000000000000E-002   -2.614071965961826E-028
 -1.780000000000000E-002    5.012740240968544E-029
 -1.770000000000000E-002    4.528446511796705E-028
 -1.760000000000000E-002    9.352472127708325E-028
 -1.750000000000000E-002    1.474552062125001E-027
 -1.740000000000000E-002    2.035649480458858E-027
 -1.730000000000000E-002    2.571007218039085E-027
 -1.720000000000000E-002    3.021795843085808E-027
 -1.710000000000000E-002    3.320462570476782E-027
 -1.700000000000000E-002    3.394897149627482E-027
 -1.690000000000000E-002    3.174206668187916E-027
 -1.680000000000000E-002    2.595961147766174E-027
 -1.670000000000000E-002    1.614585956212875E-027
 -1.660000000000000E-002    2.103775323789442E-028
 -1.650000000000000E-002   -1.601580037238522E-027
 -1.640000000000000E-002   -3.763496950937855E-027
 -1.630000000000000E-002   -6.168989789701709E-027
 -1.620000000000000E-002   -8.660321632108030E-027
 -1.610000000000000E-002   -1.102984431909733E-026
 -1.600000000000000E-002   -1.302657334747801E-026
 -1.590000000000000E-002   -1.436858035088122E-026
 -1.580000000000000E-002   -1.476149221136961E-026
 -1.570000000000000E-002   -1.392288325959024E-026
 -1.560000000000000E-002   -1.161173691450944E-026
 -1.550000000000000E-002   -7.661480812710878E-027
 -1.540000000000000E-002   -2.014392795131270E-027
 -1.530000000000000E-002    5.245476423700949E-027
 -1.520000000000000E-002    1.386429346937786E-026
 -1.510000000000000E-002    2.339915496351677E-026
 -1.500000000000000E-002    3.321142362233979E-026
 -1.490000000000000E-002    4.247645629727305E-026
 -1.480000000000000E-002    5.021284584411290E-026
 -1.470000000000000E-002    5.533336910010725E-026
 -1.460000000000000E-002    5.671835319254461E-026
 -1.450000000000000E-002    5.331034851794585E-026
 -1.440000000000000E-002    4.422685677613812E-026
 -1.430000000000000E-002    2.888536081731172E-026
 -1.420000000000000E-002    7.132468160019800E-027
 -1.410000000000000E-002   -2.063348199966579E-026
 -1.400000000000000E-002   -5.335907235432426E-026
 -1.390000000000000E-002   -8.926593752506306E-026
 -1.380000000000000E-002   -1.258292045410564E-025
 -1.370000000000000E-002   -1.598185344927951E-025
 -1.360000000000000E-002   -1.874141889455766E-025
 -1.350000000000000E-002   -2.044070745599628E-025
 -1.340000000000000E-002   -2.064863691381599E-025
 -1.330000000000000E-002   -1.896117799347804E-025
 -1.320000000000000E-002   -1.504586817142237E-025
 -1.310000000000000E-002   -8.691511259090232E-026
 -1.300000000000000E-002    1.400988825196232E-027
 -1.290000000000000E-002    1.126458377836393E-025
 -1.280000000000000E-002    2.423265225344534E-025
 -1.270000000000000E-002    3.830083925715847E-025
 -1.260000000000000E-002    5.242154046426735E-025
 -1.250000000000000E-002    6.525851059928371E-025
 -1.240000000000000E-002    7.523333231566441E-025
 -1.230000000000000E-002    8.060703332229964E-025
 -1.220000000000000E-002    7.959893547103666E-025
 -1.210000000000000E-002    7.054206810146609E-025
 -1.200000000000000E-002    5.207067784175072E-025
 -1.190000000000000E-002    2.333145661536816E-025
 -1.180000000000000E-002   -1.579468030871821E-025
 -1.170000000000000E-002   -6.447781643912639E-025
 -1.160000000000000E-002   -1.207532694374393E-024
 -1.150000000000000E-002   -1.813900046462941E-024
 -1.140000000000000E-002   -2.418403941490478E-024
 -1.130000000000000E-002   -2.962984612026078E-024
 -1.120000000000000E-002   -3.378911386954553E-024
 -1.110000000000000E-002   -3.590211421731005E-024
 -1.100000000000000E-002   -3.518714792311264E-024
 -1.090000000000000E-002   -3.090690086269044E-024
 -1.080000000000000E-002   -2.244891616540682E-024
 -1.070000000000000E-002   -9.416589373445954E-025
 -1.060000000000000E-002    8.274809324197641E-025
 -1.050000000000000E-002    3.030457457456756E-024
 -1.040000000000000E-002    5.586467932584708E-024
 -1.030000000000000E-002    8.360016841884165E-024
 -1.020000000000000E-002    1.115831575186471E-023
 -1.010000000000000E-002    1.373317671414889E-023
 -1.000000000000000E-002    1.578840060703252E-023
 -9.899999999999999E-003    1.699344785856285E-023
 -9.800000000000000E-003    1.700378671872598E-023
 -9.699999999999999E-003    1.548784212768046E-023
 -9.599999999999999E-003    1.215985180793199E-023
 -9.500000000000000E-003    6.817201382868878E-024
 -9.399999999999999E-003   -6.198705950337266E-025
 -9.299999999999999E-003   -1.006913092600808E-023
 -9.200000000000000E-003   -2.125129634789179E-023
 -9.099999999999999E-003   -3.366316046506915E-023
 -8.999999999999999E-003   -4.656322881014391E-023
 -8.900000000000000E-003   -5.897423955741455E-023
 -8.799999999999999E-003   -6.970641882532067E-023
 -8.699999999999999E-003   -7.740461030529908E-023
 -8.600000000000000E-003   -8.062104477284566E-023
 -8.499999999999999E-003   -7.791377435644238E-023
 -8.399999999999999E-003   -6.796870530117766E-023
 -8.300000000000000E-003   -4.974071031059921E-023
 -8.199999999999999E-003   -2.260651138489511E-023
 -8.100000000000000E-003    1.348021844114735E-023
 -8.000000000000000E-003    5.784404154492660E-023
 -7.899999999999999E-003    1.089670740004994E-022
 -7.800000000000000E-003    1.644080362422382E-022
 -7.699999999999999E-003    2.207765220715518E-022
 -7.599999999999999E-003    2.737774297208020E-022
 -7.499999999999999E-003    3.183377288216611E-022
 -7.399999999999999E-003    3.488244948339644E-022
 -7.299999999999999E-003    3.593579155256123E-022
 -7.199999999999999E-003    3.442156003095368E-022
 -7.100000000000000E-003    2.983179070752087E-022
 -6.999999999999999E-003    2.177747599099475E-022
 -6.899999999999999E-003    1.004649951903516E-022
 -6.800000000000000E-003   -5.338800426172463E-023
 -6.699999999999999E-003   -2.406900663764613E-022
 -6.599999999999999E-003   -4.550498774519132E-022
 -6.499999999999999E-003   -6.865073654009345E-022
 -6.399999999999999E-003   -9.214714842951153E-022
 -6.299999999999999E-003   -1.142918513393971E-021
 -6.199999999999999E-003   -1.330894198936083E-021
 -6.100000000000000E-003   -1.463348877149689E-021
 -5.999999999999999E-003   -1.517317337355148E-021
 -5.899999999999999E-003   -1.470432225779633E-021
 -5.800000000000000E-003   -1.302732311446057E-021
 -5.699999999999999E-003   -9.986956446633577E-022
 -5.599999999999999E-003   -5.493993803303901E-022
 -5.499999999999999E-003    4.532918487474775E-023
 -5.399999999999999E-003    7.749271081292220E-022
 -5.299999999999999E-003    1.616463955011569E-021
 -5.199999999999999E-003    2.533558276279195E-021
 -5.099999999999999E-003    3.476048527808343E-021
 -4.999999999999999E-003    4.380604861097360E-021
 -4.899999999999999E-003    5.172450281990034E-021
 -4.799999999999999E-003    5.768303988393600E-021
 -4.699999999999999E-003    6.080606791957451E-021
 -4.599999999999999E-003    6.022991958716681E-021
 -4.499999999999999E-003    5.516875780713017E-021
 -4.399999999999999E-003    4.498928095121158E-021
 -4.299999999999999E-003    2.929058777826443E-021
 -4.199999999999999E-003    7.984458919965340E-022
 -4.099999999999999E-003   -1.862979698364674E-021
 -3.999999999999999E-003   -4.980263666504830E-021
 -3.899999999999999E-003   -8.429104313374494E-021
 -3.799999999999999E-003   -1.203421008881285E-020
 -3.699999999999999E-003   -1.557103846656310E-020
 -3.599999999999999E-003   -1.877151210917871E-020
 -3.499999999999999E-003   -2.133414170992454E-020
 -3.399999999999999E-003   -2.293874250121001E-020
 -3.299999999999999E-003   -2.326562628750295E-020
 -3.199999999999999E-003   -2.201880462024931E-020
 -3.099999999999999E-003   -1.895233140467152E-020
 -2.999999999999999E-003   -1.389850590737853E-020
 -2.899999999999999E-003   -6.796255089063788E-021
 -2.799999999999999E-003    2.282346947452422E-021
 -2.699999999999999E-003    1.310973793657410E-020
 -2.599999999999999E-003    2.528717819407334E-020
 -2.499999999999999E-003    3.823820405491327E-020
 -2.399999999999999E-003    5.121353181398410E-020
 -2.299999999999999E-003    6.330934365194972E-020
 -2.199999999999999E-003    7.350029869369593E-020
 -2.099999999999999E-003    8.068775878937002E-020
 -1.999999999999999E-003    8.376285115250389E-020
 -1.899999999999999E-003    8.168260196415291E-020
 -1.799999999999999E-003    7.355638795620591E-020
 -1.699999999999999E-003    5.873841733931536E-020
 -1.599999999999999E-003    3.692093210222728E-020
 -1.499999999999999E-003    8.221578834807288E-021
 -1.399999999999999E-003   -2.674227962991519E-020
 -1.299999999999999E-003   -6.679998475884795E-020
 -1.199999999999999E-003   -1.102024898315981E-019
 -1.099999999999999E-003   -1.546327528041806E-019
 -9.999999999999989E-004   -1.972575731151135E-019
 -8.999999999999990E-004   -2.348249057311995E-019
 -7.999999999999990E-004   -2.638083596997988E-019
 -6.999999999999989E-004   -2.805975821802805E-019
 -5.999999999999990E-004   -2.817296981074420E-019
 -4.999999999999989E-004   -2.641534552578167E-019
 -3.999999999999989E-004   -2.255139093346225E-019
 -2.999999999999989E-004   -1.644417498085328E-019
 -1.999999999999989E-004   -8.082843016888728E-020
 -9.999999999999892E-005    2.393431530233765E-020
  1.084202172485504E-018    1.467733004012500E-019
  1.000000000000011E-004    2.828339120464629E-019
  2.000000000000011E-004    4.254824972287302E-019
  3.000000000000011E-004    5.664295935482656E-019
  4.000000000000011E-004    6.959866993607826E-019
  5.000000000000011E-004    8.034636047463089E-019
  6.000000000000011E-004    8.777041129366553E-019
  7.000000000000011E-004    9.077484387984130E-019
  8.000000000000011E-004    8.836004237026091E-019
  9.000000000000012E-004    7.970664390271807E-019
  1.000000000000001E-003    6.426219825679619E-019
  1.100000000000001E-003    4.182530505882554E-019
  1.200000000000001E-003    1.262109644886033E-019
  1.300000000000001E-003   -2.263842875637539E-019
  1.400000000000001E-003   -6.271599465413757E-019
  1.500000000000001E-003   -1.058388883802803E-018
  1.600000000000001E-003   -1.497226831722069E-018
  1.700000000000001E-003   -1.916330644074304E-018
  1.800000000000001E-003   -2.284883238803331E-018
  1.900000000000001E-003   -2.570026239361651E-018
  2.000000000000001E-003   -2.738674705048607E-018
  2.100000000000001E-003   -2.759658030928249E-018
  2.200000000000001E-003   -2.606102136744842E-018
  2.300000000000001E-003   -2.257932065467495E-018
  2.400000000000001E-003   -1.704351378594258E-018
  2.500000000000001E-003   -9.461265669006823E-019
  2.600000000000001E-003    2.505444070343641E-021
  2.700000000000001E-003    1.112500310218917E-018
  2.800000000000001E-003    2.339421743355095E-018
  2.900000000000001E-003    3.623776359531479E-018
  3.000000000000001E-003    4.892396770793043E-018
  3.100000000000001E-003    6.060952977211770E-018
  3.200000000000001E-003    7.037617673084045E-018
  3.300000000000001E-003    7.727823427870284E-018
  3.400000000000001E-003    8.039981068227901E-018
  3.500000000000001E-003    7.891931315237357E-018
  3.600000000000001E-003    7.217828557968149E-018
  3.700000000000001E-003    5.975060936947207E-018
  3.800000000000001E-003    4.150766682906090E-018
  3.900000000000001E-003    1.767439991185420E-018
  4.000000000000001E-003   -1.112876485127180E-018
  4.100000000000001E-003   -4.386322886767938E-018
  4.200000000000001E-003   -7.907315065094901E-018
  4.300000000000001E-003   -1.149137847258295E-017
  4.400000000000001E-003   -1.492095207630595E-017
  4.500000000000001E-003   -1.795424324600417E-017
  4.600000000000002E-003   -2.033702681585311E-017
  4.700000000000001E-003   -2.181706358014264E-017
  4.800000000000001E-003   -2.216059854435450E-017
  4.900000000000002E-003   -2.117018062534397E-017
  5.000000000000001E-003   -1.870283303578348E-017
  5.100000000000001E-003   -1.468746137212124E-017
  5.200000000000001E-003   -9.140248036820084E-018
  5.300000000000002E-003   -2.176730816651575E-018
  5.400000000000001E-003    5.980697806367911E-018
  5.500000000000001E-003    1.500102311829375E-017
  5.600000000000002E-003    2.444953517307317E-017
  5.700000000000001E-003    3.380009078410045E-017
  5.800000000000001E-003    4.245502061458608E-017
  5.900000000000002E-003    4.977245710114071E-017
  6.000000000000001E-003    5.510042566929096E-017
  6.100000000000001E-003    5.781649165380036E-017
  6.200000000000002E-003    5.737118127281035E-017
  6.300000000000002E-003    5.333301742190349E-017
  6.400000000000001E-003    4.543244213396933E-017
  6.500000000000001E-003    3.360173330977413E-017
  6.600000000000002E-003    1.800781787845614E-017
  6.700000000000001E-003   -9.250929113306462E-019
  6.800000000000001E-003   -2.250587641960886E-017
  6.900000000000002E-003   -4.578231298302650E-017
  7.000000000000001E-003   -6.956406841119515E-017
  7.100000000000001E-003   -9.246371221390256E-017
  7.200000000000002E-003   -1.129557268248309E-016
  7.300000000000002E-003   -1.294521672179112E-016
  7.400000000000001E-003   -1.403925232044140E-016
  7.500000000000001E-003   -1.443440116951988E-016
  7.600000000000002E-003   -1.401074754409614E-016
  7.700000000000001E-003   -1.268229572690444E-016
  7.800000000000001E-003   -1.040683304004334E-016
  7.900000000000001E-003   -7.194392679926527E-017
  8.000000000000002E-003   -3.113603895121909E-017
  8.100000000000001E-003    1.704751546846741E-017
  8.200000000000001E-003    7.067548839753603E-017
  8.300000000000002E-003    1.272296289742129E-016
  8.400000000000001E-003    1.836821187009171E-016
  8.500000000000002E-003    2.366142797732802E-016
  8.600000000000002E-003    2.823750132238387E-016
  8.700000000000001E-003    3.172736349976032E-016
  8.800000000000002E-003    3.378001025723494E-016
  8.900000000000002E-003    3.408621344490807E-016
  9.000000000000001E-003    3.240268513654309E-016
  9.100000000000002E-003    2.857525622202842E-016
  9.200000000000002E-003    2.255951515975692E-016
  9.300000000000001E-003    1.443731181128165E-016
  9.400000000000002E-003    4.427601817321035E-017
  9.500000000000001E-003   -7.109735059270212E-017
  9.600000000000001E-003   -1.967821616852009E-016
  9.700000000000002E-003   -3.265793120354045E-016
  9.800000000000001E-003   -4.532784702652868E-016
  9.900000000000001E-003   -5.689697581210715E-016
  1.000000000000000E-002   -6.654359174944172E-016
  1.010000000000000E-002   -7.346100419056065E-016
  1.020000000000000E-002   -7.690793007896675E-016
  1.030000000000000E-002   -7.626086917033055E-016
  1.040000000000000E-002   -7.106557910558928E-016
  1.050000000000000E-002   -6.108435938778241E-016
  1.060000000000000E-002   -4.633580009973823E-016
  1.070000000000000E-002   -2.712366727604578E-016
  1.080000000000000E-002   -4.051985396353005E-017
  1.090000000000000E-002    2.197626523208561E-016
  1.100000000000000E-002    4.977855749623778E-016
  1.110000000000000E-002    7.793124217857317E-016
  1.120000000000000E-002    1.048267890152500E-015
  1.130000000000000E-002    1.287484500219440E-015
  1.140000000000000E-002    1.479598484404780E-015
  1.150000000000000E-002    1.608056995788915E-015
  1.160000000000000E-002    1.658188125217001E-015
  1.170000000000000E-002    1.618276491429049E-015
  1.180000000000000E-002    1.480580349211807E-015
  1.190000000000000E-002    1.242223168278705E-015
  1.200000000000000E-002    9.058926359863015E-016
  1.210000000000000E-002    4.802852476492622E-016
  1.220000000000000E-002   -1.975761306270448E-017
  1.230000000000000E-002   -5.734613360667395E-016
  1.240000000000000E-002   -1.154702882205853E-015
  1.250000000000000E-002   -1.732971804454037E-015
  1.260000000000000E-002   -2.274688641773559E-015
  1.270000000000000E-002   -2.744841577308741E-015
  1.280000000000000E-002   -3.108875075079397E-015
  1.290000000000000E-002   -3.334746113190092E-015
  1.300000000000000E-002   -3.395043222428718E-015
  1.310000000000000E-002   -3.269050165939269E-015
  1.320000000000000E-002   -2.944628569416942E-015
  1.330000000000000E-002   -2.419789573196023E-015
  1.340000000000000E-002   -1.703834633985409E-015
  1.350000000000000E-002   -8.179518710438440E-016
  1.360000000000000E-002    2.048134258274669E-016
  1.370000000000000E-002    1.320280746229693E-015
  1.380000000000000E-002    2.474568156459634E-015
  1.390000000000000E-002    3.606226718518473E-015
  1.400000000000000E-002    4.649018202615955E-015
  1.410000000000000E-002    5.535237652313529E-015
  1.420000000000000E-002    6.199438895471320E-015
  1.430000000000000E-002    6.582388004068752E-015
  1.440000000000000E-002    6.635038969998702E-015
  1.450000000000000E-002    6.322303034440924E-015
  1.460000000000000E-002    5.626376286045440E-015
  1.470000000000000E-002    4.549392887867531E-015
  1.480000000000000E-002    3.115191133982073E-015
  1.490000000000000E-002    1.370002384648477E-015
  1.500000000000000E-002   -6.180651264206033E-016
  1.510000000000000E-002   -2.760841396966908E-015
  1.520000000000000E-002   -4.953215087108126E-015
  1.530000000000000E-002   -7.077504029350357E-015
  1.540000000000000E-002   -9.008940777569713E-015
  1.550000000000000E-002   -1.062205971872805E-014
  1.560000000000000E-002   -1.179770372695803E-014
  1.570000000000000E-002   -1.243030813795104E-014
  1.580000000000000E-002   -1.243507158742036E-014
  1.590000000000000E-002   -1.175459726699190E-014
  1.600000000000000E-002   -1.036457805465248E-014
  1.610000000000000E-002   -8.278116274540169E-015
  1.620000000000000E-002   -5.548319004678259E-015
  1.630000000000000E-002   -2.268862232085114E-015
  1.640000000000000E-002    1.427678670398388E-015
  1.650000000000000E-002    5.373845461961225E-015
  1.660000000000000E-002    9.373610386009664E-015
  1.670000000000000E-002    1.321086795424465E-014
  1.680000000000000E-002    1.665976896016005E-014
  1.690000000000000E-002    1.949649871584169E-014
  1.700000000000000E-002    2.151195215075730E-014
  1.710000000000000E-002    2.252464964224408E-014
  1.720000000000000E-002    2.239321060858284E-014
  1.730000000000000E-002    2.102761824483785E-014
  1.740000000000000E-002    1.839855788904448E-014
  1.750000000000000E-002    1.454412964382992E-014
  1.760000000000000E-002    9.573343992926935E-015
  1.770000000000000E-002    3.665945672004056E-015
  1.780000000000000E-002   -2.931748542813616E-015
  1.790000000000000E-002   -9.915055732695624E-015
  1.800000000000000E-002   -1.693307849323263E-014
  1.810000000000000E-002   -2.360439927036291E-014
  1.820000000000000E-002   -2.953577151975939E-014
  1.830000000000000E-002   -3.434294843002660E-014
  1.840000000000000E-002   -3.767267928081165E-014
  1.850000000000000E-002   -3.922473725492585E-014
  1.860000000000000E-002   -3.877272559748818E-014
  1.870000000000000E-002   -3.618243220518501E-014