 -4.000000000000000E-002    0.000000000000000E+000
 -3.990000000000000E-002    0.000000000000000E+000
 -3.980000000000000E-002    0.000000000000000E+000
 -3.970000000000000E-002    0.000000000000000E+000
 -3.960000000000000E-002    0.000000000000000E+000
 -3.950000000000000E-002    0.000000000000000E+000
 -3.940000000000000E-002    0.000000000000000E+000
 -3.930000000000000E-002    0.000000000000000E+000
 -3.920000000000000E-002    0.000000000000000E+000
 -3.910000000000000E-002    0.000000000000000E+000
 -3.900000000000000E-002    0.000000000000000E+000
 -3.890000000000000E-002    0.000000000000000E+000
 -3.880000000000000E-002    0.000000000000000E+000
 -3.870000000000000E-002    0.000000000000000E+000
 -3.860000000000000E-002    0.000000000000000E+000
 -3.850000000000000E-002    0.000000000000000E+000
 -3.840000000000000E-002    0.000000000000000E+000
 -3.830000000000000E-002    0.000000000000000E+000
 -3.820000000000000E-002    0.000000000000000E+000
 -3.810000000000000E-002    0.000000000000000E+000
 -3.800000000000000E-002    0.000000000000000E+000
 -3.790000000000000E-002    0.000000000000000E+000
 -3.780000000000000E-002    0.000000000000000E+000
 -3.770000000000000E-002    0.000000000000000E+000
 -3.760000000000000E-002    0.000000000000000E+000
 -3.750000000000000E-002    0.000000000000000E+000
 -3.740000000000000E-002    0.000000000000000E+000
 -3.730000000000000E-002    0.000000000000000E+000
 -3.720000000000000E-002    0.000000000000000E+000
 -3.710000000000000E-002    0.000000000000000E+000
 -3.700000000000000E-002    0.000000000000000E+000
 -3.690000000000000E-002    0.000000000000000E+000
 -3.680000000000000E-002    0.000000000000000E+000
 -3.670000000000000E-002    0.000000000000000E+000
 -3.660000000000000E-002    0.000000000000000E+000
 -3.650000000000000E-002    0.000000000000000E+000
 -3.640000000000000E-002    0.000000000000000E+000
 -3.630000000000000E-002    0.000000000000000E+000
 -3.620000000000000E-002    0.000000000000000E+000
 -3.610000000000000E-002    0.000000000000000E+000
 -3.600000000000000E-002    0.000000000000000E+000
 -3.590000000000000E-002    0.000000000000000E+000
 -3.580000000000000E-002    0.000000000000000E+000
 -3.570000000000000E-002    0.000000000000000E+000
 -3.560000000000000E-002    0.000000000000000E+000
 -3.550000000000000E-002    0.000000000000000E+000
 -3.540000000000000E-002    0.000000000000000E+000
 -3.530000000000000E-002    0.000000000000000E+000
 -3.520000000000000E-002    0.000000000000000E+000
 -3.510000000000000E-002    0.000000000000000E+000
 -3.500000000000000E-002    0.000000000000000E+000
 -3.490000000000000E-002    0.000000000000000E+000
 -3.480000000000000E-002    0.000000000000000E+000
 -3.470000000000000E-002    0.000000000000000E+000
 -3.460000000000000E-002    0.000000000000000E+000
 -3.450000000000000E-002    0.000000000000000E+000
 -3.440000000000000E-002    0.000000000000000E+000
 -3.430000000000000E-002    0.000000000000000E+000
 -3.420000000000000E-002    0.000000000000000E+000
 -3.410000000000000E-002    0.000000000000000E+000
 -3.400000000000000E-002    0.000000000000000E+000
 -3.390000000000000E-002    0.000000000000000E+000
 -3.380000000000000E-002    0.000000000000000E+000
 -3.370000000000000E-002    0.000000000000000E+000
 -3.360000000000000E-002    0.000000000000000E+000
 -3.350000000000000E-002    0.000000000000000E+000
 -3.340000000000000E-002    0.000000000000000E+000
 -3.330000000000000E-002    0.000000000000000E+000
 -3.320000000000000E-002    0.000000000000000E+000
 -3.310000000000000E-002    0.000000000000000E+000
 -3.300000000000000E-002    0.000000000000000E+000
 -3.290000000000000E-002    0.000000000000000E+000
 -3.280000000000000E-002    0.000000000000000E+000
 -3.270000000000000E-002    0.000000000000000E+000
 -3.260000000000000E-002    0.000000000000000E+000
 -3.250000000000000E-002    0.000000000000000E+000
 -3.240000000000000E-002    0.000000000000000E+000
 -3.230000000000000E-002    0.000000000000000E+000
 -3.220000000000000E-002    0.000000000000000E+000
 -3.210000000000000E-002    0.000000000000000E+000
 -3.200000000000000E-002    0.000000000000000E+000
 -3.190000000000000E-002    0.000000000000000E+000
 -3.180000000000000E-002    0.000000000000000E+000
 -3.170000000000000E-002    0.000000000000000E+000
 -3.160000000000000E-002    0.000000000000000E+000
 -3.150000000000000E-002    0.000000000000000E+000
 -3.140000000000000E-002    0.000000000000000E+000
 -3.130000000000000E-002    0.000000000000000E+000
 -3.120000000000000E-002    0.000000000000000E+000
 -3.110000000000000E-002    0.000000000000000E+000
 -3.100000000000000E-002    0.000000000000000E+000
 -3.090000000000000E-002    0.000000000000000E+000
 -3.080000000000000E-002    0.000000000000000E+000
 -3.070000000000000E-002    0.000000000000000E+000
 -3.060000000000000E-002    0.000000000000000E+000
 -3.050000000000000E-002    0.000000000000000E+000
 -3.040000000000000E-002    0.000000000000000E+000
 -3.030000000000000E-002    0.000000000000000E+000
 -3.020000000000000E-002    0.000000000000000E+000
 -3.010000000000000E-002    0.000000000000000E+000
 -3.000000000000000E-002    0.000000000000000E+000
 -2.990000000000000E-002    0.000000000000000E+000
 -2.980000000000000E-002    0.000000000000000E+000
 -2.970000000000000E-002    0.000000000000000E+000
 -2.960000000000000E-002    0.000000000000000E+000
 -2.950000000000000E-002    0.000000000000000E+000
 -2.940000000000000E-002    0.000000000000000E+000
 -2.930000000000000E-002    0.000000000000000E+000
 -2.920000000000000E-002    0.000000000000000E+000
 -2.910000000000000E-002    0.000000000000000E+000
 -2.900000000000000E-002    0.000000000000000E+000
 -2.890000000000000E-002    0.000000000000000E+000
 -2.880000000000000E-002    0.000000000000000E+000
 -2.870000000000000E-002    0.000000000000000E+000
 -2.860000000000000E-002    0.000000000000000E+000
 -2.850000000000000E-002    0.000000000000000E+000
 -2.840000000000000E-002    0.000000000000000E+000
 -2.830000000000000E-002    0.000000000000000E+000
 -2.820000000000000E-002    0.000000000000000E+000
 -2.810000000000000E-002    0.000000000000000E+000
 -2.800000000000000E-002    0.000000000000000E+000
 -2.790000000000000E-002    0.000000000000000E+000
 -2.780000000000000E-002    0.000000000000000E+000
 -2.770000000000000E-002    0.000000000000000E+000
 -2.760000000000000E-002    0.000000000000000E+000
 -2.750000000000000E-002    0.000000000000000E+000
 -2.740000000000000E-002    0.000000000000000E+000
 -2.730000000000000E-002    0.000000000000000E+000
 -2.720000000000000E-002    0.000000000000000E+000
 -2.710000000000000E-002    0.000000000000000E+000
 -2.700000000000000E-002    0.000000000000000E+000
 -2.690000000000000E-002    0.000000000000000E+000
 -2.680000000000000E-002    0.000000000000000E+000
 -2.670000000000000E-002    0.000000000000000E+000
 -2.660000000000000E-002    0.000000000000000E+000
 -2.650000000000000E-002    0.000000000000000E+000
 -2.640000000000000E-002    0.000000000000000E+000
 -2.630000000000000E-002    0.000000000000000E+000
 -2.620000000000000E-002    0.000000000000000E+000
 -2.610000000000000E-002    0.000000000000000E+000
 -2.600000000000000E-002    0.000000000000000E+000
 -2.590000000000000E-002    0.000000000000000E+000
 -2.580000000000000E-002    0.000000000000000E+000
 -2.570000000000000E-002    0.000000000000000E+000
 -2.560000000000000E-002    0.000000000000000E+000
 -2.550000000000000E-002    0.000000000000000E+000
 -2.540000000000000E-002    0.000000000000000E+000
 -2.530000000000000E-002    0.000000000000000E+000
 -2.520000000000000E-002    0.000000000000000E+000
 -2.510000000000000E-002    0.000000000000000E+000
 -2.500000000000000E-002    0.000000000000000E+000
 -2.490000000000000E-002    0.000000000000000E+000
 -2.480000000000000E-002    0.000000000000000E+000
 -2.470000000000000E-002    0.000000000000000E+000
 -2.460000000000000E-002    0.000000000000000E+000
 -2.450000000000000E-002    0.000000000000000E+000
 -2.440000000000000E-002    0.000000000000000E+000
 -2.430000000000000E-002    0.000000000000000E+000
 -2.420000000000000E-002    0.000000000000000E+000
 -2.410000000000000E-002    0.000000000000000E+000
 -2.400000000000000E-002    0.000000000000000E+000
 -2.390000000000000E-002    0.000000000000000E+000
 -2.380000000000000E-002    0.000000000000000E+000
 -2.370000000000000E-002    0.000000000000000E+000
 -2.360000000000000E-002    0.000000000000000E+000
 -2.350000000000000E-002    0.000000000000000E+000
 -2.340000000000000E-002    0.000000000000000E+000
 -2.330000000000000E-002    0.000000000000000E+000
 -2.320000000000000E-002    0.000000000000000E+000
 -2.310000000000000E-002    0.000000000000000E+000
 -2.300000000000000E-002    0.000000000000000E+000
 -2.290000000000000E-002    0.000000000000000E+000
 -2.280000000000000E-002    0.000000000000000E+000
 -2.270000000000000E-002    0.000000000000000E+000
 -2.260000000000000E-002    0.000000000000000E+000
 -2.250000000000000E-002    0.000000000000000E+000
 -2.240000000000000E-002    0.000000000000000E+000
 -2.230000000000000E-002    0.000000000000000E+000
 -2.220000000000000E-002    0.000000000000000E+000
 -2.210000000000000E-002    0.000000000000000E+000
 -2.200000000000000E-002    0.000000000000000E+000
 -2.190000000000000E-002    0.000000000000000E+000
 -2.180000000000000E-002    0.000000000000000E+000
 -2.170000000000000E-002    0.000000000000000E+000
 -2.160000000000000E-002    0.000000000000000E+000
 -2.150000000000000E-002    0.000000000000000E+000
 -2.140000000000000E-002    0.000000000000000E+000
 -2.130000000000000E-002    0.000000000000000E+000
 -2.120000000000000E-002    0.000000000000000E+000
 -2.110000000000000E-002    0.000000000000000E+000
 -2.100000000000000E-002    0.000000000000000E+000
 -2.090000000000000E-002    0.000000000000000E+000
 -2.080000000000000E-002    0.000000000000000E+000
 -2.070000000000000E-002    0.000000000000000E+000
 -2.060000000000000E-002    0.000000000000000E+000
 -2.050000000000000E-002    0.000000000000000E+000
 -2.040000000000000E-002    0.000000000000000E+000
 -2.030000000000000E-002    0.000000000000000E+000
 -2.020000000000000E-002    0.000000000000000E+000
 -2.010000000000000E-002    0.000000000000000E+000
 -2.000000000000000E-002    0.000000000000000E+000
 -1.990000000000000E-002    0.000000000000000E+000
 -1.980000000000000E-002    0.000000000000000E+000
 -1.970000000000000E-002    0.000000000000000E+000
 -1.960000000000000E-002    0.000000000000000E+000
 -1.950000000000000E-002    0.000000000000000E+000
 -1.940000000000000E-002    0.000000000000000E+000
 -1.930000000000000E-002    0.000000000000000E+000
 -1.920000000000000E-002    0.000000000000000E+000
 -1.910000000000000E-002    0.000000000000000E+000
 -1.900000000000000E-002    0.000000000000000E+000
 -1.890000000000000E-002    0.000000000000000E+000
 -1.880000000000000E-002    0.000000000000000E+000
 -1.870000000000000E-002    0.000000000000000E+000
 -1.860000000000000E-002    0.000000000000000E+000
 -1.850000000000000E-002    0.000000000000000E+000
 -1.840000000000000E-002    0.000000000000000E+000
 -1.830000000000000E-002    0.000000000000000E+000
 -1.820000000000000E-002    0.000000000000000E+000
 -1.810000000000000E-002    0.000000000000000E+000
 -1.800000000000000E-002    0.000000000000000E+000
 -1.790000000000000E-002    0.000000000000000E+000
 -1.780000000000000E-002    0.000000000000000E+000
 -1.770000000000000E-002    0.000000000000000E+000
 -1.760000000000000E-002    0.000000000000000E+000
 -1.750000000000000E-002    0.000000000000000E+000
 -1.740000000000000E-002    0.000000000000000E+000
 -1.730000000000000E-002    0.000000000000000E+000
 -1.720000000000000E-002    0.000000000000000E+000
 -1.710000000000000E-002    0.000000000000000E+000
 -1.700000000000000E-002    0.000000000000000E+000
 -1.690000000000000E-002    0.000000000000000E+000
 -1.680000000000000E-002    0.000000000000000E+000
 -1.670000000000000E-002    0.000000000000000E+000
 -1.660000000000000E-002    0.000000000000000E+000
 -1.650000000000000E-002    0.000000000000000E+000
 -1.640000000000000E-002    0.000000000000000E+000
 -1.630000000000000E-002    0.000000000000000E+000
 -1.620000000000000E-002    0.000000000000000E+000
 -1.610000000000000E-002    0.000000000000000E+000
 -1.600000000000000E-002    0.000000000000000E+000
 -1.590000000000000E-002    0.000000000000000E+000
 -1.580000000000000E-002    0.000000000000000E+000
 -1.570000000000000E-002    0.000000000000000E+000
 -1.560000000000000E-002    0.000000000000000E+000
 -1.550000000000000E-002    0.000000000000000E+000
 -1.540000000000000E-002    0.000000000000000E+000
 -1.530000000000000E-002    0.000000000000000E+000
 -1.520000000000000E-002    0.000000000000000E+000
 -1.510000000000000E-002    0.000000000000000E+000
 -1.500000000000000E-002    0.000000000000000E+000
 -1.490000000000000E-002    0.000000000000000E+000
 -1.480000000000000E-002    0.000000000000000E+000
 -1.470000000000000E-002    0.000000000000000E+000
 -1.460000000000000E-002    0.000000000000000E+000
 -1.450000000000000E-002    0.000000000000000E+000
 -1.440000000000000E-002    0.000000000000000E+000
 -1.430000000000000E-002    0.000000000000000E+000
 -1.420000000000000E-002    0.000000000000000E+000
 -1.410000000000000E-002    0.000000000000000E+000
 -1.400000000000000E-002    0.000000000000000E+000
 -1.390000000000000E-002    0.000000000000000E+000
 -1.380000000000000E-002    0.000000000000000E+000
 -1.370000000000000E-002    0.000000000000000E+000
 -1.360000000000000E-002    0.000000000000000E+000
 -1.350000000000000E-002    0.000000000000000E+000
 -1.340000000000000E-002    0.000000000000000E+000
 -1.330000000000000E-002    0.000000000000000E+000
 -1.320000000000000E-002    0.000000000000000E+000
 -1.310000000000000E-002    0.000000000000000E+000
 -1.300000000000000E-002    0.000000000000000E+000
 -1.290000000000000E-002    0.000000000000000E+000
 -1.280000000000000E-002    0.000000000000000E+000
 -1.270000000000000E-002    0.000000000000000E+000
 -1.260000000000000E-002    0.000000000000000E+000
 -1.250000000000000E-002    0.000000000000000E+000
 -1.240000000000000E-002   -6.414635304221270E-048
 -1.230000000000000E-002    6.614847958560634E-048
 -1.220000000000000E-002    1.322969591712127E-047
 -1.210000000000000E-002    7.116162630945206E-047
 -1.200000000000000E-002    1.290935567017828E-046
 -1.190000000000000E-002    1.934401223983349E-046
 -1.180000000000000E-002    2.642013233991082E-046
 -1.170000000000000E-002    3.477917950083241E-046
 -1.160000000000000E-002    4.410845656477863E-046
 -1.150000000000000E-002    5.341771236329092E-046
 -1.140000000000000E-002    5.306497267460343E-046
 -1.130000000000000E-002    3.549431585950262E-046
 -1.120000000000000E-002    7.600178761345965E-047
 -1.110000000000000E-002   -2.315644040153592E-046
 -1.100000000000000E-002   -7.292435338099774E-046
 -1.090000000000000E-002   -1.287620660772954E-045
 -1.080000000000000E-002   -1.869985285139650E-045
 -1.070000000000000E-002   -2.738054522227511E-045
 -1.060000000000000E-002   -3.688886168357076E-045
 -1.050000000000000E-002   -4.304995028342392E-045
 -1.040000000000000E-002   -5.478866811746748E-045
 -1.030000000000000E-002   -6.579119987994489E-045
 -1.020000000000000E-002   -6.630023099917792E-045
 -1.010000000000000E-002   -5.958243076615457E-045
 -1.000000000000000E-002   -3.479562861207054E-045
 -9.899999999999999E-003    8.480594551349815E-046
 -9.800000000000000E-003    8.306835456584014E-045
 -9.699999999999999E-003    1.933179598847534E-044
 -9.599999999999999E-003    3.472932487382601E-044
 -9.500000000000000E-003    5.250497559695993E-044
 -9.399999999999999E-003    7.299234797410818E-044
 -9.299999999999999E-003    9.442544762773412E-044
 -9.200000000000000E-003    1.129261427304352E-043
 -9.099999999999999E-003    1.248280729310355E-043
 -8.999999999999999E-003    1.243779527748869E-043
 -8.900000000000000E-003    1.038744630649862E-043
 -8.799999999999999E-003    5.561355648179811E-044
 -8.699999999999999E-003   -3.051634925625449E-044
 -8.600000000000000E-003   -1.609369059640338E-043
 -8.499999999999999E-003   -3.416260601765910E-043
 -8.399999999999999E-003   -5.719351979297483E-043
 -8.300000000000000E-003   -8.430988439676359E-043
 -8.199999999999999E-003   -1.137128260584443E-042
 -8.100000000000000E-003   -1.420705767803209E-042
 -8.000000000000000E-003   -1.643713806725532E-042
 -7.899999999999999E-003   -1.738064286581149E-042
 -7.800000000000000E-003   -1.621155116626963E-042
 -7.699999999999999E-003   -1.195255627844322E-042
 -7.599999999999999E-003   -3.609198088828260E-043
 -7.499999999999999E-003    9.736829084438552E-043
 -7.399999999999999E-003    2.868962072645131E-042
 -7.299999999999999E-003    5.334124198631814E-042
 -7.199999999999999E-003    8.294441957222919E-042
 -7.100000000000000E-003    1.156285901167300E-041
 -6.999999999999999E-003    1.480864563456135E-041
 -6.899999999999999E-003    1.753602711127657E-041
 -6.800000000000000E-003    1.907618330358686E-041
 -6.699999999999999E-003    1.860171460061445E-041
 -6.599999999999999E-003    1.517036704214312E-041
 -6.499999999999999E-003    7.812357506926662E-042
 -6.399999999999999E-003   -4.337723087488230E-042
 -6.299999999999999E-003   -2.186475409324295E-041
 -6.199999999999999E-003   -4.484752225981738E-041
 -6.100000000000000E-003   -7.260306028945161E-041
 -5.999999999999999E-003   -1.034235670194656E-040
 -5.899999999999999E-003   -1.343359200472552E-040
 -5.800000000000000E-003   -1.609420358362896E-040
 -5.699999999999999E-003   -1.773879483468864E-040
 -5.599999999999999E-003   -1.765322158073175E-040
 -5.499999999999999E-003   -1.503800606495663E-040
 -5.399999999999999E-003   -9.084524190662285E-041
 -5.299999999999999E-003    9.131960467493704E-042
 -5.199999999999999E-003    1.541027868742808E-040
 -5.099999999999999E-003    3.443285608490969E-040
 -4.999999999999999E-003    5.737978658283908E-040
 -4.899999999999999E-003    8.282721550436444E-040
 -4.799999999999999E-003    1.083621836356338E-039
 -4.699999999999999E-003    1.304839995714832E-039
 -4.599999999999999E-003    1.446153553761535E-039
 -4.499999999999999E-003    1.452700669313678E-039
 -4.399999999999999E-003    1.264219592135862E-039
 -4.299999999999999E-003    8.210728872382742E-040
 -4.199999999999999E-003    7.277719082375342E-041
 -4.099999999999999E-003   -1.011098201813886E-039
 -3.999999999999999E-003   -2.428192318362028E-039
 -3.899999999999999E-003   -4.129756083114214E-039
 -3.799999999999999E-003   -6.007738633811310E-039
 -3.699999999999999E-003   -7.884612962955751E-039
 -3.599999999999999E-003   -9.508476971806058E-039
 -3.499999999999999E-003   -1.055626947008986E-038
 -3.399999999999999E-003   -1.064797867956556E-038
 -3.299999999999999E-003   -9.374371004862780E-039
 -3.199999999999999E-003   -6.339938498281584E-039
 -3.099999999999999E-003   -1.221379940819067E-039
 -2.999999999999999E-003    6.160076228862576E-039
 -2.899999999999999E-003    1.575672470631463E-038
 -2.799999999999999E-003    2.720999667335934E-038
 -2.699999999999999E-003    3.977395881824491E-038
 -2.599999999999999E-003    5.225998728684796E-038
 -2.499999999999999E-003    6.301823194446820E-038
 -2.399999999999999E-003    6.997259954297367E-038
 -2.299999999999999E-003    7.072530184444736E-038
 -2.199999999999999E-003    6.274392217083413E-038
 -2.099999999999999E-003    4.363798492030619E-038
 -1.999999999999999E-003    1.152285647864351E-038
 -1.899999999999999E-003   -3.454345204643122E-038
 -1.799999999999999E-003   -9.407997190975412E-038
 -1.699999999999999E-003   -1.647049486798924E-037
 -1.599999999999999E-003   -2.417232942767647E-037
 -1.499999999999999E-003   -3.178566867593626E-037
 -1.399999999999999E-003   -3.832037979841024E-037
 -1.299999999999999E-003   -4.255203741244287E-037
 -1.199999999999999E-003   -4.309004541244772E-037
 -1.099999999999999E-003   -3.849177455280637E-037
 -9.999999999999989E-004   -2.742492554583848E-037
 -8.999999999999990E-004   -8.874889201327977E-038
 -7.999999999999990E-004    1.761291803881807E-037
 -6.999999999999989E-004    5.167383029322241E-037
 -5.999999999999990E-004    9.187441566683283E-037
 -4.999999999999989E-004    1.355073468425642E-036
 -3.999999999999989E-004    1.784721153052949E-036
 -2.999999999999989E-004    2.152864273842637E-036
 -1.999999999999989E-004    2.392727843565008E-036
 -9.999999999999892E-005    2.429578690627147E-036
  1.084202172485504E-018    2.187091196147462E-036
  1.000000000000011E-004    1.596117493827954E-036
  2.000000000000011E-004    6.056071986913887E-037
  3.000000000000011E-004   -8.049310219095244E-037
  4.000000000000011E-004   -2.612426098324547E-036
  5.000000000000011E-004   -4.738109723277537E-036
  6.000000000000011E-004   -7.038019506068198E-036
  7.000000000000011E-004   -9.298188018720483E-036
  8.000000000000011E-004   -1.123666745704862E-035
  9.000000000000012E-004   -1.251442385794265E-035
  1.000000000000001E-003   -1.275673430236493E-035
  1.100000000000001E-003   -1.158597016647435E-035
  1.200000000000001E-003   -8.665576264850959E-036
  1.300000000000001E-003   -3.753639971314680E-036
  1.400000000000001E-003    3.237251858824399E-036
  1.500000000000001E-003    1.217896072174826E-035
  1.600000000000001E-003    2.267246368445089E-035
  1.700000000000001E-003    3.400666330249412E-035
  1.800000000000001E-003    4.514078177654462E-035
  1.900000000000001E-003    5.471997662175804E-035
  2.000000000000001E-003    6.113291288058605E-035
  2.100000000000001E-003    6.261780437483954E-035
  2.200000000000001E-003    5.741975178712637E-035
  2.300000000000001E-003    4.399700714707956E-035
  2.400000000000001E-003    2.126729323784894E-035
  2.500000000000001E-003   -1.112222184028913E-035
  2.600000000000001E-003   -5.252547934034853E-035
  2.700000000000001E-003   -1.010603087996526E-034
  2.800000000000001E-003   -1.534409874257345E-034
  2.900000000000001E-003   -2.049215488115376E-034
  3.000000000000001E-003   -2.493903184757370E-034
  3.100000000000001E-003   -2.796508383349666E-034
  3.200000000000001E-003   -2.879132564691295E-034
  3.300000000000001E-003   -2.665029781045949E-034
  3.400000000000001E-003   -2.087703344258778E-034
  3.500000000000001E-003   -1.101564722978441E-034
  3.600000000000001E-003    3.066005406216434E-035
  3.700000000000001E-003    2.106442322954606E-034
  3.800000000000001E-003    4.214493738711531E-034
  3.900000000000001E-003    6.487835562133252E-034
  4.000000000000001E-003    8.722650842915997E-034
  4.100000000000001E-003    1.065926471932914E-033
  4.200000000000001E-003    1.199498799718574E-033
  4.300000000000001E-003    1.240557012581204E-033
  4.400000000000001E-003    1.157530919628629E-033
  4.500000000000001E-003    9.234895696789766E-034
  4.600000000000002E-003    5.204912085773715E-034
  4.700000000000001E-003   -5.583254172136617E-035
  4.800000000000001E-003   -7.919107042945431E-034
  4.900000000000002E-003   -1.652640687930961E-033
  5.000000000000001E-003   -2.579194617239703E-033
  5.100000000000001E-003   -3.488864298583130E-033
  5.200000000000001E-003   -4.277534628763176E-033
  5.300000000000002E-003   -4.825238778467976E-033
  5.400000000000001E-003   -5.005027189337633E-033
  5.500000000000001E-003   -4.695070606705116E-033
  5.600000000000002E-003   -3.793528872093623E-033
  5.700000000000001E-003   -2.235275258221649E-033
  5.800000000000001E-003   -9.116675143862593E-036
  5.900000000000002E-003    2.826296425132086E-033
  6.000000000000001E-003    6.129989118841703E-033
  6.100000000000001E-003    9.671940141907060E-033
  6.200000000000002E-003    1.313440932835375E-032
  6.300000000000002E-003    1.612332175263768E-032
  6.400000000000001E-003    1.819111186889892E-032
  6.500000000000001E-003    1.887152601890149E-032
  6.600000000000002E-003    1.772566046316060E-032
  6.700000000000001E-003    1.439706813605711E-032
  6.800000000000001E-003    8.672184406783022E-033
  6.900000000000002E-003    5.407432894714400E-034
  7.000000000000001E-003   -9.750514304869874E-033
  7.100000000000001E-003   -2.165853567641516E-032
  7.200000000000002E-003   -3.432710356088484E-032
  7.300000000000002E-003   -4.660004317804401E-032
  7.400000000000001E-003   -5.707068102964481E-032
  7.500000000000001E-003   -6.417125597525920E-032
  7.600000000000002E-003   -6.630248463250866E-032
  7.700000000000001E-003   -6.199904447080006E-032
  7.800000000000001E-003   -5.012163606522363E-032
  7.900000000000001E-003   -3.006105269705468E-032
  8.000000000000002E-003   -1.934718500440593E-033
  8.100000000000001E-003    3.324790765159127E-032
  8.200000000000001E-003    7.347689750055990E-032
  8.300000000000002E-003    1.157162654983181E-031
  8.400000000000001E-003    1.559842201353455E-031
  8.500000000000002E-003    1.895559648703001E-031
  8.600000000000002E-003    2.112962454599871E-031
  8.700000000000001E-003    2.161160592049246E-031
  8.800000000000002E-003    1.995328217049285E-031
  8.900000000000002E-003    1.582969233577972E-031
  9.000000000000001E-003    9.103110690301467E-032
  9.100000000000002E-003   -1.184442265213031E-033
  9.200000000000002E-003   -1.143588917230633E-031
  9.300000000000001E-003   -2.413497639866357E-031
  9.400000000000002E-003   -3.719102134279695E-031
  9.500000000000001E-003   -4.930858765704638E-031
  9.600000000000001E-003   -5.899978940571646E-031
  9.700000000000002E-003   -6.470143595913200E-031
  9.800000000000001E-003   -6.492689987034463E-031
  9.900000000000001E-003   -5.844388866146501E-031
  1.000000000000000E-002   -4.446430637240472E-031
  1.010000000000000E-002   -2.282791970529682E-031
  1.020000000000000E-002    5.841791250985025E-032
  1.030000000000000E-002    4.003307635033477E-031
  1.040000000000000E-002    7.731564193116410E-031
  1.050000000000000E-002    1.144043479362141E-030
  1.060000000000000E-002    1.473306543205822E-030
  1.070000000000000E-002    1.717262845890291E-030
  1.080000000000000E-002    1.832122964191067E-030
  1.090000000000000E-002    1.778732122047361E-030
  1.100000000000000E-002    1.527819138728751E-030
  1.110000000000000E-002    1.065280999582463E-030
  1.120000000000000E-002    3.969185873532558E-031
  1.130000000000000E-002   -4.480173050967905E-031
  1.140000000000000E-002   -1.415123351187949E-030
  1.150000000000000E-002   -2.425564370009079E-030
  1.160000000000000E-002   -3.379652427392100E-030
  1.170000000000000E-002   -4.163488440184449E-030
  1.180000000000000E-002   -4.658566897100432E-030
  1.190000000000000E-002   -4.753891854801036E-030
  1.200000000000000E-002   -4.359769020928462E-030
  1.210000000000000E-002   -3.422072063949040E-030
  1.220000000000000E-002   -1.935484124188967E-030
  1.230000000000000E-002    4.599843805331195E-032
  1.240000000000000E-002    2.403047867984278E-030
  1.250000000000000E-002    4.951080169355210E-030
  1.260000000000000E-002    7.447676574541204E-030
  1.270000000000000E-002    9.608018483444899E-030
  1.280000000000000E-002    1.112824295536418E-029
  1.290000000000000E-002    1.171568707875282E-029
  1.300000000000000E-002    1.112401197159754E-029
  1.310000000000000E-002    9.190189609071433E-030
  1.320000000000000E-002    5.869556670932493E-030
  1.330000000000000E-002    1.264517038720498E-030
  1.340000000000000E-002   -4.357642757605409E-030
  1.350000000000000E-002   -1.056209641761180E-029
  1.360000000000000E-002   -1.676233182725017E-029
  1.370000000000000E-002   -2.225647863970423E-029
  1.380000000000000E-002   -2.628409224175955E-029
  1.390000000000000E-002   -2.810104496304606E-029
  1.400000000000000E-002   -2.706758488897848E-029
  1.410000000000000E-002   -2.274216822221313E-029
  1.420000000000000E-002   -1.497145556980902E-029
  1.430000000000000E-002   -3.965403260031794E-030
  1.440000000000000E-002    9.654174160904813E-030
  1.450000000000000E-002    2.484243820707776E-029
  1.460000000000000E-002    4.016655928002313E-029
  1.470000000000000E-002    5.389217105334551E-029
  1.480000000000000E-002    6.412163300673970E-029
  1.490000000000000E-002    6.897860662105445E-029
  1.500000000000000E-002    6.682702692440638E-029
  1.510000000000000E-002    5.650622971191770E-029
  1.520000000000000E-002    3.755861189088933E-029
  1.530000000000000E-002    1.042219394715623E-029
  1.540000000000000E-002   -2.344078363943784E-029
  1.550000000000000E-002   -6.150663014372921E-029
  1.560000000000000E-002   -1.002665634254357E-028
  1.570000000000000E-002   -1.354302479656880E-028
  1.580000000000000E-002   -1.622584026199665E-028
  1.590000000000000E-002   -1.760118271343464E-028
  1.600000000000000E-002   -1.724884288333226E-028
  1.610000000000000E-002   -1.486045812176159E-028
  1.620000000000000E-002   -1.029633618432851E-028
  1.630000000000000E-002   -3.634284631798096E-029
  1.640000000000000E-002    4.796625064988311E-029
  1.650000000000000E-002    1.440404845432147E-028
  1.660000000000000E-002    2.434763431244262E-028
  1.670000000000000E-002    3.358505932179941E-028
  1.680000000000000E-002    4.094945156303561E-028
  1.690000000000000E-002    4.525547184531987E-028
  1.700000000000000E-002    4.542751363393520E-028
  1.710000000000000E-002    4.063984119110587E-028
  1.720000000000000E-002    3.045520570259397E-028
  1.730000000000000E-002    1.494619752373511E-028
  1.740000000000000E-002   -5.217392914657886E-029
  1.750000000000000E-002   -2.873106114046243E-028
  1.760000000000000E-002   -5.368130316755682E-028
  1.770000000000000E-002   -7.764303637338607E-028
  1.780000000000000E-002   -9.785093697933333E-028
  1.790000000000000E-002   -1.114389189416859E-027
  1.800000000000000E-002   -1.157335040050593E-027
  1.810000000000000E-002   -1.085781925616948E-027
  1.820000000000000E-002   -8.865870679401265E-028
  1.830000000000000E-002   -5.579331080198349E-028
  1.840000000000000E-002   -1.115050860494797E-028
  1.850000000000000E-002    4.264235562987142E-028
  1.860000000000000E-002    1.015300681018179E-027
  1.870000000000000E-002    1.602204392206833E-027