 -4.000000000000000E-002    0.000000000000000E+000
 -3.990000000000000E-002    0.000000000000000E+000
 -3.980000000000000E-002    0.000000000000000E+000
 -3.970000000000000E-002    0.000000000000000E+000
 -3.960000000000000E-002    0.000000000000000E+000
 -3.950000000000000E-002    0.000000000000000E+000
 -3.940000000000000E-002    0.000000000000000E+000
 -3.930000000000000E-002    0.000000000000000E+000
 -3.920000000000000E-002    0.000000000000000E+000
 -3.910000000000000E-002    0.000000000000000E+000
 -3.900000000000000E-002    0.000000000000000E+000
 -3.890000000000000E-002    0.000000000000000E+000
 -3.880000000000000E-002    0.000000000000000E+000
 -3.870000000000000E-002    0.000000000000000E+000
 -3.860000000000000E-002    0.000000000000000E+000
 -3.850000000000000E-002    0.000000000000000E+000
 -3.840000000000000E-002    0.000000000000000E+000
 -3.830000000000000E-002    0.000000000000000E+000
 -3.820000000000000E-002    0.000000000000000E+000
 -3.810000000000000E-002    0.000000000000000E+000
 -3.800000000000000E-002    0.000000000000000E+000
 -3.790000000000000E-002    0.000000000000000E+000
 -3.780000000000000E-002    0.000000000000000E+000
 -3.770000000000000E-002    0.000000000000000E+000
 -3.760000000000000E-002    0.000000000000000E+000
 -3.750000000000000E-002    0.000000000000000E+000
 -3.740000000000000E-002    0.000000000000000E+000
 -3.730000000000000E-002    0.000000000000000E+000
 -3.720000000000000E-002    0.000000000000000E+000
 -3.710000000000000E-002    0.000000000000000E+000
 -3.700000000000000E-002    0.000000000000000E+000
 -3.690000000000000E-002    0.000000000000000E+000
 -3.680000000000000E-002    0.000000000000000E+000
 -3.670000000000000E-002    0.000000000000000E+000
 -3.660000000000000E-002    0.000000000000000E+000
 -3.650000000000000E-002    0.000000000000000E+000
 -3.640000000000000E-002    0.000000000000000E+000
 -3.630000000000000E-002    0.000000000000000E+000
 -3.620000000000000E-002    0.000000000000000E+000
 -3.610000000000000E-002    0.000000000000000E+000
 -3.600000000000000E-002    0.000000000000000E+000
 -3.590000000000000E-002    0.000000000000000E+000
 -3.580000000000000E-002    0.000000000000000E+000
 -3.570000000000000E-002    0.000000000000000E+000
 -3.560000000000000E-002    0.000000000000000E+000
 -3.550000000000000E-002    0.000000000000000E+000
 -3.540000000000000E-002    0.000000000000000E+000
 -3.530000000000000E-002    0.000000000000000E+000
 -3.520000000000000E-002    0.000000000000000E+000
 -3.510000000000000E-002    0.000000000000000E+000
 -3.500000000000000E-002    0.000000000000000E+000
 -3.490000000000000E-002    0.000000000000000E+000
 -3.480000000000000E-002    0.000000000000000E+000
 -3.470000000000000E-002    0.000000000000000E+000
 -3.460000000000000E-002    0.000000000000000E+000
 -3.450000000000000E-002    0.000000000000000E+000
 -3.440000000000000E-002    0.000000000000000E+000
 -3.430000000000000E-002    0.000000000000000E+000
 -3.420000000000000E-002    0.000000000000000E+000
 -3.410000000000000E-002    0.000000000000000E+000
 -3.400000000000000E-002    0.000000000000000E+000
 -3.390000000000000E-002    0.000000000000000E+000
 -3.380000000000000E-002    0.000000000000000E+000
 -3.370000000000000E-002    0.000000000000000E+000
 -3.360000000000000E-002    0.000000000000000E+000
 -3.350000000000000E-002    0.000000000000000E+000
 -3.340000000000000E-002    0.000000000000000E+000
 -3.330000000000000E-002    0.000000000000000E+000
 -3.320000000000000E-002    0.000000000000000E+000
 -3.310000000000000E-002    0.000000000000000E+000
 -3.300000000000000E-002    0.000000000000000E+000
 -3.290000000000000E-002    0.000000000000000E+000
 -3.280000000000000E-002    0.000000000000000E+000
 -3.270000000000000E-002    0.000000000000000E+000
 -3.260000000000000E-002    0.000000000000000E+000
 -3.250000000000000E-002    2.138211768073757E-048
 -3.240000000000000E-002    4.276423536147513E-048
 -3.230000000000000E-002    4.276423536147513E-048
 -3.220000000000000E-002    4.276423536147513E-048
 -3.210000000000000E-002    2.138211768073757E-048
 -3.200000000000000E-002   -1.282927060844254E-047
 -3.190000000000000E-002   -7.191065295872467E-047
 -3.180000000000000E-002   -2.363922669525750E-046
 -3.170000000000000E-002   -5.126220103427683E-046
 -3.160000000000000E-002   -9.975140052520242E-046
 -3.150000000000000E-002   -1.739458575190256E-045
 -3.140000000000000E-002   -2.778359934146529E-045
 -3.130000000000000E-002   -4.107870184368067E-045
 -3.120000000000000E-002   -5.581574953865581E-045
 -3.110000000000000E-002   -6.430479863362503E-045
 -3.100000000000000E-002   -7.750680206710830E-045
 -3.090000000000000E-002   -6.093062122608239E-045
 -3.080000000000000E-002   -1.370756428964289E-045
 -3.070000000000000E-002    1.031986520974259E-044
 -3.060000000000000E-002    3.207907190196786E-044
 -3.050000000000000E-002    6.817903933360226E-044
 -3.040000000000000E-002    1.250732988089048E-043
 -3.030000000000000E-002    2.050993246857100E-043
 -3.020000000000000E-002    3.088080851978712E-043
 -3.010000000000000E-002    4.315237204188125E-043
 -3.000000000000000E-002    5.554000145328639E-043
 -2.990000000000000E-002    6.449024967792483E-043
 -2.980000000000000E-002    6.380371601313047E-043
 -2.970000000000000E-002    4.392468424543078E-043
 -2.960000000000000E-002   -8.941005520140269E-044
 -2.950000000000000E-002   -1.129271105187198E-042
 -2.940000000000000E-002   -2.896453133542823E-042
 -2.930000000000000E-002   -5.616951403411034E-042
 -2.920000000000000E-002   -9.474913015659634E-042
 -2.910000000000000E-002   -1.452341591879312E-041
 -2.900000000000000E-002   -2.054929383838132E-041
 -2.890000000000000E-002   -2.688704985903508E-041
 -2.880000000000000E-002   -3.217903820832035E-041
 -2.870000000000000E-002   -3.410833426223396E-041
 -2.860000000000000E-002   -2.913368922768140E-041
 -2.850000000000000E-002   -1.229809889566361E-041
 -2.840000000000000E-002    2.276432991778450E-041
 -2.830000000000000E-002    8.348027310433335E-041
 -2.820000000000000E-002    1.774354136893646E-040
 -2.810000000000000E-002    3.106837049102767E-040
 -2.800000000000000E-002    4.850408179228781E-040
 -2.790000000000000E-002    6.941617346464627E-040
 -2.780000000000000E-002    9.183780215284670E-040
 -2.770000000000000E-002    1.118493799254571E-039
 -2.760000000000000E-002    1.229162878256116E-039
 -2.750000000000000E-002    1.153026755070898E-039
 -2.740000000000000E-002    7.574956107741878E-040
 -2.730000000000000E-002   -1.231050417266570E-040
 -2.720000000000000E-002   -1.676523259455948E-039
 -2.710000000000000E-002   -4.088567408646182E-039
 -2.700000000000000E-002   -7.501830538768028E-039
 -2.690000000000000E-002   -1.195353516627909E-038
 -2.680000000000000E-002   -1.729078818475431E-038
 -2.670000000000000E-002   -2.306508100625760E-038
 -2.660000000000000E-002   -2.841342722719432E-038
 -2.650000000000000E-002   -3.194125674592662E-038
 -2.640000000000000E-002   -3.163193288633845E-038
 -2.630000000000000E-002   -2.481880236893290E-038
 -2.620000000000000E-002   -8.266670052472374E-039
 -2.610000000000000E-002    2.158173489769303E-038
 -2.600000000000000E-002    6.813544042532542E-038
 -2.590000000000000E-002    1.339082464415818E-037
 -2.580000000000000E-002    2.194619962244803E-037
 -2.570000000000000E-002    3.220449581659980E-037
 -2.560000000000000E-002    4.339895858581291E-037
 -2.550000000000000E-002    5.410163907215099E-037
 -2.540000000000000E-002    6.206942392910120E-037
 -2.530000000000000E-002    6.414250807986694E-037
 -2.520000000000000E-002    5.624395826136601E-037
 -2.510000000000000E-002    3.353899141021935E-037
 -2.500000000000000E-002   -9.182166051922020E-038
 -2.490000000000000E-002   -7.683681610979266E-037
 -2.480000000000000E-002   -1.730512861614506E-036
 -2.470000000000000E-002   -2.988151049877482E-036
 -2.460000000000000E-002   -4.508200318884065E-036
 -2.450000000000000E-002   -6.195844697427842E-036
 -2.440000000000000E-002   -7.875505240937857E-036
 -2.430000000000000E-002   -9.274417149616285E-036
 -2.420000000000000E-002   -1.001275642012432E-035
 -2.410000000000000E-002   -9.605217081099026E-036
 -2.400000000000000E-002   -7.479643381100688E-036
 -2.390000000000000E-002   -3.018482890612360E-036
 -2.380000000000000E-002    4.371755176585091E-036
 -2.370000000000000E-002    1.515949861651819E-035
 -2.360000000000000E-002    2.955493679988301E-035
 -2.350000000000000E-002    4.734837574094251E-035
 -2.340000000000000E-002    6.772963175488238E-035
 -2.330000000000000E-002    8.910503483997018E-035
 -2.320000000000000E-002    1.089366095049951E-034
 -2.310000000000000E-002    1.236361598728509E-034
 -2.300000000000000E-002    1.285543021833699E-034
 -2.290000000000000E-002    1.181098402209076E-034
 -2.280000000000000E-002    8.610625106469652E-035
 -2.270000000000000E-002    2.627829554160822E-035
 -2.260000000000000E-002   -6.689963440380856E-035
 -2.250000000000000E-002   -1.971317787143465E-034
 -2.240000000000000E-002   -3.649648177320464E-034
 -2.230000000000000E-002   -5.662567381217879E-034
 -2.220000000000000E-002   -7.905617232031313E-034
 -2.210000000000000E-002   -1.019600583057646E-033
 -2.200000000000000E-002   -1.226049304517364E-033
 -2.190000000000000E-002   -1.372939199640845E-033
 -2.180000000000000E-002   -1.414011693161232E-033
 -2.170000000000000E-002   -1.295400224676784E-033
 -2.160000000000000E-002   -9.590058425707033E-034
 -2.150000000000000E-002   -3.478803486820678E-034
 -2.140000000000000E-002    5.861849507161977E-034
 -2.130000000000000E-002    1.872856046781618E-033
 -2.120000000000000E-002    3.511498265442462E-033
 -2.110000000000000E-002    5.458082023617797E-033
 -2.100000000000000E-002    7.611791955748812E-033
 -2.090000000000000E-002    9.802862623354222E-033
 -2.080000000000000E-002    1.178365074337013E-032
 -2.070000000000000E-002    1.322540408015970E-032
 -2.060000000000000E-002    1.372350872224976E-032
 -2.050000000000000E-002    1.281411371731867E-032
 -2.040000000000000E-002    1.000483981016127E-032
 -2.030000000000000E-002    4.821656465685545E-033
 -2.020000000000000E-002   -3.127109032325464E-033
 -2.010000000000000E-002   -1.407036706786730E-032
 -2.000000000000000E-002   -2.798049965962269E-032
 -1.990000000000000E-002   -4.447211077705160E-032
 -1.980000000000000E-002   -6.270242275761159E-032
 -1.970000000000000E-002   -8.128584464421358E-032
 -1.960000000000000E-002   -9.823849329840881E-032
 -1.950000000000000E-002   -1.109709594761151E-031
 -1.940000000000000E-002   -1.163489778528265E-031
 -1.930000000000000E-002   -1.108410914915077E-031
 -1.920000000000000E-002   -9.076932465876303E-032
 -1.910000000000000E-002   -5.267289598357752E-032
 -1.900000000000000E-002    6.214631281748196E-033
 -1.890000000000000E-002    8.738749407538569E-032
 -1.880000000000000E-002    1.904181785387211E-031
 -1.870000000000000E-002    3.122842867998608E-031
 -1.860000000000000E-002    4.467400458429884E-031
 -1.850000000000000E-002    5.838200129782137E-031
 -1.840000000000000E-002    7.095790250327527E-031
 -1.830000000000000E-002    8.061821784842977E-031
 -1.820000000000000E-002    8.524593812132815E-031
 -1.810000000000000E-002    8.250263516999881E-031
 -1.800000000000000E-002    7.000462947383052E-031
 -1.790000000000000E-002    4.556603370820430E-031
 -1.780000000000000E-002    7.504997862622427E-032
 -1.770000000000000E-002   -4.499872631736108E-031
 -1.760000000000000E-002   -1.115163784596193E-030
 -1.750000000000000E-002   -1.899850826583697E-030
 -1.740000000000000E-002   -2.763673509193822E-030
 -1.730000000000000E-002   -3.644069198473387E-030
 -1.720000000000000E-002   -4.455391048959666E-030
 -1.710000000000000E-002   -5.090163202729000E-030
 -1.700000000000000E-002   -5.423059527085776E-030
 -1.690000000000000E-002   -5.318073584574846E-030
 -1.680000000000000E-002   -4.639155676570144E-030
 -1.670000000000000E-002   -3.264317271222938E-030
 -1.660000000000000E-002   -1.102831673781383E-030
 -1.650000000000000E-002    1.885276073970727E-030
 -1.640000000000000E-002    5.668759449198708E-030
 -1.630000000000000E-002    1.012551443295129E-029
 -1.620000000000000E-002    1.502607321793308E-029
 -1.610000000000000E-002    2.002291468596778E-029
 -1.600000000000000E-002    2.464849046795655E-029
 -1.590000000000000E-002    2.832487414026977E-029
 -1.580000000000000E-002    3.038763011441124E-029
 -1.570000000000000E-002    3.012580614495015E-029
 -1.560000000000000E-002    2.683893357629606E-029
 -1.550000000000000E-002    1.991038698822847E-029
 -1.540000000000000E-002    8.894647923066287E-030
 -1.530000000000000E-002   -6.386138788441673E-030
 -1.520000000000000E-002   -2.574328135068333E-029
 -1.510000000000000E-002   -4.852951449886087E-029
 -1.500000000000000E-002   -7.356511340426392E-029
 -1.490000000000000E-002   -9.909490585539624E-029
 -1.480000000000000E-002   -1.227895656874944E-028
 -1.470000000000000E-002   -1.418041003409583E-028
 -1.460000000000000E-002   -1.529044802398944E-028
 -1.450000000000000E-002   -1.526697592696722E-028
 -1.440000000000000E-002   -1.377717804144712E-028
 -1.430000000000000E-002   -1.053273448210495E-028
 -1.420000000000000E-002   -5.330925230820578E-029
 -1.410000000000000E-002    1.900709394143849E-029
 -1.400000000000000E-002    1.105949889890493E-028
 -1.390000000000000E-002    2.182688391459179E-028
 -1.380000000000000E-002    3.363691146538040E-028
 -1.370000000000000E-002    4.565969137828309E-028
 -1.360000000000000E-002    5.680568338195991E-028
 -1.350000000000000E-002    6.575631877925245E-028
 -1.340000000000000E-002    7.102549608690210E-028
 -1.330000000000000E-002    7.105475034286964E-028
 -1.320000000000000E-002    6.434248644649788E-028
 -1.310000000000000E-002    4.960448861237172E-028
 -1.300000000000000E-002    2.595914231781085E-028
 -1.290000000000000E-002   -6.873403908489507E-029
 -1.280000000000000E-002   -4.837330323942370E-028
 -1.270000000000000E-002   -9.704350825653592E-028
 -1.260000000000000E-002   -1.502754619024160E-027
 -1.250000000000000E-002   -2.042830477508360E-027
 -1.240000000000000E-002   -2.541302567583930E-027
 -1.230000000000000E-002   -2.938765077933153E-027
 -1.220000000000000E-002   -3.168588842347865E-027
 -1.210000000000000E-002   -3.161232215301737E-027
 -1.200000000000000E-002   -2.850050216238959E-027
 -1.190000000000000E-002   -2.178473754659360E-027
 -1.180000000000000E-002   -1.108261524955133E-027
 -1.170000000000000E-002    3.716528116991901E-028
 -1.160000000000000E-002    2.236394326282790E-027
 -1.150000000000000E-002    4.417314989227038E-027
 -1.140000000000000E-002    6.796106689108249E-027
 -1.130000000000000E-002    9.201966538560087E-027
 -1.120000000000000E-002    1.141294832450206E-026
 -1.110000000000000E-002    1.316255447532112E-026
 -1.100000000000000E-002    1.415242551460996E-026
 -1.090000000000000E-002    1.407163968874273E-026
 -1.080000000000000E-002    1.262265626079611E-026
 -1.070000000000000E-002    9.553313190134727E-027
 -1.060000000000000E-002    4.693552234734239E-027
 -1.050000000000000E-002   -2.005285480956294E-027
 -1.040000000000000E-002   -1.043159643875627E-026
 -1.030000000000000E-002   -2.027886282746724E-026
 -1.020000000000000E-002   -3.101968860556761E-026
 -1.010000000000000E-002   -4.189335805714115E-026
 -1.000000000000000E-002   -5.191187054583478E-026
 -9.899999999999999E-003   -5.988899544284797E-026
 -9.800000000000000E-003   -6.449593577920912E-026
 -9.699999999999999E-003   -6.434576863159644E-026
 -9.599999999999999E-003   -5.810659902400518E-026
 -9.500000000000000E-003   -4.464073836069626E-026
 -9.399999999999999E-003   -2.316403069716267E-026
 -9.299999999999999E-003    6.583983063538516E-027
 -9.200000000000000E-003    4.417192962333353E-026
 -9.099999999999999E-003    8.832648486328592E-026
 -8.999999999999999E-003    1.368190085003059E-025
 -8.900000000000000E-003    1.864090037630747E-025
 -8.799999999999999E-003    2.328648181634677E-025
 -8.699999999999999E-003    2.710799646730746E-025
 -8.600000000000000E-003    2.952997554734816E-025
 -8.499999999999999E-003    2.994666525476026E-025
 -8.399999999999999E-003    2.776842956732878E-025
 -8.300000000000000E-003    2.247891342275347E-025
 -8.199999999999999E-003    1.370067929688885E-025
 -8.100000000000000E-003    1.265630528649592E-026
 -8.000000000000000E-003   -1.471477686754950E-025
 -7.899999999999999E-003   -3.378579731100469E-025
 -7.800000000000000E-003   -5.509935969403591E-025
 -7.699999999999999E-003   -7.738560897612634E-025
 -7.599999999999999E-003   -9.895392683044386E-025
 -7.499999999999999E-003   -1.177307316068995E-024
 -7.399999999999999E-003   -1.313400656714818E-024
 -7.299999999999999E-003   -1.372306384171212E-024
 -7.199999999999999E-003   -1.328500854682262E-024
 -7.100000000000000E-003   -1.158631598592255E-024
 -6.999999999999999E-003   -8.440632613377198E-025
 -6.899999999999999E-003   -3.736608439037161E-025
 -6.800000000000000E-003    2.533657983046594E-025
 -6.699999999999999E-003    1.024779048131317E-024
 -6.599999999999999E-003    1.913057103240194E-024
 -6.499999999999999E-003    2.873855590835858E-024
 -6.399999999999999E-003    3.845488910185339E-024
 -6.299999999999999E-003    4.749723679078536E-024
 -6.199999999999999E-003    5.494134650478552E-024
 -6.100000000000000E-003    5.976209041678137E-024
 -5.999999999999999E-003    6.089286204809562E-024
 -5.899999999999999E-003    5.730288069363548E-024
 -5.800000000000000E-003    4.809044757497893E-024
 -5.699999999999999E-003    3.258834834120742E-024
 -5.599999999999999E-003    1.047588988910270E-024
 -5.499999999999999E-003   -1.811007632455341E-024
 -5.399999999999999E-003   -5.247419374061629E-024
 -5.299999999999999E-003   -9.128234346244545E-024
 -5.199999999999999E-003   -1.325135391437974E-023
 -5.099999999999999E-003   -1.734554020195692E-023
 -4.999999999999999E-003   -2.107542279143022E-023
 -4.899999999999999E-003   -2.405283352061081E-023
 -4.799999999999999E-003   -2.585509275659677E-023
 -4.699999999999999E-003   -2.605043509268849E-023
 -4.599999999999999E-003   -2.423022520316250E-023
 -4.499999999999999E-003   -2.004702074193421E-023
 -4.399999999999999E-003   -1.325679631961392E-023
 -4.299999999999999E-003   -3.762998105571791E-024
 -4.199999999999999E-003    8.340721739437669E-024
 -4.099999999999999E-003    2.273272236367290E-023
 -3.999999999999999E-003    3.883476840572452E-023
 -3.899999999999999E-003    5.579701615123871E-023
 -3.799999999999999E-003    7.250090472058622E-023
 -3.699999999999999E-003    8.758396734345468E-023
 -3.599999999999999E-003    9.948959315734394E-023
 -3.499999999999999E-003    1.065436610542046E-022
 -3.399999999999999E-003    1.070581121411625E-022
 -3.299999999999999E-003    9.945946922407609E-023
 -3.199999999999999E-003    8.243787830786654E-023
 -3.099999999999999E-003    5.510965317196826E-023
 -2.999999999999999E-003    1.718351376212715E-023
 -2.899999999999999E-003   -3.088164182849781E-023
 -2.799999999999999E-003   -8.774172271526420E-023
 -2.699999999999999E-003   -1.510708630404051E-022
 -2.599999999999999E-003   -2.175194218751822E-022
 -2.499999999999999E-003   -2.827419017799929E-022
 -2.399999999999999E-003   -3.415081075457998E-022
 -2.299999999999999E-003   -3.879071338708730E-022
 -2.199999999999999E-003   -4.156489046088825E-022
 -2.099999999999999E-003   -4.184608905397062E-022
 -1.999999999999999E-003   -3.905702732369971E-022
 -1.899999999999999E-003   -3.272525669286210E-022
 -1.799999999999999E-003   -2.254190015389402E-022
 -1.699999999999999E-003   -8.420572945799957E-023
 -1.599999999999999E-003    9.447957010458556E-023
 -1.499999999999999E-003    3.055049578630791E-022
 -1.399999999999999E-003    5.402093017817489E-022
 -1.299999999999999E-003    7.862996638664947E-022
 -1.199999999999999E-003    1.028000546936620E-021
 -1.099999999999999E-003    1.246496716208325E-021
 -9.999999999999989E-004    1.420697039999857E-021
 -8.999999999999990E-004    1.528327090781506E-021
 -7.999999999999990E-004    1.547337533671773E-021
 -6.999999999999989E-004    1.457586164655209E-021
 -5.999999999999990E-004    1.242723733218408E-021
 -4.999999999999989E-004    8.921848512241413E-022
 -3.999999999999989E-004    4.031567996678095E-022
 -2.999999999999989E-004   -2.176247926687364E-022
 -1.999999999999989E-004   -9.524200504725733E-022
 -9.999999999999892E-005   -1.771546003226147E-021
  1.084202172485504E-018   -2.633124915696803E-021
  1.000000000000011E-004   -3.483676231858790E-021
  2.000000000000011E-004   -4.259675128046300E-021
  3.000000000000011E-004   -4.890154502668508E-021
  4.000000000000011E-004   -5.300362417838659E-021
  5.000000000000011E-004   -5.416420687060397E-021
  6.000000000000011E-004   -5.170833125677092E-021
  7.000000000000011E-004   -4.508616173008181E-021
  8.000000000000011E-004   -3.393721441110528E-021
  9.000000000000012E-004   -1.815343233118544E-021
  1.000000000000001E-003    2.063655129721105E-022
  1.100000000000001E-003    2.615695389808060E-021
  1.200000000000001E-003    5.318455968944810E-021
  1.300000000000001E-003    8.181239301498074E-021
  1.400000000000001E-003    1.103335736255484E-020
  1.500000000000001E-003    1.367181677584504E-020
  1.600000000000001E-003    1.586954868509844E-020
  1.700000000000001E-003    1.738692183600975E-020
  1.800000000000001E-003    1.798633727226234E-020
  1.900000000000001E-003    1.744943519453394E-020
  2.000000000000001E-003    1.559619414994722E-020
  2.100000000000001E-003    1.230487629231585E-020
  2.200000000000001E-003    7.531589990011009E-021
  2.300000000000001E-003    1.327997309604568E-021
  2.400000000000001E-003   -6.144457640197059E-021
  2.500000000000001E-003   -1.460543196017215E-020
  2.600000000000001E-003   -2.365326877007607E-020
  2.700000000000001E-003   -3.277072926065043E-020
  2.800000000000001E-003   -4.133989851010133E-020
  2.900000000000001E-003   -4.866692705052335E-020
  3.000000000000001E-003   -5.401663387308641E-020
  3.100000000000001E-003   -5.665631443867930E-020
  3.200000000000001E-003   -5.590732371561753E-020
  3.300000000000001E-003   -5.120217398797421E-020
  3.400000000000001E-003   -4.214413050826558E-020
  3.500000000000001E-003   -2.856551982331429E-020
  3.600000000000001E-003   -1.058045244573343E-020
  3.700000000000001E-003    1.137280749134756E-020
  3.800000000000001E-003    3.650458803591132E-020
  3.900000000000001E-003    6.366626816264973E-020
  4.000000000000001E-003    9.136641651286357E-020
  4.100000000000001E-003    1.178136663795250E-019
  4.200000000000001E-003    1.409878980527172E-019
  4.300000000000001E-003    1.587397612054140E-019
  4.400000000000001E-003    1.689162249347252E-019
  4.500000000000001E-003    1.695082001539030E-019
  4.600000000000002E-003    1.588132747894610E-019
  4.700000000000001E-003    1.356052024368088E-019
  4.800000000000001E-003    9.929913985144732E-020
  4.900000000000002E-003    5.010067038047061E-020
  5.000000000000001E-003   -1.087472203562581E-020
  5.100000000000001E-003   -8.152462649979742E-020
  5.200000000000001E-003   -1.587379261481214E-019
  5.300000000000002E-003   -2.384384039407087E-019
  5.400000000000001E-003   -3.157020538425139E-019
  5.500000000000001E-003   -3.849514951918809E-019
  5.600000000000002E-003   -4.402270828253551E-019
  5.700000000000001E-003   -4.755283121462064E-019
  5.800000000000001E-003   -4.852132593477250E-019
  5.900000000000002E-003   -4.644383227866268E-019
  6.000000000000001E-003   -4.096140104639545E-019
  6.100000000000001E-003   -3.188486142114316E-019
  6.200000000000002E-003   -1.923472713889630E-019
  6.300000000000002E-003   -3.273224790940756E-020
  6.400000000000001E-003    1.547498683677949E-019
  6.500000000000001E-003    3.621656855184175E-019
  6.600000000000002E-003    5.790041467970441E-019
  6.700000000000001E-003    7.924760904155692E-019
  6.800000000000001E-003    9.880132356110684E-019
  6.900000000000002E-003    1.149964048572666E-018
  7.000000000000001E-003    1.262468594813833E-018
  7.100000000000001E-003    1.310480739802778E-018
  7.200000000000002E-003    1.280891556754616E-018
  7.300000000000002E-003    1.163692986025006E-018
  7.400000000000001E-003    9.531097932590207E-019
  7.500000000000001E-003    6.486194064235172E-019
  7.600000000000002E-003    2.557744984583803E-019
  7.700000000000001E-003   -2.132558787154353E-019
  7.800000000000001E-003   -7.395037272262799E-019
  7.900000000000001E-003   -1.297443602044254E-018
  8.000000000000002E-003   -1.855701849652196E-018
  8.100000000000001E-003   -2.378257776885104E-018
  8.200000000000001E-003   -2.826122896001917E-018
  8.300000000000002E-003   -3.159460287319846E-018
  8.400000000000001E-003   -3.340063206957875E-018
  8.500000000000002E-003   -3.334082650473462E-018
  8.600000000000002E-003   -3.114856397871689E-018
  8.700000000000001E-003   -2.665668633726656E-018
  8.800000000000002E-003   -1.982247670503214E-018
  8.900000000000002E-003   -1.074802283208110E-018
  9.000000000000001E-003    3.060388017307064E-020
  9.100000000000002E-003    1.291519415894036E-018
  9.200000000000002E-003    2.649567276630928E-018
  9.300000000000001E-003    4.032005954500618E-018
  9.400000000000002E-003    5.354436891708509E-018
  9.500000000000001E-003    6.524640351260739E-018
  9.600000000000001E-003    7.447438681159568E-018
  9.700000000000002E-003    8.030408250359409E-018
  9.800000000000001E-003    8.190183416250167E-018
  9.900000000000001E-003    7.859018712113206E-018
  1.000000000000000E-002    6.991218592340503E-018
  1.010000000000000E-002    5.568999375111629E-018
  1.020000000000000E-002    3.607325346488256E-018
  1.030000000000000E-002    1.157278442018257E-018
  1.040000000000000E-002   -1.692451145565410E-018
  1.050000000000000E-002   -4.816296456262029E-018
  1.060000000000000E-002   -8.054996701450041E-018
  1.070000000000000E-002   -1.122134464915461E-017
  1.080000000000000E-002   -1.410845750413688E-017
  1.090000000000000E-002   -1.650034902399247E-017
  1.100000000000000E-002   -1.818442306785037E-017
  1.110000000000000E-002   -1.896531809687715E-017
  1.120000000000000E-002   -1.867939053944107E-017
  1.130000000000000E-002   -1.720898082803062E-017
  1.140000000000000E-002   -1.449553663824901E-017
  1.150000000000000E-002   -1.055059868193807E-017
  1.160000000000000E-002   -5.463705051580047E-018
  1.170000000000000E-002    5.936665955536641E-019
  1.180000000000000E-002    7.368843457148082E-018
  1.190000000000000E-002    1.453390262881313E-017
  1.200000000000000E-002    2.169705295247449E-017
  1.210000000000000E-002    2.841936702538662E-017
  1.220000000000000E-002    3.423644256577775E-017
  1.230000000000000E-002    3.868420043562992E-017
  1.240000000000000E-002    4.132765471507275E-017
  1.250000000000000E-002    4.179121509458956E-017
  1.260000000000000E-002    3.978877410169512E-017
  1.270000000000000E-002    3.515168475422474E-017
  1.280000000000000E-002    2.785262399955701E-017
  1.290000000000000E-002    1.802341920303458E-017
  1.300000000000000E-002    5.965038719473752E-018
  1.310000000000000E-002   -7.851734856553340E-018
  1.320000000000000E-002   -2.279601190275617E-017
  1.330000000000000E-002   -3.809743371830678E-017
  1.340000000000000E-002   -5.287759152069203E-017
  1.350000000000000E-002   -6.619152528105045E-017
  1.360000000000000E-002   -7.707778673360501E-017
  1.370000000000000E-002   -8.461490823946479E-017
  1.380000000000000E-002   -8.798147956043791E-017
  1.390000000000000E-002   -8.651657010720615E-017
  1.400000000000000E-002   -7.977680319286459E-017
  1.410000000000000E-002   -6.758630087823222E-017
  1.420000000000000E-002   -5.007568724112366E-017
  1.430000000000000E-002   -2.770665785350995E-017
  1.440000000000000E-002   -1.279175178597400E-018
  1.450000000000000E-002    2.808092870221858E-017
  1.460000000000000E-002    5.895519608757828E-017
  1.470000000000000E-002    8.968667961580718E-017
  1.480000000000000E-002    1.184539105828844E-016
  1.490000000000000E-002    1.433621434164499E-016
  1.500000000000000E-002    1.625482034575688E-016
  1.510000000000000E-002    1.742939309189297E-016
  1.520000000000000E-002    1.771424277526518E-016
  1.530000000000000E-002    1.700103469234360E-016
  1.540000000000000E-002    1.522892619801826E-016
  1.550000000000000E-002    1.239289036328093E-016
  1.560000000000000E-002    8.549571371962488E-017
  1.570000000000000E-002    3.820079720550432E-017
  1.580000000000000E-002   -1.610735778717363E-017
  1.590000000000000E-002   -7.498824106650292E-017
  1.600000000000000E-002   -1.354938792206519E-016
  1.610000000000000E-002   -1.942912271011839E-016
  1.620000000000000E-002   -2.478189098633012E-016
  1.630000000000000E-002   -2.924722332305913E-016
  1.640000000000000E-002   -3.248086095039045E-016
  1.650000000000000E-002   -3.417628448995643E-016
  1.660000000000000E-002   -3.408610898903982E-016
  1.670000000000000E-002   -3.204206262084118E-016
  1.680000000000000E-002   -2.797224577266782E-016
  1.690000000000000E-002   -2.191443616761150E-016
  1.700000000000000E-002   -1.402426612550499E-016
  1.710000000000000E-002   -4.577357258085885E-017
  1.720000000000000E-002    6.035291752555670E-017
  1.730000000000000E-002    1.731901931587736E-016
  1.740000000000000E-002    2.869428097709222E-016
  1.750000000000000E-002    3.952206582760390E-016
  1.760000000000000E-002    4.913505932100635E-016
  1.770000000000000E-002    5.687332092510382E-016
  1.780000000000000E-002    6.212278869201942E-016
  1.790000000000000E-002    6.435465332475276E-016
  1.800000000000000E-002    6.316341517169562E-016
  1.810000000000000E-002    5.830130812401627E-016
  1.820000000000000E-002    4.970678226440393E-016
  1.830000000000000E-002    3.752487198946041E-016
  1.840000000000000E-002    2.211755270929570E-016
  1.850000000000000E-002    4.062623908826855E-017
  1.860000000000000E-002   -1.585988709696765E-016
  1.870000000000000E-002   -3.669408205819358E-016