 -4.000000000000000E-002    0.000000000000000E+000
 -3.990000000000000E-002    0.000000000000000E+000
 -3.980000000000000E-002    0.000000000000000E+000
 -3.970000000000000E-002    0.000000000000000E+000
 -3.960000000000000E-002    0.000000000000000E+000
 -3.950000000000000E-002    0.000000000000000E+000
 -3.940000000000000E-002    0.000000000000000E+000
 -3.930000000000000E-002    0.000000000000000E+000
 -3.920000000000000E-002    0.000000000000000E+000
 -3.910000000000000E-002    0.000000000000000E+000
 -3.900000000000000E-002    0.000000000000000E+000
 -3.890000000000000E-002    0.000000000000000E+000
 -3.880000000000000E-002    0.000000000000000E+000
 -3.870000000000000E-002    0.000000000000000E+000
 -3.860000000000000E-002    0.000000000000000E+000
 -3.850000000000000E-002    0.000000000000000E+000
 -3.840000000000000E-002    0.000000000000000E+000
 -3.830000000000000E-002    0.000000000000000E+000
 -3.820000000000000E-002    0.000000000000000E+000
 -3.810000000000000E-002    0.000000000000000E+000
 -3.800000000000000E-002    0.000000000000000E+000
 -3.790000000000000E-002    0.000000000000000E+000
 -3.780000000000000E-002    0.000000000000000E+000
 -3.770000000000000E-002    0.000000000000000E+000
 -3.760000000000000E-002    0.000000000000000E+000
 -3.750000000000000E-002    0.000000000000000E+000
 -3.740000000000000E-002    0.000000000000000E+000
 -3.730000000000000E-002    0.000000000000000E+000
 -3.720000000000000E-002    1.772441470508464E-046
 -3.710000000000000E-002    6.320009645527304E-046
 -3.700000000000000E-002    2.457242657210148E-045
 -3.690000000000000E-002    8.381309917380064E-045
 -3.680000000000000E-002    2.608956555750194E-044
 -3.670000000000000E-002    7.719438003921254E-044
 -3.660000000000000E-002    2.140241409898618E-043
 -3.650000000000000E-002    5.647960362687930E-043
 -3.640000000000000E-002    1.416048187531590E-042
 -3.630000000000000E-002    3.373459403586234E-042
 -3.620000000000000E-002    7.647814644703912E-042
 -3.610000000000000E-002    1.649305417326083E-041
 -3.600000000000000E-002    3.379139639443414E-041
 -3.590000000000000E-002    6.558200122142334E-041
 -3.580000000000000E-002    1.199145502905985E-040
 -3.570000000000000E-002    2.045200489714109E-040
 -3.560000000000000E-002    3.191725402551554E-040
 -3.550000000000000E-002    4.369294337208594E-040
 -3.540000000000000E-002    4.644724299332215E-040
 -3.530000000000000E-002    1.666403617894603E-040
 -3.520000000000000E-002   -9.648855467643066E-040
 -3.510000000000000E-002   -3.921095808265331E-039
 -3.500000000000000E-002   -1.047939462005458E-038
 -3.490000000000000E-002   -2.359255403601728E-038
 -3.480000000000000E-002   -4.779476516389696E-038
 -3.470000000000000E-002   -8.944308598138046E-038
 -3.460000000000000E-002   -1.564214748776146E-037
 -3.450000000000000E-002   -2.566475351590055E-037
 -3.440000000000000E-002   -3.943395338051614E-037
 -3.430000000000000E-002   -5.625633814509556E-037
 -3.420000000000000E-002   -7.302020903260538E-037
 -3.410000000000000E-002   -8.213974962540551E-037
 -3.400000000000000E-002   -6.860859772100494E-037
 -3.390000000000000E-002   -6.203891957358809E-038
 -3.380000000000000E-002    1.467466216776246E-036
 -3.370000000000000E-002    4.509788945393002E-036
 -3.360000000000000E-002    9.872536093242554E-036
 -3.350000000000000E-002    1.851296592170774E-035
 -3.340000000000000E-002    3.137751133427570E-035
 -3.330000000000000E-002    4.906560593049157E-035
 -3.320000000000000E-002    7.124079485735285E-035
 -3.310000000000000E-002    9.571406571476464E-035
 -3.300000000000000E-002    1.171513447671629E-034
 -3.290000000000000E-002    1.254240212061592E-034
 -3.280000000000000E-002    1.037449382013689E-034
 -3.270000000000000E-002    2.692700277084296E-035
 -3.260000000000000E-002   -1.396248425645357E-034
 -3.250000000000000E-002   -4.392337334401539E-034
 -3.240000000000000E-002   -9.202467819815958E-034
 -3.230000000000000E-002   -1.627620614557686E-033
 -3.220000000000000E-002   -2.587906600035236E-033
 -3.210000000000000E-002   -3.785853313171647E-033
 -3.200000000000000E-002   -5.131479735293740E-033
 -3.190000000000000E-002   -6.417869226649135E-033
 -3.180000000000000E-002   -7.272356205045737E-033
 -3.170000000000000E-002   -7.107370431096219E-033
 -3.160000000000000E-002   -5.082056893388374E-033
 -3.150000000000000E-002   -9.164773120876626E-035
 -3.140000000000000E-002    9.192070175749635E-033
 -3.130000000000000E-002    2.420001417023678E-032
 -3.120000000000000E-002    4.623187794081779E-032
 -3.110000000000000E-002    7.607658464165567E-032
 -3.100000000000000E-002    1.134620202805332E-031
 -3.090000000000000E-002    1.563262737796072E-031
 -3.080000000000000E-002    1.999325821582961E-031
 -3.070000000000000E-002    2.358956422699687E-031
 -3.060000000000000E-002    2.512487778456651E-031
 -3.050000000000000E-002    2.277582465693089E-031
 -3.040000000000000E-002    1.417791075399263E-031
 -3.030000000000000E-002   -3.496368928547005E-032
 -3.020000000000000E-002   -3.332089154863063E-031
 -3.010000000000000E-002   -7.821051439337646E-031
 -3.000000000000000E-002   -1.402788391091012E-030
 -2.990000000000000E-002   -2.199228522402044E-030
 -2.980000000000000E-002   -3.146235973269630E-030
 -2.970000000000000E-002   -4.174952035262210E-030
 -2.960000000000000E-002   -5.156783903291447E-030
 -2.950000000000000E-002   -5.887610939844283E-030
 -2.940000000000000E-002   -6.075166753677012E-030
 -2.930000000000000E-002   -5.333735104337386E-030
 -2.920000000000000E-002   -3.191570763055268E-030
 -2.910000000000000E-002    8.824393203907425E-031
 -2.900000000000000E-002    7.425712695105192E-030
 -2.890000000000000E-002    1.689554679738431E-029
 -2.880000000000000E-002    2.954390889408351E-029
 -2.870000000000000E-002    4.525141229233555E-029
 -2.860000000000000E-002    6.332420492673227E-029
 -2.850000000000000E-002    8.226599635176856E-029
 -2.840000000000000E-002    9.954879343918138E-029
 -2.830000000000000E-002    1.114197691656119E-028
 -2.820000000000000E-002    1.127970023012482E-028
 -2.810000000000000E-002    9.732183327070372E-029
 -2.800000000000000E-002    5.764740314853389E-029
 -2.790000000000000E-002   -1.395231265372743E-029
 -2.780000000000000E-002   -1.245753273756911E-028
 -2.770000000000000E-002   -2.792323235175652E-028
 -2.760000000000000E-002   -4.789262914003856E-028
 -2.750000000000000E-002   -7.183325074500837E-028
 -2.740000000000000E-002   -9.832370420901094E-028
 -2.730000000000000E-002   -1.248012020180398E-027
 -2.720000000000000E-002   -1.473541547710857E-027
 -2.710000000000000E-002   -1.606147807464151E-027
 -2.700000000000000E-002   -1.578181117113009E-027
 -2.690000000000000E-002   -1.311001082552701E-027
 -2.680000000000000E-002   -7.210546704911670E-028
 -2.670000000000000E-002    2.703833745740819E-028
 -2.660000000000000E-002    1.723538594759492E-027
 -2.650000000000000E-002    3.662729514681430E-027
 -2.640000000000000E-002    6.056069097274151E-027
 -2.630000000000000E-002    8.793919150730547E-027
 -2.620000000000000E-002    1.166863917190651E-026
 -2.610000000000000E-002    1.435907211316577E-026
 -2.600000000000000E-002    1.642397714699918E-026
 -2.590000000000000E-002    1.730909471892684E-026
 -2.580000000000000E-002    1.637250157601263E-026
 -2.570000000000000E-002    1.293225035980795E-026
 -2.560000000000000E-002    6.338763067623544E-027
 -2.550000000000000E-002   -3.927946156670743E-027
 -2.540000000000000E-002   -1.813948412078084E-026
 -2.530000000000000E-002   -3.618603286624386E-026
 -2.520000000000000E-002   -5.744089116654964E-026
 -2.510000000000000E-002   -8.063896916629364E-026
 -2.500000000000000E-002   -1.037894966730937E-025
 -2.490000000000000E-002   -1.241457611386058E-025
 -2.480000000000000E-002   -1.382552001830402E-025
 -2.470000000000000E-002   -1.421108632879045E-025
 -2.460000000000000E-002   -1.314196311738239E-025
 -2.450000000000000E-002   -1.019934619887793E-025
 -2.440000000000000E-002   -5.025730055466211E-026
 -2.430000000000000E-002    2.614798467844187E-026
 -2.420000000000000E-002    1.277063317424136E-025
 -2.410000000000000E-002    2.523667079159616E-025
 -2.400000000000000E-002    3.949536971510122E-025
 -2.390000000000000E-002    5.467307269871762E-025
 -2.380000000000000E-002    6.952029872163887E-025
 -2.370000000000000E-002    8.242443393508866E-025
 -2.360000000000000E-002    9.146202416237524E-025
 -2.350000000000000E-002    9.449573376661755E-025
 -2.340000000000000E-002    8.931792487008429E-025
 -2.330000000000000E-002    7.383902255530544E-025
 -2.320000000000000E-002    4.631450101681993E-025
 -2.310000000000000E-002    5.599792194548604E-026
 -2.300000000000000E-002   -4.858192446743281E-025
 -2.290000000000000E-002   -1.153780651295819E-024
 -2.280000000000000E-002   -1.925732142790842E-024
 -2.270000000000000E-002   -2.764082763005920E-024
 -2.260000000000000E-002   -3.614777831122064E-024
 -2.250000000000000E-002   -4.407308405683646E-024
 -2.240000000000000E-002   -5.056002325862564E-024
 -2.230000000000000E-002   -5.462819597266773E-024
 -2.220000000000000E-002   -5.521839106488800E-024
 -2.210000000000000E-002   -5.125569066000022E-024
 -2.200000000000000E-002   -4.173143637967755E-024
 -2.190000000000000E-002   -2.580352638949614E-024
 -2.180000000000000E-002   -2.913167683722466E-025
 -2.170000000000000E-002    2.708580545025235E-024
 -2.160000000000000E-002    6.379133023905454E-024
 -2.150000000000000E-002    1.061205347223760E-023
 -2.140000000000000E-002    1.521926858126041E-023
 -2.130000000000000E-002    1.992437318519310E-023
 -2.120000000000000E-002    2.435914549989066E-023
 -2.110000000000000E-002    2.806724771521322E-023
 -2.100000000000000E-002    3.051727907938713E-023
 -2.090000000000000E-002    3.112715985220466E-023
 -2.080000000000000E-002    2.930128808591368E-023
 -2.070000000000000E-002    2.448103969913607E-023
 -2.060000000000000E-002    1.620783161187969E-023
 -2.050000000000000E-002    4.196327691228685E-024
 -2.040000000000000E-002   -1.158667877982341E-023
 -2.030000000000000E-002   -3.084425030456043E-023
 -2.020000000000000E-002   -5.288077677013193E-023
 -2.010000000000000E-002   -7.655315577078250E-023
 -2.000000000000000E-002   -1.002528653615443E-022
 -1.990000000000000E-002   -1.219298686908283E-022
 -1.980000000000000E-002   -1.391678227350046E-022
 -1.970000000000000E-002   -1.493168542236324E-022
 -1.960000000000000E-002   -1.496853889687685E-022
 -1.950000000000000E-002   -1.377862005099731E-022
 -1.940000000000000E-002   -1.116244180443970E-022
 -1.930000000000000E-002   -7.000726340512238E-023
 -1.920000000000000E-002   -1.284779038055453E-023
 -1.910000000000000E-002    5.857136400193081E-023
 -1.900000000000000E-002    1.414117368867468E-022
 -1.890000000000000E-002    2.312079090543316E-022
 -1.880000000000000E-002    3.219447007334411E-022
 -1.870000000000000E-002    4.063063792550929E-022
 -1.860000000000000E-002    4.761074547119289E-022
 -1.850000000000000E-002    5.228958406466342E-022
 -1.840000000000000E-002    5.386977810822479E-022
 -1.830000000000000E-002    5.168514447973545E-022
 -1.820000000000000E-002    4.528556520333804E-022
 -1.810000000000000E-002    3.451436280974200E-022
 -1.800000000000000E-002    1.956836531726029E-022
 -1.790000000000000E-002    1.030987190075144E-023
 -1.780000000000000E-002   -2.012996793137856E-022
 -1.770000000000000E-002   -4.260547907043853E-022
 -1.760000000000000E-002   -6.483127635779735E-022
 -1.750000000000000E-002   -8.511370900877123E-022
 -1.740000000000000E-002   -1.017873000229743E-021
 -1.730000000000000E-002   -1.133905007220300E-021
 -1.720000000000000E-002   -1.188415692458946E-021
 -1.710000000000000E-002   -1.175933887425441E-021
 -1.700000000000000E-002   -1.097447201615958E-021
 -1.690000000000000E-002   -9.608689523548623E-022
 -1.680000000000000E-002   -7.806922810116690E-022
 -1.670000000000000E-002   -5.767326225621423E-022
 -1.660000000000000E-002   -3.719592354482512E-022
 -1.650000000000000E-002   -1.895226920098846E-022
 -1.640000000000000E-002   -4.921166517494012E-023
 -1.630000000000000E-002    3.631887588462252E-023
 -1.620000000000000E-002    6.511521695908258E-023
 -1.610000000000000E-002    4.879493016660274E-023
 -1.600000000000000E-002    1.421833744858029E-023
 -1.590000000000000E-002    3.509049492277797E-024
 -1.580000000000000E-002    7.207337770388621E-023
 -1.570000000000000E-002    2.844324656074003E-022
 -1.560000000000000E-002    7.078820953106695E-022
 -1.550000000000000E-002    1.404240243109164E-021
 -1.540000000000000E-002    2.420174115355784E-021
 -1.530000000000000E-002    3.776835032835582E-021
 -1.520000000000000E-002    5.459704605648312E-021
 -1.510000000000000E-002    7.409689406588342E-021
 -1.500000000000000E-002    9.516529383512678E-021
 -1.490000000000000E-002    1.161554106741083E-020
 -1.480000000000000E-002    1.348859053854255E-020
 -1.470000000000000E-002    1.486994936660914E-020
 -1.460000000000000E-002    1.545743368978942E-020
 -1.450000000000000E-002    1.492888892020078E-020
 -1.440000000000000E-002    1.296374948353460E-020
 -1.430000000000000E-002    9.269098640341436E-021
 -1.420000000000000E-002    3.609322060344007E-021
 -1.410000000000000E-002   -4.161781334701990E-021
 -1.400000000000000E-002   -1.406784899815947E-020
 -1.390000000000000E-002   -2.597735495501796E-020
 -1.380000000000000E-002   -3.957342590192349E-020
 -1.370000000000000E-002   -5.432817230140472E-020
 -1.360000000000000E-002   -6.948396913514135E-020
 -1.350000000000000E-002   -8.404443956072538E-020
 -1.340000000000000E-002   -9.677834245083668E-020
 -1.330000000000000E-002   -1.062398360724206E-019
 -1.320000000000000E-002   -1.108088807704197E-019
 -1.310000000000000E-002   -1.087555529672696E-019
 -1.300000000000000E-002   -9.833151135807618E-020
 -1.290000000000000E-002   -7.789096955699332E-020
 -1.280000000000000E-002   -4.604185753457967E-020
 -1.270000000000000E-002   -1.825147062203351E-021
 -1.260000000000000E-002    5.508268335520053E-020
 -1.250000000000000E-002    1.241537248126975E-019
 -1.240000000000000E-002    2.037931704870364E-019
 -1.230000000000000E-002    2.911436227014092E-019
 -1.220000000000000E-002    3.819327842514269E-019
 -1.210000000000000E-002    4.703922907605552E-019
 -1.200000000000000E-002    5.492775358544547E-019
 -1.190000000000000E-002    6.100177263679647E-019
 -1.180000000000000E-002    6.430229026230050E-019
 -1.170000000000000E-002    6.381668762459917E-019
 -1.160000000000000E-002    5.854544499947459E-019
 -1.150000000000000E-002    4.758667768297207E-019
 -1.140000000000000E-002    3.023593044272119E-019
 -1.130000000000000E-002    6.096701750273400E-020
 -1.120000000000000E-002   -2.480515103162980E-019
 -1.110000000000000E-002   -6.191201576315110E-019
 -1.100000000000000E-002   -1.040409386730817E-018
 -1.090000000000000E-002   -1.493178554480228E-018
 -1.080000000000000E-002   -1.951521885768642E-018
 -1.070000000000000E-002   -2.382637953707867E-018
 -1.060000000000000E-002   -2.747725015883102E-018
 -1.050000000000000E-002   -3.003574828007135E-018
 -1.040000000000000E-002   -3.104893680104179E-018
 -1.030000000000000E-002   -3.007325487224231E-018
 -1.020000000000000E-002   -2.671086010349631E-018
 -1.010000000000000E-002   -2.065050218185678E-018
 -1.000000000000000E-002   -1.171063941021915E-018
 -9.899999999999999E-003    1.181463286047670E-020
 -9.800000000000000E-003    1.463488584244491E-018
 -9.699999999999999E-003    3.139791283017865E-018
 -9.599999999999999E-003    4.970642559627754E-018
 -9.500000000000000E-003    6.859762783586751E-018
 -9.399999999999999E-003    8.686269890609106E-018
 -9.299999999999999E-003    1.030839785984549E-017
 -9.200000000000000E-003    1.156945370983589E-017
 -9.099999999999999E-003    1.230600708668722E-017
 -8.999999999999999E-003    1.235811281676460E-017
 -8.900000000000000E-003    1.158121870293164E-017
 -8.799999999999999E-003    9.859214013374465E-018
 -8.699999999999999E-003    7.117905595532539E-018
 -8.600000000000000E-003    3.338080716051096E-018
 -8.499999999999999E-003   -1.432811748963948E-018
 -8.399999999999999E-003   -7.071385385287819E-018
 -8.300000000000000E-003   -1.337246479856338E-017
 -8.199999999999999E-003   -2.004763328897173E-017
 -8.100000000000000E-003   -2.672900452173603E-017
 -8.000000000000000E-003   -3.297886268699785E-017
 -7.899999999999999E-003   -3.830553582379428E-017
 -7.800000000000000E-003   -4.218553776630329E-017
 -7.699999999999999E-003   -4.409164705653134E-017
 -7.599999999999999E-003   -4.352615868575623E-017
 -7.499999999999999E-003   -4.005813587851638E-017
 -7.399999999999999E-003   -3.336299703989800E-017
 -7.299999999999999E-003   -2.326245736543344E-017
 -7.199999999999999E-003   -9.762349232773219E-018
 -7.100000000000000E-003    6.914313050586240E-018
 -6.999999999999999E-003    2.630193200881685E-017
 -6.899999999999999E-003    4.767752459813747E-017
 -6.800000000000000E-003    7.005932237792359E-017
 -6.699999999999999E-003    9.222130254818272E-017
 -6.599999999999999E-003    1.127256932760594E-016
 -6.499999999999999E-003    1.299747016040350E-016
 -6.399999999999999E-003    1.422818343508556E-016
 -6.299999999999999E-003    1.479620033299712E-016
 -6.199999999999999E-003    1.454382111627554E-016
 -6.100000000000000E-003    1.333611967265166E-016
 -5.999999999999999E-003    1.107368325578810E-016
 -5.899999999999999E-003    7.705460985889954E-017
 -5.800000000000000E-003    3.240902595389605E-017
 -5.699999999999999E-003   -2.239529362082168E-017
 -5.599999999999999E-003   -8.576465515574360E-017
 -5.499999999999999E-003   -1.552737420163304E-016
 -5.399999999999999E-003   -2.276689887128212E-016
 -5.299999999999999E-003   -2.989264458084291E-016
 -5.199999999999999E-003   -3.643702408167781E-016
 -5.099999999999999E-003   -4.188552461053293E-016
 -4.999999999999999E-003   -4.570134470888277E-016
 -4.899999999999999E-003   -4.735594404966818E-016
 -4.799999999999999E-003   -4.636450490962814E-016
 -4.699999999999999E-003   -4.232486101920773E-016
 -4.599999999999999E-003   -3.495788213581614E-016
 -4.499999999999999E-003   -2.414687782672592E-016
 -4.399999999999999E-003   -9.973227077056373E-017
 -4.299999999999999E-003    7.254807800176968E-017
 -4.199999999999999E-003    2.698317877668829E-016
 -4.099999999999999E-003    4.840596288119817E-016
 -3.999999999999999E-003    7.047466536188853E-016
 -3.899999999999999E-003    9.192483853577873E-016
 -3.799999999999999E-003    1.113210624302151E-015
 -3.699999999999999E-003    1.271203355943625E-015
 -3.599999999999999E-003    1.377526192147859E-015
 -3.499999999999999E-003    1.417159735231001E-015
 -3.399999999999999E-003    1.376824245192454E-015
 -3.299999999999999E-003    1.246092296414550E-015
 -3.199999999999999E-003    1.018492816470800E-015
 -3.099999999999999E-003    6.925341473908975E-016
 -2.999999999999999E-003    2.725677907740692E-016
 -2.899999999999999E-003   -2.305847370590627E-016
 -2.799999999999999E-003   -7.993173560201437E-016
 -2.699999999999999E-003   -1.409300835364937E-015
 -2.599999999999999E-003   -2.029971828717265E-015
 -2.499999999999999E-003   -2.625478830405683E-015
 -2.399999999999999E-003   -3.156091409185036E-015
 -2.299999999999999E-003   -3.580050325522116E-015
 -2.199999999999999E-003   -3.855807509490787E-015
 -2.099999999999999E-003   -3.944571676298948E-015
 -1.999999999999999E-003   -3.813049819744827E-015
 -1.899999999999999E-003   -3.436241834471076E-015
 -1.799999999999999E-003   -2.800133189096683E-015
 -1.699999999999999E-003   -1.904105100238633E-015
 -1.599999999999999E-003   -7.628850669001175E-016
 -1.499999999999999E-003    5.921439209136312E-016
 -1.399999999999999E-003    2.112438703262488E-015
 -1.299999999999999E-003    3.732734128027180E-015
 -1.199999999999999E-003    5.372528249350216E-015
 -1.099999999999999E-003    6.938670865436539E-015
 -9.999999999999989E-004    8.329054660533794E-015
 -8.999999999999990E-004    9.437342848563299E-015
 -7.999999999999990E-004    1.015860412068013E-014
 -6.999999999999989E-004    1.039564980407954E-014
 -5.999999999999990E-004    1.006580039603676E-014
 -4.999999999999989E-004    9.107750401649350E-015
 -3.999999999999989E-004    7.488139287620253E-015
 -2.999999999999989E-004    5.207407999862341E-015
 -1.999999999999989E-004    2.304498977960786E-015
 -9.999999999999892E-005   -1.140045240331313E-015
  1.084202172485504E-018   -5.002977665273883E-015
  1.000000000000011E-004   -9.119602062299061E-015
  2.000000000000011E-004   -1.328762634031732E-014
  3.000000000000011E-004   -1.727376929563406E-014
  4.000000000000011E-004   -2.082310399059443E-014
  5.000000000000011E-004   -2.367097856326677E-014
  6.000000000000011E-004   -2.555715547037611E-014
  7.000000000000011E-004   -2.624164893761818E-014
  8.000000000000011E-004   -2.552153809150116E-014
  9.000000000000012E-004   -2.324789307459119E-014
  1.000000000000001E-003   -1.934181344619203E-014
  1.100000000000001E-003   -1.380848926920222E-014
  1.200000000000001E-003   -6.748177478558393E-015
  1.300000000000001E-003    1.636992589350187E-015
  1.400000000000001E-003    1.104135745418545E-014
  1.500000000000001E-003    2.105997625142542E-014
  1.600000000000001E-003    3.119933683054312E-014
  1.700000000000001E-003    4.089472693618706E-014
  1.800000000000001E-003    4.953406530689843E-014
  1.900000000000001E-003    5.648761031496595E-014
  2.000000000000001E-003    6.114249788425999E-014
  2.100000000000001E-003    6.294063816887578E-014
  2.200000000000001E-003    6.141813302369295E-014
  2.300000000000001E-003    5.624400751385176E-014
  2.400000000000001E-003    4.725591479218589E-014
  2.500000000000001E-003    3.449024653026783E-014
  2.600000000000001E-003    1.820422944611202E-014
  2.700000000000001E-003   -1.112263640485158E-015
  2.800000000000001E-003   -2.273708590124604E-014
  2.900000000000001E-003   -4.572979110594459E-014
  3.000000000000001E-003   -6.895991666623705E-014
  3.100000000000001E-003   -9.114957371078438E-014
  3.200000000000001E-003   -1.109294412904536E-013
  3.300000000000001E-003   -1.269064109780610E-013
  3.400000000000001E-003   -1.377402341502993E-013
  3.500000000000001E-003   -1.422257482630193E-013
  3.600000000000001E-003   -1.393764848344484E-013
  3.700000000000001E-003   -1.285050781186857E-013
  3.800000000000001E-003   -1.092954668630749E-013
  3.900000000000001E-003   -8.186195001880250E-014
  4.000000000000001E-003   -4.679027424877970E-014
  4.100000000000001E-003   -5.156611356693516E-015
  4.200000000000001E-003    4.147902003109613E-014
  4.300000000000001E-003    9.110719412760522E-014
  4.400000000000001E-003    1.413322608015960E-013
  4.500000000000001E-003    1.894638537936949E-013
  4.600000000000002E-003    2.326344270805480E-013
  4.700000000000001E-003    2.679390046950065E-013
  4.800000000000001E-003    2.925917004932557E-013
  4.900000000000002E-003    3.040920984359858E-013
  5.000000000000001E-003    3.003931123354614E-013
  5.100000000000001E-003    2.800614712353588E-013
  5.200000000000001E-003    2.424209438075089E-013
  5.300000000000002E-003    1.876688472271903E-013
  5.400000000000001E-003    1.169566516694960E-013
  5.500000000000001E-003    3.242635182917201E-014
  5.600000000000002E-003   -6.280379019349296E-014
  5.700000000000001E-003   -1.647085415001212E-013
  5.800000000000001E-003   -2.684819604458118E-013
  5.900000000000002E-003   -3.687195512184955E-013
  6.000000000000001E-003   -4.596519554404588E-013
  6.100000000000001E-003   -5.354225642382766E-013
  6.200000000000002E-003   -5.903984049847777E-013
  6.300000000000002E-003   -6.195003262278374E-013
  6.400000000000001E-003   -6.185362509804060E-013
  6.500000000000001E-003   -5.845193231795597E-013
  6.600000000000002E-003   -5.159518983812769E-013
  6.700000000000001E-003   -4.130561493276917E-013
  6.800000000000001E-003   -2.779326058659306E-013
  6.900000000000002E-003   -1.146315688313381E-013
  7.000000000000001E-003    7.087665987007002E-014
  7.100000000000001E-003    2.708391826045983E-013
  7.200000000000002E-003    4.759707194462347E-013
  7.300000000000002E-003    6.758116869349096E-013
  7.400000000000001E-003    8.591857144324317E-013
  7.500000000000001E-003    1.014740283507836E-012
  7.600000000000002E-003    1.131548088889659E-012
  7.700000000000001E-003    1.199741306166877E-012
  7.800000000000001E-003    1.211146579735563E-012
  7.900000000000001E-003    1.159885011871565E-012
  8.000000000000002E-003    1.042900828137090E-012
  8.100000000000001E-003    8.603825243821747E-013
  8.200000000000001E-003    6.160440047336557E-013
  8.300000000000002E-003    3.172369350192047E-013
  8.400000000000001E-003   -2.512543049500483E-014
  8.500000000000002E-003   -3.968458876882701E-013
  8.600000000000002E-003   -7.809239988495161E-013
  8.700000000000001E-003   -1.158229252136017E-012
  8.800000000000002E-003   -1.508347259260504E-012
  8.900000000000002E-003   -1.810564646685104E-012
  9.000000000000001E-003   -2.044952035230578E-012
  9.100000000000002E-003   -2.193491604747425E-012
  9.200000000000002E-003   -2.241192997451880E-012
  9.300000000000001E-003   -2.177135303618388E-012
  9.400000000000002E-003   -1.995373196948147E-012
  9.500000000000001E-003   -1.695648717620374E-012
  9.600000000000001E-003   -1.283854692966817E-012
  9.700000000000002E-003   -7.722072332323149E-013
  9.800000000000001E-003   -1.790968563259798E-013
  9.900000000000001E-003    4.713978677375750E-013
  1.000000000000000E-002    1.150332669459228E-012
  1.010000000000000E-002    1.825036938471641E-012
  1.020000000000000E-002    2.460532075123848E-012
  1.030000000000000E-002    3.021175337834767E-012
  1.040000000000000E-002    3.472458582812659E-012
  1.050000000000000E-002    3.782878845468361E-012
  1.060000000000000E-002    3.925789022165688E-012
  1.070000000000000E-002    3.881130058805343E-012
  1.080000000000000E-002    3.636948657097764E-012
  1.090000000000000E-002    3.190604016413851E-012
  1.100000000000000E-002    2.549582957594238E-012
  1.110000000000000E-002    1.731850440034283E-012
  1.120000000000000E-002    7.656861183988610E-013
  1.130000000000000E-002   -3.110189146574724E-013
  1.140000000000000E-002   -1.452010361788534E-012
  1.150000000000000E-002   -2.604434429236809E-012
  1.160000000000000E-002   -3.711066709705892E-012
  1.170000000000000E-002   -4.712920360775974E-012
  1.180000000000000E-002   -5.552127574134727E-012
  1.190000000000000E-002   -6.174966855186305E-012
  1.200000000000000E-002   -6.534886645316675E-012
  1.210000000000000E-002   -6.595371420828682E-012
  1.220000000000000E-002   -6.332493138016377E-012
  1.230000000000000E-002   -5.736988028885442E-012
  1.240000000000000E-002   -4.815725348282703E-012
  1.250000000000000E-002   -3.592445647016827E-012
  1.260000000000000E-002   -2.107684268720633E-012
  1.270000000000000E-002   -4.178245542323640E-013
  1.280000000000000E-002    1.406723085196245E-012
  1.290000000000000E-002    3.284183908600143E-012
  1.300000000000000E-002    5.124834982300773E-012
  1.310000000000000E-002    6.835049092354314E-012
  1.320000000000000E-002    8.321792876352557E-012
  1.330000000000000E-002    9.497373003311842E-012
  1.340000000000000E-002    1.028419750140706E-011
  1.350000000000000E-002    1.061930562236844E-011
  1.360000000000000E-002    1.045841464794568E-011
  1.370000000000000E-002    9.779246082954105E-012
  1.380000000000000E-002    8.583914929334901E-012
  1.390000000000000E-002    6.900206876584086E-012
  1.400000000000000E-002    4.781613984733343E-012
  1.410000000000000E-002    2.306067426006380E-012
  1.420000000000000E-002   -4.266421181512334E-013
  1.430000000000000E-002   -3.298682884805594E-012
  1.440000000000000E-002   -6.179106312777489E-012
  1.450000000000000E-002   -8.929671730648268E-012
  1.460000000000000E-002   -1.141131845158992E-011
  1.470000000000000E-002   -1.349097712619849E-011
  1.480000000000000E-002   -1.504839127072807E-011
  1.490000000000000E-002   -1.598260037368823E-011
  1.500000000000000E-002   -1.621773557690843E-011
  1.510000000000000E-002   -1.570782122573581E-011
  1.520000000000000E-002   -1.444028462989586E-011
  1.530000000000000E-002   -1.243796231821928E-011
  1.540000000000000E-002   -9.759444017831496E-012
  1.550000000000000E-002   -6.497675485076250E-012
  1.560000000000000E-002   -2.776844332284702E-012
  1.570000000000000E-002    1.252371943993036E-012
  1.580000000000000E-002    5.418989771178743E-012
  1.590000000000000E-002    9.539089339922434E-012
  1.600000000000000E-002    1.342403594666241E-011
  1.610000000000000E-002    1.688917120153182E-011
  1.620000000000000E-002    1.976256484587693E-011
  1.630000000000000E-002    2.189339299250502E-011
  1.640000000000000E-002    2.315953658054270E-011
  1.650000000000000E-002    2.347399119506809E-011
  1.660000000000000E-002    2.278975831310623E-011
  1.670000000000000E-002    2.110294664173363E-011
  1.680000000000000E-002    1.845388318052785E-011
  1.690000000000000E-002    1.492615205064346E-011
  1.700000000000000E-002    1.064354451323433E-011
  1.710000000000000E-002    5.765068278884697E-012
  1.720000000000000E-002    4.782015184017339E-013
  1.730000000000000E-002   -5.009277583105452E-012
  1.740000000000000E-002   -1.047851098037898E-011
  1.750000000000000E-002   -1.570935437103599E-011
  1.760000000000000E-002   -2.049026348634267E-011
  1.770000000000000E-002   -2.462774898824066E-011
  1.780000000000000E-002   -2.795490879507913E-011
  1.790000000000000E-002   -3.033856585564418E-011
  1.800000000000000E-002   -3.168462317520277E-011
  1.810000000000000E-002   -3.194134474180084E-011
  1.820000000000000E-002   -3.110036371456741E-011
  1.830000000000000E-002   -2.919537973578523E-011
  1.840000000000000E-002   -2.629861977578367E-011
  1.850000000000000E-002   -2.251528349289977E-011
  1.860000000000000E-002   -1.797638249851758E-011
  1.870000000000000E-002   -1.283038406549806E-011