 -4.000000000000000E-002    0.000000000000000E+000
 -3.990000000000000E-002    0.000000000000000E+000
 -3.980000000000000E-002    0.000000000000000E+000
 -3.970000000000000E-002    0.000000000000000E+000
 -3.960000000000000E-002    0.000000000000000E+000
 -3.950000000000000E-002    0.000000000000000E+000
 -3.940000000000000E-002    0.000000000000000E+000
 -3.930000000000000E-002    0.000000000000000E+000
 -3.920000000000000E-002    0.000000000000000E+000
 -3.910000000000000E-002    0.000000000000000E+000
 -3.900000000000000E-002    0.000000000000000E+000
 -3.890000000000000E-002    0.000000000000000E+000
 -3.880000000000000E-002    0.000000000000000E+000
 -3.870000000000000E-002    0.000000000000000E+000
 -3.860000000000000E-002    0.000000000000000E+000
 -3.850000000000000E-002    0.000000000000000E+000
 -3.840000000000000E-002    0.000000000000000E+000
 -3.830000000000000E-002    0.000000000000000E+000
 -3.820000000000000E-002    0.000000000000000E+000
 -3.810000000000000E-002    0.000000000000000E+000
 -3.800000000000000E-002    0.000000000000000E+000
 -3.790000000000000E-002    0.000000000000000E+000
 -3.780000000000000E-002    0.000000000000000E+000
 -3.770000000000000E-002    0.000000000000000E+000
 -3.760000000000000E-002    0.000000000000000E+000
 -3.750000000000000E-002    0.000000000000000E+000
 -3.740000000000000E-002    0.000000000000000E+000
 -3.730000000000000E-002    0.000000000000000E+000
 -3.720000000000000E-002    0.000000000000000E+000
 -3.710000000000000E-002    0.000000000000000E+000
 -3.700000000000000E-002    0.000000000000000E+000
 -3.690000000000000E-002    0.000000000000000E+000
 -3.680000000000000E-002    0.000000000000000E+000
 -3.670000000000000E-002    0.000000000000000E+000
 -3.660000000000000E-002    0.000000000000000E+000
 -3.650000000000000E-002    0.000000000000000E+000
 -3.640000000000000E-002    0.000000000000000E+000
 -3.630000000000000E-002    0.000000000000000E+000
 -3.620000000000000E-002    0.000000000000000E+000
 -3.610000000000000E-002    0.000000000000000E+000
 -3.600000000000000E-002    0.000000000000000E+000
 -3.590000000000000E-002    0.000000000000000E+000
 -3.580000000000000E-002    0.000000000000000E+000
 -3.570000000000000E-002    0.000000000000000E+000
 -3.560000000000000E-002    0.000000000000000E+000
 -3.550000000000000E-002    0.000000000000000E+000
 -3.540000000000000E-002    0.000000000000000E+000
 -3.530000000000000E-002    0.000000000000000E+000
 -3.520000000000000E-002    0.000000000000000E+000
 -3.510000000000000E-002    0.000000000000000E+000
 -3.500000000000000E-002    0.000000000000000E+000
 -3.490000000000000E-002    0.000000000000000E+000
 -3.480000000000000E-002    0.000000000000000E+000
 -3.470000000000000E-002    0.000000000000000E+000
 -3.460000000000000E-002    0.000000000000000E+000
 -3.450000000000000E-002    0.000000000000000E+000
 -3.440000000000000E-002    0.000000000000000E+000
 -3.430000000000000E-002    0.000000000000000E+000
 -3.420000000000000E-002    0.000000000000000E+000
 -3.410000000000000E-002    0.000000000000000E+000
 -3.400000000000000E-002    0.000000000000000E+000
 -3.390000000000000E-002    0.000000000000000E+000
 -3.380000000000000E-002    0.000000000000000E+000
 -3.370000000000000E-002    0.000000000000000E+000
 -3.360000000000000E-002    0.000000000000000E+000
 -3.350000000000000E-002    0.000000000000000E+000
 -3.340000000000000E-002    0.000000000000000E+000
 -3.330000000000000E-002    0.000000000000000E+000
 -3.320000000000000E-002    0.000000000000000E+000
 -3.310000000000000E-002    0.000000000000000E+000
 -3.300000000000000E-002    0.000000000000000E+000
 -3.290000000000000E-002    0.000000000000000E+000
 -3.280000000000000E-002    0.000000000000000E+000
 -3.270000000000000E-002    0.000000000000000E+000
 -3.260000000000000E-002    0.000000000000000E+000
 -3.250000000000000E-002    0.000000000000000E+000
 -3.240000000000000E-002    0.000000000000000E+000
 -3.230000000000000E-002    0.000000000000000E+000
 -3.220000000000000E-002    0.000000000000000E+000
 -3.210000000000000E-002    0.000000000000000E+000
 -3.200000000000000E-002    0.000000000000000E+000
 -3.190000000000000E-002    0.000000000000000E+000
 -3.180000000000000E-002    0.000000000000000E+000
 -3.170000000000000E-002    0.000000000000000E+000
 -3.160000000000000E-002    0.000000000000000E+000
 -3.150000000000000E-002    0.000000000000000E+000
 -3.140000000000000E-002    0.000000000000000E+000
 -3.130000000000000E-002    0.000000000000000E+000
 -3.120000000000000E-002    0.000000000000000E+000
 -3.110000000000000E-002    0.000000000000000E+000
 -3.100000000000000E-002    0.000000000000000E+000
 -3.090000000000000E-002    0.000000000000000E+000
 -3.080000000000000E-002    0.000000000000000E+000
 -3.070000000000000E-002    0.000000000000000E+000
 -3.060000000000000E-002    0.000000000000000E+000
 -3.050000000000000E-002    0.000000000000000E+000
 -3.040000000000000E-002    0.000000000000000E+000
 -3.030000000000000E-002    0.000000000000000E+000
 -3.020000000000000E-002    0.000000000000000E+000
 -3.010000000000000E-002    0.000000000000000E+000
 -3.000000000000000E-002    0.000000000000000E+000
 -2.990000000000000E-002    0.000000000000000E+000
 -2.980000000000000E-002    0.000000000000000E+000
 -2.970000000000000E-002    0.000000000000000E+000
 -2.960000000000000E-002    0.000000000000000E+000
 -2.950000000000000E-002    0.000000000000000E+000
 -2.940000000000000E-002    0.000000000000000E+000
 -2.930000000000000E-002    0.000000000000000E+000
 -2.920000000000000E-002    0.000000000000000E+000
 -2.910000000000000E-002    0.000000000000000E+000
 -2.900000000000000E-002    0.000000000000000E+000
 -2.890000000000000E-002    0.000000000000000E+000
 -2.880000000000000E-002    0.000000000000000E+000
 -2.870000000000000E-002    0.000000000000000E+000
 -2.860000000000000E-002    0.000000000000000E+000
 -2.850000000000000E-002    0.000000000000000E+000
 -2.840000000000000E-002    0.000000000000000E+000
 -2.830000000000000E-002    0.000000000000000E+000
 -2.820000000000000E-002    0.000000000000000E+000
 -2.810000000000000E-002    0.000000000000000E+000
 -2.800000000000000E-002    0.000000000000000E+000
 -2.790000000000000E-002    0.000000000000000E+000
 -2.780000000000000E-002    0.000000000000000E+000
 -2.770000000000000E-002    0.000000000000000E+000
 -2.760000000000000E-002    0.000000000000000E+000
 -2.750000000000000E-002    0.000000000000000E+000
 -2.740000000000000E-002    0.000000000000000E+000
 -2.730000000000000E-002    0.000000000000000E+000
 -2.720000000000000E-002    0.000000000000000E+000
 -2.710000000000000E-002    0.000000000000000E+000
 -2.700000000000000E-002    0.000000000000000E+000
 -2.690000000000000E-002    0.000000000000000E+000
 -2.680000000000000E-002    0.000000000000000E+000
 -2.670000000000000E-002    0.000000000000000E+000
 -2.660000000000000E-002    0.000000000000000E+000
 -2.650000000000000E-002    0.000000000000000E+000
 -2.640000000000000E-002    0.000000000000000E+000
 -2.630000000000000E-002    0.000000000000000E+000
 -2.620000000000000E-002    0.000000000000000E+000
 -2.610000000000000E-002    0.000000000000000E+000
 -2.600000000000000E-002    0.000000000000000E+000
 -2.590000000000000E-002    0.000000000000000E+000
 -2.580000000000000E-002    0.000000000000000E+000
 -2.570000000000000E-002    0.000000000000000E+000
 -2.560000000000000E-002    0.000000000000000E+000
 -2.550000000000000E-002    0.000000000000000E+000
 -2.540000000000000E-002    0.000000000000000E+000
 -2.530000000000000E-002    0.000000000000000E+000
 -2.520000000000000E-002    0.000000000000000E+000
 -2.510000000000000E-002    0.000000000000000E+000
 -2.500000000000000E-002    0.000000000000000E+000
 -2.490000000000000E-002    0.000000000000000E+000
 -2.480000000000000E-002    0.000000000000000E+000
 -2.470000000000000E-002    0.000000000000000E+000
 -2.460000000000000E-002    0.000000000000000E+000
 -2.450000000000000E-002    0.000000000000000E+000
 -2.440000000000000E-002    0.000000000000000E+000
 -2.430000000000000E-002    0.000000000000000E+000
 -2.420000000000000E-002    0.000000000000000E+000
 -2.410000000000000E-002    0.000000000000000E+000
 -2.400000000000000E-002    0.000000000000000E+000
 -2.390000000000000E-002    0.000000000000000E+000
 -2.380000000000000E-002    0.000000000000000E+000
 -2.370000000000000E-002    0.000000000000000E+000
 -2.360000000000000E-002    0.000000000000000E+000
 -2.350000000000000E-002    0.000000000000000E+000
 -2.340000000000000E-002    0.000000000000000E+000
 -2.330000000000000E-002    0.000000000000000E+000
 -2.320000000000000E-002    0.000000000000000E+000
 -2.310000000000000E-002    0.000000000000000E+000
 -2.300000000000000E-002    0.000000000000000E+000
 -2.290000000000000E-002    0.000000000000000E+000
 -2.280000000000000E-002    0.000000000000000E+000
 -2.270000000000000E-002    0.000000000000000E+000
 -2.260000000000000E-002    0.000000000000000E+000
 -2.250000000000000E-002    0.000000000000000E+000
 -2.240000000000000E-002    0.000000000000000E+000
 -2.230000000000000E-002    0.000000000000000E+000
 -2.220000000000000E-002    0.000000000000000E+000
 -2.210000000000000E-002    0.000000000000000E+000
 -2.200000000000000E-002    0.000000000000000E+000
 -2.190000000000000E-002    0.000000000000000E+000
 -2.180000000000000E-002    0.000000000000000E+000
 -2.170000000000000E-002    0.000000000000000E+000
 -2.160000000000000E-002    0.000000000000000E+000
 -2.150000000000000E-002    0.000000000000000E+000
 -2.140000000000000E-002    0.000000000000000E+000
 -2.130000000000000E-002    0.000000000000000E+000
 -2.120000000000000E-002    0.000000000000000E+000
 -2.110000000000000E-002    0.000000000000000E+000
 -2.100000000000000E-002    0.000000000000000E+000
 -2.090000000000000E-002    0.000000000000000E+000
 -2.080000000000000E-002    0.000000000000000E+000
 -2.070000000000000E-002    0.000000000000000E+000
 -2.060000000000000E-002    0.000000000000000E+000
 -2.050000000000000E-002    0.000000000000000E+000
 -2.040000000000000E-002    0.000000000000000E+000
 -2.030000000000000E-002    0.000000000000000E+000
 -2.020000000000000E-002    0.000000000000000E+000
 -2.010000000000000E-002    0.000000000000000E+000
 -2.000000000000000E-002    0.000000000000000E+000
 -1.990000000000000E-002    0.000000000000000E+000
 -1.980000000000000E-002    0.000000000000000E+000
 -1.970000000000000E-002    0.000000000000000E+000
 -1.960000000000000E-002    0.000000000000000E+000
 -1.950000000000000E-002    0.000000000000000E+000
 -1.940000000000000E-002    0.000000000000000E+000
 -1.930000000000000E-002    0.000000000000000E+000
 -1.920000000000000E-002   -6.414635304221270E-048
 -1.910000000000000E-002   -1.282927060844254E-047
 -1.900000000000000E-002   -3.868802447966698E-047
 -1.890000000000000E-002   -5.813214304667016E-047
 -1.880000000000000E-002   -7.757626161367333E-047
 -1.870000000000000E-002   -7.116162630945206E-047
 -1.860000000000000E-002   -5.191772039678825E-047
 -1.850000000000000E-002   -2.625917917990317E-047
 -1.840000000000000E-002    1.960876276548315E-046
 -1.830000000000000E-002    4.637373069277938E-046
 -1.820000000000000E-002    7.764896459846443E-046
 -1.810000000000000E-002    1.121715586871280E-045
 -1.800000000000000E-002    1.665140145041102E-045
 -1.790000000000000E-002    1.881351570238976E-045
 -1.780000000000000E-002    1.969697931706039E-045
 -1.770000000000000E-002    1.774344417117118E-045
 -1.760000000000000E-002   -4.089491215342551E-046
 -1.750000000000000E-002   -3.341724095246314E-045
 -1.740000000000000E-002   -7.246231273254764E-045
 -1.730000000000000E-002   -1.117782905851175E-044
 -1.720000000000000E-002   -1.621046720388547E-044
 -1.710000000000000E-002   -2.096377660162029E-044
 -1.700000000000000E-002   -2.396800700452962E-044
 -1.690000000000000E-002   -2.479014514980838E-044
 -1.680000000000000E-002   -2.193269847137491E-044
 -1.670000000000000E-002   -1.301981506474189E-044
 -1.660000000000000E-002    4.068627374235524E-045
 -1.650000000000000E-002    3.026187890144679E-044
 -1.640000000000000E-002    6.706995457891602E-044
 -1.630000000000000E-002    1.138791713829046E-043
 -1.620000000000000E-002    1.668805446905464E-043
 -1.610000000000000E-002    2.193695415636637E-043
 -1.600000000000000E-002    2.611833603767909E-043
 -1.590000000000000E-002    2.786961261547069E-043
 -1.580000000000000E-002    2.533282687149131E-043
 -1.570000000000000E-002    1.649013298389697E-043
 -1.560000000000000E-002   -6.132768665494596E-045
 -1.550000000000000E-002   -2.740200609798427E-043
 -1.540000000000000E-002   -6.449178155498327E-043
 -1.530000000000000E-002   -1.105079784291026E-042
 -1.520000000000000E-002   -1.615977260010114E-042
 -1.510000000000000E-002   -2.109061493617131E-042
 -1.500000000000000E-002   -2.479352178513863E-042
 -1.490000000000000E-002   -2.588102082812489E-042
 -1.480000000000000E-002   -2.269014955948865E-042
 -1.470000000000000E-002   -1.345936390400489E-042
 -1.460000000000000E-002    3.350696124789131E-043
 -1.450000000000000E-002    2.868015530544792E-042
 -1.440000000000000E-002    6.232847121399545E-042
 -1.430000000000000E-002    1.024245250061335E-041
 -1.420000000000000E-002    1.448732655463709E-041
 -1.410000000000000E-002    1.830116354582903E-041
 -1.400000000000000E-002    2.075417650523244E-041
 -1.390000000000000E-002    2.069519440452841E-041
 -1.380000000000000E-002    1.685627070449442E-041
 -1.370000000000000E-002    8.034069333022546E-042
 -1.360000000000000E-002   -6.654614525963418E-042
 -1.350000000000000E-002   -2.745419662937512E-041
 -1.340000000000000E-002   -5.361808613293731E-041
 -1.330000000000000E-002   -8.307130071444647E-041
 -1.320000000000000E-002   -1.121679195196547E-040
 -1.310000000000000E-002   -1.356159468400823E-040
 -1.300000000000000E-002   -1.466764487216150E-040
 -1.290000000000000E-002   -1.377061029873997E-040
 -1.280000000000000E-002   -1.011052593539902E-040
 -1.270000000000000E-002   -3.066788153458206E-041
 -1.260000000000000E-002    7.672798859047868E-041
 -1.250000000000000E-002    2.192635354763102E-040
 -1.240000000000000E-002    3.883997971344063E-040
 -1.230000000000000E-002    5.675228847396908E-040
 -1.220000000000000E-002    7.314191732610747E-040
 -1.210000000000000E-002    8.469954029354243E-040
 -1.200000000000000E-002    8.755911007359346E-040
 -1.190000000000000E-002    7.771017781837708E-040
 -1.180000000000000E-002    5.159063260853823E-040
 -1.170000000000000E-002    6.825363228482695E-041
 -1.160000000000000E-002   -5.695383970833718E-040
 -1.150000000000000E-002   -1.373129911092951E-039
 -1.140000000000000E-002   -2.283769336281030E-039
 -1.130000000000000E-002   -3.205005140301547E-039
 -1.120000000000000E-002   -4.003986497606716E-039
 -1.110000000000000E-002   -4.518627624064709E-039
 -1.100000000000000E-002   -4.571377722448170E-039
 -1.090000000000000E-002   -3.989568112843088E-039
 -1.080000000000000E-002   -2.631364283404721E-039
 -1.070000000000000E-002   -4.152800246703674E-040
 -1.060000000000000E-002    2.649788937054972E-039
 -1.050000000000000E-002    6.437864073073539E-039
 -1.040000000000000E-002    1.068683561527914E-038
 -1.030000000000000E-002    1.499136874497967E-038
 -1.020000000000000E-002    1.881153226931441E-038
 -1.010000000000000E-002    2.149988393191881E-038
 -1.000000000000000E-002    2.234819900792052E-038
 -9.899999999999999E-003    2.065331964679680E-038
 -9.800000000000000E-003    1.579960280323745E-038
 -9.699999999999999E-003    7.353649671173888E-039
 -9.599999999999999E-003   -4.834836681328601E-039
 -9.500000000000000E-003   -2.053368314534325E-038
 -9.399999999999999E-003   -3.903957898257960E-038
 -9.299999999999999E-003   -5.911063672691538E-038
 -9.200000000000000E-003   -7.893229851227070E-038
 -9.099999999999999E-003   -9.613009109346567E-038
 -8.999999999999999E-003   -1.078438255861972E-037
 -8.900000000000000E-003   -1.108779749114447E-037
 -8.799999999999999E-003   -1.019411196453658E-037
 -8.699999999999999E-003   -7.798241498594854E-038
 -8.600000000000000E-003   -3.662390660232957E-038
 -8.499999999999999E-003    2.332643643702274E-038
 -8.399999999999999E-003    1.013147869347290E-037
 -8.300000000000000E-003    1.944905992891279E-037
 -8.199999999999999E-003    2.972425247046999E-037
 -8.100000000000000E-003    4.009174831799674E-037
 -8.000000000000000E-003    4.938266788403352E-037
 -7.899999999999999E-003    5.616355515318461E-037
 -7.800000000000000E-003    5.882080480070037E-037
 -7.699999999999999E-003    5.569269669076390E-037
 -7.599999999999999E-003    4.524476582791499E-037
 -7.499999999999999E-003    2.627663194514079E-037
 -7.399999999999999E-003   -1.858432235016297E-038
 -7.299999999999999E-003   -3.904491556494942E-037
 -7.199999999999999E-003   -8.423202896770079E-037
 -7.100000000000000E-003   -1.353164830414457E-036
 -6.999999999999999E-003   -1.890921055644352E-036
 -6.899999999999999E-003   -2.412636954190295E-036
 -6.800000000000000E-003   -2.865090432517768E-036
 -6.699999999999999E-003   -3.185633387840002E-036
 -6.599999999999999E-003   -3.303021188018605E-036
 -6.499999999999999E-003   -3.138160426563633E-036
 -6.399999999999999E-003   -2.605089817366062E-036
 -6.299999999999999E-003   -1.613063026304217E-036
 -6.199999999999999E-003   -7.127718752795290E-038
 -6.100000000000000E-003    2.101610304008496E-036
 -5.999999999999999E-003    4.960703400792570E-036
 -5.899999999999999E-003    8.508648897021190E-036
 -5.800000000000000E-003    1.265893454696278E-035
 -5.699999999999999E-003    1.718997124167350E-035
 -5.599999999999999E-003    2.169458969670919E-035
 -5.499999999999999E-003    2.553400865260126E-035
 -5.399999999999999E-003    2.780996779303347E-035
 -5.299999999999999E-003    2.737286750089870E-035
 -5.199999999999999E-003    2.288589650884100E-035
 -5.099999999999999E-003    1.296386303325002E-035
 -4.999999999999999E-003   -3.600618779691309E-036
 -4.899999999999999E-003   -2.752300559403244E-035
 -4.799999999999999E-003   -5.864220285200872E-035
 -4.699999999999999E-003   -9.550602629748353E-035
 -4.599999999999999E-003   -1.349928165949566E-034
 -4.499999999999999E-003   -1.720590364969687E-034
 -4.399999999999999E-003   -1.997189142233666E-034
 -4.299999999999999E-003   -2.093646013430674E-034
 -4.199999999999999E-003   -1.915174625353130E-034
 -4.099999999999999E-003   -1.370586646822705E-034
 -3.999999999999999E-003   -3.891827521260265E-035
 -3.899999999999999E-003    1.058900418573553E-034
 -3.799999999999999E-003    2.941084106014744E-034
 -3.699999999999999E-003    5.142741518307339E-034
 -3.599999999999999E-003    7.453725970100232E-034
 -3.499999999999999E-003    9.565586660107454E-034
 -3.399999999999999E-003    1.108382666787134E-033
 -3.299999999999999E-003    1.155848293884260E-033
 -3.199999999999999E-003    1.053433912027767E-033
 -3.099999999999999E-003    7.619245625411511E-034
 -2.999999999999999E-003    2.565533741617849E-034
 -2.899999999999999E-003   -4.644160449796923E-034
 -2.799999999999999E-003   -1.371870384794797E-033
 -2.699999999999999E-003   -2.400227279461962E-033
 -2.599999999999999E-003   -3.445512853200933E-033
 -2.499999999999999E-003   -4.368479958060108E-033
 -2.399999999999999E-003   -5.003689958419686E-033
 -2.299999999999999E-003   -5.174831625042408E-033
 -2.199999999999999E-003   -4.715691423971578E-033
 -2.099999999999999E-003   -3.495239821470491E-033
 -1.999999999999999E-003   -1.444377067780881E-033
 -1.899999999999999E-003    1.418853938056779E-033
 -1.799999999999999E-003    4.969191667840364E-033
 -1.699999999999999E-003    8.962778891004856E-033
 -1.599999999999999E-003    1.303752012459420E-032
 -1.499999999999999E-003    1.672720514119831E-032
 -1.399999999999999E-003    1.949007393162110E-032
 -1.299999999999999E-003    2.075098243212379E-032
 -1.199999999999999E-003    1.995486682663122E-032
 -1.099999999999999E-003    1.662806820638195E-032
 -9.999999999999989E-004    1.044338519536479E-032
 -8.999999999999990E-004    1.284557844098620E-033
 -7.999999999999990E-004   -1.069383283885664E-032
 -6.999999999999989E-004   -2.501469289943717E-032
 -5.999999999999990E-004   -4.083843427278097E-032
 -4.999999999999989E-004   -5.693860581449279E-032
 -3.999999999999989E-004   -7.169855889195467E-032
 -2.999999999999989E-004   -8.313704378834448E-032
 -1.999999999999989E-004   -8.897382482472224E-032
 -9.999999999999892E-005   -8.674947930030108E-032
  1.084202172485504E-018   -7.401508396731283E-032
  1.000000000000011E-004   -4.860586663355642E-032
  2.000000000000011E-004   -9.006321474419970E-033
  3.000000000000011E-004    4.519879088581811E-032
  4.000000000000011E-004    1.128132490941392E-031
  5.000000000000011E-004    1.905097186386825E-031
  6.000000000000011E-004    2.723830224571218E-031
  7.000000000000011E-004    3.496859900009384E-031
  8.000000000000011E-004    4.108777712565579E-031
  9.000000000000012E-004    4.421187248249027E-031
  1.000000000000001E-003    4.283271937109025E-031
  1.100000000000001E-003    3.548639198912096E-031
  1.200000000000001E-003    2.098284605582151E-031
  1.300000000000001E-003   -1.315986852554297E-032
  1.400000000000001E-003   -3.119564962812538E-031
  1.500000000000001E-003   -6.730585668272856E-031
  1.600000000000001E-003   -1.069459041363029E-030
  1.700000000000001E-003   -1.459774662601203E-030
  1.800000000000001E-003   -1.789231398950992E-030
  1.900000000000001E-003   -1.992989202424842E-030
  2.000000000000001E-003   -2.002074361067448E-030
  2.100000000000001E-003   -1.751859698249165E-030
  2.200000000000001E-003   -1.192619170486829E-030
  2.300000000000001E-003   -3.012134561192350E-031
  2.400000000000001E-003    9.074854059063328E-031
  2.500000000000001E-003    2.371185111769849E-030
  2.600000000000001E-003    3.974724512097202E-030
  2.700000000000001E-003    5.550469958971084E-030
  2.800000000000001E-003    6.886083033422137E-030
  2.900000000000001E-003    7.740512184924405E-030
  3.000000000000001E-003    7.868090388907860E-030
  3.100000000000001E-003    7.049461163558934E-030
  3.200000000000001E-003    5.126797025637377E-030
  3.300000000000001E-003    2.039634887592725E-030
  3.400000000000001E-003   -2.143231434785210E-030
  3.500000000000001E-003   -7.200763592880248E-030
  3.600000000000001E-003   -1.275038982278104E-029
  3.700000000000001E-003   -1.825635311471926E-029
  3.800000000000001E-003   -2.305814319799346E-029
  3.900000000000001E-003   -2.641944068998973E-029
  4.000000000000001E-003   -2.759564241214499E-029
  4.100000000000001E-003   -2.591564649481047E-029
  4.200000000000001E-003   -2.087141416135375E-029
  4.300000000000001E-003   -1.220719752203866E-029
  4.400000000000001E-003    5.678245610010338E-034
  4.500000000000001E-003    1.528175867300250E-029
  4.600000000000002E-003    3.273776223920597E-029
  4.700000000000001E-003    5.104026649529346E-029
  4.800000000000001E-003    6.846870558912157E-029
  4.900000000000002E-003    8.298939086448683E-029
  5.000000000000001E-003    9.237738434108948E-029
  5.100000000000001E-003    9.438022406957814E-029
  5.200000000000001E-003    8.692061340769881E-029
  5.300000000000002E-003    6.833286755066352E-029
  5.400000000000001E-003    3.762466017582502E-029
  5.500000000000001E-003   -5.248895660615896E-030
  5.600000000000002E-003   -5.911796576754175E-029
  5.700000000000001E-003   -1.213644060971255E-028
  5.800000000000001E-003   -1.877574208138217E-028
  5.900000000000002E-003   -2.524021776693803E-028
  6.000000000000001E-003   -3.078510661702657E-028
  6.100000000000001E-003   -3.454273691431676E-028
  6.200000000000002E-003   -3.558040213272040E-028
  6.300000000000002E-003   -3.298616017793653E-028
  6.400000000000001E-003   -2.598191318188621E-028
  6.500000000000001E-003   -1.405892804257518E-028
  6.600000000000002E-003    2.874334616611713E-029
  6.700000000000001E-003    2.434772017479452E-028
  6.800000000000001E-003    4.920921804632958E-028
  6.900000000000002E-003    7.555388805032212E-028
  7.000000000000001E-003    1.007279566126194E-027
  7.100000000000001E-003    1.214319609546682E-027
  7.200000000000002E-003    1.339400644748112E-027
  7.300000000000002E-003    1.344413828671935E-027
  7.400000000000001E-003    1.194935268314157E-027
  7.500000000000001E-003    8.655972080332648E-028
  7.600000000000002E-003    3.458096993812234E-028
  7.700000000000001E-003   -3.548361662073150E-028
  7.800000000000001E-003   -1.202288053220972E-027
  7.900000000000001E-003   -2.135737496465333E-027
  8.000000000000002E-003   -3.068120222350627E-027
  8.100000000000001E-003   -3.890047048870649E-027
  8.200000000000001E-003   -4.477494776347901E-027
  8.300000000000002E-003   -4.703170838892674E-027
  8.400000000000001E-003   -4.450966230352339E-027
  8.500000000000002E-003   -3.632389249821413E-027
  8.600000000000002E-003   -2.203392320002342E-027
  8.700000000000001E-003   -1.796299586974499E-028
  8.800000000000002E-003    2.351998937931899E-027
  8.900000000000002E-003    5.227627786186633E-027
  9.000000000000001E-003    8.208307492550081E-027
  9.100000000000002E-003    1.099071071607886E-026
  9.200000000000002E-003    1.322706553175680E-026
  9.300000000000001E-003    1.455375671923421E-026
  9.400000000000002E-003    1.462700874265028E-026
  9.500000000000001E-003    1.316308284414718E-026
  9.600000000000001E-003    9.979606236588050E-027
  9.700000000000002E-003    5.034086265852425E-027
  9.800000000000001E-003   -1.544567957642844E-027
  9.900000000000001E-003   -9.435558574102350E-027
  1.000000000000000E-002   -1.812031926786811E-026
  1.010000000000000E-002   -2.689400891406308E-026
  1.020000000000000E-002   -3.489611810326648E-026
  1.030000000000000E-002   -4.116069928486981E-026
  1.040000000000000E-002   -4.468542473876707E-026
  1.050000000000000E-002   -4.451724652375494E-026
  1.060000000000000E-002   -3.985100948664055E-026
  1.070000000000000E-002   -3.013578081745964E-026
  1.080000000000000E-002   -1.518207085961709E-026
  1.090000000000000E-002    4.738595268486540E-027
  1.100000000000000E-002    2.881198264127404E-026
  1.110000000000000E-002    5.562903782567629E-026
  1.120000000000000E-002    8.317611832160083E-026
  1.130000000000000E-002    1.088803999763153E-025
  1.140000000000000E-002    1.297220406413368E-025
  1.150000000000000E-002    1.424214832645457E-025
  1.160000000000000E-002    1.437048564173938E-025
  1.170000000000000E-002    1.306424192260512E-025
  1.180000000000000E-002    1.010447419760008E-025
  1.190000000000000E-002    5.388933716510166E-026
  1.200000000000000E-002   -1.026202166071403E-026
  1.210000000000000E-002   -8.890653989238730E-026
  1.220000000000000E-002   -1.773635224255777E-025
  1.230000000000000E-002   -2.687196074885837E-025
  1.240000000000000E-002   -3.540136891982187E-025
  1.250000000000000E-002   -4.227052429359643E-025
  1.260000000000000E-002   -4.634461897486247E-025
  1.270000000000000E-002   -4.651441115149019E-025
  1.280000000000000E-002   -4.182643057067201E-025
  1.290000000000000E-002   -3.162756007771851E-025
  1.300000000000000E-002   -1.571028121147107E-025
  1.310000000000000E-002    5.558505552915362E-026
  1.320000000000000E-002    3.114415651112492E-025
  1.330000000000000E-002    5.930559627589343E-025
  1.340000000000000E-002    8.762805295175176E-025
  1.350000000000000E-002    1.131390347950601E-024
  1.360000000000000E-002    1.325119483814199E-024
  1.370000000000000E-002    1.423524831996976E-024
  1.380000000000000E-002    1.395520374235289E-024
  1.390000000000000E-002    1.216820788044224E-024
  1.400000000000000E-002    8.739351229557063E-025
  1.410000000000000E-002    3.677832105358789E-025
  1.420000000000000E-002   -2.835264554549388E-025
  1.430000000000000E-002   -1.043205549296134E-024
  1.440000000000000E-002   -1.855964678603337E-024
  1.450000000000000E-002   -2.650132166082679E-024
  1.460000000000000E-002   -3.341822705278273E-024
  1.470000000000000E-002   -3.841076389789680E-024
  1.480000000000000E-002   -4.059680918845980E-024
  1.490000000000000E-002   -3.920184426680870E-024
  1.500000000000000E-002   -3.365428295308253E-024
  1.510000000000000E-002   -2.367784021100901E-024
  1.520000000000000E-002   -9.371958101250182E-025
  1.530000000000000E-002    8.728897453276708E-025
  1.540000000000000E-002    2.962571556258798E-024
  1.550000000000000E-002    5.186258425196519E-024
  1.560000000000000E-002    7.357694728603402E-024
  1.570000000000000E-002    9.259530943398946E-024
  1.580000000000000E-002    1.065741397266453E-023
  1.590000000000000E-002    1.131821006319737E-023
  1.600000000000000E-002    1.103158422030971E-023
  1.610000000000000E-002    9.633749820229369E-024
  1.620000000000000E-002    7.031790023490492E-024
  1.630000000000000E-002    3.226569037638400E-024
  1.640000000000000E-002   -1.668070030808118E-024
  1.650000000000000E-002   -7.412340710232999E-024
  1.660000000000000E-002   -1.363635675878182E-023
  1.670000000000000E-002   -1.984718376965557E-023
  1.680000000000000E-002   -2.544904606462811E-023
  1.690000000000000E-002   -2.977788027979929E-023
  1.700000000000000E-002   -3.215027249090398E-023
  1.710000000000000E-002   -3.192540413388624E-023
  1.720000000000000E-002   -2.857691083240661E-023
  1.730000000000000E-002   -2.176973432225782E-023
  1.740000000000000E-002   -1.143526995234188E-023
  1.750000000000000E-002    2.163390055264250E-024
  1.760000000000000E-002    1.838524838056448E-023
  1.770000000000000E-002    3.619349814736940E-023
  1.780000000000000E-002    5.417429715097502E-023
  1.790000000000000E-002    7.059851455842770E-023
  1.800000000000000E-002    8.352944282925596E-023
  1.810000000000000E-002    9.097506917636484E-023
  1.820000000000000E-002    9.107829991254017E-023
  1.830000000000000E-002    8.233290893722283E-023
  1.840000000000000E-002    6.380767620120285E-023
  1.850000000000000E-002    3.535665988398192E-023
  1.860000000000000E-002   -2.209352216704334E-024
  1.870000000000000E-002   -4.701579489243588E-023