 -4.000000000000000E-002    0.000000000000000E+000
 -3.990000000000000E-002    0.000000000000000E+000
 -3.980000000000000E-002    0.000000000000000E+000
 -3.970000000000000E-002    0.000000000000000E+000
 -3.960000000000000E-002    0.000000000000000E+000
 -3.950000000000000E-002    0.000000000000000E+000
 -3.940000000000000E-002    0.000000000000000E+000
 -3.930000000000000E-002    0.000000000000000E+000
 -3.920000000000000E-002    0.000000000000000E+000
 -3.910000000000000E-002    0.000000000000000E+000
 -3.900000000000000E-002    0.000000000000000E+000
 -3.890000000000000E-002    0.000000000000000E+000
 -3.880000000000000E-002    0.000000000000000E+000
 -3.870000000000000E-002    0.000000000000000E+000
 -3.860000000000000E-002    0.000000000000000E+000
 -3.850000000000000E-002    0.000000000000000E+000
 -3.840000000000000E-002    0.000000000000000E+000
 -3.830000000000000E-002    0.000000000000000E+000
 -3.820000000000000E-002    0.000000000000000E+000
 -3.810000000000000E-002    0.000000000000000E+000
 -3.800000000000000E-002    0.000000000000000E+000
 -3.790000000000000E-002    0.000000000000000E+000
 -3.780000000000000E-002    0.000000000000000E+000
 -3.770000000000000E-002    0.000000000000000E+000
 -3.760000000000000E-002    0.000000000000000E+000
 -3.750000000000000E-002    0.000000000000000E+000
 -3.740000000000000E-002    0.000000000000000E+000
 -3.730000000000000E-002    0.000000000000000E+000
 -3.720000000000000E-002    0.000000000000000E+000
 -3.710000000000000E-002    0.000000000000000E+000
 -3.700000000000000E-002    0.000000000000000E+000
 -3.690000000000000E-002    0.000000000000000E+000
 -3.680000000000000E-002    0.000000000000000E+000
 -3.670000000000000E-002    0.000000000000000E+000
 -3.660000000000000E-002    0.000000000000000E+000
 -3.650000000000000E-002    0.000000000000000E+000
 -3.640000000000000E-002    0.000000000000000E+000
 -3.630000000000000E-002    0.000000000000000E+000
 -3.620000000000000E-002    0.000000000000000E+000
 -3.610000000000000E-002    0.000000000000000E+000
 -3.600000000000000E-002    0.000000000000000E+000
 -3.590000000000000E-002    0.000000000000000E+000
 -3.580000000000000E-002    0.000000000000000E+000
 -3.570000000000000E-002    0.000000000000000E+000
 -3.560000000000000E-002    0.000000000000000E+000
 -3.550000000000000E-002    0.000000000000000E+000
 -3.540000000000000E-002    0.000000000000000E+000
 -3.530000000000000E-002    0.000000000000000E+000
 -3.520000000000000E-002    0.000000000000000E+000
 -3.510000000000000E-002    0.000000000000000E+000
 -3.500000000000000E-002    0.000000000000000E+000
 -3.490000000000000E-002    0.000000000000000E+000
 -3.480000000000000E-002    0.000000000000000E+000
 -3.470000000000000E-002    0.000000000000000E+000
 -3.460000000000000E-002    0.000000000000000E+000
 -3.450000000000000E-002    0.000000000000000E+000
 -3.440000000000000E-002    0.000000000000000E+000
 -3.430000000000000E-002    0.000000000000000E+000
 -3.420000000000000E-002    0.000000000000000E+000
 -3.410000000000000E-002    0.000000000000000E+000
 -3.400000000000000E-002    0.000000000000000E+000
 -3.390000000000000E-002    0.000000000000000E+000
 -3.380000000000000E-002    0.000000000000000E+000
 -3.370000000000000E-002    0.000000000000000E+000
 -3.360000000000000E-002    0.000000000000000E+000
 -3.350000000000000E-002    0.000000000000000E+000
 -3.340000000000000E-002    0.000000000000000E+000
 -3.330000000000000E-002    0.000000000000000E+000
 -3.320000000000000E-002    0.000000000000000E+000
 -3.310000000000000E-002    0.000000000000000E+000
 -3.300000000000000E-002    0.000000000000000E+000
 -3.290000000000000E-002    0.000000000000000E+000
 -3.280000000000000E-002    0.000000000000000E+000
 -3.270000000000000E-002    0.000000000000000E+000
 -3.260000000000000E-002    0.000000000000000E+000
 -3.250000000000000E-002    0.000000000000000E+000
 -3.240000000000000E-002    0.000000000000000E+000
 -3.230000000000000E-002    0.000000000000000E+000
 -3.220000000000000E-002    0.000000000000000E+000
 -3.210000000000000E-002    0.000000000000000E+000
 -3.200000000000000E-002    0.000000000000000E+000
 -3.190000000000000E-002    0.000000000000000E+000
 -3.180000000000000E-002    0.000000000000000E+000
 -3.170000000000000E-002    0.000000000000000E+000
 -3.160000000000000E-002    0.000000000000000E+000
 -3.150000000000000E-002    0.000000000000000E+000
 -3.140000000000000E-002    0.000000000000000E+000
 -3.130000000000000E-002    0.000000000000000E+000
 -3.120000000000000E-002    0.000000000000000E+000
 -3.110000000000000E-002    0.000000000000000E+000
 -3.100000000000000E-002    0.000000000000000E+000
 -3.090000000000000E-002    0.000000000000000E+000
 -3.080000000000000E-002    0.000000000000000E+000
 -3.070000000000000E-002    0.000000000000000E+000
 -3.060000000000000E-002    0.000000000000000E+000
 -3.050000000000000E-002    0.000000000000000E+000
 -3.040000000000000E-002    0.000000000000000E+000
 -3.030000000000000E-002    0.000000000000000E+000
 -3.020000000000000E-002    0.000000000000000E+000
 -3.010000000000000E-002    0.000000000000000E+000
 -3.000000000000000E-002    0.000000000000000E+000
 -2.990000000000000E-002    0.000000000000000E+000
 -2.980000000000000E-002    0.000000000000000E+000
 -2.970000000000000E-002    0.000000000000000E+000
 -2.960000000000000E-002    0.000000000000000E+000
 -2.950000000000000E-002    0.000000000000000E+000
 -2.940000000000000E-002    0.000000000000000E+000
 -2.930000000000000E-002    0.000000000000000E+000
 -2.920000000000000E-002    0.000000000000000E+000
 -2.910000000000000E-002    0.000000000000000E+000
 -2.900000000000000E-002    0.000000000000000E+000
 -2.890000000000000E-002    0.000000000000000E+000
 -2.880000000000000E-002    0.000000000000000E+000
 -2.870000000000000E-002    0.000000000000000E+000
 -2.860000000000000E-002    0.000000000000000E+000
 -2.850000000000000E-002    0.000000000000000E+000
 -2.840000000000000E-002    0.000000000000000E+000
 -2.830000000000000E-002    0.000000000000000E+000
 -2.820000000000000E-002    0.000000000000000E+000
 -2.810000000000000E-002    0.000000000000000E+000
 -2.800000000000000E-002    0.000000000000000E+000
 -2.790000000000000E-002    0.000000000000000E+000
 -2.780000000000000E-002    0.000000000000000E+000
 -2.770000000000000E-002    0.000000000000000E+000
 -2.760000000000000E-002    0.000000000000000E+000
 -2.750000000000000E-002    0.000000000000000E+000
 -2.740000000000000E-002    0.000000000000000E+000
 -2.730000000000000E-002    0.000000000000000E+000
 -2.720000000000000E-002    0.000000000000000E+000
 -2.710000000000000E-002    0.000000000000000E+000
 -2.700000000000000E-002    0.000000000000000E+000
 -2.690000000000000E-002    0.000000000000000E+000
 -2.680000000000000E-002    0.000000000000000E+000
 -2.670000000000000E-002    0.000000000000000E+000
 -2.660000000000000E-002    0.000000000000000E+000
 -2.650000000000000E-002    0.000000000000000E+000
 -2.640000000000000E-002    0.000000000000000E+000
 -2.630000000000000E-002    0.000000000000000E+000
 -2.620000000000000E-002    0.000000000000000E+000
 -2.610000000000000E-002    0.000000000000000E+000
 -2.600000000000000E-002    0.000000000000000E+000
 -2.590000000000000E-002    0.000000000000000E+000
 -2.580000000000000E-002    0.000000000000000E+000
 -2.570000000000000E-002    0.000000000000000E+000
 -2.560000000000000E-002    0.000000000000000E+000
 -2.550000000000000E-002    0.000000000000000E+000
 -2.540000000000000E-002    0.000000000000000E+000
 -2.530000000000000E-002    0.000000000000000E+000
 -2.520000000000000E-002    0.000000000000000E+000
 -2.510000000000000E-002    0.000000000000000E+000
 -2.500000000000000E-002    0.000000000000000E+000
 -2.490000000000000E-002    0.000000000000000E+000
 -2.480000000000000E-002    0.000000000000000E+000
 -2.470000000000000E-002    0.000000000000000E+000
 -2.460000000000000E-002    0.000000000000000E+000
 -2.450000000000000E-002    0.000000000000000E+000
 -2.440000000000000E-002    0.000000000000000E+000
 -2.430000000000000E-002    0.000000000000000E+000
 -2.420000000000000E-002    0.000000000000000E+000
 -2.410000000000000E-002    0.000000000000000E+000
 -2.400000000000000E-002    0.000000000000000E+000
 -2.390000000000000E-002    0.000000000000000E+000
 -2.380000000000000E-002    0.000000000000000E+000
 -2.370000000000000E-002    0.000000000000000E+000
 -2.360000000000000E-002    0.000000000000000E+000
 -2.350000000000000E-002    0.000000000000000E+000
 -2.340000000000000E-002    0.000000000000000E+000
 -2.330000000000000E-002    0.000000000000000E+000
 -2.320000000000000E-002    0.000000000000000E+000
 -2.310000000000000E-002    0.000000000000000E+000
 -2.300000000000000E-002    0.000000000000000E+000
 -2.290000000000000E-002    0.000000000000000E+000
 -2.280000000000000E-002    0.000000000000000E+000
 -2.270000000000000E-002    0.000000000000000E+000
 -2.260000000000000E-002    0.000000000000000E+000
 -2.250000000000000E-002    0.000000000000000E+000
 -2.240000000000000E-002    0.000000000000000E+000
 -2.230000000000000E-002    0.000000000000000E+000
 -2.220000000000000E-002    0.000000000000000E+000
 -2.210000000000000E-002    0.000000000000000E+000
 -2.200000000000000E-002    0.000000000000000E+000
 -2.190000000000000E-002    0.000000000000000E+000
 -2.180000000000000E-002    0.000000000000000E+000
 -2.170000000000000E-002    0.000000000000000E+000
 -2.160000000000000E-002    0.000000000000000E+000
 -2.150000000000000E-002    0.000000000000000E+000
 -2.140000000000000E-002    0.000000000000000E+000
 -2.130000000000000E-002    0.000000000000000E+000
 -2.120000000000000E-002    0.000000000000000E+000
 -2.110000000000000E-002    0.000000000000000E+000
 -2.100000000000000E-002    0.000000000000000E+000
 -2.090000000000000E-002    0.000000000000000E+000
 -2.080000000000000E-002    0.000000000000000E+000
 -2.070000000000000E-002    0.000000000000000E+000
 -2.060000000000000E-002    0.000000000000000E+000
 -2.050000000000000E-002    0.000000000000000E+000
 -2.040000000000000E-002    0.000000000000000E+000
 -2.030000000000000E-002    0.000000000000000E+000
 -2.020000000000000E-002    0.000000000000000E+000
 -2.010000000000000E-002    0.000000000000000E+000
 -2.000000000000000E-002    0.000000000000000E+000
 -1.990000000000000E-002    0.000000000000000E+000
 -1.980000000000000E-002    0.000000000000000E+000
 -1.970000000000000E-002    0.000000000000000E+000
 -1.960000000000000E-002    0.000000000000000E+000
 -1.950000000000000E-002    0.000000000000000E+000
 -1.940000000000000E-002    0.000000000000000E+000
 -1.930000000000000E-002    0.000000000000000E+000
 -1.920000000000000E-002    0.000000000000000E+000
 -1.910000000000000E-002    0.000000000000000E+000
 -1.900000000000000E-002    0.000000000000000E+000
 -1.890000000000000E-002    0.000000000000000E+000
 -1.880000000000000E-002    0.000000000000000E+000
 -1.870000000000000E-002    0.000000000000000E+000
 -1.860000000000000E-002    0.000000000000000E+000
 -1.850000000000000E-002    0.000000000000000E+000
 -1.840000000000000E-002    0.000000000000000E+000
 -1.830000000000000E-002    0.000000000000000E+000
 -1.820000000000000E-002    0.000000000000000E+000
 -1.810000000000000E-002    0.000000000000000E+000
 -1.800000000000000E-002    0.000000000000000E+000
 -1.790000000000000E-002    0.000000000000000E+000
 -1.780000000000000E-002    0.000000000000000E+000
 -1.770000000000000E-002    2.138211768073757E-048
 -1.760000000000000E-002    2.138211768073757E-048
 -1.750000000000000E-002    2.138211768073757E-048
 -1.740000000000000E-002    2.138211768073757E-048
 -1.730000000000000E-002    0.000000000000000E+000
 -1.720000000000000E-002    2.204949319520211E-048
 -1.710000000000000E-002    2.271686870966666E-048
 -1.700000000000000E-002    1.730590679892942E-047
 -1.690000000000000E-002   -2.466978140676267E-047
 -1.680000000000000E-002   -7.312684246812247E-047
 -1.670000000000000E-002   -1.237221152975560E-046
 -1.660000000000000E-002   -1.452377080811865E-046
 -1.650000000000000E-002   -2.163346798418393E-046
 -1.640000000000000E-002   -2.314751578277589E-046
 -1.630000000000000E-002   -1.853293041438762E-046
 -1.620000000000000E-002    4.305892463655441E-047
 -1.610000000000000E-002    4.258132124911958E-046
 -1.600000000000000E-002    7.595888474292627E-046
 -1.590000000000000E-002    1.260426336947090E-045
 -1.580000000000000E-002    1.723418261206548E-045
 -1.570000000000000E-002    2.160644864166807E-045
 -1.560000000000000E-002    2.304709035391250E-045
 -1.550000000000000E-002    1.228857965533846E-045
 -1.540000000000000E-002   -4.052163152657881E-046
 -1.530000000000000E-002   -1.313845783234465E-045
 -1.520000000000000E-002   -3.051998270924816E-045
 -1.510000000000000E-002   -5.421341163926405E-045
 -1.500000000000000E-002   -8.091777739925657E-045
 -1.490000000000000E-002   -1.130797811430566E-044
 -1.480000000000000E-002   -1.378684768421132E-044
 -1.470000000000000E-002   -1.647144290903771E-044
 -1.460000000000000E-002   -1.673481203056731E-044
 -1.450000000000000E-002   -1.396151650192111E-044
 -1.440000000000000E-002   -8.225188392260209E-045
 -1.430000000000000E-002    2.454705999961223E-045
 -1.420000000000000E-002    1.865232620897856E-044
 -1.410000000000000E-002    4.055239731740090E-044
 -1.400000000000000E-002    6.642081393783168E-044
 -1.390000000000000E-002    9.369408385268186E-044
 -1.380000000000000E-002    1.188755220762105E-043
 -1.370000000000000E-002    1.363678315623761E-043
 -1.360000000000000E-002    1.403724169372163E-043
 -1.350000000000000E-002    1.234411433518921E-043
 -1.340000000000000E-002    7.618909771697756E-044
 -1.330000000000000E-002   -6.782979583076074E-045
 -1.320000000000000E-002   -1.294339572185724E-043
 -1.310000000000000E-002   -2.928521419122754E-043
 -1.300000000000000E-002   -4.887320478929945E-043
 -1.290000000000000E-002   -7.015906261771006E-043
 -1.280000000000000E-002   -9.058053435791521E-043
 -1.270000000000000E-002   -1.065095937669857E-042
 -1.260000000000000E-002   -1.131153130105458E-042
 -1.250000000000000E-002   -1.048307090814660E-042
 -1.240000000000000E-002   -7.553335851982296E-043
 -1.230000000000000E-002   -1.967723351368067E-043
 -1.220000000000000E-002    6.694971770995044E-043
 -1.210000000000000E-002    1.858649836606528E-042
 -1.200000000000000E-002    3.340257967251200E-042
 -1.190000000000000E-002    5.022677999489237E-042
 -1.180000000000000E-002    6.736107300324500E-042
 -1.170000000000000E-002    8.220990951769722E-042
 -1.160000000000000E-002    9.121079543577908E-042
 -1.150000000000000E-002    8.995690248928769E-042
 -1.140000000000000E-002    7.351264340075797E-042
 -1.130000000000000E-002    3.694028461963638E-042
 -1.120000000000000E-002   -2.387112114098501E-042
 -1.110000000000000E-002   -1.110444675511087E-041
 -1.100000000000000E-002   -2.233700420920813E-041
 -1.090000000000000E-002   -3.547780868799820E-041
 -1.080000000000000E-002   -4.929472240666685E-041
 -1.070000000000000E-002   -6.182665503490444E-041
 -1.060000000000000E-002   -7.035685363200829E-041
 -1.050000000000000E-002   -7.150565638026010E-041
 -1.040000000000000E-002   -6.148968879816390E-041
 -1.030000000000000E-002   -3.657480004106090E-041
 -1.020000000000000E-002    6.257726600021299E-042
 -1.010000000000000E-002    6.845071729733152E-041
 -1.000000000000000E-002    1.488782939182975E-040
 -9.899999999999999E-003    2.428334854701919E-040
 -9.800000000000000E-003    3.411614393946303E-040
 -9.699999999999999E-003    4.297670603075800E-040
 -9.599999999999999E-003    4.897380752869866E-040
 -9.500000000000000E-003    4.983351162464276E-040
 -9.399999999999999E-003    4.310655899087606E-040
 -9.299999999999999E-003    2.649511332371241E-040
 -9.200000000000000E-003   -1.705405822659867E-041
 -9.099999999999999E-003   -4.207470032630304E-040
 -8.999999999999999E-003   -9.349676148014904E-040
 -8.900000000000000E-003   -1.526263673918497E-039
 -8.799999999999999E-003   -2.134935670379453E-039
 -8.699999999999999E-003   -2.673648289459882E-039
 -8.600000000000000E-003   -3.029804820119975E-039
 -8.499999999999999E-003   -3.072774640491844E-039
 -8.399999999999999E-003   -2.666705157117656E-039
 -8.300000000000000E-003   -1.689071230505522E-039
 -8.199999999999999E-003   -5.431929671500383E-041
 -8.100000000000000E-003    2.259001337235191E-039
 -8.000000000000000E-003    5.180292826079671E-039
 -7.899999999999999E-003    8.521849729269310E-039
 -7.800000000000000E-003    1.196125516050619E-038
 -7.699999999999999E-003    1.503635030005742E-038
 -7.599999999999999E-003    1.715794110979455E-038
 -7.499999999999999E-003    1.764486583836757E-038
 -7.399999999999999E-003    1.578470813595743E-038
 -7.299999999999999E-003    1.092135848778070E-038
 -7.199999999999999E-003    2.567600810824268E-039
 -7.100000000000000E-003   -9.462813385742798E-039
 -6.999999999999999E-003   -2.491368734796198E-038
 -6.899999999999999E-003   -4.295047654332253E-038
 -6.800000000000000E-003   -6.205005872245315E-038
 -6.699999999999999E-003   -7.994093192835427E-038
 -6.599999999999999E-003   -9.362215434357993E-038
 -6.499999999999999E-003   -9.949056917102684E-038
 -6.399999999999999E-003   -9.360377917799206E-038
 -6.299999999999999E-003   -7.209935106353903E-038
 -6.199999999999999E-003   -3.177715181670473E-038
 -6.100000000000000E-003    2.916911117486801E-038
 -5.999999999999999E-003    1.103140639373023E-037
 -5.899999999999999E-003    2.081356053767932E-037
 -5.800000000000000E-003    3.152424180402867E-037
 -5.699999999999999E-003    4.198543887388966E-037
 -5.599999999999999E-003    5.057291585862944E-037
 -5.499999999999999E-003    5.527430698021038E-037
 -5.399999999999999E-003    5.383219157601868E-037
 -5.299999999999999E-003    4.398631466328790E-037
 -5.199999999999999E-003    2.381884357106223E-037
 -5.099999999999999E-003   -7.809091240425224E-038
 -4.999999999999999E-003   -5.076179834120486E-037
 -4.899999999999999E-003   -1.031305420712036E-036
 -4.799999999999999E-003   -1.608127840845635E-036
 -4.699999999999999E-003   -2.172702234781093E-036
 -4.599999999999999E-003   -2.635785986912524E-036
 -4.499999999999999E-003   -2.888785539513809E-036
 -4.399999999999999E-003   -2.813135872931812E-036
 -4.299999999999999E-003   -2.294925374437679E-036
 -4.199999999999999E-003   -1.244409603529396E-036
 -4.099999999999999E-003    3.809002513739823E-037
 -3.999999999999999E-003    2.551981283723579E-036
 -3.899999999999999E-003    5.146371169116866E-036
 -3.799999999999999E-003    7.932962425862951E-036
 -3.699999999999999E-003    1.056837618264720E-035
 -3.599999999999999E-003    1.260960737547632E-035
 -3.499999999999999E-003    1.354659687391317E-035
 -3.399999999999999E-003    1.285642361830285E-035
 -3.299999999999999E-003    1.007786152646655E-035
 -3.199999999999999E-003    4.901415073135316E-036
 -3.099999999999999E-003   -2.734125266590736E-036
 -2.999999999999999E-003   -1.255140980155635E-035
 -2.899999999999999E-003   -2.386633929483054E-035
 -2.799999999999999E-003   -3.555911212218114E-035
 -2.699999999999999E-003   -4.610068590203659E-035
 -2.599999999999999E-003   -5.364711676766382E-035
 -2.499999999999999E-003   -5.620744262991620E-035
 -2.399999999999999E-003   -5.188133892771194E-035
 -2.299999999999999E-003   -3.915148983024317E-035
 -2.199999999999999E-003   -1.720362059964761E-035
 -2.099999999999999E-003    1.376363757401859E-035
 -1.999999999999999E-003    5.228476418915564E-035
 -1.899999999999999E-003    9.547786120181767E-035
 -1.799999999999999E-003    1.390450356739456E-034
 -1.699999999999999E-003    1.774575820602215E-034
 -1.599999999999999E-003    2.043438865643875E-034
 -1.499999999999999E-003    2.130752343578343E-034
 -1.399999999999999E-003    1.975189900571665E-034
 -1.299999999999999E-003    1.529030293115828E-034
 -1.199999999999999E-003    7.671257881207728E-035
 -1.099999999999999E-003   -3.047467064521761E-035
 -9.999999999999989E-004   -1.643162039842427E-034
 -8.999999999999990E-004   -3.162926739878242E-034
 -7.999999999999990E-004   -4.736414378671251E-034
 -6.999999999999989E-004   -6.196998845947463E-034
 -5.999999999999990E-004   -7.346994108037719E-034
 -4.999999999999989E-004   -7.970252176393124E-034
 -3.999999999999989E-004   -7.849322570203049E-034
 -2.999999999999989E-004   -6.786858070624777E-034
 -1.999999999999989E-004   -4.630716791242155E-034
 -9.999999999999892E-005   -1.301897427017981E-034
  1.084202172485504E-018    3.175982708379783E-034
  1.000000000000011E-004    8.647607779485913E-034
  2.000000000000011E-004    1.480011772403179E-033
  3.000000000000011E-004    2.114445662346617E-033
  4.000000000000011E-004    2.700911531764800E-033
  5.000000000000011E-004    3.155253130117288E-033
  6.000000000000011E-004    3.380097440802814E-033
  7.000000000000011E-004    3.271838951835349E-033
  8.000000000000011E-004    2.731276738319692E-033
  9.000000000000012E-004    1.677989589397725E-033
  1.000000000000001E-003    6.795664323053591E-035
  1.100000000000001E-003   -2.086838271867686E-033
  1.200000000000001E-003   -4.698975629641916E-033
  1.300000000000001E-003   -7.589417775636719E-033
  1.400000000000001E-003   -1.047839341909485E-032
  1.500000000000001E-003   -1.298757573427756E-032
  1.600000000000001E-003   -1.465757165856257E-032
  1.700000000000001E-003   -1.498383013223890E-032
  1.800000000000001E-003   -1.347217903236760E-032
  1.900000000000001E-003   -9.712528273817199E-033
  2.000000000000001E-003   -3.465786433387838E-033
  2.100000000000001E-003    5.244774642402485E-033
  2.200000000000001E-003    1.605011152309852E-032
  2.300000000000001E-003    2.817525646107825E-032
  2.400000000000001E-003    4.041889271164346E-032
  2.500000000000001E-003    5.118822421653305E-032
  2.600000000000001E-003    5.860089387948731E-032
  2.700000000000001E-003    6.065889763556881E-032
  2.800000000000001E-003    5.549017151918601E-032
  2.900000000000001E-003    4.164191746524179E-032
  3.000000000000001E-003    1.839789175584885E-032
  3.100000000000001E-003   -1.391905719679094E-032
  3.200000000000001E-003   -5.370586049950008E-032
  3.300000000000001E-003   -9.794887052572282E-032
  3.400000000000001E-003   -1.422497874249096E-031
  3.500000000000001E-003   -1.810421893498200E-031
  3.600000000000001E-003   -2.080139759643754E-031
  3.700000000000001E-003   -2.167263658522157E-031
  3.800000000000001E-003   -2.013914082842948E-031
  3.900000000000001E-003   -1.577412873524168E-031
  4.000000000000001E-003   -8.389809016989222E-032
  4.100000000000001E-003    1.886391202119650E-032
  4.200000000000001E-003    1.455758522525982E-031
  4.300000000000001E-003    2.873555419381305E-031
  4.400000000000001E-003    4.315928570616098E-031
  4.500000000000001E-003    5.625828311742954E-031
  4.600000000000002E-003    6.626069144454101E-031
  4.700000000000001E-003    7.134140442013219E-031
  4.800000000000001E-003    6.980085361571798E-031
  4.900000000000002E-003    6.026148372366470E-031
  5.000000000000001E-003    4.186668658598379E-031
  5.100000000000001E-003    1.446581261730452E-031
  5.200000000000001E-003   -2.123055209126536E-031
  5.300000000000002E-003   -6.353969249837000E-031
  5.400000000000001E-003   -1.097534216195637E-030
  5.500000000000001E-003   -1.561540971370741E-030
  5.600000000000002E-003   -1.981115919016953E-030
  5.700000000000001E-003   -2.302728452031715E-030
  5.800000000000001E-003   -2.468563808837086E-030
  5.900000000000002E-003   -2.420634977653041E-030
  6.000000000000001E-003   -2.106138725340592E-030
  6.100000000000001E-003   -1.484052900553910E-030
  6.200000000000002E-003   -5.328141760346468E-031
  6.300000000000002E-003    7.413182533994385E-031
  6.400000000000001E-003    2.295911077399004E-030
  6.500000000000001E-003    4.045071434258193E-030
  6.600000000000002E-003    5.854622487508773E-030
  6.700000000000001E-003    7.541407415071893E-030
  6.800000000000001E-003    8.878493968290751E-030
  6.900000000000002E-003    9.607876267244030E-030
  7.000000000000001E-003    9.461759221187443E-030
  7.100000000000001E-003    8.192636495377480E-030
  7.200000000000002E-003    5.611063473152302E-030
  7.300000000000002E-003    1.628473375986740E-030
  7.400000000000001E-003   -3.699328556457627E-030
  7.500000000000001E-003   -1.013394849316016E-029
  7.600000000000002E-003   -1.722858928561497E-029
  7.700000000000001E-003   -2.432222485621102E-029
  7.800000000000001E-003   -3.056071295711898E-029
  7.900000000000001E-003   -3.494999360969226E-029
  8.000000000000002E-003   -3.644328583315927E-029
  8.100000000000001E-003   -3.406000323662185E-029
  8.200000000000001E-003   -2.702874437051493E-029
  8.300000000000002E-003   -1.494146118487931E-029
  8.400000000000001E-003    2.099061486912831E-030
  8.500000000000002E-003    2.335984866138053E-029
  8.600000000000002E-003    4.740922140354591E-029
  8.700000000000001E-003    7.212026810023655E-029
  8.800000000000002E-003    9.476258470404834E-029
  8.900000000000002E-003    1.121905032134170E-028
  9.000000000000001E-003    1.211249126818668E-028
  9.100000000000002E-003    1.185131299523068E-028
  9.200000000000002E-003    1.019384184262404E-028
  9.300000000000001E-003    7.003902183722918E-029
  9.400000000000002E-003    2.288808809665182E-029
  9.500000000000001E-003   -3.771730899450591E-029
  9.600000000000001E-003   -1.081076929248735E-028
  9.700000000000002E-003   -1.827740824059883E-028
  9.800000000000001E-003   -2.546076566584763E-028
  9.900000000000001E-003   -3.153527821393751E-028
  1.000000000000000E-002   -3.562569462203347E-028
  1.010000000000000E-002   -3.688787442246238E-028
  1.020000000000000E-002   -3.459951785095644E-028
  1.030000000000000E-002   -2.825344499281836E-028
  1.040000000000000E-002   -1.764509011513853E-028
  1.050000000000000E-002   -2.945878915462137E-029
  1.060000000000000E-002    1.524544322097625E-028
  1.070000000000000E-002    3.588020135943105E-028
  1.080000000000000E-002    5.747116218905555E-028
  1.090000000000000E-002    7.814154685868403E-028
  1.100000000000000E-002    9.571350621167347E-028
  1.110000000000000E-002    1.078365590688187E-027
  1.120000000000000E-002    1.121546954140619E-027
  1.130000000000000E-002    1.065089522574439E-027
  1.140000000000000E-002    8.916979754717528E-028
  1.150000000000000E-002    5.909024663773416E-028
  1.160000000000000E-002    1.616559340573110E-028
  1.170000000000000E-002   -3.851980904903799E-028
  1.180000000000000E-002   -1.024856681430604E-027
  1.190000000000000E-002   -1.717218752671728E-027
  1.200000000000000E-002   -2.406665452037153E-027
  1.210000000000000E-002   -3.023363796408339E-027
  1.220000000000000E-002   -3.486474705051563E-027
  1.230000000000000E-002   -3.709535163813790E-027
  1.240000000000000E-002   -3.608105072705850E-027
  1.250000000000000E-002   -3.109502904503346E-027
  1.260000000000000E-002   -2.164105038835825E-027
  1.270000000000000E-002   -7.573034718828885E-028
  1.280000000000000E-002    1.079167238567392E-027
  1.290000000000000E-002    3.258144789994133E-027
  1.300000000000000E-002    5.631996337551497E-027
  1.310000000000000E-002    7.993404659422287E-027
  1.320000000000000E-002    1.008350790970804E-026
  1.330000000000000E-002    1.160836530526797E-026
  1.340000000000000E-002    1.226387680054832E-026
  1.350000000000000E-002    1.176822901771807E-026
  1.360000000000000E-002    9.899724202807409E-027
  1.370000000000000E-002    6.536625041280233E-027
  1.380000000000000E-002    1.694636829914022E-027
  1.390000000000000E-002   -4.443110694528264E-027
  1.400000000000000E-002   -1.150883902247369E-026
  1.410000000000000E-002   -1.895050515576835E-026
  1.420000000000000E-002   -2.605344557068864E-026
  1.430000000000000E-002   -3.198508312972410E-026
  1.440000000000000E-002   -3.586210360920558E-026
  1.450000000000000E-002   -3.683666592173897E-026
  1.460000000000000E-002   -3.419545553716760E-026
  1.470000000000000E-002   -2.746274937966096E-026
  1.480000000000000E-002   -1.649687578787458E-026
  1.490000000000000E-002   -1.568381999618891E-027
  1.500000000000000E-002    1.659144650864008E-026
  1.510000000000000E-002    3.678152263407741E-026
  1.520000000000000E-002    5.736837801705034E-026
  1.530000000000000E-002    7.637323458922879E-026
  1.540000000000000E-002    9.160724473774741E-026
  1.550000000000000E-002    1.008485719771573E-025
  1.560000000000000E-002    1.020504494026888E-025
  1.570000000000000E-002    9.356503479668112E-026
  1.580000000000000E-002    7.436526526115395E-026
  1.590000000000000E-002    4.424502357923329E-026
  1.600000000000000E-002    3.977860050871139E-027
  1.610000000000000E-002   -4.458426584560135E-026
  1.620000000000000E-002   -9.848854908875932E-026
  1.630000000000000E-002   -1.537475587544520E-025
  1.640000000000000E-002   -2.055028018108293E-025
  1.650000000000000E-002   -2.482881699025859E-025
  1.660000000000000E-002   -2.763911652968741E-025
  1.670000000000000E-002   -2.843020364087522E-025
  1.680000000000000E-002   -2.672341394269254E-025
  1.690000000000000E-002   -2.216898161489679E-025
  1.700000000000000E-002   -1.460368852333125E-025
  1.710000000000000E-002   -4.105019998703482E-026
  1.720000000000000E-002    8.963620932083230E-026
  1.730000000000000E-002    2.392291087497585E-025
  1.740000000000000E-002    3.976956354188252E-025
  1.750000000000000E-002    5.519674855278465E-025
  1.760000000000000E-002    6.864854838868948E-025
  1.770000000000000E-002    7.841220303878705E-025
  1.780000000000000E-002    8.274857441417211E-025
  1.790000000000000E-002    8.005758651723555E-025
  1.800000000000000E-002    6.906997333348411E-025
  1.810000000000000E-002    4.905173780201201E-025
  1.820000000000000E-002    2.000223626918541E-025
  1.830000000000000E-002   -1.717747769326420E-025
  1.840000000000000E-002   -6.057188456722381E-025
  1.850000000000000E-002   -1.072198814862405E-024
  1.860000000000000E-002   -1.531879633762624E-024
  1.870000000000000E-002   -1.937640374637500E-024