 -4.000000000000000E-002    0.000000000000000E+000
 -3.990000000000000E-002    1.341848903722280E-007
 -3.980000000000000E-002    3.910156904968448E-007
 -3.970000000000000E-002    7.532930370543753E-007
 -3.960000000000000E-002    1.200952271284720E-006
 -3.950000000000000E-002    1.713523774339519E-006
 -3.940000000000000E-002    2.272064758731704E-006
 -3.930000000000000E-002    2.860479665180684E-006
 -3.920000000000000E-002    3.466235306382291E-006
 -3.910000000000000E-002    4.080544157943532E-006
 -3.900000000000000E-002    4.698120050701524E-006
 -3.890000000000000E-002    5.316633466882787E-006
 -3.880000000000000E-002    5.935988192304981E-006
 -3.870000000000000E-002    6.557531488985244E-006
 -3.860000000000000E-002    7.183290343863664E-006
 -3.850000000000000E-002    7.815305793370176E-006
 -3.840000000000000E-002    8.455113240064379E-006
 -3.830000000000000E-002    9.103398143439833E-006
 -3.820000000000000E-002    9.759827441278483E-006
 -3.810000000000000E-002    1.042304491609752E-005
 -3.800000000000000E-002    1.109080827077404E-005
 -3.790000000000000E-002    1.176021653970275E-005
 -3.780000000000000E-002    1.242799463084284E-005
 -3.770000000000000E-002    1.309079165117644E-005
 -3.760000000000000E-002    1.374544872345626E-005
 -3.750000000000000E-002    1.438921392997510E-005
 -3.740000000000000E-002    1.501990004987306E-005
 -3.730000000000000E-002    1.563596013380198E-005
 -3.720000000000000E-002    1.623651841019966E-005
 -3.710000000000000E-002    1.682133697431381E-005
 -3.700000000000000E-002    1.739077214993110E-005
 -3.690000000000000E-002    1.794571892900078E-005
 -3.680000000000000E-002    1.848753974526319E-005
 -3.670000000000000E-002    1.901803181088760E-005
 -3.660000000000000E-002    1.953936562090883E-005
 -3.650000000000000E-002    2.005405442437262E-005
 -3.640000000000000E-002    2.056489520714500E-005
 -3.630000000000000E-002    2.107488910427384E-005
 -3.620000000000000E-002    2.158715548721734E-005
 -3.610000000000000E-002    2.210478833382892E-005
 -3.600000000000000E-002    2.263072731721354E-005
 -3.590000000000000E-002    2.316761858477545E-005
 -3.580000000000000E-002    2.371766291983827E-005
 -3.570000000000000E-002    2.428254013105346E-005
 -3.560000000000000E-002    2.486334599320236E-005
 -3.550000000000000E-002    2.546061146653243E-005
 -3.540000000000000E-002    2.607437677781937E-005
 -3.530000000000000E-002    2.670431866433410E-005
 -3.520000000000000E-002    2.734990064673736E-005
 -3.510000000000000E-002    2.801056067277116E-005
 -3.500000000000000E-002    2.868585705749772E-005
 -3.490000000000000E-002    2.937562920189420E-005
 -3.480000000000000E-002    3.008003263317562E-005
 -3.470000000000000E-002    3.079956698460334E-005
 -3.460000000000000E-002    3.153499143273552E-005
 -3.450000000000000E-002    3.228724553664535E-005
 -3.440000000000000E-002    3.305724452332626E-005
 -3.430000000000000E-002    3.384573182299677E-005
 -3.420000000000000E-002    3.465313280972004E-005
 -3.410000000000000E-002    3.547939000389809E-005
 -3.400000000000000E-002    3.632392486396879E-005
 -3.390000000000000E-002    3.718556300931148E-005
 -3.380000000000000E-002    3.806256988626061E-005
 -3.370000000000000E-002    3.895269654538401E-005
 -3.360000000000000E-002    3.985327301326796E-005
 -3.350000000000000E-002    4.076126618042923E-005
 -3.340000000000000E-002    4.167329839468874E-005
 -3.330000000000000E-002    4.258572048628729E-005
 -3.320000000000000E-002    4.349450058316859E-005
 -3.310000000000000E-002    4.439515529072910E-005
 -3.300000000000000E-002    4.528268671047922E-005
 -3.290000000000000E-002    4.615138773067732E-005
 -3.280000000000000E-002    4.699473699179201E-005
 -3.270000000000000E-002    4.780519160748116E-005
 -3.260000000000000E-002    4.857421306165161E-005
 -3.250000000000000E-002    4.929214385959419E-005
 -3.240000000000000E-002    4.994822818121172E-005
 -3.230000000000000E-002    5.053073871506481E-005
 -3.220000000000000E-002    5.102694528399153E-005
 -3.210000000000000E-002    5.142335608486703E-005
 -3.200000000000000E-002    5.170568238556295E-005
 -3.190000000000000E-002    5.185906306813610E-005
 -3.180000000000000E-002    5.186799627089264E-005
 -3.170000000000000E-002    5.171643431238081E-005
 -3.160000000000000E-002    5.138757109910999E-005
 -3.150000000000000E-002    5.086390561088127E-005
 -3.140000000000000E-002    5.012697402206762E-005
 -3.130000000000000E-002    4.915715696599915E-005
 -3.120000000000000E-002    4.793352297231543E-005
 -3.110000000000000E-002    4.643378542868535E-005
 -3.100000000000000E-002    4.463388779836436E-005
 -3.090000000000000E-002    4.250797622231751E-005
 -3.080000000000000E-002    4.002829054418888E-005
 -3.070000000000000E-002    3.716505766972447E-005
 -3.060000000000000E-002    3.388643111088850E-005
 -3.050000000000000E-002    3.015854000896044E-005
 -3.040000000000000E-002    2.594493647163492E-005
 -3.030000000000000E-002    2.120719003778873E-005
 -3.020000000000000E-002    1.590425063931849E-005
 -3.010000000000000E-002    9.992446382788756E-006
 -3.000000000000000E-002    3.425194887858044E-006
 -2.990000000000000E-002   -3.846869163837599E-006
 -2.980000000000000E-002   -1.187632788350194E-005
 -2.970000000000000E-002   -2.071929539505449E-005
 -2.960000000000000E-002   -3.043552160155186E-005
 -2.950000000000000E-002   -4.108845611775404E-005
 -2.940000000000000E-002   -5.274546239554080E-005
 -2.930000000000000E-002   -6.547787791224797E-005
 -2.920000000000000E-002   -7.936118318152793E-005
 -2.910000000000000E-002   -9.447489493593575E-005
 -2.900000000000000E-002   -1.109031289513690E-004
 -2.890000000000000E-002   -1.287343583129022E-004
 -2.880000000000000E-002   -1.480615472182407E-004
 -2.870000000000000E-002   -1.689818872440616E-004
 -2.860000000000000E-002   -1.915986711883105E-004
 -2.850000000000000E-002   -2.160195472493659E-004
 -2.840000000000000E-002   -2.423584599616972E-004
 -2.830000000000000E-002   -2.707348571374359E-004
 -2.820000000000000E-002   -3.012748280763145E-004
 -2.810000000000000E-002   -3.341114222781200E-004
 -2.800000000000000E-002   -3.693845546574872E-004
 -2.790000000000000E-002   -4.072418717739665E-004
 -2.780000000000000E-002   -4.478382424419442E-004
 -2.770000000000000E-002   -4.913366793838519E-004
 -2.760000000000000E-002   -5.379084269613493E-004
 -2.750000000000000E-002   -5.877328658622366E-004
 -2.740000000000000E-002   -6.409985819540037E-004
 -2.730000000000000E-002   -6.979017412795058E-004
 -2.720000000000000E-002   -7.586488885348016E-004
 -2.710000000000000E-002   -8.234556052130989E-004
 -2.700000000000000E-002   -8.925471117363137E-004
 -2.690000000000000E-002   -9.661591143831396E-004
 -2.680000000000000E-002   -1.044538381794285E-003
 -2.670000000000000E-002   -1.127943324528958E-003
 -2.660000000000000E-002   -1.216644005852534E-003
 -2.650000000000000E-002   -1.310922855631878E-003
 -2.640000000000000E-002   -1.411075336335244E-003
 -2.630000000000000E-002   -1.517409484210603E-003
 -2.620000000000000E-002   -1.630247837190926E-003
 -2.610000000000000E-002   -1.749926633869744E-003
 -2.600000000000000E-002   -1.876796643685083E-003
 -2.590000000000000E-002   -2.011221898487644E-003
 -2.580000000000000E-002   -2.153583179937751E-003
 -2.570000000000000E-002   -2.304275761989175E-003
 -2.560000000000000E-002   -2.463711027693761E-003
 -2.550000000000000E-002   -2.632316110254728E-003
 -2.540000000000000E-002   -2.810535005466029E-003
 -2.530000000000000E-002   -2.998829808799226E-003
 -2.520000000000000E-002   -3.197682251297617E-003
 -2.510000000000000E-002   -3.407588372808868E-003
 -2.500000000000000E-002   -3.629069222303897E-003
 -2.490000000000000E-002   -3.862661738382588E-003
 -2.480000000000000E-002   -4.108924886489299E-003
 -2.470000000000000E-002   -4.368439877754948E-003
 -2.460000000000000E-002   -4.641805951142225E-003
 -2.450000000000000E-002   -4.929648503381072E-003
 -2.440000000000000E-002   -5.232611869351292E-003
 -2.430000000000000E-002   -5.551367594899274E-003
 -2.420000000000000E-002   -5.886604239573347E-003
 -2.410000000000000E-002   -6.239040882699674E-003
 -2.400000000000000E-002   -6.609413154969491E-003
 -2.390000000000000E-002   -6.998489363205543E-003
 -2.380000000000000E-002   -7.407059153685278E-003
 -2.370000000000000E-002   -7.835939969959939E-003
 -2.360000000000000E-002   -8.285977958801746E-003
 -2.350000000000000E-002   -8.758041805699305E-003
 -2.340000000000000E-002   -9.253033334910902E-003
 -2.330000000000000E-002   -9.771880170837159E-003
 -2.320000000000000E-002   -1.031554229686819E-002
 -2.310000000000000E-002   -1.088500730670218E-002
 -2.300000000000000E-002   -1.148129086439984E-002
 -2.290000000000000E-002   -1.210544130468893E-002
 -2.280000000000000E-002   -1.275853548770039E-002
 -2.270000000000000E-002   -1.344167978217730E-002
 -2.260000000000000E-002   -1.415602100991739E-002
 -2.250000000000000E-002   -1.490272545601207E-002
 -2.240000000000000E-002   -1.568299910467594E-002
 -2.230000000000000E-002   -1.649807729935526E-002
 -2.220000000000000E-002   -1.734922937966166E-002
 -2.210000000000000E-002   -1.823776144270796E-002
 -2.200000000000000E-002   -1.916501263707394E-002
 -2.190000000000000E-002   -2.013234969678879E-002
 -2.180000000000000E-002   -2.114118508304374E-002
 -2.170000000000000E-002   -2.219295689473897E-002
 -2.160000000000000E-002   -2.328913860174219E-002
 -2.150000000000000E-002   -2.443124671103854E-002
 -2.140000000000000E-002   -2.562082172359470E-002
 -2.130000000000000E-002   -2.685945014616946E-002
 -2.120000000000000E-002   -2.814874212852423E-002
 -2.110000000000000E-002   -2.949034862607098E-002
 -2.100000000000000E-002   -3.088595416617346E-002
 -2.090000000000000E-002   -3.233728161124599E-002
 -2.080000000000000E-002   -3.384608036921592E-002
 -2.070000000000000E-002   -3.541413901230937E-002
 -2.060000000000000E-002   -3.704327624724262E-002
 -2.050000000000000E-002   -3.873535430360927E-002
 -2.040000000000000E-002   -4.049225953515484E-002
 -2.030000000000000E-002   -4.231591794310691E-002
 -2.020000000000000E-002   -4.420828698178704E-002
 -2.010000000000000E-002   -4.617134591695982E-002
 -2.000000000000000E-002   -4.820712530559586E-002
 -1.990000000000000E-002   -5.031766409579158E-002
 -1.980000000000000E-002   -5.250505211165436E-002
 -1.970000000000000E-002   -5.477138794707336E-002
 -1.960000000000000E-002   -5.711881270434302E-002
 -1.950000000000000E-002   -5.954948992215100E-002
 -1.940000000000000E-002   -6.206560823374115E-002
 -1.930000000000000E-002   -6.466938193022138E-002
 -1.920000000000000E-002   -6.736305234899317E-002
 -1.910000000000000E-002   -7.014887888412447E-002
 -1.900000000000000E-002   -7.302914039949346E-002
 -1.890000000000000E-002   -7.600614339461866E-002
 -1.880000000000000E-002   -7.908220474512834E-002
 -1.870000000000000E-002   -8.225966739286286E-002
 -1.860000000000000E-002   -8.554087563467452E-002
 -1.850000000000000E-002   -8.892821037559014E-002
 -1.840000000000000E-002   -9.242403879644358E-002
 -1.830000000000000E-002   -9.603074631062619E-002
 -1.820000000000000E-002   -9.975073471244435E-002
 -1.810000000000000E-002   -0.103586386443366     
 -1.800000000000000E-002   -0.107540129090760     
 -1.790000000000000E-002   -0.111614330816474     
 -1.780000000000000E-002   -0.115811402854069     
 -1.770000000000000E-002   -0.120133760802507     
 -1.760000000000000E-002   -0.124583767378656     
 -1.750000000000000E-002   -0.129163807125203     
 -1.740000000000000E-002   -0.133876245917366     
 -1.730000000000000E-002   -0.138723414147314     
 -1.720000000000000E-002   -0.143707658595233     
 -1.710000000000000E-002   -0.148831281305278     
 -1.700000000000000E-002   -0.154096577609311     
 -1.690000000000000E-002   -0.159505801678578     
 -1.680000000000000E-002   -0.165061157071034     
 -1.670000000000000E-002   -0.170764837875917     
 -1.660000000000000E-002   -0.176618997908006     
 -1.650000000000000E-002   -0.182625732725357     
 -1.640000000000000E-002   -0.188787107143130     
 -1.630000000000000E-002   -0.195105136457277     
 -1.620000000000000E-002   -0.201581748696658     
 -1.610000000000000E-002   -0.208218858146620     
 -1.600000000000000E-002   -0.215018291246554     
 -1.590000000000000E-002   -0.221981788070434     
 -1.580000000000000E-002   -0.229111082080818     
 -1.570000000000000E-002   -0.236407780503835     
 -1.560000000000000E-002   -0.243873402180084     
 -1.550000000000000E-002   -0.251509412026144     
 -1.540000000000000E-002   -0.259317199104603     
 -1.530000000000000E-002   -0.267298019003527     
 -1.520000000000000E-002   -0.275453051490578     
 -1.510000000000000E-002   -0.283783368054021     
 -1.500000000000000E-002   -0.292289933249781     
 -1.490000000000000E-002   -0.300973603806258     
 -1.480000000000000E-002   -0.309835108622761     
 -1.470000000000000E-002   -0.318875064667354     
 -1.460000000000000E-002   -0.328093963136703     
 -1.450000000000000E-002   -0.337492135114983     
 -1.440000000000000E-002   -0.347069815859420     
 -1.430000000000000E-002   -0.356827091664262     
 -1.420000000000000E-002   -0.366763937590684     
 -1.410000000000000E-002   -0.376880088716572     
 -1.400000000000000E-002   -0.387175193005078     
 -1.390000000000000E-002   -0.397648682610703     
 -1.380000000000000E-002   -0.408299904486139     
 -1.370000000000000E-002   -0.419127985874770     
 -1.360000000000000E-002   -0.430131864794732     
 -1.350000000000000E-002   -0.441310343076528     
 -1.340000000000000E-002   -0.452662034933138     
 -1.330000000000000E-002   -0.464185322842440     
 -1.320000000000000E-002   -0.475878426905231     
 -1.310000000000000E-002   -0.487739391452717     
 -1.300000000000000E-002   -0.499766023247968     
 -1.290000000000000E-002   -0.511955937290465     
 -1.280000000000000E-002   -0.524306545965882     
 -1.270000000000000E-002   -0.536815028527050     
 -1.260000000000000E-002   -0.549478394667733     
 -1.250000000000000E-002   -0.562293388581323     
 -1.240000000000000E-002   -0.575256556855516     
 -1.230000000000000E-002   -0.588364212654416     
 -1.220000000000000E-002   -0.601612466981557     
 -1.210000000000000E-002   -0.614997129962814     
 -1.200000000000000E-002   -0.628513817534843     
 -1.190000000000000E-002   -0.642157965055278     
 -1.180000000000000E-002   -0.655924683396384     
 -1.170000000000000E-002   -0.669808880309416     
 -1.160000000000000E-002   -0.683805227994332     
 -1.150000000000000E-002   -0.697908109709285     
 -1.140000000000000E-002   -0.712111728933795     
 -1.130000000000000E-002   -0.726409993102106     
 -1.120000000000000E-002   -0.740796598485531     
 -1.110000000000000E-002   -0.755264965108917     
 -1.100000000000000E-002   -0.769808257184909     
 -1.090000000000000E-002   -0.784419360158908     
 -1.080000000000000E-002   -0.799091040982048     
 -1.070000000000000E-002   -0.813815722991098     
 -1.060000000000000E-002   -0.828585552083799     
 -1.050000000000000E-002   -0.843392473309458     
 -1.040000000000000E-002   -0.858228212438812     
 -1.030000000000000E-002   -0.873084258244142     
 -1.020000000000000E-002   -0.887951771947831     
 -1.010000000000000E-002   -0.902821719785037     
 -1.000000000000000E-002   -0.917684908864449     
 -9.899999999999999E-003   -0.932531883440724     
 -9.800000000000000E-003   -0.947352931807484     
 -9.699999999999999E-003   -0.962138110261924     
 -9.599999999999999E-003   -0.976877263003720     
 -9.500000000000000E-003   -0.991559996378181     
 -9.399999999999999E-003    -1.00617578055836     
 -9.299999999999999E-003    -1.02071385799894     
 -9.200000000000000E-003    -1.03516319985218     
 -9.099999999999999E-003    -1.04951267978059     
 -8.999999999999999E-003    -1.06375092806344     
 -8.900000000000000E-003    -1.07786649895283     
 -8.799999999999999E-003    -1.09184766645914     
 -8.699999999999999E-003    -1.10568254560610     
 -8.600000000000000E-003    -1.11935908786600     
 -8.499999999999999E-003    -1.13286523651078     
 -8.399999999999999E-003    -1.14618867419954     
 -8.300000000000000E-003    -1.15931691902482     
 -8.199999999999999E-003    -1.17223746610689     
 -8.100000000000000E-003    -1.18493764585772     
 -8.000000000000000E-003    -1.19740470533845     
 -7.899999999999999E-003    -1.20962581198856     
 -7.800000000000000E-003    -1.22158809446232     
 -7.699999999999999E-003    -1.23327857739085     
 -7.599999999999999E-003    -1.24468411110246     
 -7.499999999999999E-003    -1.25579169989328     
 -7.399999999999999E-003    -1.26658816777463     
 -7.299999999999999E-003    -1.27706049315516     
 -7.199999999999999E-003    -1.28719552422506     
 -7.100000000000000E-003    -1.29698000419569     
 -6.999999999999999E-003    -1.30640090554366     
 -6.899999999999999E-003    -1.31544508702854     
 -6.800000000000000E-003    -1.32409953323638     
 -6.699999999999999E-003    -1.33235134213429     
 -6.599999999999999E-003    -1.34018749870330     
 -6.499999999999999E-003    -1.34759521006624     
 -6.399999999999999E-003    -1.35456177842465     
 -6.299999999999999E-003    -1.36107455484948     
 -6.199999999999999E-003    -1.36712114001535     
 -6.100000000000000E-003    -1.37268920065613     
 -5.999999999999999E-003    -1.37776658165455     
 -5.899999999999999E-003    -1.38234124124382     
 -5.800000000000000E-003    -1.38640139542329     
 -5.699999999999999E-003    -1.38993542112983     
 -5.599999999999999E-003    -1.39293196814869     
 -5.499999999999999E-003    -1.39537986327410     
 -5.399999999999999E-003    -1.39726827011113     
 -5.299999999999999E-003    -1.39858654099361     
 -5.199999999999999E-003    -1.39932428036154     
 -5.099999999999999E-003    -1.39947139678536     
 -4.999999999999999E-003    -1.39901817250886     
 -4.899999999999999E-003    -1.39795512511757     
 -4.799999999999999E-003    -1.39627321171774     
 -4.699999999999999E-003    -1.39396360292893     
 -4.599999999999999E-003    -1.39101797010821     
 -4.499999999999999E-003    -1.38742827022031     
 -4.399999999999999E-003    -1.38318689770465     
 -4.299999999999999E-003    -1.37828664211032     
 -4.199999999999999E-003    -1.37272076386187     
 -4.099999999999999E-003    -1.36648278681783     
 -3.999999999999999E-003    -1.35956685212815     
 -3.899999999999999E-003    -1.35196740063730     
 -3.799999999999999E-003    -1.34367945718863     
 -3.699999999999999E-003    -1.33469856089970     
 -3.599999999999999E-003    -1.32502055152828     
 -3.499999999999999E-003    -1.31464195517616     
 -3.399999999999999E-003    -1.30355967109177     
 -3.299999999999999E-003    -1.29177120067847     
 -3.199999999999999E-003    -1.27927455765715     
 -3.099999999999999E-003    -1.26606824478494     
 -2.999999999999999E-003    -1.25215123766503     
 -2.899999999999999E-003    -1.23752326551680     
 -2.799999999999999E-003    -1.22218449132895     
 -2.699999999999999E-003    -1.20613571494995     
 -2.599999999999999E-003    -1.18937819338139     
 -2.499999999999999E-003    -1.17191386334975     
 -2.399999999999999E-003    -1.15374512809015     
 -2.299999999999999E-003    -1.13487497918774     
 -2.199999999999999E-003    -1.11530707313329     
 -2.099999999999999E-003    -1.09504569397282     
 -1.999999999999999E-003    -1.07409562823707     
 -1.899999999999999E-003    -1.05246220256855     
 -1.799999999999999E-003    -1.03015146708720     
 -1.699999999999999E-003    -1.00717002124626     
 -1.599999999999999E-003   -0.983524995982264     
 -1.499999999999999E-003   -0.959224237177592     
 -1.399999999999999E-003   -0.934276033898785     
 -1.299999999999999E-003   -0.908689282001549     
 -1.199999999999999E-003   -0.882473578598255     
 -1.099999999999999E-003   -0.855639001188170     
 -9.999999999999989E-004   -0.828196269359479     
 -8.999999999999990E-004   -0.800156611018588     
 -7.999999999999990E-004   -0.771531803943056     
 -6.999999999999989E-004   -0.742334251219099     
 -5.999999999999990E-004   -0.712576820207244     
 -4.999999999999989E-004   -0.682272950961743     
 -3.999999999999989E-004   -0.651436643029594     
 -2.999999999999989E-004   -0.620082366875022     
 -1.999999999999989E-004   -0.588225181807441     
 -9.999999999999892E-005   -0.555880534144600     
  1.084202172485504E-018   -0.523064425598238     
  1.000000000000011E-004   -0.489793318502592     
  2.000000000000011E-004   -0.456084216691406     
  3.000000000000011E-004   -0.421954428119260     
  4.000000000000011E-004   -0.387421761112797     
  5.000000000000011E-004   -0.352504513812068     
  6.000000000000011E-004   -0.317221310457343     
  7.000000000000011E-004   -0.281591164406895     
  8.000000000000011E-004   -0.245633504896926     
  9.000000000000012E-004   -0.209368086310155     
  1.000000000000001E-003   -0.172815092559202     
  1.100000000000001E-003   -0.135994893276536     
  1.200000000000001E-003   -9.892821652436490E-002
  1.300000000000001E-003   -6.163605125555335E-002
  1.400000000000001E-003   -2.413970679164973E-002
  1.500000000000001E-003    1.353929345527802E-002
  1.600000000000001E-003    5.137913556281669E-002
  1.700000000000001E-003    8.935791331001287E-002
  1.800000000000001E-003    0.127453510015929     
  1.900000000000001E-003    0.165643516802857     
  2.000000000000001E-003    0.203905525838766     
  2.100000000000001E-003    0.242216939884259     
  2.200000000000001E-003    0.280555006279903     
  2.300000000000001E-003    0.318896960776528     
  2.400000000000001E-003    0.357220030839340     
  2.500000000000001E-003    0.395501288290560     
  2.600000000000001E-003    0.433717888675280     
  2.700000000000001E-003    0.471846877033220     
  2.800000000000001E-003    0.509865449300064     
  2.900000000000001E-003    0.547750722121779     
  3.000000000000001E-003    0.585480005851241     
  3.100000000000001E-003    0.623030702310207     
  3.200000000000001E-003    0.660380188662721     
  3.300000000000001E-003    0.697506136250087     
  3.400000000000001E-003    0.734386287769692     
  3.500000000000001E-003    0.770998596464384     
  3.600000000000001E-003    0.807321180201850     
  3.700000000000001E-003    0.843332389838866     
  3.800000000000001E-003    0.879010835407186     
  3.900000000000001E-003    0.914335334335613     
  4.000000000000001E-003    0.949285018431406     
  4.100000000000001E-003    0.983839400574422     
  4.200000000000001E-003     1.01797815261129     
  4.300000000000001E-003     1.05168139472179     
  4.400000000000001E-003     1.08492968020030     
  4.500000000000001E-003     1.11770379084206     
  4.600000000000002E-003     1.14998494910773     
  4.700000000000001E-003     1.18175476235222     
  4.800000000000001E-003     1.21299536988815     
  4.900000000000002E-003     1.24368922808126     
  5.000000000000001E-003     1.27381942652752     
  5.100000000000001E-003     1.30336926488926     
  5.200000000000001E-003     1.33232274049347     
  5.300000000000002E-003     1.36066430145240     
  5.400000000000001E-003     1.38837885276208     
  5.500000000000001E-003     1.41545191396046     
  5.600000000000002E-003     1.44186952420676     
  5.700000000000001E-003     1.46761816140691     
  5.800000000000001E-003     1.49268510450417     
  5.900000000000002E-003     1.51705784812203     
  6.000000000000001E-003     1.54072486496420     
  6.100000000000001E-003     1.56367500595714     
  6.200000000000002E-003     1.58589775845548     
  6.300000000000002E-003     1.60738317823232     
  6.400000000000001E-003     1.62812195262235     
  6.500000000000001E-003     1.64810545645167     
  6.600000000000002E-003     1.66732555301547     
  6.700000000000001E-003     1.68577479066955     
  6.800000000000001E-003     1.70344647757003     
  6.900000000000002E-003     1.72033437793329     
  7.000000000000001E-003     1.73643305632466     
  7.100000000000001E-003     1.75173749044543     
  7.200000000000002E-003     1.76624356458783     
  7.300000000000002E-003     1.77994760716943     
  7.400000000000001E-003     1.79284656197495     
  7.500000000000001E-003     1.80493818074483     
  7.600000000000002E-003     1.81622066498081     
  7.700000000000001E-003     1.82669296895499     
  7.800000000000001E-003     1.83635459167295     
  7.900000000000001E-003     1.84520584810653     
  8.000000000000002E-003     1.85324748215548     
  8.100000000000001E-003     1.86048086981287     
  8.200000000000001E-003     1.86690797039600     
  8.300000000000002E-003     1.87253151925765     
  8.400000000000001E-003     1.87735456004967     
  8.500000000000002E-003     1.88138093685673     
  8.600000000000002E-003     1.88461512877265     
  8.700000000000001E-003     1.88706196525422     
  8.800000000000002E-003     1.88872690870363     
  8.900000000000002E-003     1.88961611642764     
  9.000000000000001E-003     1.88973606938901     
  9.100000000000002E-003     1.88909392641187     
  9.200000000000002E-003     1.88769711688074     
  9.300000000000001E-003     1.88555387982945     
  9.400000000000002E-003     1.88267276372720     
  9.500000000000001E-003     1.87906286397727     
  9.600000000000001E-003     1.87473382807141     
  9.700000000000002E-003     1.86969555261364     
  9.800000000000001E-003     1.86395838306688     
  9.900000000000001E-003     1.85753320084869     
  1.000000000000000E-002     1.85043120115605     
  1.010000000000000E-002     1.84266410595105     
  1.020000000000000E-002     1.83424389744886     
  1.030000000000000E-002     1.82518285293436     
  1.040000000000000E-002     1.81549373301679     
  1.050000000000000E-002     1.80518948289550     
  1.060000000000000E-002     1.79428358667968     
  1.070000000000000E-002     1.78278953677348     
  1.080000000000000E-002     1.77072127502639     
  1.090000000000000E-002     1.75809302008717     
  1.100000000000000E-002     1.74491918003487     
  1.110000000000000E-002     1.73121431656035     
  1.120000000000000E-002     1.71699329469152     
  1.130000000000000E-002     1.70227118883137     
  1.140000000000000E-002     1.68706320721580     
  1.150000000000000E-002     1.67138471455877     
  1.160000000000000E-002     1.65525129401462     
  1.170000000000000E-002     1.63867856992165     
  1.180000000000000E-002     1.62168235233181     
  1.190000000000000E-002     1.60427838081313     
  1.200000000000000E-002     1.58648272196313     
  1.210000000000000E-002     1.56831130916205     
  1.220000000000000E-002     1.54978014094837     
  1.230000000000000E-002     1.53090541130765     
  1.240000000000000E-002     1.51170306464584     
  1.250000000000000E-002     1.49218932572456     
  1.260000000000000E-002     1.47238022549776     
  1.270000000000000E-002     1.45229187703137     
  1.280000000000000E-002     1.43194013613439     
  1.290000000000000E-002     1.41134114836548     
  1.300000000000000E-002     1.39051062916160     
  1.310000000000000E-002     1.36946443016372     
  1.320000000000000E-002     1.34821820515224     
  1.330000000000000E-002     1.32678752270095     
  1.340000000000000E-002     1.30518789921970     
  1.350000000000000E-002     1.28343460992770     
  1.360000000000000E-002     1.26154274673299     
  1.370000000000000E-002     1.23952742382320     
  1.380000000000000E-002     1.21740346793333     
  1.390000000000000E-002     1.19518545739941     
  1.400000000000000E-002     1.17288797083413     
  1.410000000000000E-002     1.15052519672312     
  1.420000000000000E-002     1.12811117133821     
  1.430000000000000E-002     1.10565977349745     
  1.440000000000000E-002     1.08318454990684     
  1.450000000000000E-002     1.06069888761202     
  1.460000000000000E-002     1.03821584903576     
  1.470000000000000E-002     1.01574831277067     
  1.480000000000000E-002    0.993308882059447     
  1.490000000000000E-002    0.970909961464697     
  1.500000000000000E-002    0.948563441433512     
  1.510000000000000E-002    0.926281257735865     
  1.520000000000000E-002    0.904074739419084     
  1.530000000000000E-002    0.881955163089604     
  1.540000000000000E-002    0.859933489122666     
  1.550000000000000E-002    0.838020323760503     
  1.560000000000000E-002    0.816225880596177     
  1.570000000000000E-002    0.794560246271738     
  1.580000000000000E-002    0.773033063957092     
  1.590000000000000E-002    0.751653747306485     
  1.600000000000000E-002    0.730431376281135     
  1.610000000000000E-002    0.709374734056846     
  1.620000000000000E-002    0.688492219011758     
  1.630000000000000E-002    0.667792008782236     
  1.640000000000000E-002    0.647281916141575     
  1.650000000000000E-002    0.626969391455474     
  1.660000000000000E-002    0.606861623235250     
  1.670000000000000E-002    0.586965488665972     
  1.680000000000000E-002    0.567287541768127     
  1.690000000000000E-002    0.547833996423189     
  1.700000000000000E-002    0.528610769032608     
  1.710000000000000E-002    0.509623473386828     
  1.720000000000000E-002    0.490877443182373     
  1.730000000000000E-002    0.472377648220954     
  1.740000000000000E-002    0.454128808871218     
  1.750000000000000E-002    0.436135304565163     
  1.760000000000000E-002    0.418401204092083     
  1.770000000000000E-002    0.400930368998877     
  1.780000000000000E-002    0.383726250501466     
  1.790000000000000E-002    0.366792103261168     
  1.800000000000000E-002    0.350130851063401     
  1.810000000000000E-002    0.333745148678321     
  1.820000000000000E-002    0.317637379035424     
  1.830000000000000E-002    0.301809724125217     
  1.840000000000000E-002    0.286263966368889     
  1.850000000000000E-002    0.271001748383356     
  1.860000000000000E-002    0.256024388594064     
  1.870000000000000E-002    0.241333009082886     