 -4.000000000000000E-002    0.000000000000000E+000
 -3.990000000000000E-002    0.000000000000000E+000
 -3.980000000000000E-002    0.000000000000000E+000
 -3.970000000000000E-002    0.000000000000000E+000
 -3.960000000000000E-002    0.000000000000000E+000
 -3.950000000000000E-002    0.000000000000000E+000
 -3.940000000000000E-002    0.000000000000000E+000
 -3.930000000000000E-002    0.000000000000000E+000
 -3.920000000000000E-002    0.000000000000000E+000
 -3.910000000000000E-002    0.000000000000000E+000
 -3.900000000000000E-002    0.000000000000000E+000
 -3.890000000000000E-002    0.000000000000000E+000
 -3.880000000000000E-002    0.000000000000000E+000
 -3.870000000000000E-002    0.000000000000000E+000
 -3.860000000000000E-002    0.000000000000000E+000
 -3.850000000000000E-002    0.000000000000000E+000
 -3.840000000000000E-002    0.000000000000000E+000
 -3.830000000000000E-002    0.000000000000000E+000
 -3.820000000000000E-002    0.000000000000000E+000
 -3.810000000000000E-002    0.000000000000000E+000
 -3.800000000000000E-002    0.000000000000000E+000
 -3.790000000000000E-002    0.000000000000000E+000
 -3.780000000000000E-002    0.000000000000000E+000
 -3.770000000000000E-002    0.000000000000000E+000
 -3.760000000000000E-002    0.000000000000000E+000
 -3.750000000000000E-002    0.000000000000000E+000
 -3.740000000000000E-002    0.000000000000000E+000
 -3.730000000000000E-002    0.000000000000000E+000
 -3.720000000000000E-002    0.000000000000000E+000
 -3.710000000000000E-002    0.000000000000000E+000
 -3.700000000000000E-002    0.000000000000000E+000
 -3.690000000000000E-002    0.000000000000000E+000
 -3.680000000000000E-002    0.000000000000000E+000
 -3.670000000000000E-002    0.000000000000000E+000
 -3.660000000000000E-002    0.000000000000000E+000
 -3.650000000000000E-002    0.000000000000000E+000
 -3.640000000000000E-002    0.000000000000000E+000
 -3.630000000000000E-002    0.000000000000000E+000
 -3.620000000000000E-002    0.000000000000000E+000
 -3.610000000000000E-002    0.000000000000000E+000
 -3.600000000000000E-002    0.000000000000000E+000
 -3.590000000000000E-002    0.000000000000000E+000
 -3.580000000000000E-002    0.000000000000000E+000
 -3.570000000000000E-002    0.000000000000000E+000
 -3.560000000000000E-002    0.000000000000000E+000
 -3.550000000000000E-002    0.000000000000000E+000
 -3.540000000000000E-002    0.000000000000000E+000
 -3.530000000000000E-002    0.000000000000000E+000
 -3.520000000000000E-002    0.000000000000000E+000
 -3.510000000000000E-002    0.000000000000000E+000
 -3.500000000000000E-002    0.000000000000000E+000
 -3.490000000000000E-002    0.000000000000000E+000
 -3.480000000000000E-002    0.000000000000000E+000
 -3.470000000000000E-002    0.000000000000000E+000
 -3.460000000000000E-002    0.000000000000000E+000
 -3.450000000000000E-002    0.000000000000000E+000
 -3.440000000000000E-002    0.000000000000000E+000
 -3.430000000000000E-002    0.000000000000000E+000
 -3.420000000000000E-002    0.000000000000000E+000
 -3.410000000000000E-002    0.000000000000000E+000
 -3.400000000000000E-002    0.000000000000000E+000
 -3.390000000000000E-002    0.000000000000000E+000
 -3.380000000000000E-002    0.000000000000000E+000
 -3.370000000000000E-002    0.000000000000000E+000
 -3.360000000000000E-002    0.000000000000000E+000
 -3.350000000000000E-002    0.000000000000000E+000
 -3.340000000000000E-002    0.000000000000000E+000
 -3.330000000000000E-002    0.000000000000000E+000
 -3.320000000000000E-002    0.000000000000000E+000
 -3.310000000000000E-002    0.000000000000000E+000
 -3.300000000000000E-002    0.000000000000000E+000
 -3.290000000000000E-002    0.000000000000000E+000
 -3.280000000000000E-002    0.000000000000000E+000
 -3.270000000000000E-002    0.000000000000000E+000
 -3.260000000000000E-002    0.000000000000000E+000
 -3.250000000000000E-002    0.000000000000000E+000
 -3.240000000000000E-002    0.000000000000000E+000
 -3.230000000000000E-002    0.000000000000000E+000
 -3.220000000000000E-002    0.000000000000000E+000
 -3.210000000000000E-002    0.000000000000000E+000
 -3.200000000000000E-002    0.000000000000000E+000
 -3.190000000000000E-002    0.000000000000000E+000
 -3.180000000000000E-002    0.000000000000000E+000
 -3.170000000000000E-002    0.000000000000000E+000
 -3.160000000000000E-002    0.000000000000000E+000
 -3.150000000000000E-002    0.000000000000000E+000
 -3.140000000000000E-002    0.000000000000000E+000
 -3.130000000000000E-002    0.000000000000000E+000
 -3.120000000000000E-002    0.000000000000000E+000
 -3.110000000000000E-002    0.000000000000000E+000
 -3.100000000000000E-002    0.000000000000000E+000
 -3.090000000000000E-002    0.000000000000000E+000
 -3.080000000000000E-002    0.000000000000000E+000
 -3.070000000000000E-002    0.000000000000000E+000
 -3.060000000000000E-002    0.000000000000000E+000
 -3.050000000000000E-002    0.000000000000000E+000
 -3.040000000000000E-002    0.000000000000000E+000
 -3.030000000000000E-002    0.000000000000000E+000
 -3.020000000000000E-002    0.000000000000000E+000
 -3.010000000000000E-002    0.000000000000000E+000
 -3.000000000000000E-002    0.000000000000000E+000
 -2.990000000000000E-002    0.000000000000000E+000
 -2.980000000000000E-002    0.000000000000000E+000
 -2.970000000000000E-002    0.000000000000000E+000
 -2.960000000000000E-002    0.000000000000000E+000
 -2.950000000000000E-002    0.000000000000000E+000
 -2.940000000000000E-002    0.000000000000000E+000
 -2.930000000000000E-002    0.000000000000000E+000
 -2.920000000000000E-002    0.000000000000000E+000
 -2.910000000000000E-002    0.000000000000000E+000
 -2.900000000000000E-002    0.000000000000000E+000
 -2.890000000000000E-002    0.000000000000000E+000
 -2.880000000000000E-002    0.000000000000000E+000
 -2.870000000000000E-002    0.000000000000000E+000
 -2.860000000000000E-002    0.000000000000000E+000
 -2.850000000000000E-002    0.000000000000000E+000
 -2.840000000000000E-002    0.000000000000000E+000
 -2.830000000000000E-002    0.000000000000000E+000
 -2.820000000000000E-002    0.000000000000000E+000
 -2.810000000000000E-002    0.000000000000000E+000
 -2.800000000000000E-002    0.000000000000000E+000
 -2.790000000000000E-002    0.000000000000000E+000
 -2.780000000000000E-002    0.000000000000000E+000
 -2.770000000000000E-002    0.000000000000000E+000
 -2.760000000000000E-002    0.000000000000000E+000
 -2.750000000000000E-002    0.000000000000000E+000
 -2.740000000000000E-002    0.000000000000000E+000
 -2.730000000000000E-002    0.000000000000000E+000
 -2.720000000000000E-002    0.000000000000000E+000
 -2.710000000000000E-002    0.000000000000000E+000
 -2.700000000000000E-002    0.000000000000000E+000
 -2.690000000000000E-002    0.000000000000000E+000
 -2.680000000000000E-002    0.000000000000000E+000
 -2.670000000000000E-002    0.000000000000000E+000
 -2.660000000000000E-002    0.000000000000000E+000
 -2.650000000000000E-002    0.000000000000000E+000
 -2.640000000000000E-002    0.000000000000000E+000
 -2.630000000000000E-002    0.000000000000000E+000
 -2.620000000000000E-002    0.000000000000000E+000
 -2.610000000000000E-002    0.000000000000000E+000
 -2.600000000000000E-002    0.000000000000000E+000
 -2.590000000000000E-002    0.000000000000000E+000
 -2.580000000000000E-002    0.000000000000000E+000
 -2.570000000000000E-002    0.000000000000000E+000
 -2.560000000000000E-002    0.000000000000000E+000
 -2.550000000000000E-002    0.000000000000000E+000
 -2.540000000000000E-002    0.000000000000000E+000
 -2.530000000000000E-002    0.000000000000000E+000
 -2.520000000000000E-002    0.000000000000000E+000
 -2.510000000000000E-002    0.000000000000000E+000
 -2.500000000000000E-002    0.000000000000000E+000
 -2.490000000000000E-002    0.000000000000000E+000
 -2.480000000000000E-002    0.000000000000000E+000
 -2.470000000000000E-002    0.000000000000000E+000
 -2.460000000000000E-002    0.000000000000000E+000
 -2.450000000000000E-002    0.000000000000000E+000
 -2.440000000000000E-002    0.000000000000000E+000
 -2.430000000000000E-002    0.000000000000000E+000
 -2.420000000000000E-002    0.000000000000000E+000
 -2.410000000000000E-002    0.000000000000000E+000
 -2.400000000000000E-002    0.000000000000000E+000
 -2.390000000000000E-002    0.000000000000000E+000
 -2.380000000000000E-002    0.000000000000000E+000
 -2.370000000000000E-002    0.000000000000000E+000
 -2.360000000000000E-002    0.000000000000000E+000
 -2.350000000000000E-002    0.000000000000000E+000
 -2.340000000000000E-002    0.000000000000000E+000
 -2.330000000000000E-002   -2.138211768073757E-048
 -2.320000000000000E-002    2.204949319520211E-048
 -2.310000000000000E-002    2.151559278363047E-047
 -2.300000000000000E-002   -1.404546011784034E-047
 -2.290000000000000E-002   -6.457399539582745E-047
 -2.280000000000000E-002   -6.457399539582745E-047
 -2.270000000000000E-002   -3.335610358195060E-047
 -2.260000000000000E-002   -2.365380455170423E-047
 -2.250000000000000E-002    5.282743919388980E-047
 -2.240000000000000E-002    1.669412100575819E-046
 -2.230000000000000E-002    3.186875080393722E-046
 -2.220000000000000E-002    5.320559084508442E-046
 -2.210000000000000E-002    7.875062551259652E-046
 -2.200000000000000E-002    8.813494007386504E-046
 -2.190000000000000E-002    8.356743589906124E-046
 -2.180000000000000E-002    6.391622211283108E-046
 -2.170000000000000E-002   -5.306366965162288E-046
 -2.160000000000000E-002   -1.041298934109314E-045
 -2.150000000000000E-002   -2.007577439916807E-045
 -2.140000000000000E-002   -3.583998448231172E-045
 -2.130000000000000E-002   -5.616480885723927E-045
 -2.120000000000000E-002   -8.381823512248290E-045
 -2.110000000000000E-002   -1.133080163673310E-044
 -2.100000000000000E-002   -1.316511977881412E-044
 -2.090000000000000E-002   -1.322626054298750E-044
 -2.080000000000000E-002   -1.121739915356964E-044
 -2.070000000000000E-002   -5.397380140936188E-045
 -2.060000000000000E-002    6.604773909222135E-045
 -2.050000000000000E-002    2.506934974376772E-044
 -2.040000000000000E-002    5.074660917375485E-044
 -2.030000000000000E-002    8.358208439406701E-044
 -2.020000000000000E-002    1.200868592638040E-043
 -2.010000000000000E-002    1.571270787797467E-043
 -2.000000000000000E-002    1.855790602006773E-043
 -1.990000000000000E-002    1.934464279673894E-043
 -1.980000000000000E-002    1.651690517865126E-043
 -1.970000000000000E-002    8.227698757919646E-044
 -1.960000000000000E-002   -7.515904717351553E-044
 -1.950000000000000E-002   -3.232885988354257E-043
 -1.940000000000000E-002   -6.689613903680495E-043
 -1.930000000000000E-002   -1.104728355888515E-042
 -1.920000000000000E-002   -1.595285588498411E-042
 -1.910000000000000E-002   -2.071989646678504E-042
 -1.900000000000000E-002   -2.422620912953700E-042
 -1.890000000000000E-002   -2.488951192361579E-042
 -1.880000000000000E-002   -2.071388036367870E-042
 -1.870000000000000E-002   -9.470842951666635E-043
 -1.860000000000000E-002    1.098024169595615E-042
 -1.850000000000000E-002    4.215701443145081E-042
 -1.840000000000000E-002    8.419714167287762E-042
 -1.830000000000000E-002    1.350383804821770E-041
 -1.820000000000000E-002    1.894530393891048E-041
 -1.810000000000000E-002    2.382733722809050E-041
 -1.800000000000000E-002    2.679610984163449E-041
 -1.790000000000000E-002    2.609032765961522E-041
 -1.780000000000000E-002    1.967223419481391E-041
 -1.770000000000000E-002    5.497673325745444E-042
 -1.760000000000000E-002   -1.806576153376648E-041
 -1.750000000000000E-002   -5.166114064406274E-041
 -1.740000000000000E-002   -9.426132880976427E-041
 -1.730000000000000E-002   -1.424490663135012E-040
 -1.720000000000000E-002   -1.898085686668646E-040
 -1.710000000000000E-002   -2.265952461789472E-040
 -1.700000000000000E-002   -2.399144247107913E-040
 -1.690000000000000E-002   -2.146150519380300E-040
 -1.680000000000000E-002   -1.351007301212184E-040
 -1.670000000000000E-002    1.186575458398519E-041
 -1.660000000000000E-002    2.334130627605645E-040
 -1.650000000000000E-002    5.261637822072779E-040
 -1.640000000000000E-002    8.717295835605233E-040
 -1.630000000000000E-002    1.232921991015462E-039
 -1.620000000000000E-002    1.551730716187069E-039
 -1.610000000000000E-002    1.750254993647441E-039
 -1.600000000000000E-002    1.735720803950784E-039
 -1.590000000000000E-002    1.410445554436490E-039
 -1.580000000000000E-002    6.870339341593061E-040
 -1.570000000000000E-002   -4.917459046377573E-040
 -1.560000000000000E-002   -2.130041030045979E-039
 -1.550000000000000E-002   -4.155760888572846E-039
 -1.540000000000000E-002   -6.401123071918134E-039
 -1.530000000000000E-002   -8.591640011602056E-039
 -1.520000000000000E-002   -1.034854379736101E-038
 -1.510000000000000E-002   -1.120909986304035E-038
 -1.500000000000000E-002   -1.066779770314460E-038
 -1.490000000000000E-002   -8.238965771134147E-039
 -1.480000000000000E-002   -3.538116449224033E-039
 -1.470000000000000E-002    3.624374350566203E-039
 -1.460000000000000E-002    1.314728531506141E-038
 -1.450000000000000E-002    2.455326070830586E-038
 -1.440000000000000E-002    3.692878454933811E-038
 -1.430000000000000E-002    4.890392588563427E-038
 -1.420000000000000E-002    5.868398510200121E-038
 -1.410000000000000E-002    6.414120831300111E-038
 -1.400000000000000E-002    6.296940526722563E-038
 -1.390000000000000E-002    5.289849695932413E-038
 -1.380000000000000E-002    3.196116373886409E-038
 -1.370000000000000E-002   -1.199461050224877E-039
 -1.360000000000000E-002   -4.699374629977333E-038
 -1.350000000000000E-002   -1.045333329213569E-037
 -1.340000000000000E-002   -1.712757444931407E-037
 -1.330000000000000E-002   -2.426821008501475E-037
 -1.320000000000000E-002   -3.119143662336177E-037
 -1.310000000000000E-002   -3.696187854229511E-037
 -1.300000000000000E-002   -4.038722104035311E-037
 -1.290000000000000E-002   -4.004084164288172E-037
 -1.280000000000000E-002   -3.432820315336197E-037
 -1.270000000000000E-002   -2.161585004621332E-037
 -1.260000000000000E-002   -4.420496968211515E-039
 -1.250000000000000E-002    3.017690913129301E-037
 -1.240000000000000E-002    7.034257964991751E-037
 -1.230000000000000E-002    1.187908031036604E-036
 -1.220000000000000E-002    1.723761862548595E-036
 -1.210000000000000E-002    2.256073729558829E-036
 -1.200000000000000E-002    2.703526182065200E-036
 -1.190000000000000E-002    2.958661978076113E-036
 -1.180000000000000E-002    2.892997336689024E-036
 -1.170000000000000E-002    2.368497227111666E-036
 -1.160000000000000E-002    1.256400230915272E-036
 -1.150000000000000E-002   -5.365921242050672E-037
 -1.140000000000000E-002   -3.036171401970473E-036
 -1.130000000000000E-002   -6.165526001032745E-036
 -1.120000000000000E-002   -9.712837175369917E-036
 -1.110000000000000E-002   -1.330806339064673E-035
 -1.100000000000000E-002   -1.641708580431142E-035
 -1.090000000000000E-002   -1.836134925142720E-035
 -1.080000000000000E-002   -1.836974345861176E-035
 -1.070000000000000E-002   -1.566625753623369E-035
 -1.060000000000000E-002   -9.591914926281492E-036
 -1.050000000000000E-002    2.470274054852176E-037
 -1.040000000000000E-002    1.381998789668925E-035
 -1.030000000000000E-002    3.052449744689899E-035
 -1.020000000000000E-002    4.907787204189519E-035
 -1.010000000000000E-002    6.747809319535916E-035
 -1.000000000000000E-002    8.306145474470743E-035
 -9.899999999999999E-003    9.267688632626313E-035
 -9.800000000000000E-003    9.298368514454519E-035
 -9.699999999999999E-003    8.086202094465275E-035
 -9.599999999999999E-003    5.390545696522638E-035
 -9.500000000000000E-003    1.094558896551794E-035
 -9.399999999999999E-003   -4.745645589997635E-035
 -9.299999999999999E-003   -1.186242623170479E-034
 -9.200000000000000E-003   -1.975561940288343E-034
 -9.099999999999999E-003   -2.769476621410187E-034
 -8.999999999999999E-003   -3.474775370841854E-034
 -8.900000000000000E-003   -3.983614585252010E-034
 -8.799999999999999E-003   -4.181429037651814E-034
 -8.699999999999999E-003   -3.956695070464998E-034
 -8.600000000000000E-003   -3.211893507356958E-034
 -8.499999999999999E-003   -1.875069953166830E-034
 -8.399999999999999E-003    8.841426252868013E-036
 -8.300000000000000E-003    2.664049931756019E-034
 -8.199999999999999E-003    5.776132143463010E-034
 -8.100000000000000E-003    9.275303332756893E-034
 -8.000000000000000E-003    1.292586995044166E-033
 -7.899999999999999E-003    1.639392839442706E-033
 -7.800000000000000E-003    1.923887530281356E-033
 -7.699999999999999E-003    2.091270703270419E-033
 -7.599999999999999E-003    2.077362201588001E-033
 -7.499999999999999E-003    1.812191991742034E-033
 -7.399999999999999E-003    1.226652327790570E-033
 -7.299999999999999E-003    2.628688287055766E-034
 -7.199999999999999E-003   -1.111505837171676E-033
 -7.100000000000000E-003   -2.885637565276907E-033
 -6.999999999999999E-003   -4.986115078244697E-033
 -6.899999999999999E-003   -7.258681663916068E-033
 -6.800000000000000E-003   -9.455200219584738E-033
 -6.699999999999999E-003   -1.123091708942842E-032
 -6.599999999999999E-003   -1.215742933571380E-032
 -6.499999999999999E-003   -1.175611903895406E-032
 -6.399999999999999E-003   -9.554950517770949E-033
 -6.299999999999999E-003   -5.168280282712203E-033
 -6.199999999999999E-003    1.605187571057341E-033
 -6.100000000000000E-003    1.067651243541092E-032
 -5.999999999999999E-003    2.156837284724357E-032
 -5.899999999999999E-003    3.334489091853629E-032
 -5.800000000000000E-003    4.459202123624133E-032
 -5.699999999999999E-003    5.347018754012605E-032
 -5.599999999999999E-003    5.785547526210522E-032
 -5.499999999999999E-003    5.557573553268179E-032
 -5.399999999999999E-003    4.473333138216160E-032
 -5.299999999999999E-003    2.408866104328545E-032
 -5.199999999999999E-003   -6.540066158329308E-033
 -5.099999999999999E-003   -4.592149697626241E-032
 -4.999999999999999E-003   -9.117136465684193E-032
 -4.899999999999999E-003   -1.377003235501725E-031
 -4.799999999999999E-003   -1.794098590545885E-031
 -4.699999999999999E-003   -2.091718795192371E-031
 -4.599999999999999E-003   -2.195899843512870E-031
 -4.499999999999999E-003   -2.039936598485758E-031
 -4.399999999999999E-003   -1.575671230098348E-031
 -4.299999999999999E-003   -7.847042330133835E-032
 -4.199999999999999E-003    3.121955727217199E-032
 -4.099999999999999E-003    1.649271507605778E-031
 -3.999999999999999E-003    3.115113565827610E-031
 -3.899999999999999E-003    4.558179264494395E-031
 -3.799999999999999E-003    5.798720093644053E-031
 -3.699999999999999E-003    6.646352977510200E-031
 -3.599999999999999E-003    6.921526646156690E-031
 -3.499999999999999E-003    6.478274636966406E-031
 -3.399999999999999E-003    5.225215826958634E-031
 -3.299999999999999E-003    3.141786485304384E-031
 -3.199999999999999E-003    2.873425493921386E-032
 -3.099999999999999E-003   -3.198054320026229E-031
 -2.999999999999999E-003   -7.100793448731744E-031
 -2.899999999999999E-003   -1.114686466806361E-030
 -2.799999999999999E-003   -1.501775177463491E-030
 -2.699999999999999E-003   -1.836538563703164E-030
 -2.599999999999999E-003   -2.082299265310278E-030
 -2.499999999999999E-003   -2.201056278117682E-030
 -2.399999999999999E-003   -2.153653419077007E-030
 -2.299999999999999E-003   -1.900084386185308E-030
 -2.199999999999999E-003   -1.400778980768297E-030
 -2.099999999999999E-003   -6.199212140864215E-031
 -1.999999999999999E-003    4.681860807602523E-031
 -1.899999999999999E-003    1.869063544512638E-030
 -1.799999999999999E-003    3.554418358171031E-030
 -1.699999999999999E-003    5.446141877640347E-030
 -1.599999999999999E-003    7.400497412835439E-030
 -1.499999999999999E-003    9.196392769239763E-030
 -1.399999999999999E-003    1.053266741119308E-029
 -1.299999999999999E-003    1.103964652349199E-029
 -1.199999999999999E-003    1.030958629423551E-029
 -1.099999999999999E-003    7.948630544205625E-030
 -9.999999999999989E-004    3.649634645182951E-030
 -8.999999999999990E-004   -2.719276182580056E-030
 -7.999999999999990E-004   -1.102067183009458E-029
 -6.999999999999989E-004   -2.076357721557511E-029
 -5.999999999999990E-004   -3.104816141502360E-029
 -4.999999999999989E-004   -4.056002690008252E-029
 -3.999999999999989E-004   -4.763292484703123E-029
 -2.999999999999989E-004   -5.039282747365389E-029
 -1.999999999999989E-004   -4.698595394104923E-029
 -9.999999999999892E-005   -3.587952365709042E-029
  1.084202172485504E-018   -1.620752338053947E-029
  1.000000000000011E-004    1.188229226590695E-029
  2.000000000000011E-004    4.693744040918785E-029
  3.000000000000011E-004    8.603020739102765E-029
  4.000000000000011E-004    1.247702367696258E-028
  5.000000000000011E-004    1.575494513135563E-028
  6.000000000000011E-004    1.780438534633022E-028
  7.000000000000011E-004    1.799608217942470E-028
  8.000000000000011E-004    1.579778674109852E-028
  9.000000000000012E-004    1.087744817047601E-028
  1.000000000000001E-003    3.201987590133816E-029
  1.100000000000001E-003   -6.884533394453510E-029
  1.200000000000001E-003   -1.862003940288059E-028
  1.300000000000001E-003   -3.083530222815469E-028
  1.400000000000001E-003   -4.202608075024938E-028
  1.500000000000001E-003   -5.048851928449280E-028
  1.600000000000001E-003   -5.451040439992608E-028
  1.700000000000001E-003   -5.260112772918359E-028
  1.800000000000001E-003   -4.373405414979009E-028
  1.900000000000001E-003   -2.756870616745293E-028
  2.000000000000001E-003   -4.617930100620834E-029
  2.100000000000001E-003    2.367196047067749E-028
  2.200000000000001E-003    5.495164297931941E-028
  2.300000000000001E-003    8.612014067436386E-028
  2.400000000000001E-003    1.135910630709166E-027
  2.500000000000001E-003    1.336495150535074E-027
  2.600000000000001E-003    1.428610106541293E-027
  2.700000000000001E-003    1.384820012168578E-027
  2.800000000000001E-003    1.188197895621898E-027
  2.900000000000001E-003    8.349396131695983E-028
  3.000000000000001E-003    3.356713870014135E-028
  3.100000000000001E-003   -2.846728554613610E-028
  3.200000000000001E-003   -9.882827764424163E-028
  3.300000000000001E-003   -1.726872450840536E-027
  3.400000000000001E-003   -2.444561792115908E-027
  3.500000000000001E-003   -3.080725273349953E-027
  3.600000000000001E-003   -3.572402820064428E-027
  3.700000000000001E-003   -3.856130315875722E-027
  3.800000000000001E-003   -3.869404429383766E-027
  3.900000000000001E-003   -3.552386468147908E-027
  4.000000000000001E-003   -2.850775715674519E-027
  4.100000000000001E-003   -1.720905384284984E-027
  4.200000000000001E-003   -1.379658458522208E-028
  4.300000000000001E-003    1.892253144635689E-027
  4.400000000000001E-003    4.318589967761479E-027
  4.500000000000001E-003    7.028319510085406E-027
  4.600000000000002E-003    9.832438395695319E-027
  4.700000000000001E-003    1.245644527743192E-026
  4.800000000000001E-003    1.454129596951060E-026
  4.900000000000002E-003    1.565918757955379E-026
  5.000000000000001E-003    1.534779503362865E-026
  5.100000000000001E-003    1.316443923210128E-026
  5.200000000000001E-003    8.758487693826447E-027
  5.300000000000002E-003    1.956359334564122E-027
  5.400000000000001E-003   -7.150724117264144E-027
  5.500000000000001E-003   -1.812982782001266E-026
  5.600000000000002E-003   -3.015639462583675E-026
  5.700000000000001E-003   -4.200782520704645E-026
  5.800000000000001E-003   -5.211499363797658E-026
  5.900000000000002E-003   -5.868065262175626E-026
  6.000000000000001E-003   -5.986558119803689E-026
  6.100000000000001E-003   -5.403280913370248E-026
  6.200000000000002E-003   -4.002863673638493E-026
  6.300000000000002E-003   -1.746816847766341E-026
  6.400000000000001E-003    1.301555850376566E-026
  6.500000000000001E-003    4.960378633452012E-026
  6.600000000000002E-003    8.924870270945300E-026
  6.700000000000001E-003    1.277886898102558E-025
  6.800000000000001E-003    1.602403173926022E-025
  6.900000000000002E-003    1.812633329649380E-025
  7.000000000000001E-003    1.857693541137597E-025
  7.100000000000001E-003    1.696193141619583E-025
  7.200000000000002E-003    1.303316451610950E-025
  7.300000000000002E-003    6.770893148121327E-026
  7.400000000000001E-003   -1.571323976677815E-026
  7.500000000000001E-003   -1.144827698313088E-025
  7.600000000000002E-003   -2.203766868634475E-025
  7.700000000000001E-003   -3.229052222563434E-025
  7.800000000000001E-003   -4.101599359138724E-025
  7.900000000000001E-003   -4.699442042156595E-025
  8.000000000000002E-003   -4.910835942773841E-025
  8.100000000000001E-003   -4.647782099491488E-025
  8.200000000000001E-003   -3.858462521519334E-025
  8.300000000000002E-003   -2.537079940690223E-025
  8.400000000000001E-003   -7.298583289423652E-026
  8.500000000000002E-003    1.463636624457431E-025
  8.600000000000002E-003    3.894161136388153E-025
  8.700000000000001E-003    6.371176163623232E-025
  8.800000000000002E-003    8.675184391968495E-025
  8.900000000000002E-003    1.057287413586009E-024
  9.000000000000001E-003    1.183381171403383E-024
  9.100000000000002E-003    1.224746952825372E-024
  9.200000000000002E-003    1.163969908055911E-024
  9.300000000000001E-003    9.888133179486765E-025
  9.400000000000002E-003    6.936434809728495E-025
  9.500000000000001E-003    2.807555724542007E-025
  9.600000000000001E-003   -2.383845355648076E-025
  9.700000000000002E-003   -8.420067957860855E-025
  9.800000000000001E-003   -1.497109551889573E-024
  9.900000000000001E-003   -2.158940275626576E-024
  1.000000000000000E-002   -2.771200391589952E-024
  1.010000000000000E-002   -3.267380013830859E-024
  1.020000000000000E-002   -3.573666525017777E-024
  1.030000000000000E-002   -3.613817117253073E-024
  1.040000000000000E-002   -3.316218035330332E-024
  1.050000000000000E-002   -2.623074423827424E-024
  1.060000000000000E-002   -1.501261357436459E-024
  1.070000000000000E-002    4.609697855742624E-026
  1.080000000000000E-002    1.968733434031410E-024
  1.090000000000000E-002    4.160840644181185E-024
  1.100000000000000E-002    6.457224780618149E-024
  1.110000000000000E-002    8.635996497735876E-024
  1.120000000000000E-002    1.042943540232667E-023
  1.130000000000000E-002    1.154392244143308E-023
  1.140000000000000E-002    1.168872800897557E-023
  1.150000000000000E-002    1.061212635848677E-023
  1.160000000000000E-002    8.141854270470330E-024
  1.170000000000000E-002    4.225550636407215E-024
  1.180000000000000E-002   -1.034221157771831E-024
  1.190000000000000E-002   -7.356238649794274E-024
  1.200000000000000E-002   -1.427384437512156E-023
  1.210000000000000E-002   -2.114968847321599E-023
  1.220000000000000E-002   -2.721461420480481E-023
  1.230000000000000E-002   -3.163061408426645E-023
  1.240000000000000E-002   -3.357458986589395E-023
  1.250000000000000E-002   -3.233646065411971E-023
  1.260000000000000E-002   -2.742204868857512E-023
  1.270000000000000E-002   -1.864902833327357E-023
  1.280000000000000E-002   -6.223328468586728E-024
  1.290000000000000E-002    9.216279178338680E-024
  1.300000000000000E-002    2.659538421743686E-023
  1.310000000000000E-002    4.444934956840066E-023
  1.320000000000000E-002    6.101827629418420E-023
  1.330000000000000E-002    7.438745744748217E-023
  1.340000000000000E-002    8.266322583913162E-023
  1.350000000000000E-002    8.416952387848915E-023
  1.360000000000000E-002    7.764653792470011E-023
  1.370000000000000E-002    6.243129259483265E-023
  1.380000000000000E-002    3.860031171711877E-023
  1.390000000000000E-002    7.057533947954463E-024
  1.400000000000000E-002   -3.044504908430071E-023
  1.410000000000000E-002   -7.136032642253443E-023
  1.420000000000000E-002   -1.124726800108634E-022
  1.430000000000000E-002   -1.500919538924553E-022
  1.440000000000000E-002   -1.803031485318313E-022
  1.450000000000000E-002   -1.992569995467422E-022
  1.460000000000000E-002   -2.034839540549308E-022
  1.470000000000000E-002   -1.902142162686801E-022
  1.480000000000000E-002   -1.576864685667596E-022
  1.490000000000000E-002   -1.054289836797115E-022
  1.500000000000000E-002   -3.449663972340396E-023
  1.510000000000000E-002    5.235329008394303E-023
  1.520000000000000E-002    1.505665314548589E-022
  1.530000000000000E-002    2.538011201601441E-022
  1.540000000000000E-002    3.540663598531309E-022
  1.550000000000000E-002    4.420195037813309E-022
  1.560000000000000E-002    5.074432084774259E-022
  1.570000000000000E-002    5.399212021122835E-022
  1.580000000000000E-002    5.297121224709111E-022
  1.590000000000000E-002    4.687967477463561E-022
  1.600000000000000E-002    3.520458688981502E-022
  1.610000000000000E-002    1.784183272679185E-022
  1.620000000000000E-002   -4.793524645610721E-023
  1.630000000000000E-002   -3.168172172963025E-022
  1.640000000000000E-002   -6.115463591132982E-022
  1.650000000000000E-002   -9.091094586804648E-022
  1.660000000000000E-002   -1.181042966923140E-021
  1.670000000000000E-002   -1.395132608413036E-021
  1.680000000000000E-002   -1.517938089708293E-021
  1.690000000000000E-002   -1.518051768880207E-021
  1.700000000000000E-002   -1.369878806504122E-021
  1.710000000000000E-002   -1.057619433275089E-021
  1.720000000000000E-002   -5.790313869794004E-022
  1.730000000000000E-002    5.150897612250620E-023
  1.740000000000000E-002    8.011470665278156E-022
  1.750000000000000E-002    1.618343473068649E-021
  1.760000000000000E-002    2.434667155751769E-021
  1.770000000000000E-002    3.168755441952337E-021
  1.780000000000000E-002    3.732394849169958E-021
  1.790000000000000E-002    4.038411138380456E-021
  1.800000000000000E-002    4.009808129658708E-021
  1.810000000000000E-002    3.589375450887299E-021
  1.820000000000000E-002    2.748791939821495E-021
  1.830000000000000E-002    1.496200042745509E-021
  1.840000000000000E-002   -1.187645510748386E-022
  1.850000000000000E-002   -2.003356346960549E-021
  1.860000000000000E-002   -4.024129541689322E-021
  1.870000000000000E-002   -6.013645004455017E-021