 -4.000000000000000E-002    0.000000000000000E+000
 -3.990000000000000E-002    0.000000000000000E+000
 -3.980000000000000E-002    0.000000000000000E+000
 -3.970000000000000E-002    0.000000000000000E+000
 -3.960000000000000E-002    0.000000000000000E+000
 -3.950000000000000E-002    0.000000000000000E+000
 -3.940000000000000E-002    0.000000000000000E+000
 -3.930000000000000E-002    0.000000000000000E+000
 -3.920000000000000E-002    0.000000000000000E+000
 -3.910000000000000E-002    0.000000000000000E+000
 -3.900000000000000E-002    0.000000000000000E+000
 -3.890000000000000E-002    0.000000000000000E+000
 -3.880000000000000E-002    0.000000000000000E+000
 -3.870000000000000E-002    0.000000000000000E+000
 -3.860000000000000E-002    0.000000000000000E+000
 -3.850000000000000E-002    0.000000000000000E+000
 -3.840000000000000E-002    0.000000000000000E+000
 -3.830000000000000E-002    0.000000000000000E+000
 -3.820000000000000E-002    0.000000000000000E+000
 -3.810000000000000E-002    0.000000000000000E+000
 -3.800000000000000E-002    0.000000000000000E+000
 -3.790000000000000E-002    0.000000000000000E+000
 -3.780000000000000E-002    0.000000000000000E+000
 -3.770000000000000E-002    0.000000000000000E+000
 -3.760000000000000E-002    0.000000000000000E+000
 -3.750000000000000E-002    0.000000000000000E+000
 -3.740000000000000E-002    0.000000000000000E+000
 -3.730000000000000E-002    0.000000000000000E+000
 -3.720000000000000E-002    0.000000000000000E+000
 -3.710000000000000E-002    0.000000000000000E+000
 -3.700000000000000E-002    0.000000000000000E+000
 -3.690000000000000E-002    0.000000000000000E+000
 -3.680000000000000E-002    0.000000000000000E+000
 -3.670000000000000E-002    0.000000000000000E+000
 -3.660000000000000E-002    0.000000000000000E+000
 -3.650000000000000E-002   -1.838862120543431E-047
 -3.640000000000000E-002    9.113964528802687E-048
 -3.630000000000000E-002    1.625163978351799E-046
 -3.620000000000000E-002    7.063413864084635E-046
 -3.610000000000000E-002    2.206517846107011E-045
 -3.600000000000000E-002    6.437633591568858E-045
 -3.590000000000000E-002    1.663474577893406E-044
 -3.580000000000000E-002    4.152987382583083E-044
 -3.570000000000000E-002    9.320750853626263E-044
 -3.560000000000000E-002    1.961181035790260E-043
 -3.550000000000000E-002    3.817416351398768E-043
 -3.540000000000000E-002    6.780652054006067E-043
 -3.530000000000000E-002    1.073471046681421E-042
 -3.520000000000000E-002    1.425106766322918E-042
 -3.510000000000000E-002    1.272074202833946E-042
 -3.500000000000000E-002   -5.081199655751630E-043
 -3.490000000000000E-002   -6.231896884117156E-042
 -3.480000000000000E-002   -2.013192445502287E-041
 -3.470000000000000E-002   -4.907705332320878E-041
 -3.460000000000000E-002   -1.027754909230134E-040
 -3.450000000000000E-002   -1.923674233667112E-040
 -3.440000000000000E-002   -3.254596762093422E-040
 -3.430000000000000E-002   -4.946456182815841E-040
 -3.420000000000000E-002   -6.557497483796241E-040
 -3.410000000000000E-002   -6.922355933524124E-040
 -3.400000000000000E-002   -3.647667320160929E-040
 -3.390000000000000E-002    7.481270916285532E-040
 -3.380000000000000E-002    3.298669689732884E-039
 -3.370000000000000E-002    8.165856130749188E-039
 -3.360000000000000E-002    1.632620165573494E-038
 -3.350000000000000E-002    2.849192079583544E-038
 -3.340000000000000E-002    4.438330889843895E-038
 -3.330000000000000E-002    6.150841559557836E-038
 -3.320000000000000E-002    7.339816315877115E-038
 -3.310000000000000E-002    6.743596069071040E-038
 -3.300000000000000E-002    2.277445348367068E-038
 -3.290000000000000E-002   -9.062506752013450E-038
 -3.280000000000000E-002   -3.100940473004376E-037
 -3.270000000000000E-002   -6.730360005914047E-037
 -3.260000000000000E-002   -1.201459358658294E-036
 -3.250000000000000E-002   -1.875619179471080E-036
 -3.240000000000000E-002   -2.595803806023080E-036
 -3.230000000000000E-002   -3.135122567133858E-036
 -3.220000000000000E-002   -3.092704690432040E-036
 -3.210000000000000E-002   -1.866060348579463E-036
 -3.200000000000000E-002    1.327537414458270E-036
 -3.190000000000000E-002    7.340625553787940E-036
 -3.180000000000000E-002    1.685173501558926E-035
 -3.170000000000000E-002    2.995257142631595E-035
 -3.160000000000000E-002    4.556105530941989E-035
 -3.150000000000000E-002    6.071566075927255E-035
 -3.140000000000000E-002    6.990134966286208E-035
 -3.130000000000000E-002    6.468167705762046E-035
 -3.120000000000000E-002    3.404480097253653E-035
 -3.110000000000000E-002   -3.402835281636606E-035
 -3.100000000000000E-002   -1.492630800795572E-034
 -3.090000000000000E-002   -3.137279912077247E-034
 -3.080000000000000E-002   -5.145376773479513E-034
 -3.070000000000000E-002   -7.155503621905284E-034
 -3.060000000000000E-002   -8.501405811642025E-034
 -3.050000000000000E-002   -8.185112190327791E-034
 -3.040000000000000E-002   -4.943352373428430E-034
 -3.030000000000000E-002    2.537211799100525E-034
 -3.020000000000000E-002    1.520568007873388E-033
 -3.010000000000000E-002    3.300994017835343E-033
 -3.000000000000000E-002    5.406964507247710E-033
 -2.990000000000000E-002    7.378213391054076E-033
 -2.980000000000000E-002    8.410582557682111E-033
 -2.970000000000000E-002    7.340299973931273E-033
 -2.960000000000000E-002    2.734512513455623E-033
 -2.950000000000000E-002   -6.856182131963348E-033
 -2.940000000000000E-002   -2.243538494969403E-032
 -2.930000000000000E-002   -4.386970341535233E-032
 -2.920000000000000E-002   -6.900579496967262E-032
 -2.910000000000000E-002   -9.271897466150395E-032
 -2.900000000000000E-002   -1.061290119345290E-031
 -2.890000000000000E-002   -9.634255997493933E-032
 -2.880000000000000E-002   -4.718910972444053E-032
 -2.870000000000000E-002    5.853338748668976E-032
 -2.860000000000000E-002    2.348497737908571E-031
 -2.850000000000000E-002    4.862136280234948E-031
 -2.840000000000000E-002    7.991541679985419E-031
 -2.830000000000000E-002    1.132876602754630E-030
 -2.820000000000000E-002    1.410618241945522E-030
 -2.810000000000000E-002    1.514555685104577E-030
 -2.800000000000000E-002    1.287956261763791E-030
 -2.790000000000000E-002    5.487801484495566E-031
 -2.780000000000000E-002   -8.812893511521985E-031
 -2.770000000000000E-002   -3.129779148588896E-030
 -2.760000000000000E-002   -6.208533877475965E-030
 -2.750000000000000E-002   -9.935663722799134E-030
 -2.740000000000000E-002   -1.385491031649561E-029
 -2.730000000000000E-002   -1.716982455022441E-029
 -2.720000000000000E-002   -1.871674832687479E-029
 -2.710000000000000E-002   -1.700534574962548E-029
 -2.700000000000000E-002   -1.035622394978952E-029
 -2.690000000000000E-002    2.840166606016051E-030
 -2.680000000000000E-002    2.373272660666738E-029
 -2.670000000000000E-002    5.249931955813500E-029
 -2.660000000000000E-002    8.776106421113865E-029
 -2.650000000000000E-002    1.260042699768845E-028
 -2.640000000000000E-002    1.611333468043536E-028
 -2.630000000000000E-002    1.843126415528604E-028
 -2.620000000000000E-002    1.842736826850802E-028
 -2.610000000000000E-002    1.482567987850214E-028
 -2.600000000000000E-002    6.371124288121815E-029
 -2.590000000000000E-002   -7.921119538339281E-029
 -2.580000000000000E-002   -2.844686371105366E-028
 -2.570000000000000E-002   -5.465214147335779E-028
 -2.560000000000000E-002   -8.467749926406488E-028
 -2.550000000000000E-002   -1.150734767488206E-027
 -2.540000000000000E-002   -1.406687015081539E-027
 -2.530000000000000E-002   -1.546784255670034E-027
 -2.520000000000000E-002   -1.491356086941152E-027
 -2.510000000000000E-002   -1.157046830655897E-027
 -2.500000000000000E-002   -4.689803128992409E-028
 -2.490000000000000E-002    6.234183268448881E-028
 -2.480000000000000E-002    2.128026428128639E-027
 -2.470000000000000E-002    3.990919045518398E-027
 -2.460000000000000E-002    6.079181937085018E-027
 -2.450000000000000E-002    8.168887656673589E-027
 -2.440000000000000E-002    9.941840970517359E-027
 -2.430000000000000E-002    1.099468090327191E-026
 -2.420000000000000E-002    1.086344384657824E-026
 -2.410000000000000E-002    9.065699497910939E-027
 -2.400000000000000E-002    5.160843303105519E-027
 -2.390000000000000E-002   -1.172859583449765E-027
 -2.380000000000000E-002   -1.004828970143412E-026
 -2.370000000000000E-002   -2.127308680318450E-026
 -2.360000000000000E-002   -3.425620917639333E-026
 -2.350000000000000E-002   -4.792980274384510E-026
 -2.340000000000000E-002   -6.070136615856400E-026
 -2.330000000000000E-002   -7.045364179843491E-026
 -2.320000000000000E-002   -7.461112904602813E-026
 -2.310000000000000E-002   -7.029227142596666E-026
 -2.300000000000000E-002   -5.456419781274884E-026
 -2.290000000000000E-002   -2.481165170746525E-026
 -2.280000000000000E-002    2.077823772482435E-026
 -2.270000000000000E-002    8.262897865053560E-026
 -2.260000000000000E-002    1.591210030481779E-025
 -2.250000000000000E-002    2.459341275926137E-025
 -2.240000000000000E-002    3.354816298559788E-025
 -2.230000000000000E-002    4.165640319742663E-025
 -2.220000000000000E-002    4.743989661817494E-025
 -2.210000000000000E-002    4.911982877304160E-025
 -2.200000000000000E-002    4.474563141044282E-025
 -2.190000000000000E-002    3.240719242092188E-025
 -2.180000000000000E-002    1.053453347146637E-025
 -2.170000000000000E-002   -2.172386324487775E-025
 -2.160000000000000E-002   -6.407012717535891E-025
 -2.150000000000000E-002   -1.146200640428841E-024
 -2.140000000000000E-002   -1.695282727370103E-024
 -2.130000000000000E-002   -2.227619689805929E-024
 -2.120000000000000E-002   -2.661218403411670E-024
 -2.110000000000000E-002   -2.896074132164711E-024
 -2.100000000000000E-002   -2.822065354493484E-024
 -2.090000000000000E-002   -2.331495130524679E-024
 -2.080000000000000E-002   -1.336075250948833E-024
 -2.070000000000000E-002    2.126561283307481E-025
 -2.060000000000000E-002    2.301434549619513E-024
 -2.050000000000000E-002    4.834790603159255E-024
 -2.040000000000000E-002    7.619699822953395E-024
 -2.030000000000000E-002    1.035955511244475E-023
 -2.020000000000000E-002    1.266158920642837E-023
 -2.010000000000000E-002    1.406112680826018E-023
 -2.000000000000000E-002    1.406451181534932E-023
 -1.990000000000000E-002    1.221019684091965E-023
 -1.980000000000000E-002    8.144503225705420E-024
 -1.970000000000000E-002    1.705233580573269E-024
 -1.960000000000000E-002   -6.996952623090946E-024
 -1.950000000000000E-002   -1.751206742354543E-023
 -1.940000000000000E-002   -2.901322117870347E-023
 -1.930000000000000E-002   -4.030148096286642E-023
 -1.920000000000000E-002   -4.986398916002803E-023
 -1.910000000000000E-002   -5.599105179124990E-023
 -1.900000000000000E-002   -5.695074688585783E-023
 -1.890000000000000E-002   -5.121076735220254E-023
 -1.880000000000000E-002   -3.768800686736643E-023
 -1.870000000000000E-002   -1.599797141699381E-023
 -1.860000000000000E-002    1.333006253335139E-023
 -1.850000000000000E-002    4.870842487075706E-023
 -1.840000000000000E-002    8.745066571490353E-023
 -1.830000000000000E-002    1.258611014403373E-022
 -1.820000000000000E-002    1.594666646131698E-022
 -1.810000000000000E-002    1.833862414429564E-022
 -1.800000000000000E-002    1.928137452159478E-022
 -1.790000000000000E-002    1.835720908785965E-022
 -1.780000000000000E-002    1.526814408694260E-022
 -1.770000000000000E-002    9.887644115800002E-023
 -1.760000000000000E-002    2.300793473442331E-023
 -1.750000000000000E-002   -7.172550455811412E-023
 -1.740000000000000E-002   -1.797522236312396E-022
 -1.730000000000000E-002   -2.933204415313239E-022
 -1.720000000000000E-002   -4.028950845980765E-022
 -1.710000000000000E-002   -4.977217938249823E-022
 -1.700000000000000E-002   -5.665062389925488E-022
 -1.690000000000000E-002   -5.981548170052758E-022
 -1.680000000000000E-002   -5.825323395619885E-022
 -1.670000000000000E-002   -5.112155646203307E-022
 -1.660000000000000E-002   -3.782467192866471E-022
 -1.650000000000000E-002   -1.809197153000737E-022
 -1.640000000000000E-002    7.935917200973165E-023
 -1.630000000000000E-002    3.961031161108223E-022
 -1.620000000000000E-002    7.566794722168844E-022
 -1.610000000000000E-002    1.141231036658333E-021
 -1.600000000000000E-002    1.521767820342832E-021
 -1.590000000000000E-002    1.861724722396378E-021
 -1.580000000000000E-002    2.116378118115500E-021
 -1.570000000000000E-002    2.234565076004394E-021
 -1.560000000000000E-002    2.162122796144682E-021
 -1.550000000000000E-002    1.847335420250008E-021
 -1.540000000000000E-002    1.248418808711186E-021
 -1.530000000000000E-002    3.427046609460605E-022
 -1.520000000000000E-002   -8.632735084023926E-022
 -1.510000000000000E-002   -2.324081807160776E-021
 -1.500000000000000E-002   -3.947789445025214E-021
 -1.490000000000000E-002   -5.592475027754622E-021
 -1.480000000000000E-002   -7.068848683245818E-021
 -1.470000000000000E-002   -8.150676894980526E-021
 -1.460000000000000E-002   -8.593966455264075E-021
 -1.450000000000000E-002   -8.164749738663971E-021
 -1.440000000000000E-002   -6.673869453408215E-021
 -1.430000000000000E-002   -4.015570250532161E-021
 -1.420000000000000E-002   -2.051981839332628E-022
 -1.410000000000000E-002    4.589902119371244E-021
 -1.400000000000000E-002    1.003272067970012E-020
 -1.390000000000000E-002    1.561823060088524E-020
 -1.380000000000000E-002    2.069904987455276E-020
 -1.370000000000000E-002    2.453727706060180E-020
 -1.360000000000000E-002    2.638125983623159E-020
 -1.350000000000000E-002    2.556199425536376E-020
 -1.340000000000000E-002    2.159965638860483E-020
 -1.330000000000000E-002    1.430726007192518E-020
 -1.320000000000000E-002    3.876001276212531E-021
 -1.310000000000000E-002   -9.073593317872274E-021
 -1.300000000000000E-002   -2.348869850499378E-020
 -1.290000000000000E-002   -3.793901876658055E-020
 -1.280000000000000E-002   -5.073234117837301E-020
 -1.270000000000000E-002   -6.008531865399051E-020
 -1.260000000000000E-002   -6.433496506890560E-020
 -1.250000000000000E-002   -6.216798440579505E-020
 -1.240000000000000E-002   -5.283862903223728E-020
 -1.230000000000000E-002   -3.634314993023128E-020
 -1.220000000000000E-002   -1.352037048523857E-020
 -1.210000000000000E-002    1.394544935012593E-020
 -1.200000000000000E-002    4.363201259687197E-020
 -1.190000000000000E-002    7.259453323650107E-020
 -1.180000000000000E-002    9.767084792649854E-020
 -1.170000000000000E-002    1.158419935398183E-019
 -1.160000000000000E-002    1.246020518340812E-019
 -1.150000000000000E-002    1.222851055535496E-019
 -1.140000000000000E-002    1.082990028052652E-019
 -1.130000000000000E-002    8.322619244308211E-020
 -1.120000000000000E-002    4.877037796896080E-020
 -1.110000000000000E-002    7.551792928754052E-021
 -1.100000000000000E-002   -3.721952492460112E-020
 -1.090000000000000E-002   -8.213941544867410E-020
 -1.080000000000000E-002   -1.240044558476960E-019
 -1.070000000000000E-002   -1.601313490833434E-019
 -1.060000000000000E-002   -1.885350659594973E-019
 -1.050000000000000E-002   -2.079247374177837E-019
 -1.040000000000000E-002   -2.175121488263205E-019
 -1.030000000000000E-002   -2.166723134789910E-019
 -1.020000000000000E-002   -2.045387536379577E-019
 -1.010000000000000E-002   -1.796507073971148E-019
 -1.000000000000000E-002   -1.397848461630232E-019
 -9.899999999999999E-003   -8.209413898458820E-020
 -9.800000000000000E-003   -3.636508147061539E-021
 -9.699999999999999E-003    9.769244119881084E-020
 -9.599999999999999E-003    2.218984994746072E-019
 -9.500000000000000E-003    3.654745295420094E-019
 -9.399999999999999E-003    5.200968216267602E-019
 -9.299999999999999E-003    6.717593192827694E-019
 -9.200000000000000E-003    8.006859573229511E-019
 -9.099999999999999E-003    8.823142961569565E-019
 -8.999999999999999E-003    8.895274702762074E-019
 -8.900000000000000E-003    7.961315583609020E-019
 -8.799999999999999E-003    5.813496859572853E-019
 -8.699999999999999E-003    2.348578064659274E-019
 -8.600000000000000E-003   -2.383317475295710E-019
 -8.499999999999999E-003   -8.139929006643123E-019
 -8.399999999999999E-003   -1.446718262646095E-018
 -8.300000000000000E-003   -2.070672009699381E-018
 -8.199999999999999E-003   -2.603634895129809E-018
 -8.100000000000000E-003   -2.954511975253330E-018
 -8.000000000000000E-003   -3.033972064192591E-018
 -7.899999999999999E-003   -2.767320714359476E-018
 -7.800000000000000E-003   -2.108177816040817E-018
 -7.699999999999999E-003   -1.051096845854650E-018
 -7.599999999999999E-003    3.589414414215872E-019
 -7.499999999999999E-003    2.022167393194842E-018
 -7.399999999999999E-003    3.786420033984174E-018
 -7.299999999999999E-003    5.457219661299390E-018
 -7.199999999999999E-003    6.815472877784408E-018
 -7.100000000000000E-003    7.641635364208052E-018
 -6.999999999999999E-003    7.744013426603862E-018
 -6.899999999999999E-003    6.987938260050200E-018
 -6.800000000000000E-003    5.321865392427238E-018
 -6.699999999999999E-003    2.796341143919034E-018
 -6.599999999999999E-003   -4.278002135866879E-019
 -6.499999999999999E-003   -4.084605538022965E-018
 -6.399999999999999E-003   -7.822562982973528E-018
 -6.299999999999999E-003   -1.123764421159581E-017
 -6.199999999999999E-003   -1.391687187295587E-017
 -6.100000000000000E-003   -1.548760308612096E-017
 -5.999999999999999E-003   -1.566636885703508E-017
 -5.899999999999999E-003   -1.430051393878680E-017
 -5.800000000000000E-003   -1.139626641042667E-017
 -5.699999999999999E-003   -7.128251590503769E-018
 -5.599999999999999E-003   -1.827794443619699E-018
 -5.499999999999999E-003    4.049739545832134E-018
 -5.399999999999999E-003    9.975053646409340E-018
 -5.299999999999999E-003    1.540609409859184E-017
 -5.199999999999999E-003    1.985165164337098E-017
 -5.099999999999999E-003    2.292783621103792E-017
 -4.999999999999999E-003    2.439834900702616E-017
 -4.899999999999999E-003    2.419174327130251E-017
 -4.799999999999999E-003    2.239225448698506E-017
 -4.699999999999999E-003    1.920542409991675E-017
 -4.599999999999999E-003    1.490447051835682E-017
 -4.499999999999999E-003    9.767567836099640E-018
 -4.399999999999999E-003    4.019086741119562E-018
 -4.299999999999999E-003   -2.211498904554431E-018
 -4.199999999999999E-003   -8.901143631042051E-018
 -4.099999999999999E-003   -1.610775518578999E-017
 -3.999999999999999E-003   -2.390697282950683E-017
 -3.899999999999999E-003   -3.229838995956512E-017
 -3.799999999999999E-003   -4.109646254340268E-017
 -3.699999999999999E-003   -4.982808774183382E-017
 -3.599999999999999E-003   -5.766236923537236E-017
 -3.499999999999999E-003   -6.339787230232660E-017
 -3.399999999999999E-003   -6.552744294276725E-017
 -3.299999999999999E-003   -6.239049787857605E-017
 -3.199999999999999E-003   -5.240889814191027E-017
 -3.099999999999999E-003   -3.438620101931075E-017
 -2.999999999999999E-003   -7.834113217313022E-018
 -2.899999999999999E-003    2.672320599742112E-017
 -2.799999999999999E-003    6.752366957639301E-017
 -2.699999999999999E-003    1.114766084510311E-016
 -2.599999999999999E-003    1.542529536064219E-016
 -2.499999999999999E-003    1.905826926142612E-016
 -2.399999999999999E-003    2.147584321412955E-016
 -2.299999999999999E-003    2.213120517220137E-016
 -2.199999999999999E-003    2.057976255448519E-016
 -2.099999999999999E-003    1.655865366915929E-016
 -1.999999999999999E-003    1.005611059225940E-016
 -1.899999999999999E-003    1.358964755094617E-017
 -1.799999999999999E-003   -8.932196957767901E-017
 -1.699999999999999E-003   -1.992758330483823E-016
 -1.599999999999999E-003   -3.051523560176899E-016
 -1.499999999999999E-003   -3.946751496644609E-016
 -1.399999999999999E-003   -4.557799550917863E-016
 -1.299999999999999E-003   -4.781399196910754E-016
 -1.199999999999999E-003   -4.546588497632710E-016
 -1.099999999999999E-003   -3.827239244487483E-016
 -9.999999999999989E-004   -2.650186750493456E-016
 -8.999999999999990E-004   -1.097357411981741E-016
 -7.999999999999990E-004    6.990280562021053E-017
 -6.999999999999989E-004    2.568221390613543E-016
 -5.999999999999990E-004    4.318730626083015E-016
 -4.999999999999989E-004    5.760220877571032E-016
 -3.999999999999989E-004    6.726858071679696E-016
 -2.999999999999989E-004    7.098978275793831E-016
 -1.999999999999989E-004    6.819951096550576E-016
 -9.999999999999892E-005    5.905524795471732E-016
  1.084202172485504E-018    4.443884398767634E-016
  1.000000000000011E-004    2.585857170481440E-016
  2.000000000000011E-004    5.261754415484307E-017
  3.000000000000011E-004   -1.521884697371595E-016
  4.000000000000011E-004   -3.354993516288925E-016
  5.000000000000011E-004   -4.807151990813807E-016
  6.000000000000011E-004   -5.771659475814358E-016
  7.000000000000011E-004   -6.213918914158311E-016
  8.000000000000011E-004   -6.172611161371222E-016
  9.000000000000012E-004   -5.748529321984656E-016
  1.000000000000001E-003   -5.082427892391277E-016
  1.100000000000001E-003   -4.325261059910793E-016
  1.200000000000001E-003   -3.605789876333468E-016
  1.300000000000001E-003   -3.001492048413275E-016
  1.400000000000001E-003   -2.518662428394583E-016
  1.500000000000001E-003   -2.086539775428533E-016
  1.600000000000001E-003   -1.568237212220968E-016
  1.700000000000001E-003   -7.884547414432183E-017
  1.800000000000001E-003    4.252063209140519E-017
  1.900000000000001E-003    2.193503252320705E-016
  2.000000000000001E-003    4.537889782803303E-016
  2.100000000000001E-003    7.343531744817933E-016
  2.200000000000001E-003    1.034219663131318E-015
  2.300000000000001E-003    1.312205898951077E-015
  2.400000000000001E-003    1.516781117364944E-015
  2.500000000000001E-003    1.592960137120969E-015
  2.600000000000001E-003    1.491392654187294E-015
  2.700000000000001E-003    1.178467084807950E-015
  2.800000000000001E-003    6.458623732212202E-016
  2.900000000000001E-003   -8.219176737671123E-017
  3.000000000000001E-003   -9.455961056491502E-016
  3.100000000000001E-003   -1.850279429796275E-015
  3.200000000000001E-003   -2.675944167063417E-015
  3.300000000000001E-003   -3.289446103411369E-015
  3.400000000000001E-003   -3.562655133771283E-015
  3.500000000000001E-003   -3.392751023762624E-015
  3.600000000000001E-003   -2.722201731033658E-015
  3.700000000000001E-003   -1.555305513975931E-015
  3.800000000000001E-003    3.176591780421954E-017
  3.900000000000001E-003    1.889937507947645E-015
  4.000000000000001E-003    3.806717044445273E-015
  4.100000000000001E-003    5.526342472585179E-015
  4.200000000000001E-003    6.779138738133338E-015
  4.300000000000001E-003    7.317102987355729E-015
  4.400000000000001E-003    6.951396281771345E-015
  4.500000000000001E-003    5.586636474323618E-015
  4.600000000000002E-003    3.246692400189276E-015
  4.700000000000001E-003    8.731661017692319E-017
  4.800000000000001E-003   -3.607714243088613E-015
  4.900000000000002E-003   -7.448265543082445E-015
  5.000000000000001E-003   -1.097623493166889E-014
  5.100000000000001E-003   -1.371711057539565E-014
  5.200000000000001E-003   -1.523891789614420E-014
  5.300000000000002E-003   -1.521118150995627E-014
  5.400000000000001E-003   -1.345591160685912E-014
  5.500000000000001E-003   -9.983036571454211E-015
  5.600000000000002E-003   -5.004301151420205E-015
  5.700000000000001E-003    1.077762647803668E-015
  5.800000000000001E-003    7.705922097765843E-015
  5.900000000000002E-003    1.422597640949180E-014
  6.000000000000001E-003    1.995948622109409E-014
  6.100000000000001E-003    2.428232577314243E-014
  6.200000000000002E-003    2.669858674388958E-014
  6.300000000000002E-003    2.689963397795387E-014
  6.400000000000001E-003    2.479975644066941E-014
  6.500000000000001E-003    2.054312933937577E-014
  6.600000000000002E-003    1.448086506561000E-014
  6.700000000000001E-003    7.121513581682419E-015
  6.800000000000001E-003   -9.374448873100360E-016
  6.900000000000002E-003   -9.086290200648147E-015
  7.000000000000001E-003   -1.677560782835392E-014
  7.100000000000001E-003   -2.357263749982432E-014
  7.200000000000002E-003   -2.919193756883374E-014
  7.300000000000002E-003   -3.349514606071986E-014
  7.400000000000001E-003   -3.646005917914053E-014
  7.500000000000001E-003   -3.812527819448056E-014
  7.600000000000002E-003   -3.852180367173503E-014
  7.700000000000001E-003   -3.760677182072253E-014
  7.800000000000001E-003   -3.521563249204775E-014
  7.900000000000001E-003   -3.104748048615605E-014
  8.000000000000002E-003   -2.469360193492831E-014
  8.100000000000001E-003   -1.571212286393296E-014
  8.200000000000001E-003   -3.743025127794873E-015
  8.300000000000002E-003    1.135123792324102E-014
  8.400000000000001E-003    2.934187669271547E-014
  8.500000000000002E-003    4.951395185443596E-014
  8.600000000000002E-003    7.059869377453095E-014
  8.700000000000001E-003    9.078252976991251E-014
  8.800000000000002E-003    1.078084155804423E-013
  8.900000000000002E-003    1.191730365573061E-013
  9.000000000000001E-003    1.224081582872260E-013
  9.100000000000002E-003    1.154192220709144E-013
  9.200000000000002E-003    9.684060633919309E-014
  9.300000000000001E-003    6.635819099197126E-014
  9.400000000000002E-003    2.494703601290492E-014
  9.500000000000001E-003   -2.502348648304443E-014
  9.600000000000001E-003   -7.985137012615545E-014
  9.700000000000002E-003   -1.347465960579093E-013
  9.800000000000001E-003   -1.842496718723060E-013
  9.900000000000001E-003   -2.227901413752141E-013
  1.000000000000000E-002   -2.453274271499326E-013
  1.010000000000000E-002   -2.479985274661189E-013
  1.020000000000000E-002   -2.286879722407447E-013
  1.030000000000000E-002   -1.874381045997661E-013
  1.040000000000000E-002   -1.266311820964877E-013
  1.050000000000000E-002   -5.090020336089958E-014
  1.060000000000000E-002    3.324172390099274E-014
  1.070000000000000E-002    1.180271798066231E-013
  1.080000000000000E-002    1.952510878229110E-013
  1.090000000000000E-002    2.571861758863304E-013
  1.100000000000000E-002    2.974844050084561E-013
  1.110000000000000E-002    3.119477115200132E-013
  1.120000000000000E-002    2.990633221143761E-013
  1.130000000000000E-002    2.602253421264298E-013
  1.140000000000000E-002    1.996039967249377E-013
  1.150000000000000E-002    1.236707147920863E-013
  1.160000000000000E-002    4.043451537563982E-014
  1.170000000000000E-002   -4.151335405536045E-014
  1.180000000000000E-002   -1.140208686510159E-013
  1.190000000000000E-002   -1.703256496165514E-013
  1.200000000000000E-002   -2.058060667278862E-013
  1.210000000000000E-002   -2.184322373357542E-013
  1.220000000000000E-002   -2.088607788630288E-013
  1.230000000000000E-002   -1.801691200932363E-013
  1.240000000000000E-002   -1.372814754025341E-013
  1.250000000000000E-002   -8.618471697693265E-014
  1.260000000000000E-002   -3.306576321218590E-014
  1.270000000000000E-002    1.648789917851530E-014
  1.280000000000000E-002    5.809465260043072E-014
  1.290000000000000E-002    8.889954386396048E-014
  1.300000000000000E-002    1.075684115135365E-013
  1.310000000000000E-002    1.139793173718804E-013
  1.320000000000000E-002    1.086950548188779E-013
  1.330000000000000E-002    9.235050714878676E-014
  1.340000000000000E-002    6.511554118885700E-014
  1.350000000000000E-002    2.638958403464654E-014
  1.360000000000000E-002   -2.514803107062647E-014
  1.370000000000000E-002   -9.107340649169285E-014
  1.380000000000000E-002   -1.723624336884652E-013
  1.390000000000000E-002   -2.682598932507502E-013
  1.400000000000000E-002   -3.750711228949794E-013
  1.410000000000000E-002   -4.851330239917921E-013
  1.420000000000000E-002   -5.862426019592917E-013
  1.430000000000000E-002   -6.617940677753132E-013
  1.440000000000000E-002   -6.918014180258654E-013
  1.450000000000000E-002   -6.548620704945438E-013
  1.460000000000000E-002   -5.309708749146637E-013
  1.470000000000000E-002   -3.049306638061659E-013
  1.480000000000000E-002    3.003727820298210E-014
  1.490000000000000E-002    4.689868987261839E-013
  1.500000000000000E-002    9.927961445879450E-013
  1.510000000000000E-002    1.567089305523746E-012
  1.520000000000000E-002    2.142947004539884E-012
  1.530000000000000E-002    2.659623470047148E-012
  1.540000000000000E-002    3.049259327939347E-012
  1.550000000000000E-002    3.243301302448776E-012
  1.560000000000000E-002    3.180083299633544E-012
  1.570000000000000E-002    2.812798939808828E-012
  1.580000000000000E-002    2.116963010904390E-012
  1.590000000000000E-002    1.096418125618895E-012
  1.600000000000000E-002   -2.129678266457342E-013
  1.610000000000000E-002   -1.742574914064341E-012
  1.620000000000000E-002   -3.393633348286212E-012
  1.630000000000000E-002   -5.043154394042430E-012
  1.640000000000000E-002   -6.552809190407151E-012
  1.650000000000000E-002   -7.780010566192050E-012
  1.660000000000000E-002   -8.590185170732768E-012
  1.670000000000000E-002   -8.869048958732390E-012
  1.680000000000000E-002   -8.533670941825255E-012
  1.690000000000000E-002   -7.541235957644950E-012
  1.700000000000000E-002   -5.894649321290791E-012
  1.710000000000000E-002   -3.644484211638677E-012
  1.720000000000000E-002   -8.871641428396488E-013
  1.730000000000000E-002    2.240342801249612E-012
  1.740000000000000E-002    5.568691487656892E-012
  1.750000000000000E-002    8.906327804562980E-012
  1.760000000000000E-002    1.205071460618704E-011
  1.770000000000000E-002    1.479965575313666E-011
  1.780000000000000E-002    1.696198227809666E-011
  1.790000000000000E-002    1.836704203877904E-011
  1.800000000000000E-002    1.887277560154839E-011
  1.810000000000000E-002    1.837239347211284E-011
  1.820000000000000E-002    1.679988232323151E-011
  1.830000000000000E-002    1.413464625364238E-011
  1.840000000000000E-002    1.040555400689547E-011
  1.850000000000000E-002    5.694449048811598E-012
  1.860000000000000E-002    1.389471744243246E-013
  1.870000000000000E-002   -6.066011310751560E-012