 -4.000000000000000E-002    0.000000000000000E+000
 -3.990000000000000E-002    0.000000000000000E+000
 -3.980000000000000E-002    0.000000000000000E+000
 -3.970000000000000E-002    0.000000000000000E+000
 -3.960000000000000E-002    0.000000000000000E+000
 -3.950000000000000E-002    0.000000000000000E+000
 -3.940000000000000E-002    0.000000000000000E+000
 -3.930000000000000E-002    0.000000000000000E+000
 -3.920000000000000E-002    0.000000000000000E+000
 -3.910000000000000E-002    0.000000000000000E+000
 -3.900000000000000E-002    0.000000000000000E+000
 -3.890000000000000E-002    0.000000000000000E+000
 -3.880000000000000E-002    0.000000000000000E+000
 -3.870000000000000E-002    0.000000000000000E+000
 -3.860000000000000E-002    0.000000000000000E+000
 -3.850000000000000E-002    0.000000000000000E+000
 -3.840000000000000E-002    0.000000000000000E+000
 -3.830000000000000E-002    0.000000000000000E+000
 -3.820000000000000E-002    0.000000000000000E+000
 -3.810000000000000E-002    0.000000000000000E+000
 -3.800000000000000E-002    0.000000000000000E+000
 -3.790000000000000E-002    0.000000000000000E+000
 -3.780000000000000E-002    0.000000000000000E+000
 -3.770000000000000E-002    0.000000000000000E+000
 -3.760000000000000E-002    0.000000000000000E+000
 -3.750000000000000E-002    0.000000000000000E+000
 -3.740000000000000E-002    0.000000000000000E+000
 -3.730000000000000E-002    0.000000000000000E+000
 -3.720000000000000E-002    0.000000000000000E+000
 -3.710000000000000E-002    0.000000000000000E+000
 -3.700000000000000E-002    0.000000000000000E+000
 -3.690000000000000E-002    0.000000000000000E+000
 -3.680000000000000E-002    0.000000000000000E+000
 -3.670000000000000E-002    0.000000000000000E+000
 -3.660000000000000E-002    0.000000000000000E+000
 -3.650000000000000E-002    0.000000000000000E+000
 -3.640000000000000E-002    0.000000000000000E+000
 -3.630000000000000E-002    0.000000000000000E+000
 -3.620000000000000E-002    0.000000000000000E+000
 -3.610000000000000E-002    0.000000000000000E+000
 -3.600000000000000E-002    0.000000000000000E+000
 -3.590000000000000E-002    0.000000000000000E+000
 -3.580000000000000E-002    0.000000000000000E+000
 -3.570000000000000E-002    0.000000000000000E+000
 -3.560000000000000E-002    0.000000000000000E+000
 -3.550000000000000E-002    0.000000000000000E+000
 -3.540000000000000E-002    0.000000000000000E+000
 -3.530000000000000E-002    0.000000000000000E+000
 -3.520000000000000E-002    0.000000000000000E+000
 -3.510000000000000E-002    0.000000000000000E+000
 -3.500000000000000E-002    0.000000000000000E+000
 -3.490000000000000E-002    0.000000000000000E+000
 -3.480000000000000E-002    0.000000000000000E+000
 -3.470000000000000E-002    0.000000000000000E+000
 -3.460000000000000E-002    0.000000000000000E+000
 -3.450000000000000E-002    0.000000000000000E+000
 -3.440000000000000E-002    0.000000000000000E+000
 -3.430000000000000E-002    0.000000000000000E+000
 -3.420000000000000E-002    0.000000000000000E+000
 -3.410000000000000E-002    0.000000000000000E+000
 -3.400000000000000E-002    0.000000000000000E+000
 -3.390000000000000E-002    0.000000000000000E+000
 -3.380000000000000E-002    0.000000000000000E+000
 -3.370000000000000E-002    0.000000000000000E+000
 -3.360000000000000E-002    0.000000000000000E+000
 -3.350000000000000E-002    0.000000000000000E+000
 -3.340000000000000E-002    0.000000000000000E+000
 -3.330000000000000E-002    0.000000000000000E+000
 -3.320000000000000E-002    0.000000000000000E+000
 -3.310000000000000E-002    0.000000000000000E+000
 -3.300000000000000E-002    0.000000000000000E+000
 -3.290000000000000E-002    0.000000000000000E+000
 -3.280000000000000E-002    0.000000000000000E+000
 -3.270000000000000E-002    0.000000000000000E+000
 -3.260000000000000E-002    0.000000000000000E+000
 -3.250000000000000E-002    0.000000000000000E+000
 -3.240000000000000E-002    0.000000000000000E+000
 -3.230000000000000E-002    0.000000000000000E+000
 -3.220000000000000E-002    0.000000000000000E+000
 -3.210000000000000E-002    0.000000000000000E+000
 -3.200000000000000E-002    0.000000000000000E+000
 -3.190000000000000E-002    0.000000000000000E+000
 -3.180000000000000E-002    0.000000000000000E+000
 -3.170000000000000E-002    0.000000000000000E+000
 -3.160000000000000E-002    0.000000000000000E+000
 -3.150000000000000E-002    0.000000000000000E+000
 -3.140000000000000E-002    0.000000000000000E+000
 -3.130000000000000E-002    0.000000000000000E+000
 -3.120000000000000E-002    0.000000000000000E+000
 -3.110000000000000E-002    0.000000000000000E+000
 -3.100000000000000E-002    0.000000000000000E+000
 -3.090000000000000E-002    0.000000000000000E+000
 -3.080000000000000E-002    0.000000000000000E+000
 -3.070000000000000E-002    0.000000000000000E+000
 -3.060000000000000E-002    1.289600815988899E-047
 -3.050000000000000E-002    4.075949869629428E-047
 -3.040000000000000E-002    6.862298923269957E-047
 -3.030000000000000E-002    7.076120100077333E-047
 -3.020000000000000E-002    6.000340460895809E-047
 -3.010000000000000E-002    1.276253305699608E-047
 -3.000000000000000E-002   -6.787604558607411E-047
 -2.990000000000000E-002   -1.968109931426752E-046
 -2.980000000000000E-002   -3.519239958635114E-046
 -2.970000000000000E-002   -5.680291630034281E-046
 -2.960000000000000E-002   -7.982967958972094E-046
 -2.950000000000000E-002   -1.063735798867067E-045
 -2.940000000000000E-002   -9.417693212041042E-046
 -2.930000000000000E-002   -5.196492234368781E-046
 -2.920000000000000E-002   -1.457038162018548E-046
 -2.910000000000000E-002    2.360683644037824E-045
 -2.900000000000000E-002    5.472577639775259E-045
 -2.890000000000000E-002    8.671374188311558E-045
 -2.880000000000000E-002    1.177821234341305E-044
 -2.870000000000000E-002    1.297244544105195E-044
 -2.860000000000000E-002    1.009844470647191E-044
 -2.850000000000000E-002   -1.405467548429260E-045
 -2.840000000000000E-002   -2.639407606965562E-044
 -2.830000000000000E-002   -6.856620238279570E-044
 -2.820000000000000E-002   -1.266695035563282E-043
 -2.810000000000000E-002   -1.950739542378647E-043
 -2.800000000000000E-002   -2.527772537009187E-043
 -2.790000000000000E-002   -2.635993800933729E-043
 -2.780000000000000E-002   -1.682268626443530E-043
 -2.770000000000000E-002    1.127555117376936E-043
 -2.760000000000000E-002    6.676024209995179E-043
 -2.750000000000000E-002    1.574610389249064E-042
 -2.740000000000000E-002    2.853018555688376E-042
 -2.730000000000000E-002    4.401574181321534E-042
 -2.720000000000000E-002    5.915427482433398E-042
 -2.710000000000000E-002    6.794567117131687E-042
 -2.700000000000000E-002    6.069520023016652E-042
 -2.690000000000000E-002    2.384694128458232E-042
 -2.680000000000000E-002   -5.902274180029647E-042
 -2.670000000000000E-002   -2.043527283185302E-041
 -2.660000000000000E-002   -4.232229257165724E-041
 -2.650000000000000E-002   -7.128645346809448E-041
 -2.640000000000000E-002   -1.045278728352510E-040
 -2.630000000000000E-002   -1.353777882784878E-040
 -2.620000000000000E-002   -1.520081085509644E-040
 -2.610000000000000E-002   -1.366163273819059E-040
 -2.600000000000000E-002   -6.570365270965954E-041
 -2.590000000000000E-002    8.775084732161155E-041
 -2.580000000000000E-002    3.493580104188126E-040
 -2.570000000000000E-002    7.348879320341265E-040
 -2.560000000000000E-002    1.238003988648323E-039
 -2.550000000000000E-002    1.814628592423496E-039
 -2.540000000000000E-002    2.365656293496736E-039
 -2.530000000000000E-002    2.721387920621485E-039
 -2.520000000000000E-002    2.633026638194542E-039
 -2.510000000000000E-002    1.778457917645846E-039
 -2.500000000000000E-002   -2.090539968589718E-040
 -2.490000000000000E-002   -3.680468950343646E-039
 -2.480000000000000E-002   -8.871998173910347E-039
 -2.470000000000000E-002   -1.576542388784342E-038
 -2.460000000000000E-002   -2.391392026949667E-038
 -2.450000000000000E-002   -3.225172575504208E-038
 -2.440000000000000E-002   -3.892152038617869E-038
 -2.430000000000000E-002   -4.117075542620769E-038
 -2.420000000000000E-002   -3.538478938920664E-038
 -2.410000000000000E-002   -1.733636049860690E-038
 -2.400000000000000E-002    1.726755865165759E-038
 -2.390000000000000E-002    7.187544158193890E-038
 -2.380000000000000E-002    1.477889648093035E-037
 -2.370000000000000E-002    2.425056302041241E-037
 -2.360000000000000E-002    3.478391287921158E-037
 -2.350000000000000E-002    4.480741265672229E-037
 -2.340000000000000E-002    5.185567852043424E-037
 -2.330000000000000E-002    5.252694235737343E-037
 -2.320000000000000E-002    4.260626002121240E-037
 -2.310000000000000E-002    1.742826061393235E-037
 -2.300000000000000E-002   -2.745082151807764E-037
 -2.290000000000000E-002   -9.522196384616576E-037
 -2.280000000000000E-002   -1.864239833781618E-036
 -2.270000000000000E-002   -2.972335159919648E-036
 -2.260000000000000E-002   -4.175957843665333E-036
 -2.250000000000000E-002   -5.294675857863702E-036
 -2.240000000000000E-002   -6.055829267300332E-036
 -2.230000000000000E-002   -6.092913221959804E-036
 -2.220000000000000E-002   -4.961353543921652E-036
 -2.210000000000000E-002   -2.178891334940457E-036
 -2.200000000000000E-002    2.702787031012114E-036
 -2.190000000000000E-002    9.990763577276597E-036
 -2.180000000000000E-002    1.970799843746270E-035
 -2.170000000000000E-002    3.142203459104637E-035
 -2.160000000000000E-002    4.406246355273413E-035
 -2.150000000000000E-002    5.575668011928887E-035
 -2.140000000000000E-002    6.372720985735000E-035
 -2.130000000000000E-002    6.430680657717614E-035
 -2.120000000000000E-002    5.313636915520586E-035
 -2.110000000000000E-002    2.561150077947975E-035
 -2.100000000000000E-002   -2.236899411390002E-035
 -2.090000000000000E-002   -9.333026840801275E-035
 -2.080000000000000E-002   -1.868544025630342E-034
 -2.070000000000000E-002   -2.980260816762339E-034
 -2.060000000000000E-002   -4.158944520726403E-034
 -2.050000000000000E-002   -5.222630628553566E-034
 -2.040000000000000E-002   -5.912238690318561E-034
 -2.030000000000000E-002   -5.899254305014116E-034
 -2.020000000000000E-002   -4.810803460896826E-034
 -2.010000000000000E-002   -2.276371866878931E-034
 -2.000000000000000E-002    2.001646962658011E-034
 -1.990000000000000E-002    8.154939294461495E-034
 -1.980000000000000E-002    1.604024923959524E-033
 -1.970000000000000E-002    2.512712150806743E-033
 -1.960000000000000E-002    3.440208521797468E-033
 -1.950000000000000E-002    4.231535095575564E-033
 -1.940000000000000E-002    4.680048330524501E-033
 -1.930000000000000E-002    4.539799060881620E-033
 -1.920000000000000E-002    3.550870473135344E-033
 -1.910000000000000E-002    1.479029188114111E-033
 -1.900000000000000E-002   -1.831007700701342E-033
 -1.890000000000000E-002   -6.392234305115291E-033
 -1.880000000000000E-002   -1.200884091025522E-032
 -1.870000000000000E-002   -1.821699368525536E-032
 -1.860000000000000E-002   -2.424648093076241E-032
 -1.850000000000000E-002   -2.901873782171734E-032
 -1.840000000000000E-002   -3.119669724953490E-032
 -1.830000000000000E-002   -2.929901850252252E-032
 -1.820000000000000E-002   -2.188516789714049E-032
 -1.810000000000000E-002   -7.808060982618590E-033
 -1.800000000000000E-002    1.348159660236489E-032
 -1.790000000000000E-002    4.160972678549897E-032
 -1.780000000000000E-002    7.497711542641056E-032
 -1.770000000000000E-002    1.105387489379262E-031
 -1.760000000000000E-002    1.437281454631141E-031
 -1.750000000000000E-002    1.685897831802959E-031
 -1.740000000000000E-002    1.781705284829744E-031
 -1.730000000000000E-002    1.651980789054496E-031
 -1.720000000000000E-002    1.230396871048861E-031
 -1.710000000000000E-002    4.689075678777821E-032
 -1.700000000000000E-002   -6.490497758698338E-032
 -1.690000000000000E-002   -2.095494355980831E-031
 -1.680000000000000E-002   -3.786821029319989E-031
 -1.670000000000000E-002   -5.576774635286981E-031
 -1.660000000000000E-002   -7.255555883374147E-031
 -1.650000000000000E-002   -8.556904735556601E-031
 -1.640000000000000E-002   -9.174470309448577E-031
 -1.630000000000000E-002   -8.788051040890193E-031
 -1.620000000000000E-002   -7.099302022414096E-031
 -1.610000000000000E-002   -3.875465255280893E-031
 -1.600000000000000E-002    1.001453513671376E-031
 -1.590000000000000E-002    7.483707841764165E-031
 -1.580000000000000E-002    1.530972148044168E-030
 -1.570000000000000E-002    2.396452924867560E-030
 -1.560000000000000E-002    3.265525395378549E-030
 -1.550000000000000E-002    4.030896328934642E-030
 -1.540000000000000E-002    4.560085926708597E-030
 -1.530000000000000E-002    4.702105190758803E-030
 -1.520000000000000E-002    4.298770138844329E-030
 -1.510000000000000E-002    3.201269080723597E-030
 -1.500000000000000E-002    1.292218007814556E-030
 -1.490000000000000E-002   -1.487169224403585E-030
 -1.480000000000000E-002   -5.106138165216178E-030
 -1.470000000000000E-002   -9.412284088199680E-030
 -1.460000000000000E-002   -1.410242471358335E-029
 -1.450000000000000E-002   -1.870225278310821E-029
 -1.440000000000000E-002   -2.256202254611989E-029
 -1.430000000000000E-002   -2.487637286023047E-029
 -1.420000000000000E-002   -2.473618201151466E-029
 -1.410000000000000E-002   -2.121857373605152E-029
 -1.400000000000000E-002   -1.351734500249550E-029
 -1.390000000000000E-002   -1.110119096146577E-030
 -1.380000000000000E-002    1.604956555285212E-029
 -1.370000000000000E-002    3.733645165246711E-029
 -1.360000000000000E-002    6.128492940649097E-029
 -1.350000000000000E-002    8.548653402929326E-029
 -1.340000000000000E-002    1.065969031551366E-028
 -1.330000000000000E-002    1.204936381100887E-028
 -1.320000000000000E-002    1.226169200527097E-028
 -1.310000000000000E-002    1.085050767237444E-028
 -1.300000000000000E-002    7.450881768060484E-029
 -1.290000000000000E-002    1.863148739346147E-029
 -1.280000000000000E-002   -5.859735517832215E-029
 -1.270000000000000E-002   -1.533456274592449E-028
 -1.260000000000000E-002   -2.579579636318941E-028
 -1.250000000000000E-002   -3.608591743365696E-028
 -1.240000000000000E-002   -4.470342078684119E-028
 -1.230000000000000E-002   -4.991898772087174E-028
 -1.220000000000000E-002   -4.996242972525200E-028
 -1.210000000000000E-002   -4.327206744178428E-028
 -1.200000000000000E-002   -2.878560978798179E-028
 -1.190000000000000E-002   -6.238783612517522E-029
 -1.180000000000000E-002    2.357277667940575E-028
 -1.170000000000000E-002    5.861908034862601E-028
 -1.160000000000000E-002    9.559895942772254E-028
 -1.150000000000000E-002    1.300819249854116E-027
 -1.140000000000000E-002    1.568514307137688E-027
 -1.130000000000000E-002    1.704460978750138E-027
 -1.120000000000000E-002    1.658626798678658E-027
 -1.110000000000000E-002    1.393512642549933E-027
 -1.100000000000000E-002    8.920326769020135E-028
 -1.090000000000000E-002    1.641294309221673E-028
 -1.080000000000000E-002   -7.491065097702399E-028
 -1.070000000000000E-002   -1.774887386755017E-027
 -1.060000000000000E-002   -2.812457612281592E-027
 -1.050000000000000E-002   -3.741255752728111E-027
 -1.040000000000000E-002   -4.432991055822576E-027
 -1.030000000000000E-002   -4.766413441224930E-027
 -1.020000000000000E-002   -4.642966061730025E-027
 -1.010000000000000E-002   -4.001142561516345E-027
 -1.000000000000000E-002   -2.827349429463913E-027
 -9.899999999999999E-003   -1.161448813761199E-027
 -9.800000000000000E-003    9.040547522599455E-028
 -9.699999999999999E-003    3.231160959493775E-027
 -9.599999999999999E-003    5.648626663082882E-027
 -9.500000000000000E-003    7.967011391462332E-027
 -9.399999999999999E-003    9.993558126852389E-027
 -9.299999999999999E-003    1.154385341148348E-026
 -9.200000000000000E-003    1.244800685091844E-026
 -9.099999999999999E-003    1.255060318772841E-026
 -8.999999999999999E-003    1.170582675385250E-026
 -8.900000000000000E-003    9.771536018484394E-027
 -8.799999999999999E-003    6.608050939824374E-027
 -8.699999999999999E-003    2.088469450651214E-027
 -8.600000000000000E-003   -3.873310928363054E-027
 -8.499999999999999E-003   -1.127326079436177E-026
 -8.399999999999999E-003   -1.994781460046716E-026
 -8.300000000000000E-003   -2.949206307181190E-026
 -8.199999999999999E-003   -3.918053610463062E-026
 -8.100000000000000E-003   -4.791223439863153E-026
 -8.000000000000000E-003   -5.420580862500743E-026
 -7.899999999999999E-003   -5.627082284893661E-026
 -7.800000000000000E-003   -5.217525141831271E-026
 -7.699999999999999E-003   -4.011694269382867E-026
 -7.599999999999999E-003   -1.878819347728003E-026
 -7.499999999999999E-003    1.220056338496760E-026
 -7.399999999999999E-003    5.189638606732847E-026
 -7.299999999999999E-003    9.765825757806081E-026
 -7.199999999999999E-003    1.449824593482068E-025
 -7.100000000000000E-003    1.875899352208293E-025
 -6.999999999999999E-003    2.178477705656789E-025
 -6.899999999999999E-003    2.275585646306866E-025
 -6.800000000000000E-003    2.090954769330746E-025
 -6.699999999999999E-003    1.567912088098775E-025
 -6.599999999999999E-003    6.841767402018197E-026
 -6.499999999999999E-003   -5.347016160087413E-026
 -6.399999999999999E-003   -2.005925309470760E-025
 -6.299999999999999E-003   -3.586737124013254E-025
 -6.199999999999999E-003   -5.080665407614608E-025
 -6.100000000000000E-003   -6.254006639927564E-025
 -5.999999999999999E-003   -6.862417089534371E-025
 -5.899999999999999E-003   -6.685715532740303E-025
 -5.800000000000000E-003   -5.567155933928211E-025
 -5.699999999999999E-003   -3.451787171571318E-025
 -5.599999999999999E-003   -4.174227316015505E-026
 -5.499999999999999E-003    3.308454982399562E-025
 -5.399999999999999E-003    7.351649636956439E-025
 -5.299999999999999E-003    1.121774029904140E-024
 -5.199999999999999E-003    1.434264476087119E-024
 -5.099999999999999E-003    1.616378524581227E-024
 -4.999999999999999E-003    1.620431964412376E-024
 -4.899999999999999E-003    1.415915221750431E-024
 -4.799999999999999E-003    9.969091197164473E-025
 -4.699999999999999E-003    3.868895639310416E-025
 -4.599999999999999E-003   -3.603065745737342E-025
 -4.499999999999999E-003   -1.164150793944087E-024
 -4.399999999999999E-003   -1.925856502339967E-024
 -4.299999999999999E-003   -2.540908721066525E-024
 -4.199999999999999E-003   -2.914188720783945E-024
 -4.099999999999999E-003   -2.975493569829472E-024
 -3.999999999999999E-003   -2.692828229550445E-024
 -3.899999999999999E-003   -2.080830391758737E-024
 -3.799999999999999E-003   -1.202173116302367E-024
 -3.699999999999999E-003   -1.607458618072397E-025
 -3.599999999999999E-003    9.132128196435989E-025
 -3.499999999999999E-003    1.884287011274670E-024
 -3.399999999999999E-003    2.636098499925377E-024
 -3.299999999999999E-003    3.094155546414536E-024
 -3.199999999999999E-003    3.242435514700998E-024
 -3.099999999999999E-003    3.129222229305308E-024
 -2.999999999999999E-003    2.859112127620256E-024
 -2.899999999999999E-003    2.570450292964878E-024
 -2.799999999999999E-003    2.400403153073406E-024
 -2.699999999999999E-003    2.443046267977100E-024
 -2.599999999999999E-003    2.708553570671288E-024
 -2.499999999999999E-003    3.093233665206887E-024
 -2.399999999999999E-003    3.370163169440592E-024
 -2.299999999999999E-003    3.208126882209894E-024
 -2.199999999999999E-003    2.222461734456937E-024
 -2.099999999999999E-003    5.552256209303728E-026
 -1.999999999999999E-003   -3.522363347546804E-024
 -1.899999999999999E-003   -8.507310808557105E-024
 -1.799999999999999E-003   -1.457265804071037E-023
 -1.699999999999999E-003   -2.101944906089608E-023
 -1.599999999999999E-003   -2.678814363634393E-023
 -1.499999999999999E-003   -3.054666092864007E-023
 -1.399999999999999E-003   -3.085891800336605E-023
 -1.299999999999999E-003   -2.642357724490243E-023
 -1.199999999999999E-003   -1.635667235583177E-023
 -1.099999999999999E-003   -4.769631002489675E-025
 -9.999999999999989E-004    2.045798342116202E-023
 -8.999999999999990E-004    4.462051218414441E-023
 -7.999999999999990E-004    6.913631463487911E-023
 -6.999999999999989E-004    9.029614532049694E-023
 -5.999999999999990E-004    1.039636374029038E-022
 -4.999999999999989E-004    1.061538753521818E-022
 -3.999999999999989E-004    9.372165908943814E-023
 -2.999999999999989E-004    6.506562182477374E-023
 -1.999999999999989E-004    2.073173031112087E-023
 -9.999999999999892E-005   -3.620776853852293E-023
  1.084202172485504E-018   -1.001103737377462E-022
  1.000000000000011E-004   -1.631299294723733E-022
  2.000000000000011E-004   -2.160138225410021E-022
  3.000000000000011E-004   -2.492813729302772E-022
  4.000000000000011E-004   -2.546595345084688E-022
  5.000000000000011E-004   -2.265851513101620E-022
  6.000000000000011E-004   -1.635367292900552E-022
  7.000000000000011E-004   -6.894463696897405E-023
  8.000000000000011E-004    4.854349310350928E-023
  9.000000000000012E-004    1.755951475287213E-022
  1.000000000000001E-003    2.955664707403953E-022
  1.100000000000001E-003    3.906229887786622E-022
  1.200000000000001E-003    4.443717331960524E-022
  1.300000000000001E-003    4.446420293140493E-022
  1.400000000000001E-003    3.859672498603447E-022
  1.500000000000001E-003    2.713024125642394E-022
  1.600000000000001E-003    1.125699351403569E-022
  1.700000000000001E-003   -7.023255366253527E-023
  1.800000000000001E-003   -2.514167068320268E-022
  1.900000000000001E-003   -4.032801650697271E-022
  2.000000000000001E-003   -5.006142264647877E-022
  2.100000000000001E-003   -5.253613030810770E-022
  2.200000000000001E-003   -4.706065501875711E-022
  2.300000000000001E-003   -3.430838260618790E-022
  2.400000000000001E-003   -1.635154147825174E-022
  2.500000000000001E-003    3.560509447689909E-023
  2.600000000000001E-003    2.147669831412715E-022
  2.700000000000001E-003    3.342411293078597E-022
  2.800000000000001E-003    3.619667382646953E-022
  2.900000000000001E-003    2.812049107796279E-022
  3.000000000000001E-003    9.645655051901482E-023
  3.100000000000001E-003   -1.637920512548781E-022
  3.200000000000001E-003   -4.485851526535795E-022
  3.300000000000001E-003   -6.907534766453003E-022
  3.400000000000001E-003   -8.175781923392980E-022
  3.500000000000001E-003   -7.646358598253862E-022
  3.600000000000001E-003   -4.907690422598618E-022
  3.700000000000001E-003    8.469344792115142E-024
  3.800000000000001E-003    6.917640534789580E-022
  3.900000000000001E-003    1.469964267125316E-021
  4.000000000000001E-003    2.212765784503719E-021
  4.100000000000001E-003    2.764637432615808E-021
  4.200000000000001E-003    2.968855974126864E-021
  4.300000000000001E-003    2.696802861484767E-021
  4.400000000000001E-003    1.878161471041067E-021
  4.500000000000001E-003    5.266462669608941E-022
  4.600000000000002E-003   -1.244316683052523E-021
  4.700000000000001E-003   -3.220789299647342E-021
  4.800000000000001E-003   -5.105469912859595E-021
  4.900000000000002E-003   -6.553216367078398E-021
  5.000000000000001E-003   -7.222186491476956E-021
  5.100000000000001E-003   -6.834520875144517E-021
  5.200000000000001E-003   -5.237711476948460E-021
  5.300000000000002E-003   -2.456018728977879E-021
  5.400000000000001E-003    1.278904052217566E-021
  5.500000000000001E-003    5.527326723366842E-021
  5.600000000000002E-003    9.676355718228227E-021
  5.700000000000001E-003    1.301088679302957E-020
  5.800000000000001E-003    1.481497564007535E-020
  5.900000000000002E-003    1.449176817952565E-020
  6.000000000000001E-003    1.168495863609155E-020
  6.100000000000001E-003    6.381574296396990E-021
  6.200000000000002E-003   -1.024341723183459E-021
  6.300000000000002E-003   -9.724345557791654E-021
  6.400000000000001E-003   -1.855505846194100E-020
  6.500000000000001E-003   -2.612552622531290E-020
  6.600000000000002E-003   -3.100228687862551E-020
  6.700000000000001E-003   -3.193090245724154E-020
  6.800000000000001E-003   -2.806321430312356E-020
  6.900000000000002E-003   -1.915423011002615E-020
  7.000000000000001E-003   -5.692165819526644E-021
  7.100000000000001E-003    1.106901782110898E-020
  7.200000000000002E-003    2.919342018026509E-020
  7.300000000000002E-003    4.626560170406118E-020
  7.400000000000001E-003    5.969451136523235E-020
  7.500000000000001E-003    6.708292303404178E-020
  7.600000000000002E-003    6.661073314566838E-020
  7.700000000000001E-003    5.737180442541135E-020
  7.800000000000001E-003    3.960429081674289E-020
  7.900000000000001E-003    1.476495936496928E-020
  8.000000000000002E-003   -1.458137498254795E-020
  8.100000000000001E-003   -4.505837482381374E-020
  8.200000000000001E-003   -7.292972052603011E-020
  8.300000000000002E-003   -9.464469788558805E-020
  8.400000000000001E-003   -1.073932515183745E-019
  8.500000000000002E-003   -1.095746890127824E-019
  8.600000000000002E-003   -1.010887848165625E-019
  8.700000000000001E-003   -8.337929851855741E-020
  8.800000000000002E-003   -5.919736309861937E-020
  8.900000000000002E-003   -3.210014468987906E-020
  9.000000000000001E-003   -5.752498362448923E-021
  9.100000000000002E-003    1.685387469557738E-020
  9.200000000000002E-003    3.411664341167413E-020
  9.300000000000001E-003    4.631774090720843E-020
  9.400000000000002E-003    5.575841644196465E-020
  9.500000000000001E-003    6.644368403595383E-020
  9.600000000000001E-003    8.329814587770344E-020
  9.700000000000002E-003    1.109835263628043E-019
  9.800000000000001E-003    1.524802327170113E-019
  9.900000000000001E-003    2.076717359831326E-019
  1.000000000000000E-002    2.722184216754842E-019
  1.010000000000000E-002    3.370106645482351E-019
  1.020000000000000E-002    3.884425250405367E-019
  1.030000000000000E-002    4.096460500682768E-019
  1.040000000000000E-002    3.826822128826448E-019
  1.050000000000000E-002    2.915135065020379E-019
  1.060000000000000E-002    1.254128290673378E-019
  1.070000000000000E-002   -1.176803089355262E-019
  1.080000000000000E-002   -4.284293452487859E-019
  1.090000000000000E-002   -7.845755823283947E-019
  1.100000000000000E-002   -1.151104259191940E-018
  1.110000000000000E-002   -1.482407561026018E-018
  1.120000000000000E-002   -1.726480791484310E-018
  1.130000000000000E-002   -1.830884860753299E-018
  1.140000000000000E-002   -1.749883844551110E-018
  1.150000000000000E-002   -1.451905839771890E-018
  1.160000000000000E-002   -9.262977620377530E-019
  1.170000000000000E-002   -1.883051505687558E-019
  1.180000000000000E-002    7.186674843395706E-019
  1.190000000000000E-002    1.724185483593975E-018
  1.200000000000000E-002    2.735557056636614E-018
  1.210000000000000E-002    3.646005870269682E-018
  1.220000000000000E-002    4.345496719501232E-018
  1.230000000000000E-002    4.733012772064941E-018
  1.240000000000000E-002    4.728781221212795E-018
  1.250000000000000E-002    4.284842453631358E-018
  1.260000000000000E-002    3.392494796570511E-018
  1.270000000000000E-002    2.085511801325400E-018
  1.280000000000000E-002    4.385955769760489E-019
  1.290000000000000E-002   -1.438795968633225E-018
  1.300000000000000E-002   -3.412412325301286E-018
  1.310000000000000E-002   -5.335569614226282E-018
  1.320000000000000E-002   -7.062110305264742E-018
  1.330000000000000E-002   -8.458138929022842E-018
  1.340000000000000E-002   -9.410931486933649E-018
  1.350000000000000E-002   -9.834009100352300E-018
  1.360000000000000E-002   -9.668156819896692E-018
  1.370000000000000E-002   -8.879045847913630E-018
  1.380000000000000E-002   -7.452951733501594E-018
  1.390000000000000E-002   -5.392604477267148E-018
  1.400000000000000E-002   -2.715388000619859E-018
  1.410000000000000E-002    5.442282080603681E-019
  1.420000000000000E-002    4.326970916177337E-018
  1.430000000000000E-002    8.535948040800578E-018
  1.440000000000000E-002    1.302045312775761E-017
  1.450000000000000E-002    1.755953564428201E-017
  1.460000000000000E-002    2.184971614874608E-017
  1.470000000000000E-002    2.550175704349785E-017
  1.480000000000000E-002    2.805115198927041E-017
  1.490000000000000E-002    2.898578177083434E-017
  1.500000000000000E-002    2.779203084730205E-017
  1.510000000000000E-002    2.401774891823022E-017
  1.520000000000000E-002    1.734718144700843E-017
  1.530000000000000E-002    7.679820067726671E-018
  1.540000000000000E-002   -4.797481758104027E-018
  1.550000000000000E-002   -1.955709388030135E-017
  1.560000000000000E-002   -3.570765423100427E-017
  1.570000000000000E-002   -5.201139374697005E-017
  1.580000000000000E-002   -6.694760175777418E-017
  1.590000000000000E-002   -7.882295525260963E-017
  1.600000000000000E-002   -8.592297498605529E-017
  1.610000000000000E-002   -8.669279172009991E-017
  1.620000000000000E-002   -7.992968183225029E-017
  1.630000000000000E-002   -6.496599617556186E-017
  1.640000000000000E-002   -4.181967806215823E-017
  1.650000000000000E-002   -1.129095578094284E-017
  1.660000000000000E-002    2.501178761364377E-017
  1.670000000000000E-002    6.472711379717003E-017
  1.680000000000000E-002    1.048778864436260E-016
  1.690000000000000E-002    1.420824969141961E-016
  1.700000000000000E-002    1.728231085321635E-016
  1.710000000000000E-002    1.937461027232941E-016
  1.720000000000000E-002    2.019663765038283E-016
  1.730000000000000E-002    1.953457754866647E-016
  1.740000000000000E-002    1.727189733103353E-016
  1.750000000000000E-002    1.340464869354473E-016
  1.760000000000000E-002    8.048261320312013E-017
  1.770000000000000E-002    1.435605420997269E-017
  1.780000000000000E-002   -6.093071518888860E-017
  1.790000000000000E-002   -1.410696298318291E-016
  1.800000000000000E-002   -2.210650179163830E-016
  1.810000000000000E-002   -2.954842201632485E-016
  1.820000000000000E-002   -3.587250628869098E-016
  1.830000000000000E-002   -4.052915442091511E-016
  1.840000000000000E-002   -4.300742454021068E-016
  1.850000000000000E-002   -4.286385217258131E-016
  1.860000000000000E-002   -3.975256409768820E-016
  1.870000000000000E-002   -3.345715387287637E-016