 -4.000000000000000E-002    0.000000000000000E+000
 -3.990000000000000E-002    0.000000000000000E+000
 -3.980000000000000E-002    0.000000000000000E+000
 -3.970000000000000E-002    0.000000000000000E+000
 -3.960000000000000E-002    0.000000000000000E+000
 -3.950000000000000E-002    0.000000000000000E+000
 -3.940000000000000E-002    0.000000000000000E+000
 -3.930000000000000E-002    0.000000000000000E+000
 -3.920000000000000E-002    0.000000000000000E+000
 -3.910000000000000E-002    0.000000000000000E+000
 -3.900000000000000E-002    0.000000000000000E+000
 -3.890000000000000E-002    0.000000000000000E+000
 -3.880000000000000E-002    0.000000000000000E+000
 -3.870000000000000E-002    0.000000000000000E+000
 -3.860000000000000E-002    0.000000000000000E+000
 -3.850000000000000E-002    0.000000000000000E+000
 -3.840000000000000E-002    0.000000000000000E+000
 -3.830000000000000E-002    0.000000000000000E+000
 -3.820000000000000E-002    0.000000000000000E+000
 -3.810000000000000E-002    0.000000000000000E+000
 -3.800000000000000E-002    0.000000000000000E+000
 -3.790000000000000E-002    0.000000000000000E+000
 -3.780000000000000E-002    0.000000000000000E+000
 -3.770000000000000E-002    0.000000000000000E+000
 -3.760000000000000E-002    0.000000000000000E+000
 -3.750000000000000E-002    0.000000000000000E+000
 -3.740000000000000E-002    0.000000000000000E+000
 -3.730000000000000E-002    0.000000000000000E+000
 -3.720000000000000E-002   -5.694317058220838E-047
 -3.710000000000000E-002   -1.622766646743301E-046
 -3.700000000000000E-002   -5.202528351563874E-046
 -3.690000000000000E-002   -1.383447620866869E-045
 -3.680000000000000E-002   -2.988053081198794E-045
 -3.670000000000000E-002   -5.927042508129431E-045
 -3.660000000000000E-002   -5.797685024696795E-045
 -3.650000000000000E-002    1.159483175612049E-044
 -3.640000000000000E-002    9.746928872428903E-044
 -3.630000000000000E-002    3.907023648855591E-043
 -3.620000000000000E-002    1.237073463817620E-042
 -3.610000000000000E-002    3.408720141343805E-042
 -3.600000000000000E-002    8.467686640446096E-042
 -3.590000000000000E-002    1.925130469162470E-041
 -3.580000000000000E-002    4.029592961852211E-041
 -3.570000000000000E-002    7.757674035934455E-041
 -3.560000000000000E-002    1.361516965491811E-040
 -3.550000000000000E-002    2.129326662113891E-040
 -3.540000000000000E-002    2.799624024684593E-040
 -3.530000000000000E-002    2.516770365258807E-040
 -3.520000000000000E-002   -7.093482590807843E-041
 -3.510000000000000E-002   -1.082707094801552E-039
 -3.500000000000000E-002   -3.473913008718870E-039
 -3.490000000000000E-002   -8.308913591000358E-039
 -3.480000000000000E-002   -1.699285739619994E-038
 -3.470000000000000E-002   -3.095354968721104E-038
 -3.460000000000000E-002   -5.075947896036272E-038
 -3.450000000000000E-002   -7.429082565879860E-038
 -3.440000000000000E-002   -9.354083413761136E-038
 -3.430000000000000E-002   -8.976479216617176E-038
 -3.420000000000000E-002   -2.718656519143773E-038
 -3.410000000000000E-002    1.534635321675643E-037
 -3.400000000000000E-002    5.384629328702450E-037
 -3.390000000000000E-002    1.235842069929957E-036
 -3.380000000000000E-002    2.352207265902526E-036
 -3.370000000000000E-002    3.939334668564349E-036
 -3.360000000000000E-002    5.896916457848547E-036
 -3.350000000000000E-002    7.821091796162673E-036
 -3.340000000000000E-002    8.799947054307538E-036
 -3.330000000000000E-002    7.181225248203387E-036
 -3.320000000000000E-002    3.775054285225996E-037
 -3.310000000000000E-002   -1.516946888134939E-035
 -3.300000000000000E-002   -4.367647617019111E-035
 -3.290000000000000E-002   -8.910713924716435E-035
 -3.280000000000000E-002   -1.533799643864343E-034
 -3.270000000000000E-002   -2.334613862111615E-034
 -3.260000000000000E-002   -3.172845741127983E-034
 -3.250000000000000E-002   -3.787955577703219E-034
 -3.240000000000000E-002   -3.730123455228608E-034
 -3.230000000000000E-002   -2.327855951058880E-034
 -3.220000000000000E-002    1.301131854349697E-034
 -3.210000000000000E-002    8.160749741213320E-034
 -3.200000000000000E-002    1.916924843605921E-033
 -3.190000000000000E-002    3.479775842734311E-033
 -3.180000000000000E-002    5.453635464473175E-033
 -3.170000000000000E-002    7.620630117831835E-033
 -3.160000000000000E-002    9.519630329117429E-033
 -3.150000000000000E-002    1.037804608637533E-032
 -3.140000000000000E-002    9.076826123205113E-033
 -3.130000000000000E-002    4.182416520024491E-033
 -3.120000000000000E-002   -5.914997497593560E-033
 -3.110000000000000E-002   -2.271881774278027E-032
 -3.100000000000000E-002   -4.717240160344756E-032
 -3.090000000000000E-002   -7.903324819691711E-032
 -3.080000000000000E-002   -1.161141115263923E-031
 -3.070000000000000E-002   -1.534837656789786E-031
 -3.060000000000000E-002   -1.827812827520004E-031
 -3.050000000000000E-002   -1.918555501251534E-031
 -3.040000000000000E-002   -1.649821270217479E-031
 -3.030000000000000E-002   -8.391610477435064E-032
 -3.020000000000000E-002    7.000216921669501E-032
 -3.010000000000000E-002    3.125690856165740E-031
 -3.000000000000000E-002    6.522981512901155E-031
 -2.990000000000000E-002    1.085073876597432E-030
 -2.980000000000000E-002    1.588282818004910E-030
 -2.970000000000000E-002    2.114979570121604E-030
 -2.960000000000000E-002    2.588732612784065E-030
 -2.950000000000000E-002    2.899812271184013E-030
 -2.940000000000000E-002    2.903358688942087E-030
 -2.930000000000000E-002    2.420206659520322E-030
 -2.920000000000000E-002    1.241288984804276E-030
 -2.910000000000000E-002   -8.628264992900149E-031
 -2.900000000000000E-002   -4.124554064438852E-030
 -2.890000000000000E-002   -8.749633158462659E-030
 -2.880000000000000E-002   -1.486881563541202E-029
 -2.870000000000000E-002   -2.246287181753547E-029
 -2.860000000000000E-002   -3.125276392531426E-029
 -2.850000000000000E-002   -4.054975982016054E-029
 -2.840000000000000E-002   -4.906801351296923E-029
 -2.830000000000000E-002   -5.471648820600197E-029
 -2.820000000000000E-002   -5.440881827277761E-029
 -2.810000000000000E-002   -4.395792950475796E-029
 -2.800000000000000E-002   -1.815376901841725E-029
 -2.790000000000000E-002    2.884991713923343E-029
 -2.780000000000000E-002    1.027001329373811E-028
 -2.770000000000000E-002    2.074352232404491E-028
 -2.760000000000000E-002    3.434333387760204E-028
 -2.750000000000000E-002    5.047636758623654E-028
 -2.740000000000000E-002    6.761617611941872E-028
 -2.730000000000000E-002    8.300842236265907E-028
 -2.720000000000000E-002    9.245683550887763E-028
 -2.710000000000000E-002    9.028843589006666E-028
 -2.700000000000000E-002    6.961542085564841E-028
 -2.690000000000000E-002    2.301393569724064E-028
 -2.680000000000000E-002   -5.628300722347327E-028
 -2.670000000000000E-002   -1.726378487958889E-027
 -2.660000000000000E-002   -3.257615307846510E-027
 -2.650000000000000E-002   -5.081568635767367E-027
 -2.640000000000000E-002   -7.026050811795359E-027
 -2.630000000000000E-002   -8.802188299192167E-027
 -2.620000000000000E-002   -9.997324673862793E-027
 -2.610000000000000E-002   -1.008781470536403E-026
 -2.600000000000000E-002   -8.478931631905019E-027
 -2.590000000000000E-002   -4.577254268456709E-027
 -2.580000000000000E-002    2.102809892368985E-027
 -2.570000000000000E-002    1.180234709087036E-026
 -2.560000000000000E-002    2.436232788431182E-026
 -2.550000000000000E-002    3.906845534498954E-026
 -2.540000000000000E-002    5.452372079109908E-026
 -2.530000000000000E-002    6.858194228581706E-026
 -2.520000000000000E-002    7.837798929257879E-026
 -2.510000000000000E-002    8.048747706336737E-026
 -2.500000000000000E-002    7.123912300295141E-026
 -2.490000000000000E-002    4.718627547709920E-026
 -2.480000000000000E-002    5.720742478279112E-027
 -2.470000000000000E-002   -5.421588001510719E-026
 -2.460000000000000E-002   -1.313976252435535E-025
 -2.450000000000000E-002   -2.216567352269553E-025
 -2.440000000000000E-002   -3.174223957770498E-025
 -2.430000000000000E-002   -4.075797099399691E-025
 -2.420000000000000E-002   -4.777623825263622E-025
 -2.410000000000000E-002   -5.111630032673762E-025
 -2.400000000000000E-002   -4.898982093064280E-025
 -2.390000000000000E-002   -3.969067172069637E-025
 -2.380000000000000E-002   -2.182907250786078E-025
 -2.370000000000000E-002    5.405337774860954E-026
 -2.360000000000000E-002    4.197253927576888E-025
 -2.350000000000000E-002    8.672827219262298E-025
 -2.340000000000000E-002    1.372145013035036E-024
 -2.330000000000000E-002    1.895217054831703E-024
 -2.320000000000000E-002    2.382500735939411E-024
 -2.310000000000000E-002    2.765957626994533E-024
 -2.300000000000000E-002    2.965883827552605E-024
 -2.290000000000000E-002    2.895067883140053E-024
 -2.280000000000000E-002    2.465016475825973E-024
 -2.270000000000000E-002    1.594526095650812E-024
 -2.260000000000000E-002    2.208169599523857E-025
 -2.250000000000000E-002   -1.686716618011351E-024
 -2.240000000000000E-002   -4.110421556735693E-024
 -2.230000000000000E-002   -6.966775158707667E-024
 -2.220000000000000E-002   -1.008882466916531E-023
 -2.210000000000000E-002   -1.321119264043529E-023
 -2.200000000000000E-002   -1.596120108144175E-023
 -2.190000000000000E-002   -1.786060244107521E-023
 -2.180000000000000E-002   -1.834297330217033E-023
 -2.170000000000000E-002   -1.679172538058308E-023
 -2.160000000000000E-002   -1.260257406061696E-023
 -2.150000000000000E-002   -5.271919623733489E-024
 -2.140000000000000E-002    5.491183721488866E-024
 -2.130000000000000E-002    1.963688838946777E-023
 -2.120000000000000E-002    3.664363034295461E-023
 -2.110000000000000E-002    5.540395359358182E-023
 -2.100000000000000E-002    7.415182471589780E-023
 -2.090000000000000E-002    9.045919440097656E-023
 -2.080000000000000E-002    1.013289308473344E-022
 -2.070000000000000E-002    1.034058164357769E-022
 -2.060000000000000E-002    9.331628286120567E-023
 -2.050000000000000E-002    6.813079333885016E-023
 -2.040000000000000E-002    2.592148063883296E-023
 -2.030000000000000E-002   -3.363637182250385E-023
 -2.020000000000000E-002   -1.086938282907249E-022
 -2.010000000000000E-002   -1.947823107341335E-022
 -2.000000000000000E-002   -2.845952674196935E-022
 -1.990000000000000E-002   -3.680968580237595E-022
 -1.980000000000000E-002   -4.330368518711153E-022
 -1.970000000000000E-002   -4.659129278970174E-022
 -1.960000000000000E-002   -4.533674134221445E-022
 -1.950000000000000E-002   -3.839396979896015E-022
 -1.940000000000000E-002   -2.500243493339616E-022
 -1.930000000000000E-002   -4.982097898024562E-023
 -1.920000000000000E-002    2.109868515976300E-022
 -1.910000000000000E-002    5.181058358648507E-022
 -1.900000000000000E-002    8.483269552016988E-022
 -1.890000000000000E-002    1.170247047896428E-021
 -1.880000000000000E-002    1.446128532961058E-021
 -1.870000000000000E-002    1.634877363060130E-021
 -1.860000000000000E-002    1.695970484046651E-021
 -1.850000000000000E-002    1.594018700773821E-021
 -1.840000000000000E-002    1.303526875166426E-021
 -1.830000000000000E-002    8.133368158206178E-022
 -1.820000000000000E-002    1.302233772445276E-022
 -1.810000000000000E-002   -7.188321371796214E-022
 -1.800000000000000E-002   -1.686042796005140E-021
 -1.790000000000000E-002   -2.704073226121896E-021
 -1.780000000000000E-002   -3.689134031101643E-021
 -1.770000000000000E-002   -4.545707958414171E-021
 -1.760000000000000E-002   -5.172557123403291E-021
 -1.750000000000000E-002   -5.469586497681302E-021
 -1.740000000000000E-002   -5.345153174264478E-021
 -1.730000000000000E-002   -4.723505203618703E-021
 -1.720000000000000E-002   -3.552177014273476E-021
 -1.710000000000000E-002   -1.809317388461645E-021
 -1.700000000000000E-002    4.889871126635042E-022
 -1.690000000000000E-002    3.281369206243843E-021
 -1.680000000000000E-002    6.454012235586366E-021
 -1.670000000000000E-002    9.834242971479791E-021
 -1.660000000000000E-002    1.318604552414320E-020
 -1.650000000000000E-002    1.620928690553606E-020
 -1.640000000000000E-002    1.854500618198232E-020
 -1.630000000000000E-002    1.978942721472267E-020
 -1.620000000000000E-002    1.951921466045839E-020
 -1.610000000000000E-002    1.732970788835264E-020
 -1.600000000000000E-002    1.288639090632779E-020
 -1.590000000000000E-002    5.987598643662716E-021
 -1.580000000000000E-002   -3.366265375101155E-021
 -1.570000000000000E-002   -1.490479320074553E-020
 -1.560000000000000E-002   -2.803140626824205E-020
 -1.550000000000000E-002   -4.179142877122719E-020
 -1.540000000000000E-002   -5.487733724620887E-020
 -1.530000000000000E-002   -6.568259754428679E-020
 -1.520000000000000E-002   -7.241171739535286E-020
 -1.510000000000000E-002   -7.324789475543068E-020
 -1.500000000000000E-002   -6.657145271822098E-020
 -1.490000000000000E-002   -5.121284114626505E-020
 -1.480000000000000E-002   -2.671450761930352E-020
 -1.470000000000000E-002    6.432014817692462E-021
 -1.460000000000000E-002    4.661235614566933E-020
 -1.450000000000000E-002    9.101770548529034E-020
 -1.440000000000000E-002    1.357087817427131E-019
 -1.430000000000000E-002    1.758374392501815E-019
 -1.420000000000000E-002    2.060305754093159E-019
 -1.410000000000000E-002    2.209199182452167E-019
 -1.400000000000000E-002    2.157777382973870E-019
 -1.390000000000000E-002    1.871969539068950E-019
 -1.380000000000000E-002    1.337362037072138E-019
 -1.370000000000000E-002    5.644198230050130E-020
 -1.360000000000000E-002   -4.083883675984560E-020
 -1.350000000000000E-002   -1.514285675215783E-019
 -1.340000000000000E-002   -2.661169076609188E-019
 -1.330000000000000E-002   -3.737979312397009E-019
 -1.320000000000000E-002   -4.624134336276476E-019
 -1.310000000000000E-002   -5.201272079099477E-019
 -1.300000000000000E-002   -5.366163331314957E-019
 -1.290000000000000E-002   -5.043396415875446E-019
 -1.280000000000000E-002   -4.196327976525812E-019
 -1.270000000000000E-002   -2.834900068978109E-019
 -1.260000000000000E-002   -1.019212943138969E-019
 -1.250000000000000E-002    1.141784555272581E-019
 -1.240000000000000E-002    3.496546526212082E-019
 -1.230000000000000E-002    5.861579978623094E-019
 -1.220000000000000E-002    8.035400056408222E-019
 -1.210000000000000E-002    9.814318470447516E-019
 -1.200000000000000E-002    1.100843185535783E-018
 -1.190000000000000E-002    1.145628723463659E-018
 -1.180000000000000E-002    1.103704892790712E-018
 -1.170000000000000E-002    9.679542535908066E-019
 -1.160000000000000E-002    7.368173469288665E-019
 -1.150000000000000E-002    4.146279413858014E-019
 -1.140000000000000E-002    1.178591235050012E-020
 -1.130000000000000E-002   -4.551338321146467E-019
 -1.120000000000000E-002   -9.632717342757508E-019
 -1.110000000000000E-002   -1.483376954324543E-018
 -1.100000000000000E-002   -1.979808633015605E-018
 -1.090000000000000E-002   -2.410856203037268E-018
 -1.080000000000000E-002   -2.729680790983047E-018
 -1.070000000000000E-002   -2.886223534752324E-018
 -1.060000000000000E-002   -2.830403522829672E-018
 -1.050000000000000E-002   -2.516803724291414E-018
 -1.040000000000000E-002   -1.910836398096642E-018
 -1.030000000000000E-002   -9.960729555694998E-019
 -1.020000000000000E-002    2.179190904666125E-019
 -1.010000000000000E-002    1.688246835685757E-018
 -1.000000000000000E-002    3.333162544195883E-018
 -9.899999999999999E-003    5.029787082230379E-018
 -9.800000000000000E-003    6.616485004939870E-018
 -9.699999999999999E-003    7.901002030435049E-018
 -9.599999999999999E-003    8.674927934326740E-018
 -9.500000000000000E-003    8.734259303999527E-018
 -9.399999999999999E-003    7.904890106476743E-018
 -9.299999999999999E-003    6.070847250365202E-018
 -9.200000000000000E-003    3.202167151244638E-018
 -9.099999999999999E-003   -6.213655438376202E-019
 -8.999999999999999E-003   -5.194682003247246E-018
 -8.900000000000000E-003   -1.018390361338791E-017
 -8.799999999999999E-003   -1.513784541392055E-017
 -8.699999999999999E-003   -1.951611470874569E-017
 -8.600000000000000E-003   -2.273354942108390E-017
 -8.499999999999999E-003   -2.421850634409900E-017
 -8.399999999999999E-003   -2.348032547123988E-017
 -8.300000000000000E-003   -2.017930028839161E-017
 -8.199999999999999E-003   -1.419112981865399E-017
 -8.100000000000000E-003   -5.657220692827298E-018
 -8.000000000000000E-003    4.987226694980353E-018
 -7.899999999999999E-003    1.701393171194660E-017
 -7.800000000000000E-003    2.943490877403148E-017
 -7.699999999999999E-003    4.106889727988046E-017
 -7.599999999999999E-003    5.063754553887577E-017
 -7.499999999999999E-003    5.688391539259618E-017
 -7.399999999999999E-003    5.870268654186811E-017
 -7.299999999999999E-003    5.526916324654138E-017
 -7.199999999999999E-003    4.615306502390250E-017
 -7.100000000000000E-003    3.140390747142138E-017
 -6.999999999999999E-003    1.159703994310189E-017
 -6.899999999999999E-003   -1.216686025541254E-017
 -6.800000000000000E-003   -3.831140020756954E-017
 -6.699999999999999E-003   -6.488040274705211E-017
 -6.599999999999999E-003   -8.967294935603227E-017
 -6.499999999999999E-003   -1.104058010803973E-016
 -6.399999999999999E-003   -1.248894761849726E-016
 -6.299999999999999E-003   -1.312032457366375E-016
 -6.199999999999999E-003   -1.278552704750594E-016
 -6.100000000000000E-003   -1.139169716021269E-016
 -5.999999999999999E-003   -8.912396398318739E-017
 -5.899999999999999E-003   -5.394017286892477E-017
 -5.800000000000000E-003   -9.584828911490236E-018
 -5.699999999999999E-003    4.197533774493792E-017
 -5.599999999999999E-003    9.806593817057632E-017
 -5.499999999999999E-003    1.553746431408688E-016
 -5.399999999999999E-003    2.100517581112531E-016
 -5.299999999999999E-003    2.578450687143190E-016
 -5.199999999999999E-003    2.942759179255699E-016
 -5.099999999999999E-003    3.148643206402865E-016
 -4.999999999999999E-003    3.154102777563465E-016
 -4.899999999999999E-003    2.923333122861618E-016
 -4.799999999999999E-003    2.430640349121342E-016
 -4.699999999999999E-003    1.664697656765748E-016
 -4.599999999999999E-003    6.328213556784326E-017
 -4.499999999999999E-003   -6.351915042045944E-017
 -4.399999999999999E-003   -2.084244918032614E-016
 -4.299999999999999E-003   -3.632784483252897E-016
 -4.199999999999999E-003   -5.173929658199384E-016
 -4.099999999999999E-003   -6.579422493460680E-016
 -3.999999999999999E-003   -7.706695669392457E-016
 -3.899999999999999E-003   -8.409062242049624E-016
 -3.799999999999999E-003   -8.548627573685154E-016
 -3.699999999999999E-003   -8.011107121378503E-016
 -3.599999999999999E-003   -6.721318720649149E-016
 -3.499999999999999E-003   -4.657776808819336E-016
 -3.399999999999999E-003   -1.864612875707735E-016
 -3.299999999999999E-003    1.540970981580768E-016
 -3.199999999999999E-003    5.367322808917370E-016
 -3.099999999999999E-003    9.354201044736920E-016
 -2.999999999999999E-003    1.318642819166856E-015
 -2.899999999999999E-003    1.651507144219800E-015
 -2.799999999999999E-003    1.898503659707715E-015
 -2.699999999999999E-003    2.026708366335919E-015
 -2.599999999999999E-003    2.009153493046818E-015
 -2.499999999999999E-003    1.828045000793445E-015
 -2.399999999999999E-003    1.477482367737929E-015
 -2.299999999999999E-003    9.653530602210095E-016
 -2.199999999999999E-003    3.141326555852430E-016
 -2.099999999999999E-003   -4.395941566063552E-016
 -1.999999999999999E-003   -1.246952095089789E-015
 -1.899999999999999E-003   -2.049867356573228E-015
 -1.799999999999999E-003   -2.785227783047805E-015
 -1.699999999999999E-003   -3.389783831220476E-015
 -1.599999999999999E-003   -3.805380009303845E-015
 -1.499999999999999E-003   -3.984045150435759E-015
 -1.399999999999999E-003   -3.892471685070502E-015
 -1.299999999999999E-003   -3.515464102029710E-015
 -1.199999999999999E-003   -2.858021976805331E-015
 -1.099999999999999E-003   -1.945855368429356E-015
 -9.999999999999989E-004   -8.242784788630054E-016
 -8.999999999999990E-004    4.444227765693044E-016
 -7.999999999999990E-004    1.784910849555493E-015
 -6.999999999999989E-004    3.113664202421834E-015
 -5.999999999999990E-004    4.344379647836829E-015
 -4.999999999999989E-004    5.393480197681030E-015
 -3.999999999999989E-004    6.185332851763515E-015
 -2.999999999999989E-004    6.656836914139382E-015
 -1.999999999999989E-004    6.761151737462116E-015
 -9.999999999999892E-005    6.470433432973880E-015
  1.084202172485504E-018    5.777546980083417E-015
  1.000000000000011E-004    4.696805456359915E-015
  2.000000000000011E-004    3.263827346537070E-015
  3.000000000000011E-004    1.534611065057035E-015
  4.000000000000011E-004   -4.160941741586827E-016
  5.000000000000011E-004   -2.497106769724463E-015
  6.000000000000011E-004   -4.603847286723270E-015
  7.000000000000011E-004   -6.622181610280186E-015
  8.000000000000011E-004   -8.433156005579930E-015
  9.000000000000012E-004   -9.918698203628047E-015
  1.000000000000001E-003   -1.096823580184062E-014
  1.100000000000001E-003   -1.148606926613121E-014
  1.200000000000001E-003   -1.139912018683073E-014
  1.300000000000001E-003   -1.066448413763318E-014
  1.400000000000001E-003   -9.276030584180465E-015
  1.500000000000001E-003   -7.269175441910830E-015
  1.600000000000001E-003   -4.722916395419929E-015
  1.700000000000001E-003   -1.758328025419567E-015
  1.800000000000001E-003    1.467020165416880E-015
  1.900000000000001E-003    4.768868422137284E-015
  2.000000000000001E-003    7.949930241888164E-015
  2.100000000000001E-003    1.081646334638143E-014
  2.200000000000001E-003    1.319621757609028E-014
  2.300000000000001E-003    1.495577922484842E-014
  2.400000000000001E-003    1.601500898465550E-014
  2.500000000000001E-003    1.635629316827239E-014
  2.600000000000001E-003    1.602659269266054E-014
  2.700000000000001E-003    1.513096966392937E-014
  2.800000000000001E-003    1.381721282197427E-014
  2.900000000000001E-003    1.225241246265060E-014
  3.000000000000001E-003    1.059365406265384E-014
  3.100000000000001E-003    8.956249123861861E-015
  3.200000000000001E-003    7.383946573800502E-015
  3.300000000000001E-003    5.826086697182574E-015
  3.400000000000001E-003    4.126650883310348E-015
  3.500000000000001E-003    2.029340387084192E-015
  3.600000000000001E-003   -7.986642623627231E-016
  3.700000000000001E-003   -4.723801114569122E-015
  3.800000000000001E-003   -1.008622654907520E-014
  3.900000000000001E-003   -1.712794973298485E-014
  4.000000000000001E-003   -2.591659340188159E-014
  4.100000000000001E-003   -3.627455850541620E-014
  4.200000000000001E-003   -4.772448608507944E-014
  4.300000000000001E-003   -5.946174153042951E-014
  4.400000000000001E-003   -7.036322184265217E-014
  4.500000000000001E-003   -7.903870642977448E-014
  4.600000000000002E-003   -8.392672332134417E-014
  4.700000000000001E-003   -8.343178044418797E-014
  4.800000000000001E-003   -7.609419738621724E-014
  4.900000000000002E-003   -6.077865729912283E-014
  5.000000000000001E-003   -3.686306113281991E-014
  5.100000000000001E-003   -4.407159504692669E-015
  5.200000000000001E-003    3.572068731840913E-014
  5.300000000000002E-003    8.177782151870838E-014
  5.400000000000001E-003    1.311575301823779E-013
  5.500000000000001E-003    1.804841763708846E-013
  5.600000000000002E-003    2.257932266814175E-013
  5.700000000000001E-003    2.627884094500120E-013
  5.800000000000001E-003    2.871596224769923E-013
  5.900000000000002E-003    2.949378942232209E-013
  6.000000000000001E-003    2.828593668900134E-013
  6.100000000000001E-003    2.487077576424018E-013
  6.200000000000002E-003    1.916056488773113E-013
  6.300000000000002E-003    1.122293707749761E-013
  6.400000000000001E-003    1.292750150434074E-014
  6.500000000000001E-003   -1.022688764325827E-013
  6.600000000000002E-003   -2.277474034541327E-013
  6.700000000000001E-003   -3.565233891032290E-013
  6.800000000000001E-003   -4.805459476738930E-013
  6.900000000000002E-003   -5.910865957313627E-013
  7.000000000000001E-003   -6.791927299680425E-013
  7.100000000000001E-003   -7.361889641009433E-013
  7.200000000000002E-003   -7.542085716687560E-013
  7.300000000000002E-003   -7.267386052271760E-013
  7.400000000000001E-003   -6.491618642673106E-013
  7.500000000000001E-003   -5.192766368596535E-013
  7.600000000000002E-003   -3.377698766520936E-013
  7.700000000000001E-003   -1.086156686708044E-013
  7.800000000000001E-003    1.606413422650849E-013
  7.900000000000001E-003    4.587598371615576E-013
  8.000000000000002E-003    7.708841165406521E-013
  8.100000000000001E-003    1.078883028003867E-012
  8.200000000000001E-003    1.361988101851645E-012
  8.300000000000002E-003    1.597753986647065E-012
  8.400000000000001E-003    1.763344419781111E-012
  8.500000000000002E-003    1.837108796963950E-012
  8.600000000000002E-003    1.800376325510763E-012
  8.700000000000001E-003    1.639357742464902E-012
  8.800000000000002E-003    1.347000663174954E-012
  8.900000000000002E-003    9.246262151377870E-013
  9.000000000000001E-003    3.831500873595740E-013
  9.100000000000002E-003   -2.562921412983157E-013
  9.200000000000002E-003   -9.624734489277720E-013
  9.300000000000001E-003   -1.695064251578439E-012
  9.400000000000002E-003   -2.406516668599055E-012
  9.500000000000001E-003   -3.044799697372028E-012
  9.600000000000001E-003   -3.556844414063264E-012
  9.700000000000002E-003   -3.892482911338906E-012
  9.800000000000001E-003   -4.008584696223347E-012
  9.900000000000001E-003   -3.873050454318614E-012
  1.000000000000000E-002   -3.468308633578748E-012
  1.010000000000000E-002   -2.793975876575199E-012
  1.020000000000000E-002   -1.868399931372564E-012
  1.030000000000000E-002   -7.288821098106553E-013
  1.040000000000000E-002    5.695072164195087E-013
  1.050000000000000E-002    1.956489314879067E-012
  1.060000000000000E-002    3.350375696134485E-012
  1.070000000000000E-002    4.662842715085945E-012
  1.080000000000000E-002    5.804358776343835E-012
  1.090000000000000E-002    6.689887411056667E-012
  1.100000000000000E-002    7.244474061078925E-012
  1.110000000000000E-002    7.408361427428365E-012
  1.120000000000000E-002    7.141320495438821E-012
  1.130000000000000E-002    6.425959678420760E-012
  1.140000000000000E-002    5.269858860807450E-012
  1.150000000000000E-002    3.706444879204711E-012
  1.160000000000000E-002    1.794594126075868E-012
  1.170000000000000E-002   -3.830113228779977E-013
  1.180000000000000E-002   -2.722715497162062E-012
  1.190000000000000E-002   -5.103839526696170E-012
  1.200000000000000E-002   -7.393679261302236E-012
  1.210000000000000E-002   -9.453475347391803E-012
  1.220000000000000E-002   -1.114523404043126E-011
  1.230000000000000E-002   -1.233925915007782E-011
  1.240000000000000E-002   -1.292215730537842E-011
  1.250000000000000E-002   -1.280499764837643E-011
  1.260000000000000E-002   -1.193117978329266E-011
  1.270000000000000E-002   -1.028346775899612E-011
  1.280000000000000E-002   -7.889551843465066E-012
  1.290000000000000E-002   -4.825468288404174E-012
  1.300000000000000E-002   -1.216230545709001E-012
  1.310000000000000E-002    2.766849306312786E-012
  1.320000000000000E-002    6.912489204890191E-012
  1.330000000000000E-002    1.097944149491542E-011
  1.340000000000000E-002    1.470990574043494E-011
  1.350000000000000E-002    1.784566432689320E-011
  1.360000000000000E-002    2.014593917141014E-011
  1.370000000000000E-002    2.140565902533357E-011
  1.380000000000000E-002    2.147264703989205E-011
  1.390000000000000E-002    2.026218400828648E-011
  1.400000000000000E-002    1.776751205029259E-011
  1.410000000000000E-002    1.406511288561108E-011
  1.420000000000000E-002    9.314025582267877E-012
  1.430000000000000E-002    3.748948170270339E-012
  1.440000000000000E-002   -2.332535301532276E-012
  1.450000000000000E-002   -8.587733361117566E-012
  1.460000000000000E-002   -1.465027449040478E-011
  1.470000000000000E-002   -2.015351162295664E-011
  1.480000000000000E-002   -2.475404537885022E-011
  1.490000000000000E-002   -2.815357522804690E-011
  1.500000000000000E-002   -3.011747841002092E-011
  1.510000000000000E-002   -3.048890522612047E-011
  1.520000000000000E-002   -2.919765992790924E-011
  1.530000000000000E-002   -2.626365525496796E-011
  1.540000000000000E-002   -2.179519513583004E-011
  1.550000000000000E-002   -1.598274717794929E-011
  1.560000000000000E-002   -9.089100013932384E-012
  1.570000000000000E-002   -1.436873530801901E-012
  1.580000000000000E-002    6.605691708656631E-012
  1.590000000000000E-002    1.463996605210011E-011
  1.600000000000000E-002    2.225274975838601E-011
  1.610000000000000E-002    2.903251640452370E-011
  1.620000000000000E-002    3.458609109431482E-011
  1.630000000000000E-002    3.855589451527888E-011
  1.640000000000000E-002    4.063781178274587E-011
  1.650000000000000E-002    4.059945421953153E-011
  1.660000000000000E-002    3.829826636018793E-011
  1.670000000000000E-002    3.369848316227423E-011
  1.680000000000000E-002    2.688546905132438E-011
  1.690000000000000E-002    1.807568455820969E-011
  1.700000000000000E-002    7.620365360579841E-012
  1.710000000000000E-002   -3.998841349736309E-012
  1.720000000000000E-002   -1.618369284303483E-011
  1.730000000000000E-002   -2.824327644076752E-011
  1.740000000000000E-002   -3.942778533220276E-011
  1.750000000000000E-002   -4.897088213631806E-011
  1.760000000000000E-002   -5.613827898858972E-011
  1.770000000000000E-002   -6.027928828461173E-011
  1.780000000000000E-002   -6.087749999403745E-011
  1.790000000000000E-002   -5.759638283242704E-011
  1.800000000000000E-002   -5.031591003634848E-011
  1.810000000000000E-002   -3.915680081695721E-011
  1.820000000000000E-002   -2.449009087523096E-011
  1.830000000000000E-002   -6.930864289343390E-012
  1.840000000000000E-002    1.268354497233283E-011
  1.850000000000000E-002    3.332940623436870E-011
  1.860000000000000E-002    5.384377519324115E-011
  1.870000000000000E-002    7.297975821234137E-011