 -4.000000000000000E-002    0.000000000000000E+000
 -3.990000000000000E-002    0.000000000000000E+000
 -3.980000000000000E-002    0.000000000000000E+000
 -3.970000000000000E-002    0.000000000000000E+000
 -3.960000000000000E-002    0.000000000000000E+000
 -3.950000000000000E-002    0.000000000000000E+000
 -3.940000000000000E-002    0.000000000000000E+000
 -3.930000000000000E-002    0.000000000000000E+000
 -3.920000000000000E-002    0.000000000000000E+000
 -3.910000000000000E-002    0.000000000000000E+000
 -3.900000000000000E-002    0.000000000000000E+000
 -3.890000000000000E-002    0.000000000000000E+000
 -3.880000000000000E-002    0.000000000000000E+000
 -3.870000000000000E-002    0.000000000000000E+000
 -3.860000000000000E-002    0.000000000000000E+000
 -3.850000000000000E-002    0.000000000000000E+000
 -3.840000000000000E-002    0.000000000000000E+000
 -3.830000000000000E-002    0.000000000000000E+000
 -3.820000000000000E-002    0.000000000000000E+000
 -3.810000000000000E-002    1.900734176592889E-046
 -3.800000000000000E-002    2.018081177092735E-045
 -3.790000000000000E-002    1.546133136975538E-044
 -3.780000000000000E-002    9.545002833558564E-044
 -3.770000000000000E-002    5.000330673266958E-043
 -3.760000000000000E-002    2.258654213712093E-042
 -3.750000000000000E-002    8.957855363116877E-042
 -3.740000000000000E-002    3.154293008979904E-041
 -3.730000000000000E-002    9.922300466516376E-041
 -3.720000000000000E-002    2.790201621919871E-040
 -3.710000000000000E-002    6.964815653917998E-040
 -3.700000000000000E-002    1.510199132143555E-039
 -3.690000000000000E-002    2.678714046062758E-039
 -3.680000000000000E-002    3.091707175893009E-039
 -3.670000000000000E-002   -1.888750783935511E-039
 -3.660000000000000E-002   -2.629361622636465E-038
 -3.650000000000000E-002   -1.057098800365025E-037
 -3.640000000000000E-002   -3.192255251408569E-037
 -3.630000000000000E-002   -8.228762488651312E-037
 -3.620000000000000E-002   -1.888328941292756E-036
 -3.610000000000000E-002   -3.919864111051626E-036
 -3.600000000000000E-002   -7.380739045423180E-036
 -3.590000000000000E-002   -1.248907877406227E-035
 -3.580000000000000E-002   -1.844494624325210E-035
 -3.570000000000000E-002   -2.184979659487362E-035
 -3.560000000000000E-002   -1.394990220009560E-035
 -3.550000000000000E-002    2.347668830886525E-035
 -3.540000000000000E-002    1.231261048368225E-034
 -3.530000000000000E-002    3.361884189495941E-034
 -3.520000000000000E-002    7.310093414653863E-034
 -3.510000000000000E-002    1.378358884395907E-033
 -3.500000000000000E-002    2.310910544011842E-033
 -3.490000000000000E-002    3.441015739524529E-033
 -3.480000000000000E-002    4.421330198524056E-033
 -3.470000000000000E-002    4.442443054839013E-033
 -3.460000000000000E-002    1.987204984680716E-033
 -3.450000000000000E-002   -5.389861587270136E-033
 -3.440000000000000E-002   -2.111363738600594E-032
 -3.430000000000000E-002   -4.922609700193670E-032
 -3.420000000000000E-002   -9.326350139795079E-032
 -3.410000000000000E-002   -1.539618822511848E-031
 -3.400000000000000E-002   -2.254265202416003E-031
 -3.390000000000000E-002   -2.896577755310686E-031
 -3.380000000000000E-002   -3.099029284341259E-031
 -3.370000000000000E-002   -2.242892781378191E-031
 -3.360000000000000E-002    5.740324357878404E-032
 -3.350000000000000E-002    6.492996867776706E-031
 -3.340000000000000E-002    1.671234728144472E-030
 -3.330000000000000E-002    3.209975312212912E-030
 -3.320000000000000E-002    5.254088824437042E-030
 -3.310000000000000E-002    7.600728690255064E-030
 -3.300000000000000E-002    9.740769951245226E-030
 -3.290000000000000E-002    1.074160757173858E-029
 -3.280000000000000E-002    9.164056529536750E-030
 -3.270000000000000E-002    3.068913358916470E-030
 -3.260000000000000E-002   -9.814668777909030E-030
 -3.250000000000000E-002   -3.167976519205188E-029
 -3.240000000000000E-002   -6.392332321367014E-029
 -3.230000000000000E-002   -1.060901860079814E-028
 -3.220000000000000E-002   -1.545254309054360E-028
 -3.210000000000000E-002   -2.008930369632799E-028
 -3.200000000000000E-002   -2.308622697402400E-028
 -3.190000000000000E-002   -2.234181444822549E-028
 -3.180000000000000E-002   -1.513878166109363E-028
 -3.170000000000000E-002    1.615469941731706E-029
 -3.160000000000000E-002    3.089877173390210E-028
 -3.150000000000000E-002    7.479350958093555E-028
 -3.140000000000000E-002    1.334149054400894E-027
 -3.130000000000000E-002    2.036085224780244E-027
 -3.120000000000000E-002    2.775551051731703E-027
 -3.110000000000000E-002    3.415083358264963E-027
 -3.100000000000000E-002    3.749776232679774E-027
 -3.090000000000000E-002    3.507403492206238E-027
 -3.080000000000000E-002    2.361137896502182E-027
 -3.070000000000000E-002   -4.075546537407737E-029
 -3.060000000000000E-002   -4.024276413324743E-027
 -3.050000000000000E-002   -9.815090524557713E-027
 -3.040000000000000E-002   -1.743866066649575E-026
 -3.030000000000000E-002   -2.659648917341359E-026
 -3.020000000000000E-002   -3.652402465821394E-026
 -3.010000000000000E-002   -4.584208060285450E-026
 -3.000000000000000E-002   -5.242282475984075E-026
 -2.990000000000000E-002   -5.330402430920316E-026
 -2.980000000000000E-002   -4.470116928392068E-026
 -2.970000000000000E-002   -2.218461956625915E-026
 -2.960000000000000E-002    1.889567955764481E-026
 -2.950000000000000E-002    8.264886099476540E-026
 -2.940000000000000E-002    1.714680336056516E-025
 -2.930000000000000E-002    2.844063125322970E-025
 -2.920000000000000E-002    4.151526705494939E-025
 -2.910000000000000E-002    5.497896399765903E-025
 -2.900000000000000E-002    6.646965375209423E-025
 -2.890000000000000E-002    7.251769383917384E-025
 -2.880000000000000E-002    6.856015496641844E-025
 -2.870000000000000E-002    4.920110603651233E-025
 -2.860000000000000E-002    8.814053292930756E-026
 -2.850000000000000E-002   -5.743793949924475E-025
 -2.840000000000000E-002   -1.521400289437301E-024
 -2.830000000000000E-002   -2.737832871155270E-024
 -2.820000000000000E-002   -4.147248886912025E-024
 -2.810000000000000E-002   -5.592775884122220E-024
 -2.800000000000000E-002   -6.824024451045556E-024
 -2.790000000000000E-002   -7.495947229452333E-024
 -2.780000000000000E-002   -7.185982441016016E-024
 -2.770000000000000E-002   -5.435116025629124E-024
 -2.760000000000000E-002   -1.816246853479294E-024
 -2.750000000000000E-002    3.970761053426840E-024
 -2.740000000000000E-002    1.198357321584336E-023
 -2.730000000000000E-002    2.191441750824773E-023
 -2.720000000000000E-002    3.297953941264906E-023
 -2.710000000000000E-002    4.384665651419326E-023
 -2.700000000000000E-002    5.262886109134044E-023
 -2.690000000000000E-002    5.697181862848871E-023
 -2.680000000000000E-002    5.425395143929202E-023
 -2.670000000000000E-002    4.190600211447768E-023
 -2.660000000000000E-002    1.783782085011990E-023
 -2.650000000000000E-002   -1.906173646779616E-023
 -2.640000000000000E-002   -6.840782482561945E-023
 -2.630000000000000E-002   -1.278595310077781E-022
 -2.620000000000000E-002   -1.928002510506109E-022
 -2.610000000000000E-002   -2.562398916858834E-022
 -2.600000000000000E-002   -3.090047917186957E-022
 -2.590000000000000E-002   -3.402533744057328E-022
 -2.580000000000000E-002   -3.383193234494315E-022
 -2.570000000000000E-002   -2.918462100044170E-022
 -2.560000000000000E-002   -1.911453047458403E-022
 -2.550000000000000E-002   -2.968961314096679E-023
 -2.540000000000000E-002    1.943452479861420E-022
 -2.530000000000000E-002    4.765703369552152E-022
 -2.520000000000000E-002    8.049618698107246E-022
 -2.510000000000000E-002    1.158580349060724E-021
 -2.500000000000000E-002    1.506504477768956E-021
 -2.490000000000000E-002    1.807123694544184E-021
 -2.480000000000000E-002    2.008060304401394E-021
 -2.470000000000000E-002    2.047167016884153E-021
 -2.460000000000000E-002    1.855231333092270E-021
 -2.450000000000000E-002    1.361161868080924E-021
 -2.440000000000000E-002    5.004366342453951E-022
 -2.430000000000000E-002   -7.726235392564007E-022
 -2.420000000000000E-002   -2.468722365355785E-021
 -2.410000000000000E-002   -4.544444843894228E-021
 -2.400000000000000E-002   -6.882155690079122E-021
 -2.390000000000000E-002   -9.272384137346795E-021
 -2.380000000000000E-002   -1.140349016665300E-020
 -2.370000000000000E-002   -1.286434163069201E-020
 -2.360000000000000E-002   -1.316587688186730E-020
 -2.350000000000000E-002   -1.178634804227975E-020
 -2.340000000000000E-002   -8.242452265451281E-021
 -2.330000000000000E-002   -2.184397555326020E-021
 -2.320000000000000E-002    6.492570800069200E-021
 -2.310000000000000E-002    1.753386531741953E-020
 -2.300000000000000E-002    3.022807835117050E-020
 -2.290000000000000E-002    4.335015171370605E-020
 -2.280000000000000E-002    5.517015498642807E-020
 -2.270000000000000E-002    6.354932915301555E-020
 -2.260000000000000E-002    6.613643018147768E-020
 -2.250000000000000E-002    6.066350102004248E-020
 -2.240000000000000E-002    4.532205962125062E-020
 -2.230000000000000E-002    1.918043085791609E-020
 -2.220000000000000E-002   -1.741586196915056E-020
 -2.210000000000000E-002   -6.253237702789041E-020
 -2.200000000000000E-002   -1.124985116477773E-019
 -2.190000000000000E-002   -1.619918445995619E-019
 -2.180000000000000E-002   -2.043980577419109E-019
 -2.170000000000000E-002   -2.324534328099282E-019
 -2.160000000000000E-002   -2.391299634876780E-019
 -2.150000000000000E-002   -2.186727173189586E-019
 -2.140000000000000E-002   -1.676540198788016E-019
 -2.130000000000000E-002   -8.587947660069240E-020
 -2.120000000000000E-002    2.302435683473545E-020
 -2.110000000000000E-002    1.514855968105643E-019
 -2.100000000000000E-002    2.884137318402423E-019
 -2.090000000000000E-002    4.201815709684218E-019
 -2.080000000000000E-002    5.320681616340779E-019
 -2.070000000000000E-002    6.099725174908507E-019
 -2.060000000000000E-002    6.421349944929759E-019
 -2.050000000000000E-002    6.205736189879131E-019
 -2.040000000000000E-002    5.419701837323015E-019
 -2.030000000000000E-002    4.078305477141206E-019
 -2.020000000000000E-002    2.238875174729968E-019
 -2.010000000000000E-002   -1.110201098318067E-021
 -2.000000000000000E-002   -2.569083511061534E-019
 -1.990000000000000E-002   -5.331164513814937E-019
 -1.980000000000000E-002   -8.199586236757257E-019
 -1.970000000000000E-002   -1.108008118844190E-018
 -1.960000000000000E-002   -1.386719475428723E-018
 -1.950000000000000E-002   -1.641890792549829E-018
 -1.940000000000000E-002   -1.852574027151935E-018
 -1.930000000000000E-002   -1.988314992389220E-018
 -1.920000000000000E-002   -2.007862338656792E-018
 -1.910000000000000E-002   -1.860533161646180E-018
 -1.900000000000000E-002   -1.491189752166843E-018
 -1.890000000000000E-002   -8.492396750274968E-019
 -1.880000000000000E-002    9.874958770567553E-020
 -1.870000000000000E-002    1.354226186177763E-018
 -1.860000000000000E-002    2.872019333394460E-018
 -1.850000000000000E-002    4.549069417480658E-018
 -1.840000000000000E-002    6.220032111293861E-018
 -1.830000000000000E-002    7.662939736204882E-018
 -1.820000000000000E-002    8.617037449868545E-018
 -1.810000000000000E-002    8.813110056387053E-018
 -1.800000000000000E-002    8.014254747696695E-018
 -1.790000000000000E-002    6.062512487530973E-018
 -1.780000000000000E-002    2.924443698761241E-018
 -1.770000000000000E-002   -1.272758009351768E-018
 -1.760000000000000E-002   -6.223303651300340E-018
 -1.750000000000000E-002   -1.145029612747732E-017
 -1.740000000000000E-002   -1.634294014971196E-017
 -1.730000000000000E-002   -2.022318384337261E-017
 -1.720000000000000E-002   -2.243608551501526E-017
 -1.710000000000000E-002   -2.245272437130736E-017
 -1.700000000000000E-002   -1.997004664585562E-017
 -1.690000000000000E-002   -1.498969741442476E-017
 -1.680000000000000E-002   -7.858515875075035E-018
 -1.670000000000000E-002    7.426155974967872E-019
 -1.660000000000000E-002    9.867564953104291E-018
 -1.650000000000000E-002    1.842768870376900E-017
 -1.640000000000000E-002    2.535409890768727E-017
 -1.630000000000000E-002    2.977528414947911E-017
 -1.620000000000000E-002    3.117919719179501E-017
 -1.610000000000000E-002    2.952709255422135E-017
 -1.600000000000000E-002    2.529064944556864E-017
 -1.590000000000000E-002    1.939451102210871E-017
 -1.580000000000000E-002    1.306223964433455E-017
 -1.570000000000000E-002    7.582539824515023E-018
 -1.560000000000000E-002    4.031293290898505E-018
 -1.550000000000000E-002    2.999524382785491E-018
 -1.540000000000000E-002    4.384392150427181E-018
 -1.530000000000000E-002    7.296950604019560E-018
 -1.520000000000000E-002    1.012562036003794E-017
 -1.510000000000000E-002    1.076924176850965E-017
 -1.500000000000000E-002    7.021394292073478E-018
 -1.490000000000000E-002   -2.946036702520325E-018
 -1.480000000000000E-002   -2.008109647328959E-017
 -1.470000000000000E-002   -4.403027412534782E-017
 -1.460000000000000E-002   -7.289610288190947E-017
 -1.450000000000000E-002   -1.032536664456921E-016
 -1.440000000000000E-002   -1.304669882370366E-016
 -1.430000000000000E-002   -1.492936743600153E-016
 -1.420000000000000E-002   -1.547069629184312E-016
 -1.410000000000000E-002   -1.428102559964139E-016
 -1.400000000000000E-002   -1.116817621094318E-016
 -1.390000000000000E-002   -6.197627821571249E-017
 -1.380000000000000E-002    2.866062872129260E-018
 -1.370000000000000E-002    7.689738818597374E-017
 -1.360000000000000E-002    1.524345441614711E-016
 -1.350000000000000E-002    2.212355054047307E-016
 -1.340000000000000E-002    2.758923024393452E-016
 -1.330000000000000E-002    3.111798939053087E-016
 -1.320000000000000E-002    3.250705108544086E-016
 -1.310000000000000E-002    3.191481489930539E-016
 -1.300000000000000E-002    2.982436860528183E-016
 -1.290000000000000E-002    2.692491856818583E-016
 -1.280000000000000E-002    2.392416889253865E-016
 -1.270000000000000E-002    2.132215879975275E-016
 -1.260000000000000E-002    1.919144251698093E-016
 -1.250000000000000E-002    1.701618919223238E-016
 -1.240000000000000E-002    1.364102808379472E-016
 -1.230000000000000E-002    7.368008319488731E-017
 -1.220000000000000E-002   -3.782730350156938E-017
 -1.210000000000000E-002   -2.166327229989931E-016
 -1.200000000000000E-002   -4.748718998168994E-016
 -1.190000000000000E-002   -8.129613291081738E-016
 -1.180000000000000E-002   -1.215032679373236E-015
 -1.170000000000000E-002   -1.646193179821859E-015
 -1.160000000000000E-002   -2.052548926992496E-015
 -1.150000000000000E-002   -2.364612620340961E-015
 -1.140000000000000E-002   -2.504237232314334E-015
 -1.130000000000000E-002   -2.394631474772556E-015
 -1.120000000000000E-002   -1.972414652605670E-015
 -1.110000000000000E-002   -1.200154061970015E-015
 -1.100000000000000E-002   -7.750884622994946E-017
 -1.090000000000000E-002    1.350949803337867E-015
 -1.080000000000000E-002    2.992906324267464E-015
 -1.070000000000000E-002    4.711559994595078E-015
 -1.060000000000000E-002    6.335270727387805E-015
 -1.050000000000000E-002    7.672959942552002E-015
 -1.040000000000000E-002    8.533716772442093E-015
 -1.030000000000000E-002    8.748335697705583E-015
 -1.020000000000000E-002    8.190079216156360E-015
 -1.010000000000000E-002    6.791967614229887E-015
 -1.000000000000000E-002    4.558303256454821E-015
 -9.899999999999999E-003    1.568959726769979E-015
 -9.800000000000000E-003   -2.023969762086982E-015
 -9.699999999999999E-003   -6.006441734996592E-015
 -9.599999999999999E-003   -1.011791603855133E-014
 -9.500000000000000E-003   -1.406961217851841E-014
 -9.399999999999999E-003   -1.756299635667237E-014
 -9.299999999999999E-003   -2.030630619122169E-014
 -9.200000000000000E-003   -2.202775246477805E-014
 -9.099999999999999E-003   -2.248523844726670E-014
 -8.999999999999999E-003   -2.147368871813457E-014
 -8.900000000000000E-003   -1.883212172469402E-014
 -8.799999999999999E-003   -1.445312494449441E-014
 -8.699999999999999E-003   -8.297213233185999E-015
 -8.600000000000000E-003   -4.135076262053080E-016
 -8.499999999999999E-003    9.033587845965751E-015
 -8.399999999999999E-003    1.973431840921228E-014
 -8.300000000000000E-003    3.120512736483230E-014
 -8.199999999999999E-003    4.276882902536618E-014
 -8.100000000000000E-003    5.355155266270629E-014
 -8.000000000000000E-003    6.250436658227340E-014
 -7.899999999999999E-003    6.845570201854564E-014
 -7.800000000000000E-003    7.019731950002211E-014
 -7.699999999999999E-003    6.660187265164097E-014
 -7.599999999999999E-003    5.676458158885898E-014
 -7.499999999999999E-003    4.015617237894987E-014
 -7.399999999999999E-003    1.676964948427725E-014
 -7.299999999999999E-003   -1.275925828616524E-014
 -7.199999999999999E-003   -4.707851131992872E-014
 -7.100000000000000E-003   -8.411085604212423E-014
 -6.999999999999999E-003   -1.211221623364529E-013
 -6.899999999999999E-003   -1.548716535530570E-013
 -6.800000000000000E-003   -1.818393742695541E-013
 -6.699999999999999E-003   -1.985166029657486E-013
 -6.599999999999999E-003   -2.017360636617104E-013
 -6.499999999999999E-003   -1.890121917921513E-013
 -6.399999999999999E-003   -1.588583568572922E-013
 -6.299999999999999E-003   -1.110480400139625E-013
 -6.199999999999999E-003   -4.679113824960188E-014
 -6.100000000000000E-003    3.119630589239419E-014
 -5.999999999999999E-003    1.187411276849116E-013
 -5.899999999999999E-003    2.103823726952166E-013
 -5.800000000000000E-003    2.996524175505048E-013
 -5.699999999999999E-003    3.794528257203449E-013
 -5.599999999999999E-003    4.425016803993942E-013
 -5.499999999999999E-003    4.818256770387484E-013
 -5.399999999999999E-003    4.912699080071502E-013
 -5.299999999999999E-003    4.659988740743200E-013
 -5.199999999999999E-003    4.029646738773787E-013
 -5.099999999999999E-003    3.013198724853131E-013
 -4.999999999999999E-003    1.627529566878012E-013
 -4.899999999999999E-003   -8.276399025784571E-015
 -4.799999999999999E-003   -2.044274744166732E-013
 -4.699999999999999E-003   -4.155221101006970E-013
 -4.599999999999999E-003   -6.287715231856479E-013
 -4.499999999999999E-003   -8.292143185105488E-013
 -4.399999999999999E-003   -1.000387284322915E-012
 -4.299999999999999E-003   -1.125237664208790E-012
 -4.199999999999999E-003   -1.187265405880627E-012
 -4.099999999999999E-003   -1.171857703047476E-012
 -3.999999999999999E-003   -1.067746778921735E-012
 -3.899999999999999E-003   -8.684903366336232E-013
 -3.799999999999999E-003   -5.738462323192379E-013
 -3.699999999999999E-003   -1.908908135376861E-013
 -3.599999999999999E-003    2.652744116245449E-013
 -3.499999999999999E-003    7.713755302290854E-013
 -3.399999999999999E-003    1.296496629889640E-012
 -3.299999999999999E-003    1.803360428971001E-012
 -3.199999999999999E-003    2.250367391858106E-012
 -3.099999999999999E-003    2.594328904304051E-012
 -2.999999999999999E-003    2.793752310122761E-012
 -2.899999999999999E-003    2.812462204495982E-012
 -2.799999999999999E-003    2.623282535636849E-012
 -2.699999999999999E-003    2.211463484694995E-012
 -2.599999999999999E-003    1.577527479449197E-012
 -2.499999999999999E-003    7.392221350371125E-013
 -2.399999999999999E-003   -2.676831033216052E-013
 -2.299999999999999E-003   -1.389943025265977E-012
 -2.199999999999999E-003   -2.558821270438070E-012
 -2.099999999999999E-003   -3.693494117106354E-012
 -1.999999999999999E-003   -4.705746568158728E-012
 -1.899999999999999E-003   -5.505719822885057E-012
 -1.799999999999999E-003   -6.008379827522837E-012
 -1.699999999999999E-003   -6.140300383006257E-012
 -1.599999999999999E-003   -5.846301591073797E-012
 -1.499999999999999E-003   -5.095471182130243E-012
 -1.399999999999999E-003   -3.886096022293933E-012
 -1.299999999999999E-003   -2.249067161501103E-012
 -1.199999999999999E-003   -2.493894412863408E-013
 -1.099999999999999E-003    2.014501559319273E-012
 -9.999999999999989E-004    4.413791084600335E-012
 -8.999999999999990E-004    6.794770049673448E-012
 -7.999999999999990E-004    8.986662156582131E-012
 -6.999999999999989E-004    1.081155377270673E-011
 -5.999999999999990E-004    1.209601824715028E-011
 -4.999999999999989E-004    1.268385740884529E-011
 -3.999999999999989E-004    1.244923588757929E-011
 -2.999999999999989E-004    1.130933199125868E-011
 -1.999999999999989E-004    9.235550533436235E-012
 -9.999999999999892E-005    6.262294548874015E-012
  1.084202172485504E-018    2.492307421941356E-012
  1.000000000000011E-004   -1.902263050013770E-012
  2.000000000000011E-004   -6.683753735729051E-012
  3.000000000000011E-004   -1.155820541665774E-011
  4.000000000000011E-004   -1.618991426013336E-011
  5.000000000000011E-004   -2.022091417890375E-011
  6.000000000000011E-004   -2.329451425031704E-011
  7.000000000000011E-004   -2.508160180496262E-011
  8.000000000000011E-004   -2.530800385923968E-011
  9.000000000000012E-004   -2.378092246394803E-011
  1.000000000000001E-003   -2.041229762314824E-011
  1.100000000000001E-003   -1.523694722182266E-011
  1.200000000000001E-003   -8.423503616689441E-012
  1.300000000000001E-003   -2.765414653561363E-013
  1.400000000000001E-003    8.771178328356114E-012
  1.500000000000001E-003    1.817676747411281E-011
  1.600000000000001E-003    2.731521803303564E-011
  1.700000000000001E-003    3.551622388270414E-011
  1.800000000000001E-003    4.210788541151416E-011
  1.900000000000001E-003    4.646470473252318E-011
  2.000000000000001E-003    4.805674783673212E-011
  2.100000000000001E-003    4.649647067229491E-011
  2.200000000000001E-003    4.157963654086657E-011
  2.300000000000001E-003    3.331691754161388E-011
  2.400000000000001E-003    2.195308765399908E-011
  2.500000000000001E-003    7.971466295962461E-012
  2.600000000000001E-003   -7.917954216402696E-012
  2.700000000000001E-003   -2.480722268627376E-011
  2.800000000000001E-003   -4.163538568855384E-011
  2.900000000000001E-003   -5.724794332355401E-011
  3.000000000000001E-003   -7.046792164616470E-011
  3.100000000000001E-003   -8.017467534843868E-011
  3.200000000000001E-003   -8.538570630423613E-011
  3.300000000000001E-003   -8.533612012606824E-011
  3.400000000000001E-003   -7.955017155369804E-011
  3.500000000000001E-003   -6.789928764513189E-011
  3.600000000000001E-003   -5.064143280863551E-011
  3.700000000000001E-003   -2.843752722770337E-011
  3.800000000000001E-003   -2.341739803807701E-012
  3.900000000000001E-003    2.623597525968781E-011
  4.000000000000001E-003    5.559496671874727E-011
  4.100000000000001E-003    8.383458103750680E-011
  4.200000000000001E-003    1.089664551754070E-010
  4.300000000000001E-003    1.290425220083482E-010
  4.400000000000001E-003    1.422912446329024E-010
  4.500000000000001E-003    1.472532840334359E-010
  4.600000000000002E-003    1.429070825718474E-010
  4.700000000000001E-003    1.287747384812141E-010
  4.800000000000001E-003    1.049991099645277E-010
  4.900000000000002E-003    7.238423623025807E-011
  5.000000000000001E-003    3.239332437780668E-011
  5.100000000000001E-003   -1.289902834822105E-011
  5.200000000000001E-003   -6.090073911082369E-011
  5.300000000000002E-003   -1.086391862251188E-010
  5.400000000000001E-003   -1.529349523983018E-010
  5.500000000000001E-003   -1.906029217526403E-010
  5.600000000000002E-003   -2.186686052785291E-010
  5.700000000000001E-003   -2.345856290907419E-010
  5.800000000000001E-003   -2.364391783508465E-010
  5.900000000000002E-003   -2.231202747840607E-010
  6.000000000000001E-003   -1.944565269811972E-010
  6.100000000000001E-003   -1.512874366992114E-010
  6.200000000000002E-003   -9.547512512761325E-011
  6.300000000000002E-003   -2.984575731758377E-011
  6.400000000000001E-003    4.193884818292296E-011
  6.500000000000001E-003    1.155750678757762E-010
  6.600000000000002E-003    1.863672101754443E-010
  6.700000000000001E-003    2.495196349519593E-010
  6.800000000000001E-003    3.004536379316017E-010
  6.900000000000002E-003    3.351288612016470E-010
  7.000000000000001E-003    3.503476137935958E-010
  7.100000000000001E-003    3.440202418025187E-010
  7.200000000000002E-003    3.153711895052105E-010
  7.300000000000002E-003    2.650683528335850E-010
  7.400000000000001E-003    1.952622358402943E-010
  7.500000000000001E-003    1.095270487952963E-010
  7.600000000000002E-003    1.270205901982161E-011
  7.700000000000001E-003   -8.936239636379442E-011
  7.800000000000001E-003   -1.901425057195723E-010
  7.900000000000001E-003   -2.828446753356238E-010
  8.000000000000002E-003   -3.608520577185976E-010
  8.100000000000001E-003   -4.181866351668108E-010
  8.200000000000001E-003   -4.499566439170721E-010
  8.300000000000002E-003   -4.527581022418364E-010
  8.400000000000001E-003   -4.250007310167905E-010
  8.500000000000002E-003   -3.671313340756822E-010
  8.600000000000002E-003   -2.817325672062390E-010
  8.700000000000001E-003   -1.734822596042663E-010
  8.800000000000002E-003   -4.896679670299623E-011
  8.900000000000002E-003    8.364927133778397E-011
  9.000000000000001E-003    2.150845408400320E-010
  9.100000000000002E-003    3.355112000042097E-010
  9.200000000000002E-003    4.352038808756921E-010
  9.300000000000001E-003    5.052283598372310E-010
  9.400000000000002E-003    5.381267011507785E-010
  9.500000000000001E-003    5.285523786022383E-010
  9.600000000000001E-003    4.738089986015941E-010
  9.700000000000002E-003    3.742496584139414E-010
  9.800000000000001E-003    2.334996255587627E-010
  9.900000000000001E-003    5.847510162562247E-011
  1.000000000000000E-002   -1.408185715300015E-010
  1.010000000000000E-002   -3.517119421190966E-010
  1.020000000000000E-002   -5.595085902939452E-010
  1.030000000000000E-002   -7.483084940051280E-010
  1.040000000000000E-002   -9.019786060176025E-010
  1.050000000000000E-002   -1.005219602482212E-009
  1.060000000000000E-002   -1.044668573706606E-009
  1.070000000000000E-002   -1.009972452787060E-009
  1.080000000000000E-002   -8.947631937850142E-010
  1.090000000000000E-002   -6.974694313952678E-010
  1.100000000000000E-002   -4.219035486461853E-010
  1.110000000000000E-002   -7.757433586762017E-011
  1.120000000000000E-002    3.203137882396203E-010
  1.130000000000000E-002    7.511980458577198E-010
  1.140000000000000E-002    1.189835726900251E-009
  1.150000000000000E-002    1.607314144213355E-009
  1.160000000000000E-002    1.972361712948398E-009
  1.170000000000000E-002    2.252915741471776E-009
  1.180000000000000E-002    2.417887302895411E-009
  1.190000000000000E-002    2.439051233657437E-009
  1.200000000000000E-002    2.292983366676306E-009
  1.210000000000000E-002    1.962960053668926E-009
  1.220000000000000E-002    1.440736119087363E-009
  1.230000000000000E-002    7.281213010598188E-010
  1.240000000000000E-002   -1.617180849561601E-010
  1.250000000000000E-002   -1.203293503233744E-009
  1.260000000000000E-002   -2.358209748487336E-009
  1.270000000000000E-002   -3.574991971196423E-009
  1.280000000000000E-002   -4.789334587849483E-009
  1.290000000000000E-002   -5.924760232218780E-009
  1.300000000000000E-002   -6.893662492251058E-009
  1.310000000000000E-002   -7.598683324734584E-009
  1.320000000000000E-002   -7.934362919742560E-009
  1.330000000000000E-002   -7.788988228399012E-009
  1.340000000000000E-002   -7.046554682742747E-009
  1.350000000000000E-002   -5.588757567634686E-009
  1.360000000000000E-002   -3.296926759021348E-009
  1.370000000000000E-002   -5.382851944339152E-011
  1.380000000000000E-002    4.254740966830861E-009
  1.390000000000000E-002    9.738608072711915E-009
  1.400000000000000E-002    1.650217681429073E-008
  1.410000000000000E-002    2.464368951246811E-008
  1.420000000000000E-002    3.425480231068930E-008
  1.430000000000000E-002    4.542046500018343E-008
  1.440000000000000E-002    5.821906340769391E-008
  1.450000000000000E-002    7.272279300644497E-008
  1.460000000000000E-002    8.899821952054779E-008
  1.470000000000000E-002    1.071069839137094E-007
  1.480000000000000E-002    1.271065791445110E-007
  1.490000000000000E-002    1.490512019340490E-007
  1.500000000000000E-002    1.729926491849376E-007
  1.510000000000000E-002    1.989811112388762E-007
  1.520000000000000E-002    2.270661143323702E-007
  1.530000000000000E-002    2.572973179063896E-007
  1.540000000000000E-002    2.897253838886690E-007
  1.550000000000000E-002    3.244028408896650E-007
  1.560000000000000E-002    3.613850710534139E-007
  1.570000000000000E-002    4.007311965813986E-007
  1.580000000000000E-002    4.425052536390128E-007
  1.590000000000000E-002    4.867774005263877E-007
  1.600000000000000E-002    5.336251417766198E-007
  1.610000000000000E-002    5.831349307486015E-007
  1.620000000000000E-002    6.354036296835421E-007
  1.630000000000000E-002    6.905401752719456E-007
  1.640000000000000E-002    7.486675161273782E-007
  1.650000000000000E-002    8.099241534950414E-007
  1.660000000000000E-002    8.744659702820272E-007
  1.670000000000000E-002    9.424680190670551E-007
  1.680000000000000E-002    1.014125697722697E-006
  1.690000000000000E-002    1.089656625029358E-006
  1.700000000000000E-002    1.169301097750562E-006
  1.710000000000000E-002    1.253323141782572E-006
  1.720000000000000E-002    1.342010690476261E-006
  1.730000000000000E-002    1.435675616687002E-006
  1.740000000000000E-002    1.534653283108066E-006
  1.750000000000000E-002    1.639301852042996E-006
  1.760000000000000E-002    1.750001028065779E-006
  1.770000000000000E-002    1.867150600866292E-006
  1.780000000000000E-002    1.991168997081791E-006
  1.790000000000000E-002    2.122491904774497E-006
  1.800000000000000E-002    2.261570704329950E-006
  1.810000000000000E-002    2.408870805304804E-006
  1.820000000000000E-002    2.564871571790780E-006
  1.830000000000000E-002    2.730065227663604E-006
  1.840000000000000E-002    2.904957625278638E-006
  1.850000000000000E-002    3.090068946436942E-006
  1.860000000000000E-002    3.285935357128456E-006
  1.870000000000000E-002    3.493111269860238E-006