 -4.000000000000000E-002    0.000000000000000E+000
 -3.990000000000000E-002    0.000000000000000E+000
 -3.980000000000000E-002    0.000000000000000E+000
 -3.970000000000000E-002    0.000000000000000E+000
 -3.960000000000000E-002    0.000000000000000E+000
 -3.950000000000000E-002    0.000000000000000E+000
 -3.940000000000000E-002    0.000000000000000E+000
 -3.930000000000000E-002    0.000000000000000E+000
 -3.920000000000000E-002    0.000000000000000E+000
 -3.910000000000000E-002    0.000000000000000E+000
 -3.900000000000000E-002    0.000000000000000E+000
 -3.890000000000000E-002    0.000000000000000E+000
 -3.880000000000000E-002    0.000000000000000E+000
 -3.870000000000000E-002    0.000000000000000E+000
 -3.860000000000000E-002    0.000000000000000E+000
 -3.850000000000000E-002    0.000000000000000E+000
 -3.840000000000000E-002    0.000000000000000E+000
 -3.830000000000000E-002    0.000000000000000E+000
 -3.820000000000000E-002    0.000000000000000E+000
 -3.810000000000000E-002    0.000000000000000E+000
 -3.800000000000000E-002   -5.060738999356541E-046
 -3.790000000000000E-002   -4.194162595323652E-045
 -3.780000000000000E-002   -2.608110405490424E-044
 -3.770000000000000E-002   -1.364296196853368E-043
 -3.760000000000000E-002   -6.201649360500477E-043
 -3.750000000000000E-002   -2.486501602290877E-042
 -3.740000000000000E-002   -8.885183225382833E-042
 -3.730000000000000E-002   -2.850850897051545E-041
 -3.720000000000000E-002   -8.237847992952119E-041
 -3.710000000000000E-002   -2.139041932265627E-040
 -3.700000000000000E-002   -4.938399483230482E-040
 -3.690000000000000E-002   -9.853594926461030E-040
 -3.680000000000000E-002   -1.568159479622540E-039
 -3.670000000000000E-002   -1.380035312151286E-039
 -3.660000000000000E-002    2.617824072728021E-039
 -3.650000000000000E-002    1.881684237647271E-038
 -3.640000000000000E-002    6.712746520853178E-038
 -3.630000000000000E-002    1.894064997372602E-037
 -3.620000000000000E-002    4.641951406832202E-037
 -3.610000000000000E-002    1.021708051563478E-036
 -3.600000000000000E-002    2.045482271201686E-036
 -3.590000000000000E-002    3.729087106605186E-036
 -3.580000000000000E-002    6.127678804709957E-036
 -3.570000000000000E-002    8.806964487945489E-036
 -3.560000000000000E-002    1.015803805905116E-035
 -3.550000000000000E-002    6.244973583666564E-036
 -3.540000000000000E-002   -1.086160605471454E-035
 -3.530000000000000E-002   -5.505160747141181E-035
 -3.520000000000000E-002   -1.476872172112928E-034
 -3.510000000000000E-002   -3.169792872439949E-034
 -3.500000000000000E-002   -5.922234453278776E-034
 -3.490000000000000E-002   -9.883427965301407E-034
 -3.480000000000000E-002   -1.474949890232905E-033
 -3.470000000000000E-002   -1.924286079717905E-033
 -3.460000000000000E-002   -2.035629450166027E-033
 -3.450000000000000E-002   -1.242353224661324E-033
 -3.440000000000000E-002    1.375847424891393E-033
 -3.430000000000000E-002    7.127434290238543E-033
 -3.420000000000000E-002    1.760817349966955E-032
 -3.410000000000000E-002    3.434644982724195E-032
 -3.400000000000000E-002    5.805021197973768E-032
 -3.390000000000000E-002    8.731751705542467E-032
 -3.380000000000000E-002    1.167428115740693E-031
 -3.370000000000000E-002    1.345212002005173E-031
 -3.360000000000000E-002    1.199551829998123E-031
 -3.350000000000000E-002    4.171344488682351E-032
 -3.340000000000000E-002   -1.417524098686456E-031
 -3.330000000000000E-002   -4.776626048395365E-031
 -3.320000000000000E-002   -1.007886630698983E-030
 -3.310000000000000E-002   -1.749197242235810E-030
 -3.300000000000000E-002   -2.663515113775075E-030
 -3.290000000000000E-002   -3.619059117541692E-030
 -3.280000000000000E-002   -4.347047630018132E-030
 -3.270000000000000E-002   -4.403846874010241E-030
 -3.260000000000000E-002   -3.154752990806314E-030
 -3.250000000000000E-002    1.982552291838597E-031
 -3.240000000000000E-002    6.518398124632027E-030
 -3.230000000000000E-002    1.653999677960826E-029
 -3.220000000000000E-002    3.056143773272189E-029
 -3.210000000000000E-002    4.802768821814041E-029
 -3.200000000000000E-002    6.703659219002324E-029
 -3.190000000000000E-002    8.384627717870672E-029
 -3.180000000000000E-002    9.251082199839539E-029
 -3.170000000000000E-002    8.481852567226002E-029
 -3.160000000000000E-002    5.073805625033943E-029
 -3.150000000000000E-002   -2.042472731402690E-029
 -3.140000000000000E-002   -1.380092874311420E-028
 -3.130000000000000E-002   -3.070880180227399E-028
 -3.120000000000000E-002   -5.248065469738443E-028
 -3.110000000000000E-002   -7.763584502259358E-028
 -3.100000000000000E-002   -1.031230903457040E-027
 -3.090000000000000E-002   -1.240583634419918E-027
 -3.080000000000000E-002   -1.336754650339115E-027
 -3.070000000000000E-002   -1.235865551081708E-027
 -3.060000000000000E-002   -8.442775425784110E-028
 -3.050000000000000E-002   -6.923099999154003E-029
 -3.040000000000000E-002    1.166559456617364E-027
 -3.030000000000000E-002    2.907167599389340E-027
 -3.020000000000000E-002    5.143824350984327E-027
 -3.010000000000000E-002    7.794753769781913E-027
 -3.000000000000000E-002    1.068551581303980E-026
 -2.990000000000000E-002    1.353016834598716E-026
 -2.980000000000000E-002    1.591271381493803E-026
 -2.970000000000000E-002    1.726789363019514E-026
 -2.960000000000000E-002    1.686124044376872E-026
 -2.950000000000000E-002    1.377139425230497E-026
 -2.940000000000000E-002    6.883742725066696E-027
 -2.930000000000000E-002   -5.086226262002952E-027
 -2.920000000000000E-002   -2.350992667431876E-026
 -2.910000000000000E-002   -4.966160290869481E-026
 -2.900000000000000E-002   -8.438488129719601E-026
 -2.890000000000000E-002   -1.275652903907816E-025
 -2.880000000000000E-002   -1.773854906234224E-025
 -2.870000000000000E-002   -2.293857133163062E-025
 -2.860000000000000E-002   -2.754257962590035E-025
 -2.850000000000000E-002   -3.027457634561942E-025
 -2.840000000000000E-002   -2.934383650093229E-025
 -2.830000000000000E-002   -2.247587972601381E-025
 -2.820000000000000E-002   -7.077094496200803E-026
 -2.810000000000000E-002    1.941755918035437E-025
 -2.800000000000000E-002    5.897742460347479E-025
 -2.790000000000000E-002    1.121828159037103E-024
 -2.780000000000000E-002    1.772469486080681E-024
 -2.770000000000000E-002    2.489603418599590E-024
 -2.760000000000000E-002    3.177420312829903E-024
 -2.750000000000000E-002    3.690589739866616E-024
 -2.740000000000000E-002    3.835342548569683E-024
 -2.730000000000000E-002    3.380847712161346E-024
 -2.720000000000000E-002    2.083862022727365E-024
 -2.710000000000000E-002   -2.716282453666549E-025
 -2.700000000000000E-002   -3.820255630148147E-024
 -2.690000000000000E-002   -8.550200080574181E-024
 -2.680000000000000E-002   -1.423455848470550E-023
 -2.670000000000000E-002   -2.037045896999142E-023
 -2.660000000000000E-002   -2.614062716803487E-023
 -2.650000000000000E-002   -3.041407116673216E-023
 -2.640000000000000E-002   -3.180215280481662E-023
 -2.630000000000000E-002   -2.878266954604524E-023
 -2.620000000000000E-002   -1.989726041286565E-023
 -2.610000000000000E-002   -4.016458440041041E-024
 -2.600000000000000E-002    1.934713386210386E-023
 -2.590000000000000E-002    4.971222410815167E-023
 -2.580000000000000E-002    8.533753424856120E-023
 -2.570000000000000E-002    1.230247888600904E-022
 -2.560000000000000E-002    1.580782255551113E-022
 -2.550000000000000E-002    1.844766475131323E-022
 -2.540000000000000E-002    1.952969026553960E-022
 -2.530000000000000E-002    1.833995099412369E-022
 -2.520000000000000E-002    1.423502701842693E-022
 -2.510000000000000E-002    6.751025861798214E-023
 -2.500000000000000E-002   -4.281355594470400E-023
 -2.490000000000000E-002   -1.862965980055793E-022
 -2.480000000000000E-002   -3.557599712834024E-022
 -2.470000000000000E-002   -5.387217414606247E-022
 -2.460000000000000E-002   -7.174631773926427E-022
 -2.450000000000000E-002   -8.696916880803667E-022
 -2.440000000000000E-002   -9.698222189991723E-022
 -2.430000000000000E-002   -9.908359161961492E-022
 -2.420000000000000E-002   -9.066196648337611E-022
 -2.410000000000000E-002   -6.946535891034816E-022
 -2.400000000000000E-002   -3.389033619862300E-022
 -2.390000000000000E-002    1.672115709446846E-022
 -2.380000000000000E-002    8.178739518570582E-022
 -2.370000000000000E-002    1.592023461069008E-021
 -2.360000000000000E-002    2.450692263491531E-021
 -2.350000000000000E-002    3.334667086530855E-021
 -2.340000000000000E-002    4.162765131157551E-021
 -2.330000000000000E-002    4.831232537729100E-021
 -2.320000000000000E-002    5.215053193581322E-021
 -2.310000000000000E-002    5.172227625447509E-021
 -2.300000000000000E-002    4.552271727585233E-021
 -2.290000000000000E-002    3.210160211265896E-021
 -2.280000000000000E-002    1.026604015349047E-021
 -2.270000000000000E-002   -2.065220881691024E-021
 -2.260000000000000E-002   -6.047595300774890E-021
 -2.250000000000000E-002   -1.078358689678927E-020
 -2.240000000000000E-002   -1.598444522060568E-020
 -2.230000000000000E-002   -2.118559572192149E-020
 -2.220000000000000E-002   -2.573920767936149E-020
 -2.210000000000000E-002   -2.883184766782192E-020
 -2.200000000000000E-002   -2.953486261360851E-020
 -2.190000000000000E-002   -2.689252901819831E-020
 -2.180000000000000E-002   -2.004841538633311E-020
 -2.170000000000000E-002   -8.404081701044860E-021
 -2.160000000000000E-002    8.203414505328084E-021
 -2.150000000000000E-002    2.932665124732911E-020
 -2.140000000000000E-002    5.376390345602336E-020
 -2.130000000000000E-002    7.947881087612903E-020
 -2.120000000000000E-002    1.036164060986875E-019
 -2.110000000000000E-002    1.226430098691100E-019
 -2.100000000000000E-002    1.326260860239182E-019
 -2.090000000000000E-002    1.296527669264284E-019
 -2.080000000000000E-002    1.103639201467841E-019
 -2.070000000000000E-002    7.255648502032166E-020
 -2.060000000000000E-002    1.578412558727595E-020
 -2.050000000000000E-002   -5.813096322492733E-020
 -2.040000000000000E-002   -1.447699249479815E-019
 -2.030000000000000E-002   -2.370620356050395E-019
 -2.020000000000000E-002   -3.255709441564278E-019
 -2.010000000000000E-002   -3.991552436757239E-019
 -2.000000000000000E-002   -4.459880727106560E-019
 -1.990000000000000E-002   -4.548653955188495E-019
 -1.980000000000000E-002   -4.166784789625009E-019
 -1.970000000000000E-002   -3.258812552888743E-019
 -1.960000000000000E-002   -1.817574593141016E-019
 -1.950000000000000E-002    1.070776483410297E-020
 -1.940000000000000E-002    2.405168594491418E-019
 -1.930000000000000E-002    4.910152322564479E-019
 -1.920000000000000E-002    7.409359628354507E-019
 -1.910000000000000E-002    9.660616109713705E-019
 -1.900000000000000E-002    1.141338331976264E-018
 -1.890000000000000E-002    1.243204921627351E-018
 -1.880000000000000E-002    1.251860739262444E-018
 -1.870000000000000E-002    1.153205153895595E-018
 -1.860000000000000E-002    9.402375629804859E-019
 -1.850000000000000E-002    6.138059184275341E-019
 -1.840000000000000E-002    1.827183208672781E-019
 -1.830000000000000E-002   -3.366436081685701E-019
 -1.820000000000000E-002   -9.209726625924885E-019
 -1.810000000000000E-002   -1.540671047762518E-018
 -1.800000000000000E-002   -2.160239371404595E-018
 -1.790000000000000E-002   -2.738316145728646E-018
 -1.780000000000000E-002   -3.227467063523747E-018
 -1.770000000000000E-002   -3.574073315016219E-018
 -1.760000000000000E-002   -3.718900876843145E-018
 -1.750000000000000E-002   -3.599096503631998E-018
 -1.740000000000000E-002   -3.152371577653708E-018
 -1.730000000000000E-002   -2.323954176708093E-018
 -1.720000000000000E-002   -1.076482719281229E-018
 -1.710000000000000E-002    5.976035037023200E-019
 -1.700000000000000E-002    2.662388399793149E-018
 -1.690000000000000E-002    5.025529424508978E-018
 -1.680000000000000E-002    7.528723128535087E-018
 -1.670000000000000E-002    9.944659789522195E-018
 -1.660000000000000E-002    1.198345495278143E-017
 -1.650000000000000E-002    1.331087679056302E-017
 -1.640000000000000E-002    1.357937718918809E-017
 -1.630000000000000E-002    1.247105530383550E-017
 -1.620000000000000E-002    9.749408326724848E-018
 -1.610000000000000E-002    5.314355343182895E-018
 -1.600000000000000E-002   -7.470391521921963E-019
 -1.590000000000000E-002   -8.123037603760001E-018
 -1.580000000000000E-002   -1.626198772112913E-017
 -1.570000000000000E-002   -2.438718080133627E-017
 -1.560000000000000E-002   -3.154679443959091E-017
 -1.550000000000000E-002   -3.669964014575301E-017
 -1.540000000000000E-002   -3.883209596517611E-017
 -1.530000000000000E-002   -3.709589992391001E-017
 -1.520000000000000E-002   -3.095120210580405E-017
 -1.510000000000000E-002   -2.029542369056637E-017
 -1.500000000000000E-002   -5.556886002883326E-018
 -1.490000000000000E-002    1.226640396989440E-017
 -1.480000000000000E-002    3.163779372667205E-017
 -1.470000000000000E-002    5.059000698166331E-017
 -1.460000000000000E-002    6.690717086853061E-017
 -1.450000000000000E-002    7.836659513893868E-017
 -1.440000000000000E-002    8.301515827739216E-017
 -1.430000000000000E-002    7.944666696830104E-017
 -1.420000000000000E-002    6.704186608294057E-017
 -1.410000000000000E-002    4.613350436990092E-017
 -1.400000000000000E-002    1.806535424029119E-017
 -1.390000000000000E-002   -1.487376018322926E-017
 -1.380000000000000E-002   -4.964350090861389E-017
 -1.370000000000000E-002   -8.275697750214747E-017
 -1.360000000000000E-002   -1.106629940056026E-016
 -1.350000000000000E-002   -1.301571590632180E-016
 -1.340000000000000E-002   -1.387655253875418E-016
 -1.330000000000000E-002   -1.350451329833091E-016
 -1.320000000000000E-002   -1.187559116027691E-016
 -1.310000000000000E-002   -9.087684311675777E-017
 -1.300000000000000E-002   -5.346402336129039E-017
 -1.290000000000000E-002   -9.375238530948578E-018
 -1.280000000000000E-002    3.808982770812748E-017
 -1.270000000000000E-002    8.556749118553701E-017
 -1.260000000000000E-002    1.299543661299502E-016
 -1.250000000000000E-002    1.686147877859240E-016
 -1.240000000000000E-002    1.994310778044556E-016
 -1.230000000000000E-002    2.206908726742866E-016
 -1.220000000000000E-002    2.308464858272432E-016
 -1.210000000000000E-002    2.282208738280347E-016
 -1.200000000000000E-002    2.107644776182845E-016
 -1.190000000000000E-002    1.759786815121875E-016
 -1.180000000000000E-002    1.211090474674429E-016
 -1.170000000000000E-002    4.367194611877430E-017
 -1.160000000000000E-002   -5.768540373571873E-017
 -1.150000000000000E-002   -1.820725848739411E-016
 -1.140000000000000E-002   -3.251568252495964E-016
 -1.130000000000000E-002   -4.781163667296709E-016
 -1.120000000000000E-002   -6.270298722062180E-016
 -1.110000000000000E-002   -7.529857777044106E-016
 -1.100000000000000E-002   -8.331414506291997E-016
 -1.090000000000000E-002   -8.428503599286254E-016
 -1.080000000000000E-002   -7.588145701957741E-016
 -1.070000000000000E-002   -5.630267970840629E-016
 -1.060000000000000E-002   -2.470678194105796E-016
 -1.050000000000000E-002    1.838447971365025E-016
 -1.040000000000000E-002    7.077666941242817E-016
 -1.030000000000000E-002    1.284618013551789E-015
 -1.020000000000000E-002    1.857073987826973E-015
 -1.010000000000000E-002    2.354149765251821E-015
 -1.000000000000000E-002    2.697539893695959E-015
 -9.899999999999999E-003    2.810369165607991E-015
 -9.800000000000000E-003    2.627582152532175E-015
 -9.699999999999999E-003    2.106810309602730E-015
 -9.599999999999999E-003    1.238280135430418E-015
 -9.500000000000000E-003    5.221622017565746E-017
 -9.399999999999999E-003   -1.377701436312084E-015
 -9.299999999999999E-003   -2.935929688655491E-015
 -9.200000000000000E-003   -4.472261455919619E-015
 -9.099999999999999E-003   -5.814483238305840E-015
 -8.999999999999999E-003   -6.785563398262994E-015
 -8.900000000000000E-003   -7.223700013667968E-015
 -8.799999999999999E-003   -7.002968190768983E-015
 -8.699999999999999E-003   -6.051970510962783E-015
 -8.600000000000000E-003   -4.367910876231381E-015
 -8.499999999999999E-003   -2.023879127583582E-015
 -8.399999999999999E-003    8.321142069330560E-016
 -8.300000000000000E-003    3.986819957009881E-015
 -8.199999999999999E-003    7.179451772608397E-015
 -8.100000000000000E-003    1.012557238924226E-014
 -8.000000000000000E-003    1.254440868911521E-014
 -7.899999999999999E-003    1.418625711930101E-014
 -7.800000000000000E-003    1.485656133765540E-014
 -7.699999999999999E-003    1.443368010264220E-014
 -7.599999999999999E-003    1.287829648876620E-014
 -7.499999999999999E-003    1.023371902164831E-014
 -7.399999999999999E-003    6.617790447232456E-015
 -7.299999999999999E-003    2.208491462495412E-015
 -7.199999999999999E-003   -2.773643356299472E-015
 -7.100000000000000E-003   -8.082707204184997E-015
 -6.999999999999999E-003   -1.346085416356081E-014
 -6.899999999999999E-003   -1.864561670445192E-014
 -6.800000000000000E-003   -2.337031871477605E-014
 -6.699999999999999E-003   -2.735874021274248E-014
 -6.599999999999999E-003   -3.031718060566775E-014
 -6.499999999999999E-003   -3.192859693227145E-014
 -6.399999999999999E-003   -3.185430845412839E-014
 -6.299999999999999E-003   -2.974841576463523E-014
 -6.199999999999999E-003   -2.528852054991771E-014
 -6.100000000000000E-003   -1.822360694862695E-014
 -5.999999999999999E-003   -8.436346700606236E-015
 -5.899999999999999E-003    3.986906026280146E-015
 -5.800000000000000E-003    1.868875135601374E-014
 -5.699999999999999E-003    3.498890844492177E-014
 -5.599999999999999E-003    5.186166869890994E-014
 -5.499999999999999E-003    6.795492015598017E-014
 -5.399999999999999E-003    8.165923463418952E-014
 -5.299999999999999E-003    9.122945303136469E-014
 -5.199999999999999E-003    9.495353073627745E-014
 -5.099999999999999E-003    9.135511922107719E-014
 -4.999999999999999E-003    7.940872536678065E-014
 -4.899999999999999E-003    5.874055366403669E-014
 -4.799999999999999E-003    2.978562252787393E-014
 -4.699999999999999E-003   -6.126837297071510E-015
 -4.599999999999999E-003   -4.678172080246919E-014
 -4.499999999999999E-003   -8.919228377723334E-014
 -4.399999999999999E-003   -1.298193281068975E-013
 -4.299999999999999E-003   -1.648800191411319E-013
 -4.199999999999999E-003   -1.907169000830800E-013
 -4.099999999999999E-003   -2.041867916774315E-013
 -3.999999999999999E-003   -2.030225540969489E-013
 -3.899999999999999E-003   -1.861207464277423E-013
 -3.799999999999999E-003   -1.537145848499789E-013
 -3.699999999999999E-003   -1.074048626133263E-013
 -3.599999999999999E-003   -5.003937280887855E-014
 -3.499999999999999E-003    1.454791164953109E-014
 -3.399999999999999E-003    8.190678508570086E-014
 -3.299999999999999E-003    1.474017804389029E-013
 -3.199999999999999E-003    2.066466916652295E-013
 -3.099999999999999E-003    2.558833252015415E-013
 -2.999999999999999E-003    2.922537337530491E-013
 -2.899999999999999E-003    3.139314981222523E-013
 -2.799999999999999E-003    3.201011955246291E-013
 -2.699999999999999E-003    3.108011201311945E-013
 -2.599999999999999E-003    2.866693717892530E-013
 -2.499999999999999E-003    2.486519780285845E-013
 -2.399999999999999E-003    1.977411638792869E-013
 -2.299999999999999E-003    1.348089047327952E-013
 -2.199999999999999E-003    6.058472088665083E-014
 -2.099999999999999E-003   -2.419950637568783E-014
 -1.999999999999999E-003   -1.185097456681121E-013
 -1.899999999999999E-003   -2.206024120308628E-013
 -1.799999999999999E-003   -3.275885653961488E-013
 -1.699999999999999E-003   -4.350687949172806E-013
 -1.599999999999999E-003   -5.369425097062031E-013
 -1.499999999999999E-003   -6.254808324843228E-013
 -1.399999999999999E-003   -6.917196942650552E-013
 -1.299999999999999E-003   -7.261814687273558E-013
 -1.199999999999999E-003   -7.198773202678374E-013
 -1.099999999999999E-003   -6.654868034059510E-013
 -9.999999999999989E-004   -5.585643870827984E-013
 -8.999999999999990E-004   -3.985969635477580E-013
 -7.999999999999990E-004   -1.897344580596862E-013
 -6.999999999999989E-004    5.895566395665510E-014
 -5.999999999999990E-004    3.338040590694501E-013
 -4.999999999999989E-004    6.174422902710931E-013
 -3.999999999999989E-004    8.902231873017500E-013
 -2.999999999999989E-004    1.132004453811475E-012
 -1.999999999999989E-004    1.324075093168555E-012
 -9.999999999999892E-005    1.450966624756250E-012
  1.084202172485504E-018    1.501894059994912E-012
  1.000000000000011E-004    1.471615327093589E-012
  2.000000000000011E-004    1.360580634594072E-012
  3.000000000000011E-004    1.174353614548052E-012
  4.000000000000011E-004    9.224074696802866E-013
  5.000000000000011E-004    6.165111514078831E-013
  6.000000000000011E-004    2.690060316980045E-013
  7.000000000000011E-004   -1.086920951106894E-013
  8.000000000000011E-004   -5.070489589879172E-013
  9.000000000000012E-004   -9.185908560568387E-013
  1.000000000000001E-003   -1.337203804609203E-012
  1.100000000000001E-003   -1.756614138270262E-012
  1.200000000000001E-003   -2.168289328658787E-012
  1.300000000000001E-003   -2.559148890381965E-012
  1.400000000000001E-003   -2.909580798679780E-012
  1.500000000000001E-003   -3.192287777589727E-012
  1.600000000000001E-003   -3.372429019771050E-012
  1.700000000000001E-003   -3.409378647326509E-012
  1.800000000000001E-003   -3.260196406703439E-012
  1.900000000000001E-003   -2.884641363416291E-012
  2.000000000000001E-003   -2.251279537226410E-012
  2.100000000000001E-003   -1.343992491929083E-012
  2.200000000000001E-003   -1.680236990971027E-013
  2.300000000000001E-003    1.245355104382571E-012
  2.400000000000001E-003    2.836410182282380E-012
  2.500000000000001E-003    4.517395177086989E-012
  2.600000000000001E-003    6.176221117256594E-012
  2.700000000000001E-003    7.683305383116778E-012
  2.800000000000001E-003    8.901145105347912E-012
  2.900000000000001E-003    9.695791915807404E-012
  3.000000000000001E-003    9.949121380778439E-012
  3.100000000000001E-003    9.570643607640946E-012
  3.200000000000001E-003    8.507608198791137E-012
  3.300000000000001E-003    6.752337055224383E-012
  3.400000000000001E-003    4.346028644627709E-012
  3.500000000000001E-003    1.378677612749335E-012
  3.600000000000001E-003   -2.014801525158353E-012
  3.700000000000001E-003   -5.661752620680123E-012
  3.800000000000001E-003   -9.361452204839622E-012
  3.900000000000001E-003   -1.289630605179360E-011
  4.000000000000001E-003   -1.604358244614972E-011
  4.100000000000001E-003   -1.858683867833916E-011
  4.200000000000001E-003   -2.032646736413747E-011
  4.300000000000001E-003   -2.108911996388101E-011
  4.400000000000001E-003   -2.073606187305974E-011
  4.500000000000001E-003   -1.917076449951029E-011
  4.600000000000002E-003   -1.634610617840259E-011
  4.700000000000001E-003   -1.227148418824250E-011
  4.800000000000001E-003   -7.019836003516013E-012
  4.900000000000002E-003   -7.341945915728071E-013
  5.000000000000001E-003    6.367095093862316E-012
  5.100000000000001E-003    1.398782028327064E-011
  5.200000000000001E-003    2.175560407532427E-011
  5.300000000000002E-003    2.922956844701953E-011
  5.400000000000001E-003    3.591539369102302E-011
  5.500000000000001E-003    4.128863746716471E-011
  5.600000000000002E-003    4.482632122318778E-011
  5.700000000000001E-003    4.604563602497538E-011
  5.800000000000001E-003    4.454748128497293E-011
  5.900000000000002E-003    4.006138375796649E-011
  6.000000000000001E-003    3.248750031288651E-011
  6.100000000000001E-003    2.193094651495266E-011
  6.200000000000002E-003    8.723754743416723E-012
  6.300000000000002E-003   -6.569533783918731E-012
  6.400000000000001E-003   -2.316546732043518E-011
  6.500000000000001E-003   -4.009553972822775E-011
  6.600000000000002E-003   -5.625942898694104E-011
  6.700000000000001E-003   -7.049466836179233E-011
  6.800000000000001E-003   -8.165793826508968E-011
  6.900000000000002E-003   -8.871170493499135E-011
  7.000000000000001E-003   -9.080907139561201E-011
  7.100000000000001E-003   -8.736956532300991E-011
  7.200000000000002E-003   -7.813922031485565E-011
  7.300000000000002E-003   -6.322957714745688E-011
  7.400000000000001E-003   -4.313204835225959E-011
  7.500000000000001E-003   -1.870624632136260E-011
  7.600000000000002E-003    8.857058777102722E-012
  7.700000000000001E-003    3.809557309181556E-011
  7.800000000000001E-003    6.735349149948476E-011
  7.900000000000001E-003    9.487255776290173E-011
  8.000000000000002E-003    1.188904806543094E-010
  8.100000000000001E-003    1.377410283112832E-010
  8.200000000000001E-003    1.499507625080363E-010
  8.300000000000002E-003    1.543281122799807E-010
  8.400000000000001E-003    1.500412818055110E-010
  8.500000000000002E-003    1.366823515437959E-010
  8.600000000000002E-003    1.143151602975692E-010
  8.700000000000001E-003    8.350503319597031E-011
  8.800000000000002E-003    4.532812274761136E-011
  8.900000000000002E-003    1.358137757498029E-012
  9.000000000000001E-003   -4.637192059956309E-011
  9.100000000000002E-003   -9.543505796836157E-011
  9.200000000000002E-003   -1.431040380049161E-010
  9.300000000000001E-003   -1.864735032501372E-010
  9.400000000000002E-003   -2.226083719117385E-010
  9.500000000000001E-003   -2.487138993692776E-010
  9.600000000000001E-003   -2.623196460523664E-010
  9.700000000000002E-003   -2.614669802858927E-010
  9.800000000000001E-003   -2.448870773723363E-010
  9.900000000000001E-003   -2.121546877847445E-010
  1.000000000000000E-002   -1.638029355080627E-010
  1.010000000000000E-002   -1.013850437799625E-010
  1.020000000000000E-002   -2.747209532627186E-011
  1.030000000000000E-002    5.442027256429255E-011
  1.040000000000000E-002    1.399776102626217E-010
  1.050000000000000E-002    2.243003304691369E-010
  1.060000000000000E-002    3.021745504999769E-010
  1.070000000000000E-002    3.683836751197749E-010
  1.080000000000000E-002    4.180401618418952E-010
  1.090000000000000E-002    4.469139706597477E-010
  1.100000000000000E-002    4.517338364297045E-010
  1.110000000000000E-002    4.304390788625742E-010
  1.120000000000000E-002    3.823633328468524E-010
  1.130000000000000E-002    3.083367701293878E-010
  1.140000000000000E-002    2.106999481252934E-010
  1.150000000000000E-002    9.322858038010870E-011
  1.160000000000000E-002   -3.902412351405949E-011
  1.170000000000000E-002   -1.799565986702269E-010
  1.180000000000000E-002   -3.227036576727037E-010
  1.190000000000000E-002   -4.599592621967517E-010
  1.200000000000000E-002   -5.843186755239988E-010
  1.210000000000000E-002   -6.886229700749388E-010
  1.220000000000000E-002   -7.662903137360739E-010
  1.230000000000000E-002   -8.116216643321613E-010
  1.240000000000000E-002   -8.200714656911282E-010
  1.250000000000000E-002   -7.884762396632422E-010
  1.260000000000000E-002   -7.152361257490895E-010
  1.270000000000000E-002   -6.004460450050954E-010
  1.280000000000000E-002   -4.459728684021291E-010
  1.290000000000000E-002   -2.554754964410467E-010
  1.300000000000000E-002   -3.436480214169149E-011
  1.310000000000000E-002    2.102998029403045E-010
  1.320000000000000E-002    4.699791338627063E-010
  1.330000000000000E-002    7.348885718398774E-010
  1.340000000000000E-002    9.942951596438803E-010
  1.350000000000000E-002    1.236870490333176E-009
  1.360000000000000E-002    1.451089467104500E-009
  1.370000000000000E-002    1.625658036608880E-009
  1.380000000000000E-002    1.749953421783502E-009
  1.390000000000000E-002    1.814453572662162E-009
  1.400000000000000E-002    1.811137311338360E-009
  1.410000000000000E-002    1.733834566267976E-009
  1.420000000000000E-002    1.578512780547021E-009
  1.430000000000000E-002    1.343491612982258E-009
  1.440000000000000E-002    1.029585210965919E-009
  1.450000000000000E-002    6.401798551076659E-010
  1.460000000000000E-002    1.812622473905624E-010
  1.470000000000000E-002   -3.385807533253174E-010
  1.480000000000000E-002   -9.081657502501465E-010
  1.490000000000000E-002   -1.513696429913703E-009
  1.500000000000000E-002   -2.138704812610193E-009
  1.510000000000000E-002   -2.763935761108170E-009
  1.520000000000000E-002   -3.367169610116435E-009
  1.530000000000000E-002   -3.922986575581547E-009
  1.540000000000000E-002   -4.402488356010382E-009
  1.550000000000000E-002   -4.773003130183305E-009
  1.560000000000000E-002   -4.997804615586691E-009
  1.570000000000000E-002   -5.035881130379233E-009
  1.580000000000000E-002   -4.841790368440870E-009
  1.590000000000000E-002   -4.365630600580650E-009
  1.600000000000000E-002   -3.553150185242982E-009
  1.610000000000000E-002   -2.346008062572803E-009
  1.620000000000000E-002   -6.821847063582289E-010
  1.630000000000000E-002    1.503468373489688E-009
  1.640000000000000E-002    4.278569185871962E-009
  1.650000000000000E-002    7.712460011812117E-009
  1.660000000000000E-002    1.187541706064844E-008
  1.670000000000000E-002    1.683786272786322E-008
  1.680000000000000E-002    2.266959880856276E-008
  1.690000000000000E-002    2.943910728414117E-008
  1.700000000000000E-002    3.721294866028949E-008
  1.710000000000000E-002    4.605524761065705E-008
  1.720000000000000E-002    5.602731725646884E-008
  1.730000000000000E-002    6.718740081140664E-008
  1.740000000000000E-002    7.959053976934842E-008
  1.750000000000000E-002    9.328858157696061E-008
  1.760000000000000E-002    1.083303118826820E-007
  1.770000000000000E-002    1.247617499827448E-007
  1.780000000000000E-002    1.426265985083755E-007
  1.790000000000000E-002    1.619668343961502E-007
  1.800000000000000E-002    1.828234695367296E-007
  1.810000000000000E-002    2.052375500386890E-007
  1.820000000000000E-002    2.292512467133015E-007
  1.830000000000000E-002    2.549091253501226E-007
  1.840000000000000E-002    2.822596540255876E-007
  1.850000000000000E-002    3.113566582213383E-007
  1.860000000000000E-002    3.422609996467028E-007
  1.870000000000000E-002    3.750420812449993E-007