 -4.000000000000000E-002    0.000000000000000E+000
 -3.990000000000000E-002    0.000000000000000E+000
 -3.980000000000000E-002    0.000000000000000E+000
 -3.970000000000000E-002    0.000000000000000E+000
 -3.960000000000000E-002    0.000000000000000E+000
 -3.950000000000000E-002    0.000000000000000E+000
 -3.940000000000000E-002    0.000000000000000E+000
 -3.930000000000000E-002    0.000000000000000E+000
 -3.920000000000000E-002    0.000000000000000E+000
 -3.910000000000000E-002    0.000000000000000E+000
 -3.900000000000000E-002    0.000000000000000E+000
 -3.890000000000000E-002    0.000000000000000E+000
 -3.880000000000000E-002    0.000000000000000E+000
 -3.870000000000000E-002    0.000000000000000E+000
 -3.860000000000000E-002    0.000000000000000E+000
 -3.850000000000000E-002    0.000000000000000E+000
 -3.840000000000000E-002    0.000000000000000E+000
 -3.830000000000000E-002    0.000000000000000E+000
 -3.820000000000000E-002    0.000000000000000E+000
 -3.810000000000000E-002    0.000000000000000E+000
 -3.800000000000000E-002    0.000000000000000E+000
 -3.790000000000000E-002    0.000000000000000E+000
 -3.780000000000000E-002    0.000000000000000E+000
 -3.770000000000000E-002    0.000000000000000E+000
 -3.760000000000000E-002    0.000000000000000E+000
 -3.750000000000000E-002    0.000000000000000E+000
 -3.740000000000000E-002    0.000000000000000E+000
 -3.730000000000000E-002    0.000000000000000E+000
 -3.720000000000000E-002    0.000000000000000E+000
 -3.710000000000000E-002    0.000000000000000E+000
 -3.700000000000000E-002    0.000000000000000E+000
 -3.690000000000000E-002    0.000000000000000E+000
 -3.680000000000000E-002    0.000000000000000E+000
 -3.670000000000000E-002    0.000000000000000E+000
 -3.660000000000000E-002    0.000000000000000E+000
 -3.650000000000000E-002    0.000000000000000E+000
 -3.640000000000000E-002    0.000000000000000E+000
 -3.630000000000000E-002    0.000000000000000E+000
 -3.620000000000000E-002   -1.289600815988899E-047
 -3.610000000000000E-002   -5.145055753666307E-047
 -3.600000000000000E-002   -9.641974221765841E-047
 -3.590000000000000E-002   -1.264214445221375E-046
 -3.580000000000000E-002   -1.347992129823820E-046
 -3.570000000000000E-002    2.914797348075665E-047
 -3.560000000000000E-002    4.411795490085359E-046
 -3.550000000000000E-002    1.905180965237523E-045
 -3.540000000000000E-002    5.930575077449245E-045
 -3.530000000000000E-002    1.626488036507349E-044
 -3.520000000000000E-002    4.012443578803525E-044
 -3.510000000000000E-002    8.591670272693351E-044
 -3.500000000000000E-002    1.682322202813663E-043
 -3.490000000000000E-002    2.990637042570161E-043
 -3.480000000000000E-002    4.773688226798788E-043
 -3.470000000000000E-002    6.538426106438810E-043
 -3.460000000000000E-002    6.668357710279533E-043
 -3.450000000000000E-002    1.415894342231274E-043
 -3.440000000000000E-002   -1.673845805620958E-042
 -3.430000000000000E-002   -6.088742136288181E-042
 -3.420000000000000E-002   -1.510605081802290E-041
 -3.410000000000000E-002   -3.133234504289237E-041
 -3.400000000000000E-002   -5.733412237185199E-041
 -3.390000000000000E-002   -9.391857400173870E-041
 -3.380000000000000E-002   -1.366694383415616E-040
 -3.370000000000000E-002   -1.700559028503086E-040
 -3.360000000000000E-002   -1.588341272169967E-040
 -3.350000000000000E-002   -3.757986321389870E-041
 -3.340000000000000E-002    2.986030206122331E-040
 -3.330000000000000E-002    9.955649827749645E-040
 -3.320000000000000E-002    2.222375189185372E-039
 -3.310000000000000E-002    4.117856340084363E-039
 -3.300000000000000E-002    6.681873520142709E-039
 -3.290000000000000E-002    9.594796860767778E-039
 -3.280000000000000E-002    1.196341623084747E-038
 -3.270000000000000E-002    1.202484262192642E-038
 -3.260000000000000E-002    6.896755908212293E-039
 -3.250000000000000E-002   -7.457844519725688E-039
 -3.240000000000000E-002   -3.579311643937844E-038
 -3.230000000000000E-002   -8.234293763746425E-038
 -3.220000000000000E-002   -1.484646274710754E-037
 -3.210000000000000E-002   -2.290102059726604E-037
 -3.200000000000000E-002   -3.076848341601397E-037
 -3.190000000000000E-002   -3.523852806385884E-037
 -3.180000000000000E-002   -3.125608392975067E-037
 -3.170000000000000E-002   -1.218517896058992E-037
 -3.160000000000000E-002    2.897500986419106E-037
 -3.150000000000000E-002    9.698981529874147E-037
 -3.140000000000000E-002    1.901532828139846E-036
 -3.130000000000000E-002    2.946474242489702E-036
 -3.120000000000000E-002    3.786017653844804E-036
 -3.110000000000000E-002    3.882345587149813E-036
 -3.100000000000000E-002    2.499814518905436E-036
 -3.090000000000000E-002   -1.161271730558878E-036
 -3.080000000000000E-002   -7.661366898116466E-036
 -3.070000000000000E-002   -1.680752721794596E-035
 -3.060000000000000E-002   -2.693574271483664E-035
 -3.050000000000000E-002   -3.409093258905514E-035
 -3.040000000000000E-002   -3.134948595160949E-035
 -3.030000000000000E-002   -8.713154620775697E-036
 -3.020000000000000E-002    4.580766457699223E-035
 -3.010000000000000E-002    1.431765541822224E-034
 -3.000000000000000E-002    2.876750153326207E-034
 -2.990000000000000E-002    4.682449228482252E-034
 -2.980000000000000E-002    6.472522443810601E-034
 -2.970000000000000E-002    7.484253816314587E-034
 -2.960000000000000E-002    6.475995664714440E-034
 -2.950000000000000E-002    1.721301554068855E-034
 -2.940000000000000E-002   -8.830342403917278E-034
 -2.930000000000000E-002   -2.713414353443730E-033
 -2.920000000000000E-002   -5.428807843168072E-033
 -2.910000000000000E-002   -8.938665478472519E-033
 -2.900000000000000E-002   -1.280375035243388E-032
 -2.890000000000000E-002   -1.607321824899063E-032
 -2.880000000000000E-002   -1.714593177154256E-032
 -2.870000000000000E-002   -1.371770543479831E-032
 -2.860000000000000E-002   -2.897872785078930E-033
 -2.850000000000000E-002    1.840819118823197E-032
 -2.840000000000000E-002    5.275892957742899E-032
 -2.830000000000000E-002    1.010215393625394E-031
 -2.820000000000000E-002    1.608193020751005E-031
 -2.810000000000000E-002    2.247195774441926E-031
 -2.800000000000000E-002    2.784671134505661E-031
 -2.790000000000000E-002    2.997634174660233E-031
 -2.780000000000000E-002    2.582878149189800E-031
 -2.770000000000000E-002    1.177977154337269E-031
 -2.760000000000000E-002   -1.588331205187825E-031
 -2.750000000000000E-002   -6.009598758681057E-031
 -2.740000000000000E-002   -1.217671825829438E-030
 -2.730000000000000E-002   -1.982021372676424E-030
 -2.720000000000000E-002   -2.813662817997131E-030
 -2.710000000000000E-002   -3.562972466100896E-030
 -2.700000000000000E-002   -4.001212991346628E-030
 -2.690000000000000E-002   -3.822602512271950E-030
 -2.680000000000000E-002   -2.664880947549948E-030
 -2.670000000000000E-002   -1.546573222140446E-031
 -2.660000000000000E-002    4.018005314119185E-030
 -2.650000000000000E-002    9.995072409353266E-030
 -2.640000000000000E-002    1.762129055473928E-029
 -2.630000000000000E-002    2.630333340092649E-029
 -2.620000000000000E-002    3.487983736924306E-029
 -2.610000000000000E-002    4.153447965241616E-029
 -2.600000000000000E-002    4.379255495549459E-029
 -2.590000000000000E-002    3.864605509131488E-029
 -2.580000000000000E-002    2.285053087119470E-029
 -2.570000000000000E-002   -6.573690215908406E-030
 -2.560000000000000E-002   -5.162557022401020E-029
 -2.550000000000000E-002   -1.124170297631971E-028
 -2.540000000000000E-002   -1.861481128824745E-028
 -2.530000000000000E-002   -2.660927911329073E-028
 -2.520000000000000E-002   -3.407868529437727E-028
 -2.510000000000000E-002   -3.936675423112348E-028
 -2.500000000000000E-002   -4.034566834860172E-028
 -2.490000000000000E-002   -3.455901789337442E-028
 -2.480000000000000E-002   -1.949591230630666E-028
 -2.470000000000000E-002    6.987448406418066E-029
 -2.460000000000000E-002    4.610071569433218E-028
 -2.450000000000000E-002    9.743565294354153E-028
 -2.440000000000000E-002    1.582295500038509E-027
 -2.430000000000000E-002    2.226804210868039E-027
 -2.420000000000000E-002    2.814609645747539E-027
 -2.410000000000000E-002    3.216149512460981E-027
 -2.400000000000000E-002    3.270405519472441E-027
 -2.390000000000000E-002    2.797602555652580E-027
 -2.380000000000000E-002    1.621315812662175E-027
 -2.370000000000000E-002   -3.994204934889078E-028
 -2.360000000000000E-002   -3.328929784782093E-027
 -2.350000000000000E-002   -7.107644816882401E-027
 -2.340000000000000E-002   -1.150432365519339E-026
 -2.330000000000000E-002   -1.607594582588631E-026
 -2.320000000000000E-002   -2.014591899408960E-026
 -2.310000000000000E-002   -2.281280976411834E-026
 -2.300000000000000E-002   -2.300181772402968E-026
 -2.290000000000000E-002   -1.956903889185283E-026
 -2.280000000000000E-002   -1.146348023306823E-026
 -2.270000000000000E-002    2.056341454131796E-027
 -2.260000000000000E-002    2.116550440519902E-026
 -2.250000000000000E-002    4.520294831421207E-026
 -2.240000000000000E-002    7.243013414977277E-026
 -2.230000000000000E-002    9.987111638386501E-026
 -2.220000000000000E-002    1.232942960339755E-025
 -2.210000000000000E-002    1.373952276913344E-025
 -2.200000000000000E-002    1.362280196520541E-025
 -2.190000000000000E-002    1.139085471314978E-025
 -2.180000000000000E-002    6.557453945311724E-026
 -2.170000000000000E-002   -1.146120881503669E-026
 -2.160000000000000E-002   -1.164838670395179E-025
 -2.150000000000000E-002   -2.442493902591174E-025
 -2.140000000000000E-002   -3.841737178564456E-025
 -2.130000000000000E-002   -5.200756562633928E-025
 -2.120000000000000E-002   -6.306982698585486E-025
 -2.110000000000000E-002   -6.911787902028809E-025
 -2.100000000000000E-002   -6.755402880554827E-025
 -2.090000000000000E-002   -5.601361242748883E-025
 -2.080000000000000E-002   -3.278116239605061E-025
 -2.070000000000000E-002    2.763207721579615E-026
 -2.060000000000000E-002    4.972451419225859E-025
 -2.050000000000000E-002    1.053691699164966E-024
 -2.040000000000000E-002    1.649684393910333E-024
 -2.030000000000000E-002    2.218738320970259E-024
 -2.020000000000000E-002    2.678708917086367E-024
 -2.010000000000000E-002    2.938291232031787E-024
 -2.000000000000000E-002    2.906289039357474E-024
 -1.990000000000000E-002    2.503055121666599E-024
 -1.980000000000000E-002    1.673116726524599E-024
 -1.970000000000000E-002    3.976855317823501E-025
 -1.960000000000000E-002   -1.294425300913399E-024
 -1.950000000000000E-002   -3.318966426380206E-024
 -1.940000000000000E-002   -5.532824993910398E-024
 -1.930000000000000E-002   -7.736013526681187E-024
 -1.920000000000000E-002   -9.679656828031038E-024
 -1.910000000000000E-002   -1.108011999333375E-023
 -1.900000000000000E-002   -1.163899597406017E-023
 -1.890000000000000E-002   -1.106836536554511E-023
 -1.880000000000000E-002   -9.120508062945333E-024
 -1.870000000000000E-002   -5.621116301656596E-024
 -1.860000000000000E-002   -5.048165470802964E-025
 -1.850000000000000E-002    6.148548859264440E-024
 -1.840000000000000E-002    1.407917416130776E-023
 -1.830000000000000E-002    2.281747277557436E-023
 -1.820000000000000E-002    3.166415112606946E-023
 -1.810000000000000E-002    3.968684493770370E-023
 -1.800000000000000E-002    4.574151332962667E-023
 -1.790000000000000E-002    4.852759800985442E-023
 -1.780000000000000E-002    4.668519479177679E-023
 -1.770000000000000E-002    3.893964342051932E-023
 -1.760000000000000E-002    2.429330959204130E-023
 -1.750000000000000E-002    2.255933734693269E-024
 -1.740000000000000E-002   -2.690587048622998E-023
 -1.730000000000000E-002   -6.193136160553494E-023
 -1.720000000000000E-002   -1.003831993555705E-022
 -1.710000000000000E-002   -1.385702783175479E-022
 -1.700000000000000E-002   -1.716278486142929E-022
 -1.690000000000000E-002   -1.937998559280298E-022
 -1.680000000000000E-002   -1.989501940324518E-022
 -1.670000000000000E-002   -1.813005778236140E-022
 -1.660000000000000E-002   -1.363537168242511E-022
 -1.650000000000000E-002   -6.191643249085229E-023
 -1.640000000000000E-002    4.090625087912880E-023
 -1.630000000000000E-002    1.669095680250178E-022
 -1.620000000000000E-002    3.063607706469333E-022
 -1.610000000000000E-002    4.451150198522043E-022
 -1.600000000000000E-002    5.654066419119166E-022
 -1.590000000000000E-002    6.473730910441053E-022
 -1.580000000000000E-002    6.712664107720100E-022
 -1.570000000000000E-002    6.201865574125339E-022
 -1.560000000000000E-002    4.830502564944057E-022
 -1.550000000000000E-002    2.574023156366440E-022
 -1.540000000000000E-002   -4.838300312629449E-023
 -1.530000000000000E-002   -4.139660556763334E-022
 -1.520000000000000E-002   -8.073555326021405E-022
 -1.510000000000000E-002   -1.186903553098784E-021
 -1.500000000000000E-002   -1.505000583721320E-021
 -1.490000000000000E-002   -1.713225446257051E-021
 -1.480000000000000E-002   -1.768442790200676E-021
 -1.470000000000000E-002   -1.639108679562665E-021
 -1.460000000000000E-002   -1.310904551198608E-021
 -1.450000000000000E-002   -7.907961996475781E-022
 -1.440000000000000E-002   -1.087388606234664E-022
 -1.430000000000000E-002    6.834751642449013E-022
 -1.420000000000000E-002    1.516341615383737E-021
 -1.410000000000000E-002    2.309394778939641E-021
 -1.400000000000000E-002    2.979787865207589E-021
 -1.390000000000000E-002    3.451542235996390E-021
 -1.380000000000000E-002    3.664119591403133E-021
 -1.370000000000000E-002    3.579009318864134E-021
 -1.360000000000000E-002    3.183317318439616E-021
 -1.350000000000000E-002    2.489857385970179E-021
 -1.340000000000000E-002    1.533913758819457E-021
 -1.330000000000000E-002    3.675335672019444E-022
 -1.320000000000000E-002   -9.472139324285340E-022
 -1.310000000000000E-002   -2.344264516584816E-021
 -1.300000000000000E-002   -3.757202865818352E-021
 -1.290000000000000E-002   -5.119349250536528E-021
 -1.280000000000000E-002   -6.360021716861623E-021
 -1.270000000000000E-002   -7.397893344706460E-021
 -1.260000000000000E-002   -8.133556334564397E-021
 -1.250000000000000E-002   -8.444422881244052E-021
 -1.240000000000000E-002   -8.185544977268180E-021
 -1.230000000000000E-002   -7.199624681739730E-021
 -1.220000000000000E-002   -5.338264050733004E-021
 -1.210000000000000E-002   -2.494413913458924E-021
 -1.200000000000000E-002    1.356784110528688E-021
 -1.190000000000000E-002    6.114523299464616E-021
 -1.180000000000000E-002    1.151464202111144E-020
 -1.170000000000000E-002    1.710773154761970E-020
 -1.160000000000000E-002    2.226310860206074E-020
 -1.150000000000000E-002    2.620664968930257E-020
 -1.140000000000000E-002    2.809638581702807E-020
 -1.130000000000000E-002    2.713369047673203E-020
 -1.120000000000000E-002    2.270054534031567E-020
 -1.110000000000000E-002    1.450624344939575E-020
 -1.100000000000000E-002    2.720625915186574E-021
 -1.090000000000000E-002   -1.193233012261003E-020
 -1.080000000000000E-002   -2.814622929075967E-020
 -1.070000000000000E-002   -4.408981946016630E-020
 -1.060000000000000E-002   -5.756086887414142E-020
 -1.050000000000000E-002   -6.623297267451463E-020
 -1.040000000000000E-002   -6.797564945446752E-020
 -1.030000000000000E-002   -6.121171618484474E-020
 -1.020000000000000E-002   -4.526271724234713E-020
 -1.010000000000000E-002   -2.062535294194809E-020
 -1.000000000000000E-002    1.087766445521353E-020
 -9.899999999999999E-003    4.611913907754829E-020
 -9.800000000000000E-003    8.088876267706820E-020
 -9.699999999999999E-003    1.103150690488157E-019
 -9.599999999999999E-003    1.294565462287633E-019
 -9.500000000000000E-003    1.339996585548907E-019
 -9.399999999999999E-003    1.209746504154941E-019
 -9.299999999999999E-003    8.938384582808045E-020
 -9.200000000000000E-003    4.063681562858338E-020
 -9.099999999999999E-003   -2.129967016417715E-020
 -8.999999999999999E-003   -9.009550844898351E-020
 -8.900000000000000E-003   -1.576095471189734E-019
 -8.799999999999999E-003   -2.147616677528937E-019
 -8.699999999999999E-003   -2.526330799347062E-019
 -8.600000000000000E-003   -2.636598856696341E-019
 -8.499999999999999E-003   -2.427574698997986E-019
 -8.399999999999999E-003   -1.882112952912667E-019
 -8.300000000000000E-003   -1.021896548264317E-019
 -8.199999999999999E-003    9.215377288460976E-021
 -8.100000000000000E-003    1.364485998099609E-019
 -8.000000000000000E-003    2.674060671938576E-019
 -7.899999999999999E-003    3.886845846921830E-019
 -7.800000000000000E-003    4.869902266173138E-019
 -7.699999999999999E-003    5.505034475595772E-019
 -7.599999999999999E-003    5.700038083230329E-019
 -7.499999999999999E-003    5.396072158130741E-019
 -7.399999999999999E-003    4.570368751731290E-019
 -7.299999999999999E-003    3.234534087410961E-019
 -7.199999999999999E-003    1.429619852807930E-019
 -7.100000000000000E-003   -7.800746987601849E-020
 -6.999999999999999E-003   -3.312088193561705E-019
 -6.899999999999999E-003   -6.067574826579425E-019
 -6.800000000000000E-003   -8.928270854582921E-019
 -6.699999999999999E-003   -1.174848886737990E-018
 -6.599999999999999E-003   -1.434357581550609E-018
 -6.499999999999999E-003   -1.647806495436436E-018
 -6.399999999999999E-003   -1.785814136924373E-018
 -6.299999999999999E-003   -1.813392251291777E-018
 -6.199999999999999E-003   -1.691672811061622E-018
 -6.100000000000000E-003   -1.381522007727712E-018
 -5.999999999999999E-003   -8.491540558967804E-019
 -5.899999999999999E-003   -7.349469663061511E-020
 -5.800000000000000E-003    9.453894440600999E-019
 -5.699999999999999E-003    2.177896080582986E-018
 -5.599999999999999E-003    3.557977343849551E-018
 -5.499999999999999E-003    4.979338636715158E-018
 -5.399999999999999E-003    6.296320425687552E-018
 -5.299999999999999E-003    7.330729681672621E-018
 -5.199999999999999E-003    7.885257804769688E-018
 -5.099999999999999E-003    7.763305549111736E-018
 -4.999999999999999E-003    6.794027607596570E-018
 -4.899999999999999E-003    4.860374689473650E-018
 -4.799999999999999E-003    1.926987132218389E-018
 -4.699999999999999E-003   -1.935813680520610E-018
 -4.599999999999999E-003   -6.535921427825746E-018
 -4.499999999999999E-003   -1.155491856903816E-017
 -4.399999999999999E-003   -1.655789249830020E-017
 -4.299999999999999E-003   -2.101904532908493E-017
 -4.199999999999999E-003   -2.436264449278130E-017
 -4.099999999999999E-003   -2.601696526205824E-017
 -3.999999999999999E-003   -2.547683099531268E-017
 -3.899999999999999E-003   -2.236874166850599E-017
 -3.799999999999999E-003   -1.651152197631372E-017
 -3.699999999999999E-003   -7.965162259434826E-018
 -3.599999999999999E-003    2.938943164752541E-018
 -3.499999999999999E-003    1.559158821116500E-017
 -3.399999999999999E-003    2.912618226461383E-017
 -3.299999999999999E-003    4.246634900052120E-017
 -3.199999999999999E-003    5.439792131199520E-017
 -3.099999999999999E-003    6.366022492324349E-017
 -2.999999999999999E-003    6.904902805493401E-017
 -2.899999999999999E-003    6.952275188909247E-017
 -2.799999999999999E-003    6.430282330957673E-017
 -2.699999999999999E-003    5.296032707264289E-017
 -2.599999999999999E-003    3.548244450349595E-017
 -2.499999999999999E-003    1.231449334382345E-017
 -2.399999999999999E-003   -1.562442723106943E-017
 -2.299999999999999E-003   -4.695221552309802E-017
 -2.199999999999999E-003   -7.985978155168561E-017
 -2.099999999999999E-003   -1.121706439641559E-016
 -1.999999999999999E-003   -1.414231338759636E-016
 -1.899999999999999E-003   -1.649754505803284E-016
 -1.799999999999999E-003   -1.801349642005792E-016
 -1.699999999999999E-003   -1.843139433692987E-016
 -1.599999999999999E-003   -1.752136621349046E-016
 -1.499999999999999E-003   -1.510366015976937E-016
 -1.399999999999999E-003   -1.107218162541275E-016
 -1.299999999999999E-003   -5.419267860509378E-017
 -1.199999999999999E-003    1.740207091874998E-017
 -1.099999999999999E-003    1.014812110250772E-016
 -9.999999999999989E-004    1.938921889696076E-016
 -8.999999999999990E-004    2.888790934144619E-016
 -7.999999999999990E-004    3.791962798650759E-016
 -6.999999999999989E-004    4.563993603159991E-016
 -5.999999999999990E-004    5.113334608687068E-016
 -4.999999999999989E-004    5.348179106347858E-016
 -3.999999999999989E-004    5.185022831772262E-016
 -2.999999999999989E-004    4.558408976218460E-016
 -1.999999999999989E-004    3.431053265693783E-016
 -9.999999999999892E-005    1.803306083789621E-016
  1.084202172485504E-018   -2.792225993912060E-017
  1.000000000000011E-004   -2.721087810074386E-016
  2.000000000000011E-004   -5.376573927963498E-016
  3.000000000000011E-004   -8.054197770432517E-016
  4.000000000000011E-004   -1.052656832195915E-015
  5.000000000000011E-004   -1.254541736851150E-015
  6.000000000000011E-004   -1.386111595322202E-015
  7.000000000000011E-004   -1.424530604309180E-015
  8.000000000000011E-004   -1.351486540395698E-015
  9.000000000000012E-004   -1.155497844199621E-015
  1.000000000000001E-003   -8.338996707894579E-016
  1.100000000000001E-003   -3.942820874285236E-016
  1.200000000000001E-003    1.448099730456512E-016
  1.300000000000001E-003    7.540526516494634E-016
  1.400000000000001E-003    1.394455410325782E-015
  1.500000000000001E-003    2.019395195426816E-015
  1.600000000000001E-003    2.577466140185941E-015
  1.700000000000001E-003    3.015975672166449E-015
  1.800000000000001E-003    3.284848348829512E-015
  1.900000000000001E-003    3.340678580515552E-015
  2.000000000000001E-003    3.150641782989601E-015
  2.100000000000001E-003    2.696001999037900E-015
  2.200000000000001E-003    1.974969935069579E-015
  2.300000000000001E-003    1.004704634174438E-015
  2.400000000000001E-003   -1.776976522401509E-016
  2.500000000000001E-003   -1.515350865472857E-015
  2.600000000000001E-003   -2.932941362388887E-015
  2.700000000000001E-003   -4.339359879603716E-015
  2.800000000000001E-003   -5.631619852355247E-015
  2.900000000000001E-003   -6.700048194461345E-015
  3.000000000000001E-003   -7.434678622414015E-015
  3.100000000000001E-003   -7.732702574309097E-015
  3.200000000000001E-003   -7.506746961961782E-015
  3.300000000000001E-003   -6.693593567456717E-015
  3.400000000000001E-003   -5.262822065217272E-015
  3.500000000000001E-003   -3.224707882198509E-015
  3.600000000000001E-003   -6.365695858504758E-016
  3.700000000000001E-003    2.393325455505126E-015
  3.800000000000001E-003    5.705184133006487E-015
  3.900000000000001E-003    9.091242105994470E-015
  4.000000000000001E-003    1.230401485419305E-014
  4.100000000000001E-003    1.506947178962513E-014
  4.200000000000001E-003    1.710492268460028E-014
  4.300000000000001E-003    1.814084768635348E-014
  4.400000000000001E-003    1.794537235154910E-014
  4.500000000000001E-003    1.634954817878335E-014
  4.600000000000002E-003    1.327124526166447E-014
  4.700000000000001E-003    8.735166872281288E-015
  4.800000000000001E-003    2.886546347679245E-015
  4.900000000000002E-003   -4.003634352081200E-015
  5.000000000000001E-003   -1.154360458811204E-014
  5.100000000000001E-003   -1.923677631765320E-014
  5.200000000000001E-003   -2.650867722376731E-014
  5.300000000000002E-003   -3.274372851332090E-014
  5.400000000000001E-003   -3.732976008225608E-014
  5.500000000000001E-003   -3.970717839850500E-014
  5.600000000000002E-003   -3.941913795544133E-014
  5.700000000000001E-003   -3.615861292546344E-014
  5.800000000000001E-003   -2.980830065799593E-014
  5.900000000000002E-003   -2.046964396031490E-014
  6.000000000000001E-003   -8.477843472785942E-015
  6.100000000000001E-003    5.599132652965987E-015
  6.200000000000002E-003    2.097869674547341E-014
  6.300000000000002E-003    3.669860274364379E-014
  6.400000000000001E-003    5.166747885277454E-014
  6.500000000000001E-003    6.472855371621180E-014
  6.600000000000002E-003    7.473318979524515E-014
  6.700000000000001E-003    8.062049552039663E-014
  6.800000000000001E-003    8.149836289945101E-014
  6.900000000000002E-003    7.672144355425047E-014
  7.000000000000001E-003    6.596111977783433E-014
  7.100000000000001E-003    4.926267094448518E-014
  7.200000000000002E-003    2.708495081409453E-014
  7.300000000000002E-003    3.182396094042825E-016
  7.400000000000001E-003   -2.972359002444587E-014
  7.500000000000001E-003   -6.133982659995607E-014
  7.600000000000002E-003   -9.250996104938025E-014
  7.700000000000001E-003   -1.209918941121232E-013
  7.800000000000001E-003   -1.444490170951338E-013
  7.900000000000001E-003   -1.606021719013593E-013
  8.000000000000002E-003   -1.673994040046002E-013
  8.100000000000001E-003   -1.631939379521130E-013
  8.200000000000001E-003   -1.469179359450505E-013
  8.300000000000002E-003   -1.182380019668842E-013
  8.400000000000001E-003   -7.767728926534165E-014
  8.500000000000002E-003   -2.668912736677978E-014
  8.600000000000002E-003    3.233064155291680E-014
  8.700000000000001E-003    9.610299944838219E-014
  8.800000000000002E-003    1.606012136876371E-013
  8.900000000000002E-003    2.212621561323084E-013
  9.000000000000001E-003    2.732650756739938E-013
  9.100000000000002E-003    3.118640311511120E-013
  9.200000000000002E-003    3.327528323731768E-013
  9.300000000000001E-003    3.324364064247623E-013
  9.400000000000002E-003    3.085796170450399E-013
  9.500000000000001E-003    2.603034454690287E-013
  9.600000000000001E-003    1.884003433713010E-013
  9.700000000000002E-003    9.544431332151333E-014
  9.800000000000001E-003   -1.422103631530748E-014
  9.900000000000001E-003   -1.346260866692125E-013
  1.000000000000000E-002   -2.584495601373110E-013
  1.010000000000000E-002   -3.774124094311139E-013
  1.020000000000000E-002   -4.827725937938585E-013
  1.030000000000000E-002   -5.658918509653733E-013
  1.040000000000000E-002   -6.188397679886924E-013
  1.050000000000000E-002   -6.349975945439692E-013
  1.060000000000000E-002   -6.096210715531924E-013
  1.070000000000000E-002   -5.403233096041462E-013
  1.080000000000000E-002   -4.274419873239850E-013
  1.090000000000000E-002   -2.742595572599984E-013
  1.100000000000000E-002   -8.705293581144497E-014
  1.110000000000000E-002    1.250430791176772E-013
  1.120000000000000E-002    3.503658841023285E-013
  1.130000000000000E-002    5.752440089156106E-013
  1.140000000000000E-002    7.846920849025541E-013
  1.150000000000000E-002    9.632548043206193E-013
  1.160000000000000E-002    1.095964918981800E-012
  1.170000000000000E-002    1.169367916787521E-012
  1.180000000000000E-002    1.172555561886832E-012
  1.190000000000000E-002    1.098145674017074E-012
  1.200000000000000E-002    9.431366339905950E-013
  1.210000000000000E-002    7.095668311429713E-013
  1.220000000000000E-002    4.049124996507406E-013
  1.230000000000000E-002    4.216329268715690E-014
  1.240000000000000E-002   -3.604649870554724E-013
  1.250000000000000E-002   -7.802059516478507E-013
  1.260000000000000E-002   -1.190803057923218E-012
  1.270000000000000E-002   -1.563925470013374E-012
  1.280000000000000E-002   -1.870876662251821E-012
  1.290000000000000E-002   -2.084508951799071E-012
  1.300000000000000E-002   -2.181228147462510E-012
  1.310000000000000E-002   -2.142954315968437E-012
  1.320000000000000E-002   -1.958893950831089E-012
  1.330000000000000E-002   -1.626982227821958E-012
  1.340000000000000E-002   -1.154858547161182E-012
  1.350000000000000E-002   -5.602691490574538E-013
  1.360000000000000E-002    1.291854018123880E-013
  1.370000000000000E-002    8.769952712644878E-013
  1.380000000000000E-002    1.639367992136326E-012
  1.390000000000000E-002    2.367487928931329E-012
  1.400000000000000E-002    3.010293584390242E-012
  1.410000000000000E-002    3.517645716205210E-012
  1.420000000000000E-002    3.843690150476140E-012
  1.430000000000000E-002    3.950221475287328E-012
  1.440000000000000E-002    3.809830625455643E-012
  1.450000000000000E-002    3.408615106791214E-012
  1.460000000000000E-002    2.748255162933965E-012
  1.470000000000000E-002    1.847273174055537E-012
  1.480000000000000E-002    7.413388545122491E-013
  1.490000000000000E-002   -5.174797471903205E-013
  1.500000000000000E-002   -1.862545887961665E-012
  1.510000000000000E-002   -3.215557251996808E-012
  1.520000000000000E-002   -4.490426287054318E-012
  1.530000000000000E-002   -5.597998153848154E-012
  1.540000000000000E-002   -6.451378726606039E-012
  1.550000000000000E-002   -6.971624905662318E-012
  1.560000000000000E-002   -7.093467181249237E-012
  1.570000000000000E-002   -6.770725566488604E-012
  1.580000000000000E-002   -5.981056430529462E-012
  1.590000000000000E-002   -4.729661417808420E-012
  1.600000000000000E-002   -3.051641622500269E-012
  1.610000000000000E-002   -1.012688655414863E-012
  1.620000000000000E-002    1.292067018222270E-012
  1.630000000000000E-002    3.741199341135050E-012
  1.640000000000000E-002    6.192095000156463E-012
  1.650000000000000E-002    8.487923481463005E-012
  1.660000000000000E-002    1.046619799042747E-011
  1.670000000000000E-002    1.196855137439851E-011
  1.680000000000000E-002    1.285121292677956E-011
  1.690000000000000E-002    1.299559013890673E-011
  1.700000000000000E-002    1.231828673832180E-011
  1.710000000000000E-002    1.077986354167100E-011
  1.720000000000000E-002    8.391651972167389E-012
  1.730000000000000E-002    5.219995105050483E-012
  1.740000000000000E-002    1.387430789244317E-012
  1.750000000000000E-002   -2.929576937122459E-012
  1.760000000000000E-002   -7.506523539677135E-012
  1.770000000000000E-002   -1.208030723793427E-011
  1.780000000000000E-002   -1.636197873190869E-011
  1.790000000000000E-002   -2.005225539328802E-011
  1.800000000000000E-002   -2.285912691411026E-011
  1.810000000000000E-002   -2.451655970820376E-011
  1.820000000000000E-002   -2.480330713388314E-011
  1.830000000000000E-002   -2.356062651313901E-011
  1.840000000000000E-002   -2.070774404043357E-011
  1.850000000000000E-002   -1.625393616914930E-011
  1.860000000000000E-002   -1.030623942493925E-011
  1.870000000000000E-002   -3.071947525673329E-012