 -4.000000000000000E-002    0.000000000000000E+000
 -3.990000000000000E-002    0.000000000000000E+000
 -3.980000000000000E-002    0.000000000000000E+000
 -3.970000000000000E-002    0.000000000000000E+000
 -3.960000000000000E-002    0.000000000000000E+000
 -3.950000000000000E-002    0.000000000000000E+000
 -3.940000000000000E-002    0.000000000000000E+000
 -3.930000000000000E-002    0.000000000000000E+000
 -3.920000000000000E-002    0.000000000000000E+000
 -3.910000000000000E-002    0.000000000000000E+000
 -3.900000000000000E-002    0.000000000000000E+000
 -3.890000000000000E-002    0.000000000000000E+000
 -3.880000000000000E-002    0.000000000000000E+000
 -3.870000000000000E-002    0.000000000000000E+000
 -3.860000000000000E-002    0.000000000000000E+000
 -3.850000000000000E-002    0.000000000000000E+000
 -3.840000000000000E-002    0.000000000000000E+000
 -3.830000000000000E-002    0.000000000000000E+000
 -3.820000000000000E-002    0.000000000000000E+000
 -3.810000000000000E-002    0.000000000000000E+000
 -3.800000000000000E-002    0.000000000000000E+000
 -3.790000000000000E-002    0.000000000000000E+000
 -3.780000000000000E-002    0.000000000000000E+000
 -3.770000000000000E-002    0.000000000000000E+000
 -3.760000000000000E-002    0.000000000000000E+000
 -3.750000000000000E-002    0.000000000000000E+000
 -3.740000000000000E-002    0.000000000000000E+000
 -3.730000000000000E-002    5.694317058220838E-047
 -3.720000000000000E-002    2.106669881842435E-046
 -3.710000000000000E-002    6.320009645527304E-046
 -3.700000000000000E-002    1.699381365591788E-045
 -3.690000000000000E-002    4.092972054759567E-045
 -3.680000000000000E-002    8.861813285641002E-045
 -3.670000000000000E-002    1.116442597233043E-044
 -3.660000000000000E-002   -7.511427052602069E-045
 -3.650000000000000E-002   -1.218268708105939E-043
 -3.640000000000000E-002   -5.509396526689538E-043
 -3.630000000000000E-002   -1.876692692163452E-042
 -3.620000000000000E-002   -5.466681850856046E-042
 -3.610000000000000E-002   -1.421854613804460E-041
 -3.600000000000000E-002   -3.365679414997884E-041
 -3.590000000000000E-002   -7.305243790364691E-041
 -3.580000000000000E-002   -1.454118636812956E-040
 -3.570000000000000E-002   -2.633107452398605E-040
 -3.560000000000000E-002   -4.244340674704457E-040
 -3.550000000000000E-002   -5.759796095755755E-040
 -3.540000000000000E-002   -5.418836135308458E-040
 -3.530000000000000E-002    1.057621761493245E-040
 -3.520000000000000E-002    2.242572265525874E-039
 -3.510000000000000E-002    7.436700683358888E-039
 -3.500000000000000E-002    1.815287323728555E-038
 -3.490000000000000E-002    3.769024389729606E-038
 -3.480000000000000E-002    6.941270519512213E-038
 -3.470000000000000E-002    1.145439743768174E-037
 -3.460000000000000E-002    1.675131079136169E-037
 -3.450000000000000E-002    2.077244933541795E-037
 -3.440000000000000E-002    1.870163884295483E-037
 -3.430000000000000E-002    1.346695841810424E-038
 -3.420000000000000E-002   -4.647594821551545E-037
 -3.410000000000000E-002   -1.466561523699860E-036
 -3.400000000000000E-002   -3.259368890845771E-036
 -3.390000000000000E-002   -6.088890671508808E-036
 -3.380000000000000E-002   -1.002267113668586E-035
 -3.370000000000000E-002   -1.467072020172860E-035
 -3.360000000000000E-002   -1.875883323051338E-035
 -3.350000000000000E-002   -1.956860221784233E-035
 -3.340000000000000E-002   -1.233487780113078E-035
 -3.330000000000000E-002    1.018438154626530E-035
 -3.320000000000000E-002    5.758097581405501E-035
 -3.310000000000000E-002    1.405340200134107E-034
 -3.300000000000000E-002    2.676723296813268E-034
 -3.290000000000000E-002    4.397875201972972E-034
 -3.280000000000000E-002    6.408542265059966E-034
 -3.270000000000000E-002    8.259782741335003E-034
 -3.260000000000000E-002    9.076469461320906E-034
 -3.250000000000000E-002    7.435879955809504E-034
 -3.240000000000000E-002    1.320702994886783E-034
 -3.230000000000000E-002   -1.176747086856157E-033
 -3.220000000000000E-002   -3.442527355057537E-033
 -3.210000000000000E-002   -6.857981968996667E-033
 -3.200000000000000E-002   -1.142456884703178E-032
 -3.190000000000000E-002   -1.677896307940727E-032
 -3.180000000000000E-002   -2.198222949578086E-032
 -3.170000000000000E-002   -2.530416406629318E-032
 -3.160000000000000E-002   -2.406170200764403E-032
 -3.150000000000000E-002   -1.459938481492942E-032
 -3.140000000000000E-002    7.474581563716082E-033
 -3.130000000000000E-002    4.667022255999926E-032
 -3.120000000000000E-002    1.065001375640686E-031
 -3.110000000000000E-002    1.877977032360183E-031
 -3.100000000000000E-002    2.864933099729810E-031
 -3.090000000000000E-002    3.910166599923761E-031
 -3.080000000000000E-002    4.796844091928547E-031
 -3.070000000000000E-002    5.186556852234038E-031
 -3.060000000000000E-002    4.612678117299937E-031
 -3.050000000000000E-002    2.497576134835904E-031
 -3.040000000000000E-002   -1.795157186250547E-031
 -3.030000000000000E-002   -8.862604325727949E-031
 -3.020000000000000E-002   -1.910995144231469E-030
 -3.010000000000000E-002   -3.253965323568479E-030
 -3.000000000000000E-002   -4.848644525154332E-030
 -2.990000000000000E-002   -6.531386924521329E-030
 -2.980000000000000E-002   -8.010384877065763E-030
 -2.970000000000000E-002   -8.839147461540474E-030
 -2.960000000000000E-002   -8.402286286074054E-030
 -2.950000000000000E-002   -5.924362434144331E-030
 -2.940000000000000E-002   -5.156858708533631E-031
 -2.930000000000000E-002    8.728386458340635E-030
 -2.920000000000000E-002    2.255700272669707E-029
 -2.910000000000000E-002    4.130664620087169E-029
 -2.900000000000000E-002    6.454927220136834E-029
 -2.890000000000000E-002    9.065336250917472E-029
 -2.880000000000000E-002    1.162916939330845E-028
 -2.870000000000000E-002    1.359674908817979E-028
 -2.860000000000000E-002    1.416793748599729E-028
 -2.850000000000000E-002    1.228999926943779E-028
 -2.840000000000000E-002    6.709319062052732E-029
 -2.830000000000000E-002   -3.897605563262372E-029
 -2.820000000000000E-002   -2.068987471253542E-028
 -2.810000000000000E-002   -4.430875710425238E-028
 -2.800000000000000E-002   -7.440680049500277E-028
 -2.790000000000000E-002   -1.090894297419811E-027
 -2.780000000000000E-002   -1.443378742546842E-027
 -2.770000000000000E-002   -1.735287461340179E-027
 -2.760000000000000E-002   -1.872129625992785E-027
 -2.750000000000000E-002   -1.733544694603459E-027
 -2.740000000000000E-002   -1.182431820715574E-027
 -2.730000000000000E-002   -8.270632843555317E-029
 -2.720000000000000E-002    1.673240381915029E-027
 -2.710000000000000E-002    4.127761972299911E-027
 -2.700000000000000E-002    7.214364281103402E-027
 -2.690000000000000E-002    1.071244424072218E-026
 -2.680000000000000E-002    1.420835622633403E-026
 -2.670000000000000E-002    1.707336715861371E-026
 -2.660000000000000E-002    1.847068575784224E-026
 -2.650000000000000E-002    1.740373070382262E-026
 -2.640000000000000E-002    1.281544510980413E-026
 -2.630000000000000E-002    3.743327386715296E-027
 -2.620000000000000E-002   -1.047313594376690E-026
 -2.610000000000000E-002   -2.994638786199510E-026
 -2.600000000000000E-002   -5.398154601082853E-026
 -2.590000000000000E-002   -8.084101183768716E-026
 -2.580000000000000E-002   -1.075791823110884E-025
 -2.570000000000000E-002   -1.299982519755081E-025
 -2.560000000000000E-002   -1.427745674897696E-025
 -2.550000000000000E-002   -1.397957853788210E-025
 -2.540000000000000E-002   -1.147323539190958E-025
 -2.530000000000000E-002   -6.184298290337772E-026
 -2.520000000000000E-002    2.301451233520888E-026
 -2.510000000000000E-002    1.412261195334004E-025
 -2.500000000000000E-002    2.902072565741191E-025
 -2.490000000000000E-002    4.622470272855649E-025
 -2.480000000000000E-002    6.435514873247920E-025
 -2.470000000000000E-002    8.136468685487965E-025
 -2.460000000000000E-002    9.453248410898752E-025
 -2.450000000000000E-002    1.005332746415808E-024
 -2.440000000000000E-002    9.560308717398190E-025
 -2.430000000000000E-002    7.582492854743993E-025
 -2.420000000000000E-002    3.755644087499572E-025
 -2.410000000000000E-002   -2.198447514683695E-025
 -2.400000000000000E-002   -1.039736715711575E-024
 -2.390000000000000E-002   -2.070962473104917E-024
 -2.380000000000000E-002   -3.265826672239330E-024
 -2.370000000000000E-002   -4.532749052318682E-024
 -2.360000000000000E-002   -5.728918292768170E-024
 -2.350000000000000E-002   -6.657245646642093E-024
 -2.340000000000000E-002   -7.070416247328322E-024
 -2.330000000000000E-002   -6.685027328065160E-024
 -2.320000000000000E-002   -5.208473175682557E-024
 -2.310000000000000E-002   -2.380184005622427E-024
 -2.300000000000000E-002    1.973080863117026E-024
 -2.290000000000000E-002    7.870990791973589E-024
 -2.280000000000000E-002    1.510906796390183E-023
 -2.270000000000000E-002    2.319421469158187E-023
 -2.260000000000000E-002    3.130031088851125E-023
 -2.250000000000000E-002    3.826014037460584E-023
 -2.240000000000000E-002    4.261013381447664E-023
 -2.230000000000000E-002    4.270155193360961E-023
 -2.220000000000000E-002    3.688525782848491E-023
 -2.210000000000000E-002    2.376686203001744E-023
 -2.200000000000000E-002    2.515544243511974E-024
 -2.190000000000000E-002   -2.680557585832734E-023
 -2.180000000000000E-002   -6.293447437391186E-023
 -2.170000000000000E-002   -1.031892352071408E-022
 -2.160000000000000E-002   -1.433943869927465E-022
 -2.150000000000000E-002   -1.780132621389149E-022
 -2.140000000000000E-002   -2.005286117010947E-022
 -2.130000000000000E-002   -2.040852061401577E-022
 -2.120000000000000E-002   -1.823690305509732E-022
 -2.110000000000000E-002   -1.306525610515013E-022
 -2.100000000000000E-002   -4.689019733304462E-023
 -2.090000000000000E-002    6.728862585743709E-023
 -2.080000000000000E-002    2.058615145057182E-022
 -2.070000000000000E-002    3.581389275340060E-022
 -2.060000000000000E-002    5.090690928829202E-022
 -2.050000000000000E-002    6.401952118828916E-022
 -2.040000000000000E-002    7.312521691374198E-022
 -2.030000000000000E-002    7.622902774747106E-022
 -2.020000000000000E-002    7.161177284013265E-022
 -2.010000000000000E-002    5.807770372240359E-022
 -2.000000000000000E-002    3.517329805752028E-022
 -1.990000000000000E-002    3.346225235907658E-023
 -1.980000000000000E-002   -3.597976190505289E-022
 -1.970000000000000E-002   -8.042665842800107E-022
 -1.960000000000000E-002   -1.267788222705645E-021
 -1.950000000000000E-002   -1.711775983750746E-021
 -1.940000000000000E-002   -2.093655938179317E-021
 -1.930000000000000E-002   -2.369472957979237E-021
 -1.920000000000000E-002   -2.496360823687225E-021
 -1.910000000000000E-002   -2.434710369065824E-021
 -1.900000000000000E-002   -2.150069794259879E-021
 -1.890000000000000E-002   -1.615050929220072E-021
 -1.880000000000000E-002   -8.117130849798395E-022
 -1.870000000000000E-002    2.650106296117066E-022
 -1.860000000000000E-002    1.602375524717040E-021
 -1.850000000000000E-002    3.163223582749048E-021
 -1.840000000000000E-002    4.878127786055544E-021
 -1.830000000000000E-002    6.637413952730092E-021
 -1.820000000000000E-002    8.284992930085712E-021
 -1.810000000000000E-002    9.616583704547219E-021
 -1.800000000000000E-002    1.038525333305518E-020
 -1.790000000000000E-002    1.031697661705736E-020
 -1.780000000000000E-002    9.138001701470144E-021
 -1.770000000000000E-002    6.614149786159410E-021
 -1.760000000000000E-002    2.599841828044469E-021
 -1.750000000000000E-002   -2.908081563074985E-021
 -1.740000000000000E-002   -9.719366591291528E-021
 -1.730000000000000E-002   -1.741192883945077E-020
 -1.720000000000000E-002   -2.531669310226626E-020
 -1.710000000000000E-002   -3.253561219720650E-020
 -1.700000000000000E-002   -3.799999610016184E-020
 -1.690000000000000E-002   -4.057141520994952E-020
 -1.680000000000000E-002   -3.918084264820050E-020
 -1.670000000000000E-002   -3.299418170298664E-020
 -1.660000000000000E-002   -2.158498994581987E-020
 -1.650000000000000E-002   -5.089395210843241E-021
 -1.640000000000000E-002    1.568454029909499E-020
 -1.630000000000000E-002    3.921960485019755E-020
 -1.620000000000000E-002    6.334479181696938E-020
 -1.610000000000000E-002    8.539310282667414E-020
 -1.600000000000000E-002    1.024571993213853E-019
 -1.590000000000000E-002    1.117221571971117E-019
 -1.580000000000000E-002    1.108388867391452E-019
 -1.570000000000000E-002    9.828970649852628E-020
 -1.560000000000000E-002    7.369157950994181E-020
 -1.550000000000000E-002    3.798482173949764E-020
 -1.540000000000000E-002   -6.533597452648520E-021
 -1.530000000000000E-002   -5.635335534760430E-020
 -1.520000000000000E-002   -1.070659587056054E-019
 -1.510000000000000E-002   -1.538192496967925E-019
 -1.500000000000000E-002   -1.918532813851210E-019
 -1.490000000000000E-002   -2.170416194756954E-019
 -1.480000000000000E-002   -2.263565404348130E-019
 -1.470000000000000E-002   -2.181849796130854E-019
 -1.460000000000000E-002   -1.924451686933525E-019
 -1.450000000000000E-002   -1.504886707403925E-019
 -1.440000000000000E-002   -9.481350482356137E-020
 -1.430000000000000E-002   -2.865293265972253E-020
 -1.420000000000000E-002    4.446587332495233E-020
 -1.410000000000000E-002    1.210879169326978E-019
 -1.400000000000000E-002    1.980272292807828E-019
 -1.390000000000000E-002    2.723355049049439E-019
 -1.380000000000000E-002    3.410390321301153E-019
 -1.370000000000000E-002    4.007060411483514E-019
 -1.360000000000000E-002    4.469705429633700E-019
 -1.350000000000000E-002    4.741849337446191E-019
 -1.340000000000000E-002    4.753883534601697E-019
 -1.330000000000000E-002    4.427508729283243E-019
 -1.320000000000000E-002    3.685810780948741E-019
 -1.310000000000000E-002    2.468724797260494E-019
 -1.300000000000000E-002    7.522936863220408E-020
 -1.290000000000000E-002   -1.431241507947979E-019
 -1.280000000000000E-002   -3.976556141556492E-019
 -1.270000000000000E-002   -6.696100031589798E-019
 -1.260000000000000E-002   -9.322924058409297E-019
 -1.250000000000000E-002   -1.152846871743473E-018
 -1.240000000000000E-002   -1.295618451505507E-018
 -1.230000000000000E-002   -1.326904989238115E-018
 -1.220000000000000E-002   -1.220602091819179E-018
 -1.210000000000000E-002   -9.639636415867125E-019
 -1.200000000000000E-002   -5.625070550993303E-019
 -1.190000000000000E-002   -4.303305972401544E-020
 -1.180000000000000E-002    5.461501280508667E-019
 -1.170000000000000E-002    1.138409518723162E-018
 -1.160000000000000E-002    1.655515940686566E-018
 -1.150000000000000E-002    2.017483321516246E-018
 -1.140000000000000E-002    2.154477661624467E-018
 -1.130000000000000E-002    2.019220894018908E-018
 -1.120000000000000E-002    1.597974963937848E-018
 -1.110000000000000E-002    9.180981931521431E-019
 -1.100000000000000E-002    5.042606251374365E-020
 -1.090000000000000E-002   -8.947186040435315E-019
 -1.080000000000000E-002   -1.778210786693452E-018
 -1.070000000000000E-002   -2.448823087984249E-018
 -1.060000000000000E-002   -2.764211365476021E-018
 -1.050000000000000E-002   -2.613559645990132E-018
 -1.040000000000000E-002   -1.938695231640178E-018
 -1.030000000000000E-002   -7.503510128009791E-019
 -1.020000000000000E-002    8.633652322322774E-019
 -1.010000000000000E-002    2.738336482527949E-018
 -1.000000000000000E-002    4.646400945163755E-018
 -9.899999999999999E-003    6.317196519330140E-018
 -9.800000000000000E-003    7.467651828125951E-018
 -9.699999999999999E-003    7.835694365978628E-018
 -9.599999999999999E-003    7.214022269557694E-018
 -9.500000000000000E-003    5.479641554588184E-018
 -9.399999999999999E-003    2.615491595915739E-018
 -9.299999999999999E-003   -1.278396101640025E-018
 -9.200000000000000E-003   -5.985208231144701E-018
 -9.099999999999999E-003   -1.118246242249977E-017
 -8.999999999999999E-003   -1.646180270896685E-017
 -8.900000000000000E-003   -2.135448514686486E-017
 -8.799999999999999E-003   -2.535927463015251E-017
 -8.699999999999999E-003   -2.797015104215520E-017
 -8.600000000000000E-003   -2.870239799279655E-017
 -8.499999999999999E-003   -2.711737815303426E-017
 -8.399999999999999E-003   -2.284789780951283E-017
 -8.300000000000000E-003   -1.562721380935182E-017
 -8.199999999999999E-003   -5.324945819822629E-018
 -8.100000000000000E-003    8.007956280900945E-018
 -8.000000000000000E-003    2.408539774019552E-017
 -7.899999999999999E-003    4.232729481428629E-017
 -7.800000000000000E-003    6.180371209702373E-017
 -7.699999999999999E-003    8.119396172705930E-017
 -7.599999999999999E-003    9.877578968948669E-017
 -7.499999999999999E-003    1.124606083662469E-016
 -7.399999999999999E-003    1.198890911519752E-016
 -7.299999999999999E-003    1.185964416736669E-016
 -7.199999999999999E-003    1.062485265931903E-016
 -7.100000000000000E-003    8.093968870092315E-017
 -6.999999999999999E-003    4.153101402571471E-017
 -6.899999999999999E-003   -1.200388792478811E-017
 -6.800000000000000E-003   -7.826752718200820E-017
 -6.699999999999999E-003   -1.542097073358985E-016
 -6.599999999999999E-003   -2.350290571537423E-016
 -6.499999999999999E-003   -3.142463246314484E-016
 -6.399999999999999E-003   -3.839786310256283E-016
 -6.299999999999999E-003   -4.354244199983471E-016
 -6.199999999999999E-003   -4.595472776812217E-016
 -6.100000000000000E-003   -4.479216111057545E-016
 -5.999999999999999E-003   -3.936808732978700E-016
 -5.899999999999999E-003   -2.924884115714323E-016
 -5.800000000000000E-003   -1.434389070059345E-016
 -5.699999999999999E-003    5.020644836647740E-017
 -5.599999999999999E-003    2.805445407134013E-016
 -5.499999999999999E-003    5.348934239919373E-016
 -5.399999999999999E-003    7.960535018451126E-016
 -5.299999999999999E-003    1.042997257588721E-015
 -5.199999999999999E-003    1.251987679140551E-015
 -5.099999999999999E-003    1.398093825175469E-015
 -4.999999999999999E-003    1.457038232765677E-015
 -4.899999999999999E-003    1.407283845830898E-015
 -4.799999999999999E-003    1.232239131467171E-015
 -4.699999999999999E-003    9.224417342858067E-016
 -4.599999999999999E-003    4.775588593157905E-016
 -4.499999999999999E-003   -9.196482026786614E-017
 -4.399999999999999E-003   -7.637900527288816E-016
 -4.299999999999999E-003   -1.503270317858971E-015
 -4.199999999999999E-003   -2.263906119225489E-015
 -4.099999999999999E-003   -2.988799746537673E-015
 -3.999999999999999E-003   -3.613196608603207E-015
 -3.899999999999999E-003   -4.068144801377716E-015
 -3.799999999999999E-003   -4.285203628572879E-015
 -3.699999999999999E-003   -4.202049464074475E-015
 -3.599999999999999E-003   -3.768694926539165E-015
 -3.499999999999999E-003   -2.953926732469231E-015
 -3.399999999999999E-003   -1.751464797760004E-015
 -3.299999999999999E-003   -1.852398321324924E-016
 -3.199999999999999E-003    1.686837248741863E-015
 -3.099999999999999E-003    3.771252527585079E-015
 -2.999999999999999E-003    5.939973999401690E-015
 -2.899999999999999E-003    8.034664062752113E-015
 -2.799999999999999E-003    9.874229194726888E-015
 -2.699999999999999E-003    1.126566050866639E-014
 -2.599999999999999E-003    1.201779530725388E-014
 -2.499999999999999E-003    1.195732333991057E-014
 -2.399999999999999E-003    1.094604464441551E-014
 -2.299999999999999E-003    8.898109508784378E-015
 -2.199999999999999E-003    5.795816723336058E-015
 -2.099999999999999E-003    1.702411435049483E-015
 -1.999999999999999E-003   -3.229608548171482E-015
 -1.899999999999999E-003   -8.756025601958203E-015
 -1.799999999999999E-003   -1.454534559601862E-014
 -1.699999999999999E-003   -2.019081788277983E-014
 -1.599999999999999E-003   -2.523020556353727E-014
 -1.499999999999999E-003   -2.917290239619089E-014
 -1.399999999999999E-003   -3.153345199430399E-014
 -1.299999999999999E-003   -3.186980994605460E-014
 -1.199999999999999E-003   -2.982426543362898E-014
 -1.099999999999999E-003   -2.516429203736981E-014
 -9.999999999999989E-004   -1.782032203316978E-014
 -8.999999999999990E-004   -7.917125441875557E-015
 -7.999999999999990E-004    4.204563060824757E-015
 -6.999999999999989E-004    1.797937056188134E-014
 -5.999999999999990E-004    3.262434777457853E-014
 -4.999999999999989E-004    4.716381124686339E-014
 -3.999999999999989E-004    6.047308682047515E-014
 -2.999999999999989E-004    7.134095204502717E-014
 -1.999999999999989E-004    7.854907419781686E-014
 -9.999999999999892E-005    8.096510656958220E-014
  1.084202172485504E-018    7.764434097213140E-014
  1.000000000000011E-004    6.793325471300952E-014
  2.000000000000011E-004    5.156691584206644E-014
  3.000000000000011E-004    2.875127754372841E-014
  4.000000000000011E-004    2.212934033960449E-016
  5.000000000000011E-004   -3.273407272659904E-014
  6.000000000000011E-004   -6.828686192348133E-014
  7.000000000000011E-004   -1.041306131066355E-013
  8.000000000000011E-004   -1.375880502621218E-013
  9.000000000000012E-004   -1.657644960445997E-013
  1.000000000000001E-003   -1.857408381901197E-013
  1.100000000000001E-003   -1.947965492401210E-013
  1.200000000000001E-003   -1.906486341261187E-013
  1.300000000000001E-003   -1.716896628323630E-013
  1.400000000000001E-003   -1.372059007382106E-013
  1.500000000000001E-003   -8.755576500564966E-014
  1.600000000000001E-003   -2.428958111393749E-014
  1.700000000000001E-003    4.980592698000663E-014
  1.800000000000001E-003    1.307510956591289E-013
  1.900000000000001E-003    2.135119854401183E-013
  2.000000000000001E-003    2.922355957380740E-013
  2.100000000000001E-003    3.605753427219923E-013
  2.200000000000001E-003    4.120940285124730E-013
  2.300000000000001E-003    4.407241133376356E-013
  2.400000000000001E-003    4.412593939723562E-013
  2.500000000000001E-003    4.098461232287273E-013
  2.600000000000001E-003    3.444397406184221E-013
  2.700000000000001E-003    2.451900947499098E-013
  2.800000000000001E-003    1.147191759552092E-013
  2.900000000000001E-003   -4.174156776416088E-014
  3.000000000000001E-003   -2.163823412198956E-013
  3.100000000000001E-003   -3.990353377614526E-013
  3.200000000000001E-003   -5.775930716105238E-013
  3.300000000000001E-003   -7.386232296412347E-013
  3.400000000000001E-003   -8.681628646971149E-013
  3.500000000000001E-003   -9.526599937254828E-013
  3.600000000000001E-003   -9.800143392866472E-013
  3.700000000000001E-003   -9.406554761619379E-013
  3.800000000000001E-003   -8.285836386715203E-013
  3.900000000000001E-003   -6.422898293581059E-013
  4.000000000000001E-003   -3.854687925543067E-013
  4.100000000000001E-003   -6.744182097355482E-014
  4.200000000000001E-003    2.967842336831307E-013
  4.300000000000001E-003    6.868768392028515E-013
  4.400000000000001E-003    1.077984093717462E-012
  4.500000000000001E-003    1.441988550121021E-012
  4.600000000000002E-003    1.749168462321693E-012
  4.700000000000001E-003    1.970192046167342E-012
  4.800000000000001E-003    2.078333016839081E-012
  4.900000000000002E-003    2.051764260007174E-012
  5.000000000000001E-003    1.875764329156685E-012
  5.100000000000001E-003    1.544656814299618E-012
  5.200000000000001E-003    1.063305116322275E-012
  5.300000000000002E-003    4.479996059667147E-013
  5.400000000000001E-003   -2.733966455054276E-013
  5.500000000000001E-003   -1.062134618948698E-012
  5.600000000000002E-003   -1.870136001810914E-012
  5.700000000000001E-003   -2.642396255403350E-012
  5.800000000000001E-003   -3.320147414188210E-012
  5.900000000000002E-003   -3.844629774005789E-012
  6.000000000000001E-003   -4.161263774676531E-012
  6.100000000000001E-003   -4.223968769471030E-012
  6.200000000000002E-003   -3.999338438922010E-012
  6.300000000000002E-003   -3.470368530183502E-012
  6.400000000000001E-003   -2.639435865501067E-012
  6.500000000000001E-003   -1.530245343930679E-012
  6.600000000000002E-003   -1.885073804199936E-013
  6.700000000000001E-003    1.318829232025219E-012
  6.800000000000001E-003    2.905890681728132E-012
  6.900000000000002E-003    4.471747027672869E-012
  7.000000000000001E-003    5.905736088150781E-012
  7.100000000000001E-003    7.094038711289010E-012
  7.200000000000002E-003    7.927204735117621E-012
  7.300000000000002E-003    8.308209724379768E-012
  7.400000000000001E-003    8.160554820333209E-012
  7.500000000000001E-003    7.435850458459858E-012
  7.600000000000002E-003    6.120299843428145E-012
  7.700000000000001E-003    4.239500192653078E-012
  7.800000000000001E-003    1.861023354667922E-012
  7.900000000000001E-003   -9.056505098697785E-013
  8.000000000000002E-003   -3.912165320582093E-012
  8.100000000000001E-003   -6.977389159013257E-012
  8.200000000000001E-003   -9.896518943012571E-012
  8.300000000000002E-003   -1.245285076143786E-011
  8.400000000000001E-003   -1.443167551398562E-011
  8.500000000000002E-003   -1.563552929666150E-011
  8.600000000000002E-003   -1.589984211149385E-011
  8.700000000000001E-003   -1.510789538324255E-011
  8.800000000000002E-003   -1.320394242860461E-011
  8.900000000000002E-003   -1.020335088282731E-011
  9.000000000000001E-003   -6.198747249586910E-012
  9.100000000000002E-003   -1.361330277208402E-012
  9.200000000000002E-003    4.063213008634599E-012
  9.300000000000001E-003    9.764403023953489E-012
  9.400000000000002E-003    1.538212017549638E-011
  9.500000000000001E-003    2.052662342821409E-011
  9.600000000000001E-003    2.480251833088315E-011
  9.700000000000002E-003    2.783530650233262E-011
  9.800000000000001E-003    2.929893593820557E-011
  9.900000000000001E-003    2.894254395377929E-011
  1.000000000000000E-002    2.661447536541511E-011
  1.010000000000000E-002    2.228173372783491E-011
  1.020000000000000E-002    1.604311955298603E-011
  1.030000000000000E-002    8.134678179566044E-012
  1.040000000000000E-002   -1.073612704496329E-012
  1.050000000000000E-002   -1.109042060631003E-011
  1.060000000000000E-002   -2.132488771121023E-011
  1.070000000000000E-002   -3.111705007389424E-011
  1.080000000000000E-002   -3.977558810376286E-011
  1.090000000000000E-002   -4.662105440845191E-011
  1.100000000000000E-002   -5.103221145230924E-011
  1.110000000000000E-002   -5.249266194089313E-011
  1.120000000000000E-002   -5.063472970264935E-011
  1.130000000000000E-002   -4.527740945756407E-011
  1.140000000000000E-002   -3.645530782141171E-011
  1.150000000000000E-002   -2.443583164805355E-011
  1.160000000000000E-002   -9.722366966020674E-012
  1.170000000000000E-002    6.958023481884748E-012
  1.180000000000000E-002    2.468302728015331E-011
  1.190000000000000E-002    4.237916315303620E-011
  1.200000000000000E-002    5.887998505732420E-011
  1.210000000000000E-002    7.299574442973692E-011
  1.220000000000000E-002    8.359080490700987E-011
  1.230000000000000E-002    8.966424811652462E-011
  1.240000000000000E-002    9.042844772106877E-011
  1.250000000000000E-002    8.538004718032504E-011
  1.260000000000000E-002    7.435787042105610E-011
  1.270000000000000E-002    5.758261675234945E-011
  1.280000000000000E-002    3.567418366112077E-011
  1.290000000000000E-002    9.643366083828225E-012
  1.300000000000000E-002   -1.914345503430295E-011
  1.310000000000000E-002   -4.902652471707113E-011
  1.320000000000000E-002   -7.813978856881450E-011
  1.330000000000000E-002   -1.045188904106029E-010
  1.340000000000000E-002   -1.262243927027667E-010
  1.350000000000000E-002   -1.414730930520756E-010
  1.360000000000000E-002   -1.487691754832797E-010
  1.370000000000000E-002   -1.470263035853880E-010
  1.380000000000000E-002   -1.356717834368383E-010
  1.390000000000000E-002   -1.147242992557850E-010
  1.400000000000000E-002   -8.483812523153164E-011
  1.410000000000000E-002   -4.730814296903401E-011
  1.420000000000000E-002   -4.032440083073230E-012
  1.430000000000000E-002    4.256820710028381E-011
  1.440000000000000E-002    8.967210735394104E-011
  1.450000000000000E-002    1.342144765565948E-010
  1.460000000000000E-002    1.730735821347077E-010
  1.470000000000000E-002    2.032752045153728E-010
  1.480000000000000E-002    2.222029476227852E-010
  1.490000000000000E-002    2.278009711716868E-010
  1.500000000000000E-002    2.187550368436779E-010
  1.510000000000000E-002    1.946379396716587E-010
  1.520000000000000E-002    1.560069095961159E-010
  1.530000000000000E-002    1.044424270501861E-010
  1.540000000000000E-002    4.252127511224600E-011
  1.550000000000000E-002   -2.627989957469216E-011
  1.560000000000000E-002   -9.774983372881082E-011
  1.570000000000000E-002   -1.671710943299841E-010
  1.580000000000000E-002   -2.296019443730613E-010
  1.590000000000000E-002   -2.801969350181008E-010
  1.600000000000000E-002   -3.145481001521518E-010
  1.610000000000000E-002   -3.290253671123822E-010
  1.620000000000000E-002   -3.210931811945694E-010
  1.630000000000000E-002   -2.895800704783257E-010
  1.640000000000000E-002   -2.348785286775357E-010
  1.650000000000000E-002   -1.590560570893687E-010
  1.660000000000000E-002   -6.586179361294745E-011
  1.670000000000000E-002    3.938087134582049E-011
  1.680000000000000E-002    1.499986834308927E-010
  1.690000000000000E-002    2.583049938366570E-010
  1.700000000000000E-002    3.560360528218093E-010
  1.710000000000000E-002    4.348672119028671E-010
  1.720000000000000E-002    4.869814197139666E-010
  1.730000000000000E-002    5.056575732725814E-010
  1.740000000000000E-002    4.858420540738464E-010
  1.750000000000000E-002    4.246641017395754E-010
  1.760000000000000E-002    3.218571898271031E-010
  1.770000000000000E-002    1.800507504255045E-010
  1.780000000000000E-002    4.902069790456575E-012
  1.790000000000000E-002   -1.949537593295856E-010
  1.800000000000000E-002   -4.081484845298256E-010
  1.810000000000000E-002   -6.210219843097907E-010
  1.820000000000000E-002   -8.182495900209351E-010
  1.830000000000000E-002   -9.836324420366961E-010
  1.840000000000000E-002   -1.101018265358581E-009
  1.850000000000000E-002   -1.155307170170954E-009
  1.860000000000000E-002   -1.133490826815973E-009
  1.870000000000000E-002   -1.025667646613211E-009