 -4.000000000000000E-002    0.000000000000000E+000
 -3.990000000000000E-002    0.000000000000000E+000
 -3.980000000000000E-002    0.000000000000000E+000
 -3.970000000000000E-002    0.000000000000000E+000
 -3.960000000000000E-002   -9.931038087477048E-019
 -3.950000000000000E-002   -1.593577437477440E-017
 -3.940000000000000E-002   -1.026143629712284E-016
 -3.930000000000000E-002   -4.202269617920493E-016
 -3.920000000000000E-002   -1.287220266540303E-015
 -3.910000000000000E-002   -3.185543097488074E-015
 -3.900000000000000E-002   -6.627799177825298E-015
 -3.890000000000000E-002   -1.179334874312765E-014
 -3.880000000000000E-002   -1.786059079578028E-014
 -3.870000000000000E-002   -2.202424817524006E-014
 -3.860000000000000E-002   -1.828861889592854E-014
 -3.850000000000000E-002    3.740162051342110E-015
 -3.840000000000000E-002    5.969848923579573E-014
 -3.830000000000000E-002    1.704640094682407E-013
 -3.820000000000000E-002    3.607672766113874E-013
 -3.810000000000000E-002    6.559133791139394E-013
 -3.800000000000000E-002    1.076275642548108E-012
 -3.790000000000000E-002    1.629526812953451E-012
 -3.780000000000000E-002    2.301011739986002E-012
 -3.770000000000000E-002    3.043190464895881E-012
 -3.760000000000000E-002    3.765645650926840E-012
 -3.750000000000000E-002    4.327623665838469E-012
 -3.740000000000000E-002    4.535417579670901E-012
 -3.730000000000000E-002    4.146905741585301E-012
 -3.720000000000000E-002    2.885230459046049E-012
 -3.710000000000000E-002    4.628480518223107E-013
 -3.700000000000000E-002   -3.384076523277569E-012
 -3.690000000000000E-002   -8.852454018521476E-012
 -3.680000000000000E-002   -1.602354441579084E-011
 -3.670000000000000E-002   -2.481376269933482E-011
 -3.660000000000000E-002   -3.493152035288259E-011
 -3.650000000000000E-002   -4.584745424332934E-011
 -3.640000000000000E-002   -5.678543924076016E-011
 -3.630000000000000E-002   -6.674076361500571E-011
 -3.620000000000000E-002   -7.452963463147759E-011
 -3.610000000000000E-002   -7.887102270753190E-011
 -3.600000000000000E-002   -7.849774591708507E-011
 -3.590000000000000E-002   -7.228921429006054E-011
 -3.580000000000000E-002   -5.941385574831842E-011
 -3.570000000000000E-002   -3.946571400379648E-011
 -3.560000000000000E-002   -1.257745942832542E-011
 -3.550000000000000E-002    2.050822673981996E-011
 -3.540000000000000E-002    5.842479145820372E-011
 -3.530000000000000E-002    9.923651390426562E-011
 -3.520000000000000E-002    1.405662639058392E-010
 -3.510000000000000E-002    1.797917432845776E-010
 -3.500000000000000E-002    2.142962860002118E-010
 -3.490000000000000E-002    2.417510909304729E-010
 -3.480000000000000E-002    2.603975696358331E-010
 -3.470000000000000E-002    2.692942280549833E-010
 -3.460000000000000E-002    2.684910192550667E-010
 -3.450000000000000E-002    2.590978551356728E-010
 -3.440000000000000E-002    2.432226333089534E-010
 -3.430000000000000E-002    2.237669528949615E-010
 -3.420000000000000E-002    2.040842540711962E-010
 -3.410000000000000E-002    1.875227015067136E-010
 -3.400000000000000E-002    1.768943315447358E-010
 -3.390000000000000E-002    1.739254719877450E-010
 -3.380000000000000E-002    1.787558831744897E-010
 -3.370000000000000E-002    1.895557881415090E-010
 -3.360000000000000E-002    2.023272330582856E-010
 -3.350000000000000E-002    2.109417975127974E-010
 -3.340000000000000E-002    2.074472472983148E-010
 -3.330000000000000E-002    1.826470620631728E-010
 -3.320000000000000E-002    1.269261662403085E-010
 -3.310000000000000E-002    3.126647483975397E-011
 -3.300000000000000E-002   -1.116351724926184E-010
 -3.290000000000000E-002   -3.062523626469806E-010
 -3.280000000000000E-002   -5.532363565706293E-010
 -3.270000000000000E-002   -8.486614217039581E-010
 -3.260000000000000E-002   -1.183611118161896E-009
 -3.250000000000000E-002   -1.544179861715282E-009
 -3.240000000000000E-002   -1.911926688517576E-009
 -3.230000000000000E-002   -2.264777342788175E-009
 -3.220000000000000E-002   -2.578316132799457E-009
 -3.210000000000000E-002   -2.827374796807208E-009
 -3.200000000000000E-002   -2.987781357340946E-009
 -3.190000000000000E-002   -3.038116813591311E-009
 -3.180000000000000E-002   -2.961314078345484E-009
 -3.170000000000000E-002   -2.745947837636218E-009
 -3.160000000000000E-002   -2.387094453961093E-009
 -3.150000000000000E-002   -1.886678393503401E-009
 -3.140000000000000E-002   -1.253279706873919E-009
 -3.130000000000000E-002   -5.014355423395028E-010
 -3.120000000000000E-002    3.494791566017779E-010
 -3.110000000000000E-002    1.276653181748208E-009
 -3.100000000000000E-002    2.255357967789783E-009
 -3.090000000000000E-002    3.260398509376954E-009
 -3.080000000000000E-002    4.267327659814030E-009
 -3.070000000000000E-002    5.253270929668352E-009
 -3.060000000000000E-002    6.197279992273338E-009
 -3.050000000000000E-002    7.080167065067443E-009
 -3.040000000000000E-002    7.883872327663951E-009
 -3.030000000000000E-002    8.590460866736632E-009
 -3.020000000000000E-002    9.180923791240442E-009
 -3.010000000000000E-002    9.633987857880469E-009
 -3.000000000000000E-002    9.925175255576367E-009
 -2.990000000000000E-002    1.002633438146499E-008
 -2.980000000000000E-002    9.905836516800818E-009
 -2.970000000000000E-002    9.529586365484463E-009
 -2.960000000000000E-002    8.862895769602642E-009
 -2.950000000000000E-002    7.873199174428510E-009
 -2.940000000000000E-002    6.533487734608695E-009
 -2.930000000000000E-002    4.826242042430555E-009
 -2.920000000000000E-002    2.747580213617482E-009
 -2.910000000000000E-002    3.112749842737889E-010
 -2.900000000000000E-002   -2.447728857550373E-009
 -2.890000000000000E-002   -5.470662837078796E-009
 -2.880000000000000E-002   -8.673477212823974E-009
 -2.870000000000000E-002   -1.194684174254422E-008
 -2.860000000000000E-002   -1.515779833312930E-008
 -2.850000000000000E-002   -1.815312359091246E-008
 -2.840000000000000E-002   -2.076439506917365E-008
 -2.830000000000000E-002   -2.281461472602298E-008
 -2.820000000000000E-002   -2.412617102734469E-008
 -2.810000000000000E-002   -2.452983096260018E-008
 -2.800000000000000E-002   -2.387440366986461E-008
 -2.790000000000000E-002   -2.203669447732207E-008
 -2.780000000000000E-002   -1.893136140089429E-008
 -2.770000000000000E-002   -1.452029670633159E-008
 -2.760000000000000E-002   -8.821225547861081E-009
 -2.750000000000000E-002   -1.915239267062942E-009
 -2.740000000000000E-002    6.046938189479556E-009
 -2.730000000000000E-002    1.484008705579059E-008
 -2.720000000000000E-002    2.416111663994665E-008
 -2.710000000000000E-002    3.362720347808065E-008
 -2.700000000000000E-002    4.277541501254055E-008
 -2.690000000000000E-002    5.106381254200065E-008
 -2.680000000000000E-002    5.787393861515737E-008
 -2.670000000000000E-002    6.251466710622999E-008
 -2.660000000000000E-002    6.422736776425412E-008
 -2.650000000000000E-002    6.219233675599852E-008
 -2.640000000000000E-002    5.553647287477420E-008
 -2.630000000000000E-002    4.334220371129405E-008
 -2.620000000000000E-002    2.465762403987940E-008
 -2.610000000000000E-002   -1.492182940508998E-009
 -2.600000000000000E-002   -3.609274257115405E-008
 -2.590000000000000E-002   -8.012682584216480E-008
 -2.580000000000000E-002   -1.345602130814067E-007
 -2.570000000000000E-002   -2.003269873313240E-007
 -2.560000000000000E-002   -2.783146561312806E-007
 -2.550000000000000E-002   -3.693494791652946E-007
 -2.540000000000000E-002   -4.741825033815479E-007
 -2.530000000000000E-002   -5.934769333428248E-007
 -2.520000000000000E-002   -7.277974138464240E-007
 -2.510000000000000E-002   -8.776016079822937E-007
 -2.500000000000000E-002   -1.043235250972437E-006
 -2.490000000000000E-002   -1.224930554109712E-006
 -2.480000000000000E-002   -1.422808409397028E-006
 -2.470000000000000E-002   -1.636885658315518E-006
 -2.460000000000000E-002   -1.867086500231008E-006
 -2.450000000000000E-002   -2.113258074390894E-006
 -2.440000000000000E-002   -2.375191347611682E-006
 -2.430000000000000E-002   -2.652645589177785E-006
 -2.420000000000000E-002   -2.945376140681649E-006
 -2.410000000000000E-002   -3.253164545849159E-006
 -2.400000000000000E-002   -3.575852316376506E-006
 -2.390000000000000E-002   -3.913373744460026E-006
 -2.380000000000000E-002   -4.265789709387600E-006
 -2.370000000000000E-002   -4.633319835075848E-006
 -2.360000000000000E-002   -5.016373523613758E-006
 -2.350000000000000E-002   -5.415576109451243E-006
 -2.340000000000000E-002   -5.831791820923720E-006
 -2.330000000000000E-002   -6.266142564236751E-006
 -2.320000000000000E-002   -6.720018916987903E-006
 -2.310000000000000E-002   -7.195086799438756E-006
 -2.300000000000000E-002   -7.693285062991826E-006
 -2.290000000000000E-002   -8.216820721057065E-006
 -2.280000000000000E-002   -8.768152896947829E-006
 -2.270000000000000E-002   -9.349973373447942E-006
 -2.260000000000000E-002   -9.965179911542179E-006
 -2.250000000000000E-002   -1.061684731492173E-005
 -2.240000000000000E-002   -1.130819291795380E-005
 -2.230000000000000E-002   -1.204254055164316E-005
 -2.220000000000000E-002   -1.282328486459917E-005
 -2.210000000000000E-002   -1.365385604562950E-005
 -2.200000000000000E-002   -1.453768867721164E-005
 -2.190000000000000E-002   -1.547819735725834E-005
 -2.180000000000000E-002   -1.647875239374381E-005
 -2.170000000000000E-002   -1.754267231114045E-005
 -2.160000000000000E-002   -1.867321663500040E-005
 -2.150000000000000E-002   -1.987359781379608E-005
 -2.140000000000000E-002   -2.114699489669294E-005
 -2.130000000000000E-002   -2.249658320517612E-005
 -2.120000000000000E-002   -2.392556718763384E-005
 -2.110000000000000E-002   -2.543722473622601E-005
 -2.100000000000000E-002   -2.703495572029481E-005
 -2.090000000000000E-002   -2.872233753271267E-005
 -2.080000000000000E-002   -3.050316901323049E-005
 -2.070000000000000E-002   -3.238153012343042E-005
 -2.060000000000000E-002   -3.436182750264183E-005
 -2.050000000000000E-002   -3.644883260663574E-005
 -2.040000000000000E-002   -3.864772527444891E-005
 -2.030000000000000E-002   -4.096410901379177E-005
 -2.020000000000000E-002   -4.340403577389594E-005
 -2.010000000000000E-002   -4.597401329659374E-005
 -2.000000000000000E-002   -4.868100604566983E-005
 -1.990000000000000E-002   -5.153242485978374E-005
 -1.980000000000000E-002   -5.453612552786903E-005
 -1.970000000000000E-002   -5.770038934702391E-005
 -1.960000000000000E-002   -6.103391893118451E-005
 -1.950000000000000E-002   -6.454581315526098E-005
 -1.940000000000000E-002   -6.824555811490096E-005
 -1.930000000000000E-002   -7.214304053972001E-005
 -1.920000000000000E-002   -7.624852349089731E-005
 -1.910000000000000E-002   -8.057267085654480E-005
 -1.900000000000000E-002   -8.512653002700968E-005
 -1.890000000000000E-002   -8.992157643115557E-005
 -1.880000000000000E-002   -9.496971697967948E-005
 -1.870000000000000E-002   -1.002833105029057E-004
 -1.860000000000000E-002   -1.058751776149760E-004
 -1.850000000000000E-002   -1.117586434744452E-004
 -1.840000000000000E-002   -1.179475500219042E-004
 -1.830000000000000E-002   -1.244562535123530E-004
 -1.820000000000000E-002   -1.312996827217172E-004
 -1.810000000000000E-002   -1.384933249408498E-004
 -1.800000000000000E-002   -1.460532500144068E-004
 -1.790000000000000E-002   -1.539961190358210E-004
 -1.780000000000000E-002   -1.623392088868048E-004
 -1.770000000000000E-002   -1.711004418963114E-004
 -1.760000000000000E-002   -1.802983874559593E-004
 -1.750000000000000E-002   -1.899523032137758E-004
 -1.740000000000000E-002   -2.000821572955786E-004
 -1.730000000000000E-002   -2.107086624624762E-004
 -1.720000000000000E-002   -2.218533161997534E-004
 -1.710000000000000E-002   -2.335384672871158E-004
 -1.700000000000000E-002   -2.457873280086225E-004
 -1.690000000000000E-002   -2.586240136052365E-004
 -1.680000000000000E-002   -2.720736128388383E-004
 -1.670000000000000E-002   -2.861622520650386E-004
 -1.660000000000000E-002   -3.009171010287140E-004
 -1.650000000000000E-002   -3.163664039186684E-004
 -1.640000000000000E-002   -3.325395954556157E-004
 -1.630000000000000E-002   -3.494672317037473E-004
 -1.620000000000000E-002   -3.671810348588615E-004
 -1.610000000000000E-002   -3.857140180415165E-004
 -1.600000000000000E-002   -4.051003668396407E-004
 -1.590000000000000E-002   -4.253755258458401E-004
 -1.580000000000000E-002   -4.465762152815027E-004
 -1.570000000000000E-002   -4.687403511850845E-004
 -1.560000000000000E-002   -4.919072427972748E-004
 -1.550000000000000E-002   -5.161174334465354E-004
 -1.540000000000000E-002   -5.414127545506050E-004
 -1.530000000000000E-002   -5.678363890018455E-004
 -1.520000000000000E-002   -5.954328128053179E-004
 -1.510000000000000E-002   -6.242478558652014E-004
 -1.500000000000000E-002   -6.543287858065425E-004
 -1.490000000000000E-002   -6.857241795883014E-004
 -1.480000000000000E-002   -7.184840602094292E-004
 -1.470000000000000E-002   -7.526599947656281E-004
 -1.460000000000000E-002   -7.883049354512335E-004
 -1.450000000000000E-002   -8.254734499037954E-004
 -1.440000000000000E-002   -8.642216363762894E-004
 -1.430000000000000E-002   -9.046072396780476E-004
 -1.420000000000000E-002   -9.466896025325836E-004
 -1.410000000000000E-002   -9.905297965525674E-004
 -1.400000000000000E-002   -1.036190671774132E-003
 -1.390000000000000E-002   -1.083736679755446E-003
 -1.380000000000000E-002   -1.133234234183632E-003
 -1.370000000000000E-002   -1.184751574907824E-003
 -1.360000000000000E-002   -1.238358678318388E-003
 -1.350000000000000E-002   -1.294127505802102E-003
 -1.340000000000000E-002   -1.352131889393948E-003
 -1.330000000000000E-002   -1.412447566297062E-003
 -1.320000000000000E-002   -1.475152207933840E-003
 -1.310000000000000E-002   -1.540325463712179E-003
 -1.300000000000000E-002   -1.608048885871330E-003
 -1.290000000000000E-002   -1.678405899486157E-003
 -1.280000000000000E-002   -1.751481944630921E-003
 -1.270000000000000E-002   -1.827364482419554E-003
 -1.260000000000000E-002   -1.906142685967367E-003
 -1.250000000000000E-002   -1.987907824330724E-003
 -1.240000000000000E-002   -2.072753162196051E-003
 -1.230000000000000E-002   -2.160773564956708E-003
 -1.220000000000000E-002   -2.252066105501882E-003
 -1.210000000000000E-002   -2.346729618754251E-003
 -1.200000000000000E-002   -2.444864950667375E-003
 -1.190000000000000E-002   -2.546574553489475E-003
 -1.180000000000000E-002   -2.651963049216900E-003
 -1.170000000000000E-002   -2.761136503060783E-003
 -1.160000000000000E-002   -2.874202982432904E-003
 -1.150000000000000E-002   -2.991272206868245E-003
 -1.140000000000000E-002   -3.112455725518800E-003
 -1.130000000000000E-002   -3.237866494863173E-003
 -1.120000000000000E-002   -3.367619300045177E-003
 -1.110000000000000E-002   -3.501830221310169E-003
 -1.100000000000000E-002   -3.640617077609321E-003
 -1.090000000000000E-002   -3.784099292254687E-003
 -1.080000000000000E-002   -3.932397400321044E-003
 -1.070000000000000E-002   -4.085633241984827E-003
 -1.060000000000000E-002   -4.243930582062871E-003
 -1.050000000000000E-002   -4.407413777895659E-003
 -1.040000000000000E-002   -4.576208701497705E-003
 -1.030000000000000E-002   -4.750442287838796E-003
 -1.020000000000000E-002   -4.930243058190602E-003
 -1.010000000000000E-002   -5.115739653904128E-003
 -1.000000000000000E-002   -5.307062206774175E-003
 -9.899999999999999E-003   -5.504341390846097E-003
 -9.800000000000000E-003   -5.707709255365471E-003
 -9.699999999999999E-003   -5.917297349492972E-003
 -9.599999999999999E-003   -6.133237846437305E-003
 -9.500000000000000E-003   -6.355663537601427E-003
 -9.399999999999999E-003   -6.584707097911344E-003
 -9.299999999999999E-003   -6.820501369983554E-003
 -9.200000000000000E-003   -7.063178313198555E-003
 -9.099999999999999E-003   -7.312869484984991E-003
 -8.999999999999999E-003   -7.569706704157633E-003
 -8.900000000000000E-003   -7.833819765598930E-003
 -8.799999999999999E-003   -8.105338012178762E-003
 -8.699999999999999E-003   -8.384388578671019E-003
 -8.600000000000000E-003   -8.671098268052022E-003
 -8.499999999999999E-003   -8.965591938227142E-003
 -8.399999999999999E-003   -9.267992237049487E-003
 -8.300000000000000E-003   -9.578420033002527E-003
 -8.199999999999999E-003   -9.896994197861990E-003
 -8.100000000000000E-003   -1.022383114422934E-002
 -8.000000000000000E-003   -1.055904354357083E-002
 -7.899999999999999E-003   -1.090274254812265E-002
 -7.800000000000000E-003   -1.125503515985481E-002
 -7.699999999999999E-003   -1.161602564464064E-002
 -7.599999999999999E-003   -1.198581424571598E-002
 -7.499999999999999E-003   -1.236449820750339E-002
 -7.399999999999999E-003   -1.275216944450173E-002
 -7.299999999999999E-003   -1.314891527225859E-002
 -7.199999999999999E-003   -1.355481897551454E-002
 -7.100000000000000E-003   -1.396995813323067E-002
 -6.999999999999999E-003   -1.439440486098420E-002
 -6.899999999999999E-003   -1.482822585316130E-002
 -6.800000000000000E-003   -1.527147977747137E-002
 -6.699999999999999E-003   -1.572422043853011E-002
 -6.599999999999999E-003   -1.618649432091413E-002
 -6.499999999999999E-003   -1.665834071178076E-002
 -6.399999999999999E-003   -1.713979128018935E-002
 -6.299999999999999E-003   -1.763086828138066E-002
 -6.199999999999999E-003   -1.813158577298262E-002
 -6.100000000000000E-003   -1.864195100238147E-002
 -5.999999999999999E-003   -1.916196079509696E-002
 -5.899999999999999E-003   -1.969160338849434E-002
 -5.800000000000000E-003   -2.023085403083254E-002
 -5.699999999999999E-003   -2.077968115847684E-002
 -5.599999999999999E-003   -2.133804090609005E-002
 -5.499999999999999E-003   -2.190587752163367E-002
 -5.399999999999999E-003   -2.248312512014195E-002
 -5.299999999999999E-003   -2.306970532985841E-002
 -5.199999999999999E-003   -2.366552816799167E-002
 -5.099999999999999E-003   -2.427049059595722E-002
 -4.999999999999999E-003   -2.488447481946616E-002
 -4.899999999999999E-003   -2.550734974351009E-002
 -4.799999999999999E-003   -2.613897238907123E-002
 -4.699999999999999E-003   -2.677918324014315E-002
 -4.599999999999999E-003   -2.742780815076565E-002
 -4.499999999999999E-003   -2.808465934089098E-002
 -4.399999999999999E-003   -2.874953297563052E-002
 -4.299999999999999E-003   -2.942220738326722E-002
 -4.199999999999999E-003   -3.010244825619494E-002
 -4.099999999999999E-003   -3.079000246577664E-002
 -3.999999999999999E-003   -3.148459903993259E-002
 -3.899999999999999E-003   -3.218595115784943E-002
 -3.799999999999999E-003   -3.289375574296381E-002
 -3.699999999999999E-003   -3.360768655776390E-002
 -3.599999999999999E-003   -3.432740570340040E-002
 -3.499999999999999E-003   -3.505255119582056E-002
 -3.399999999999999E-003   -3.578274281804056E-002
 -3.299999999999999E-003   -3.651757896041476E-002
 -3.199999999999999E-003   -3.725664472293987E-002
 -3.099999999999999E-003   -3.799949803923293E-002
 -2.999999999999999E-003   -3.874567983809819E-002
 -2.899999999999999E-003   -3.949470794474172E-002
 -2.799999999999999E-003   -4.024608099617669E-002
 -2.699999999999999E-003   -4.099927656814203E-002
 -2.599999999999999E-003   -4.175375071111255E-002
 -2.499999999999999E-003   -4.250893528931454E-002
 -2.399999999999999E-003   -4.326424055466968E-002
 -2.299999999999999E-003   -4.401905667068394E-002
 -2.199999999999999E-003   -4.477275588339230E-002
 -2.099999999999999E-003   -4.552467950792903E-002
 -1.999999999999999E-003   -4.627415339676943E-002
 -1.899999999999999E-003   -4.702047497125045E-002
 -1.799999999999999E-003   -4.776292480079695E-002
 -1.699999999999999E-003   -4.850075814518996E-002
 -1.599999999999999E-003   -4.923320822760970E-002
 -1.499999999999999E-003   -4.995948523312692E-002
 -1.399999999999999E-003   -5.067877980970743E-002
 -1.299999999999999E-003   -5.139025805719045E-002
 -1.199999999999999E-003   -5.209306200352287E-002
 -1.099999999999999E-003   -5.278631666275778E-002
 -9.999999999999989E-004   -5.346912016132713E-002
 -8.999999999999990E-004   -5.414055299396273E-002
 -7.999999999999990E-004   -5.479967518052492E-002
 -6.999999999999989E-004   -5.544552034901470E-002
 -5.999999999999990E-004   -5.607710809122469E-002
 -4.999999999999989E-004   -5.669343289885662E-002
 -3.999999999999989E-004   -5.729347035762697E-002
 -2.999999999999989E-004   -5.787618037273887E-002
 -1.999999999999989E-004   -5.844050231704673E-002
 -9.999999999999892E-005   -5.898535452523627E-002
  1.084202172485504E-018   -5.950963779536392E-002
  1.000000000000011E-004   -6.001223930140644E-002
  2.000000000000011E-004   -6.049202961989354E-002
  3.000000000000011E-004   -6.094785809309633E-002
  4.000000000000011E-004   -6.137856027696015E-002
  5.000000000000011E-004   -6.178296114243552E-002
  6.000000000000011E-004   -6.215986584080237E-002
  7.000000000000011E-004   -6.250807336151262E-002
  8.000000000000011E-004   -6.282636436928987E-002
  9.000000000000012E-004   -6.311350746811376E-002
  1.000000000000001E-003   -6.336826580055965E-002
  1.100000000000001E-003   -6.358939096206467E-002
  1.200000000000001E-003   -6.377562730341738E-002
  1.300000000000001E-003   -6.392570961694377E-002
  1.400000000000001E-003   -6.403837063591375E-002
  1.500000000000001E-003   -6.411233384402190E-002
  1.600000000000001E-003   -6.414631922456604E-002
  1.700000000000001E-003   -6.413904325194116E-002
  1.800000000000001E-003   -6.408922986644747E-002
  1.900000000000001E-003   -6.399559437573751E-002
  2.000000000000001E-003   -6.385685288889580E-002
  2.100000000000001E-003   -6.367172961904412E-002
  2.200000000000001E-003   -6.343894807919821E-002
  2.300000000000001E-003   -6.315723910352071E-002
  2.400000000000001E-003   -6.282534097829562E-002
  2.500000000000001E-003   -6.244200152279952E-002
  2.600000000000001E-003   -6.200597594809563E-002
  2.700000000000001E-003   -6.151603148514710E-002
  2.800000000000001E-003   -6.097094966331505E-002
  2.900000000000001E-003   -6.036952758257388E-002
  3.000000000000001E-003   -5.971057567631186E-002
  3.100000000000001E-003   -5.899292594212754E-002
  3.200000000000001E-003   -5.821542589990349E-002
  3.300000000000001E-003   -5.737694854635769E-002
  3.400000000000001E-003   -5.647638707985930E-002
  3.500000000000001E-003   -5.551266062285914E-002
  3.600000000000001E-003   -5.448472011464432E-002
  3.700000000000001E-003   -5.339153539202261E-002
  3.800000000000001E-003   -5.223211016454204E-002
  3.900000000000001E-003   -5.100548318498187E-002
  4.000000000000001E-003   -4.971072716994807E-002
  4.100000000000001E-003   -4.834694608481406E-002
  4.200000000000001E-003   -4.691328322214502E-002
  4.300000000000001E-003   -4.540892298753933E-002
  4.400000000000001E-003   -4.383308785812769E-002
  4.500000000000001E-003   -4.218504668233419E-002
  4.600000000000002E-003   -4.046410825511561E-002
  4.700000000000001E-003   -3.866963123282670E-002
  4.800000000000001E-003   -3.680101986606914E-002
  4.900000000000002E-003   -3.485773068481782E-002
  5.000000000000001E-003   -3.283927184125469E-002
  5.100000000000001E-003   -3.074520140539235E-002
  5.200000000000001E-003   -2.857513778579857E-002
  5.300000000000002E-003   -2.632875052106252E-002
  5.400000000000001E-003   -2.400577260547609E-002
  5.500000000000001E-003   -2.160599432316859E-002
  5.600000000000002E-003   -1.912926808211625E-002
  5.700000000000001E-003   -1.657550936698573E-002
  5.800000000000001E-003   -1.394469615416541E-002
  5.900000000000002E-003   -1.123687494363009E-002
  6.000000000000001E-003   -8.452158358118658E-003
  6.100000000000001E-003   -5.590726460572951E-003
  6.200000000000002E-003   -2.652832061129698E-003
  6.300000000000002E-003    3.612032216033470E-004
  6.400000000000001E-003    3.450983131594071E-003
  6.500000000000001E-003    6.616040768292524E-003
  6.600000000000002E-003    9.855832035257283E-003
  6.700000000000001E-003    1.316974037501540E-002
  6.800000000000001E-003    1.655706738863224E-002
  6.900000000000002E-003    2.001704041649391E-002
  7.000000000000001E-003    2.354880822166393E-002
  7.100000000000001E-003    2.715144157450456E-002
  7.200000000000002E-003    3.082392810763942E-002
  7.300000000000002E-003    3.456517640901693E-002
  7.400000000000001E-003    3.837401160892783E-002
  7.500000000000001E-003    4.224918266846545E-002
  7.600000000000002E-003    4.618935451577433E-002
  7.700000000000001E-003    5.019310894735603E-002
  7.800000000000001E-003    5.425894573315553E-002
  7.900000000000001E-003    5.838528736576663E-002
  8.000000000000002E-003    6.257046218751715E-002
  8.100000000000001E-003    6.681273666380233E-002
  8.200000000000001E-003    7.111027258007313E-002
  8.300000000000002E-003    7.546116976740008E-002
  8.400000000000001E-003    7.986343022872290E-002
  8.500000000000002E-003    8.431499434155272E-002
  8.600000000000002E-003    8.881370570836079E-002
  8.700000000000001E-003    9.335733295317621E-002
  8.800000000000002E-003    9.794357869340549E-002
  8.900000000000002E-003    0.102570052072720     
  9.000000000000001E-003    0.107234292915736     
  9.100000000000002E-003    0.111933767483498     
  9.200000000000002E-003    0.116665860379255     
  9.300000000000001E-003    0.121427891703709     
  9.400000000000002E-003    0.126217106307654     
  9.500000000000001E-003    0.131030681735288     
  9.600000000000001E-003    0.135865731673113     
  9.700000000000002E-003    0.140719280976311     
  9.800000000000001E-003    0.145588317344758     
  9.900000000000001E-003    0.150469755046077     
  1.000000000000000E-002    0.155360443773564     
  1.010000000000000E-002    0.160257181155974     
  1.020000000000000E-002    0.165156704734555     
  1.030000000000000E-002    0.170055699739657     
  1.040000000000000E-002    0.174950802667418     
  1.050000000000000E-002    0.179838591124237     
  1.060000000000000E-002    0.184715603520336     
  1.070000000000000E-002    0.189578337809813     
  1.080000000000000E-002    0.194423244931647     
  1.090000000000000E-002    0.199246746817600     
  1.100000000000000E-002    0.204045219423353     
  1.110000000000000E-002    0.208815000669409     
  1.120000000000000E-002    0.213552414229289     
  1.130000000000000E-002    0.218253759019037     
  1.140000000000000E-002    0.222915284916419     
  1.150000000000000E-002    0.227533264434722     
  1.160000000000000E-002    0.232103913009936     
  1.170000000000000E-002    0.236623476267257     
  1.180000000000000E-002    0.241088140752991     
  1.190000000000000E-002    0.245494127971519     
  1.200000000000000E-002    0.249837633377242     
  1.210000000000000E-002    0.254114888551672     
  1.220000000000000E-002    0.258322078752822     
  1.230000000000000E-002    0.262455439173606     
  1.240000000000000E-002    0.266511193290183     
  1.250000000000000E-002    0.270485603446520     
  1.260000000000000E-002    0.274374942558405     
  1.270000000000000E-002    0.278175485074946     
  1.280000000000000E-002    0.281883577202952     
  1.290000000000000E-002    0.285495572918240     
  1.300000000000000E-002    0.289007854880262     
  1.310000000000000E-002    0.292416864594771     
  1.320000000000000E-002    0.295719074662035     
  1.330000000000000E-002    0.298911002370364     
  1.340000000000000E-002    0.301989222927098     
  1.350000000000000E-002    0.304950355179443     
  1.360000000000000E-002    0.307791082515901     
  1.370000000000000E-002    0.310508160610123     
  1.380000000000000E-002    0.313098398010790     
  1.390000000000000E-002    0.315558691844791     
  1.400000000000000E-002    0.317885979612895     
  1.410000000000000E-002    0.320077311562975     
  1.420000000000000E-002    0.322129776238827     
  1.430000000000000E-002    0.324040591488051     
  1.440000000000000E-002    0.325807014048332     
  1.450000000000000E-002    0.327426430467611     
  1.460000000000000E-002    0.328896324292136     
  1.470000000000000E-002    0.330214257060875     
  1.480000000000000E-002    0.331377904922285     
  1.490000000000000E-002    0.332384994688821     
  1.500000000000000E-002    0.333233430584802     
  1.510000000000000E-002    0.333921195911908     
  1.520000000000000E-002    0.334446382628374     
  1.530000000000000E-002    0.334807207289291     
  1.540000000000000E-002    0.335001976460994     
  1.550000000000000E-002    0.335029130410428     
  1.560000000000000E-002    0.334887260977333     
  1.570000000000000E-002    0.334575058005788     
  1.580000000000000E-002    0.334091319606011     
  1.590000000000000E-002    0.333434994142680     
  1.600000000000000E-002    0.332605141674465     
  1.610000000000000E-002    0.331600987956649     
  1.620000000000000E-002    0.330421864740722     
  1.630000000000000E-002    0.329067238152822     
  1.640000000000000E-002    0.327536736449514     
  1.650000000000000E-002    0.325830084128746     
  1.660000000000000E-002    0.323947167134491     
  1.670000000000000E-002    0.321887986798378     
  1.680000000000000E-002    0.319652731995048     
  1.690000000000000E-002    0.317241674811621     
  1.700000000000000E-002    0.314655260930663     
  1.710000000000000E-002    0.311894060656968     
  1.720000000000000E-002    0.308958801196330     
  1.730000000000000E-002    0.305850341620869     
  1.740000000000000E-002    0.302569679899433     
  1.750000000000000E-002    0.299117959171407     
  1.760000000000000E-002    0.295496445735530     
  1.770000000000000E-002    0.291706565703587     
  1.780000000000000E-002    0.287749882990199     
  1.790000000000000E-002    0.283628091175617     
  1.800000000000000E-002    0.279343022639173     
  1.810000000000000E-002    0.274896647544545     
  1.820000000000000E-002    0.270291056359375     
  1.830000000000000E-002    0.265528473707860     
  1.840000000000000E-002    0.260611271214916     
  1.850000000000000E-002    0.255541940777791     
  1.860000000000000E-002    0.250323107809516     
  1.870000000000000E-002    0.244957507183498     