 -4.000000000000000E-002    0.000000000000000E+000
 -3.990000000000000E-002    0.000000000000000E+000
 -3.980000000000000E-002    0.000000000000000E+000
 -3.970000000000000E-002    0.000000000000000E+000
 -3.960000000000000E-002    0.000000000000000E+000
 -3.950000000000000E-002    0.000000000000000E+000
 -3.940000000000000E-002    0.000000000000000E+000
 -3.930000000000000E-002    0.000000000000000E+000
 -3.920000000000000E-002    0.000000000000000E+000
 -3.910000000000000E-002    0.000000000000000E+000
 -3.900000000000000E-002    0.000000000000000E+000
 -3.890000000000000E-002    0.000000000000000E+000
 -3.880000000000000E-002    0.000000000000000E+000
 -3.870000000000000E-002    0.000000000000000E+000
 -3.860000000000000E-002    0.000000000000000E+000
 -3.850000000000000E-002    0.000000000000000E+000
 -3.840000000000000E-002    0.000000000000000E+000
 -3.830000000000000E-002    0.000000000000000E+000
 -3.820000000000000E-002    0.000000000000000E+000
 -3.810000000000000E-002    0.000000000000000E+000
 -3.800000000000000E-002    0.000000000000000E+000
 -3.790000000000000E-002    0.000000000000000E+000
 -3.780000000000000E-002    0.000000000000000E+000
 -3.770000000000000E-002    0.000000000000000E+000
 -3.760000000000000E-002    0.000000000000000E+000
 -3.750000000000000E-002    0.000000000000000E+000
 -3.740000000000000E-002    0.000000000000000E+000
 -3.730000000000000E-002    0.000000000000000E+000
 -3.720000000000000E-002    0.000000000000000E+000
 -3.710000000000000E-002    0.000000000000000E+000
 -3.700000000000000E-002    0.000000000000000E+000
 -3.690000000000000E-002    0.000000000000000E+000
 -3.680000000000000E-002    0.000000000000000E+000
 -3.670000000000000E-002    0.000000000000000E+000
 -3.660000000000000E-002    0.000000000000000E+000
 -3.650000000000000E-002    0.000000000000000E+000
 -3.640000000000000E-002    0.000000000000000E+000
 -3.630000000000000E-002    0.000000000000000E+000
 -3.620000000000000E-002    0.000000000000000E+000
 -3.610000000000000E-002    0.000000000000000E+000
 -3.600000000000000E-002    0.000000000000000E+000
 -3.590000000000000E-002    0.000000000000000E+000
 -3.580000000000000E-002    0.000000000000000E+000
 -3.570000000000000E-002    0.000000000000000E+000
 -3.560000000000000E-002    0.000000000000000E+000
 -3.550000000000000E-002    0.000000000000000E+000
 -3.540000000000000E-002    0.000000000000000E+000
 -3.530000000000000E-002    0.000000000000000E+000
 -3.520000000000000E-002    0.000000000000000E+000
 -3.510000000000000E-002    0.000000000000000E+000
 -3.500000000000000E-002    0.000000000000000E+000
 -3.490000000000000E-002    0.000000000000000E+000
 -3.480000000000000E-002    0.000000000000000E+000
 -3.470000000000000E-002    0.000000000000000E+000
 -3.460000000000000E-002    0.000000000000000E+000
 -3.450000000000000E-002    0.000000000000000E+000
 -3.440000000000000E-002    0.000000000000000E+000
 -3.430000000000000E-002    0.000000000000000E+000
 -3.420000000000000E-002    0.000000000000000E+000
 -3.410000000000000E-002    0.000000000000000E+000
 -3.400000000000000E-002    0.000000000000000E+000
 -3.390000000000000E-002    0.000000000000000E+000
 -3.380000000000000E-002    0.000000000000000E+000
 -3.370000000000000E-002    0.000000000000000E+000
 -3.360000000000000E-002    0.000000000000000E+000
 -3.350000000000000E-002    0.000000000000000E+000
 -3.340000000000000E-002    0.000000000000000E+000
 -3.330000000000000E-002    0.000000000000000E+000
 -3.320000000000000E-002    0.000000000000000E+000
 -3.310000000000000E-002    0.000000000000000E+000
 -3.300000000000000E-002    0.000000000000000E+000
 -3.290000000000000E-002    0.000000000000000E+000
 -3.280000000000000E-002    0.000000000000000E+000
 -3.270000000000000E-002    0.000000000000000E+000
 -3.260000000000000E-002    0.000000000000000E+000
 -3.250000000000000E-002    0.000000000000000E+000
 -3.240000000000000E-002    0.000000000000000E+000
 -3.230000000000000E-002    0.000000000000000E+000
 -3.220000000000000E-002    0.000000000000000E+000
 -3.210000000000000E-002    0.000000000000000E+000
 -3.200000000000000E-002    0.000000000000000E+000
 -3.190000000000000E-002    0.000000000000000E+000
 -3.180000000000000E-002    0.000000000000000E+000
 -3.170000000000000E-002    0.000000000000000E+000
 -3.160000000000000E-002    0.000000000000000E+000
 -3.150000000000000E-002    0.000000000000000E+000
 -3.140000000000000E-002    0.000000000000000E+000
 -3.130000000000000E-002    0.000000000000000E+000
 -3.120000000000000E-002    0.000000000000000E+000
 -3.110000000000000E-002    0.000000000000000E+000
 -3.100000000000000E-002    0.000000000000000E+000
 -3.090000000000000E-002    0.000000000000000E+000
 -3.080000000000000E-002    0.000000000000000E+000
 -3.070000000000000E-002    0.000000000000000E+000
 -3.060000000000000E-002    0.000000000000000E+000
 -3.050000000000000E-002    0.000000000000000E+000
 -3.040000000000000E-002    0.000000000000000E+000
 -3.030000000000000E-002    0.000000000000000E+000
 -3.020000000000000E-002    0.000000000000000E+000
 -3.010000000000000E-002    0.000000000000000E+000
 -3.000000000000000E-002    0.000000000000000E+000
 -2.990000000000000E-002    0.000000000000000E+000
 -2.980000000000000E-002    0.000000000000000E+000
 -2.970000000000000E-002    0.000000000000000E+000
 -2.960000000000000E-002    0.000000000000000E+000
 -2.950000000000000E-002    0.000000000000000E+000
 -2.940000000000000E-002    0.000000000000000E+000
 -2.930000000000000E-002    0.000000000000000E+000
 -2.920000000000000E-002    0.000000000000000E+000
 -2.910000000000000E-002    0.000000000000000E+000
 -2.900000000000000E-002    0.000000000000000E+000
 -2.890000000000000E-002   -2.138211768073757E-048
 -2.880000000000000E-002   -4.276423536147513E-048
 -2.870000000000000E-002    6.673755144645491E-050
 -2.860000000000000E-002    4.409898639040423E-048
 -2.850000000000000E-002    2.151559278363047E-047
 -2.840000000000000E-002    2.151559278363047E-047
 -2.830000000000000E-002    2.579201631977799E-047
 -2.820000000000000E-002    1.289600815988899E-047
 -2.810000000000000E-002    2.687473072628288E-047
 -2.800000000000000E-002    6.986639578703339E-047
 -2.790000000000000E-002    9.897329287777250E-047
 -2.780000000000000E-002    1.883777618281915E-046
 -2.770000000000000E-002    3.006495711771789E-046
 -2.760000000000000E-002    4.767463492727211E-046
 -2.750000000000000E-002    5.326921005641696E-046
 -2.740000000000000E-002    7.723233241364816E-046
 -2.730000000000000E-002    8.542895604009157E-046
 -2.720000000000000E-002   -8.864067182309048E-047
 -2.710000000000000E-002   -2.568506660218383E-046
 -2.700000000000000E-002   -7.703190333009496E-046
 -2.690000000000000E-002   -2.184609180979365E-045
 -2.680000000000000E-002   -4.983177299838682E-045
 -2.670000000000000E-002   -8.707743863519793E-045
 -2.660000000000000E-002   -1.459053467026981E-044
 -2.650000000000000E-002   -2.008963274888864E-044
 -2.640000000000000E-002   -2.647157556834763E-044
 -2.630000000000000E-002   -3.238357860488116E-044
 -2.620000000000000E-002   -3.506937228918405E-044
 -2.610000000000000E-002   -3.066319870459797E-044
 -2.600000000000000E-002   -1.664138276944319E-044
 -2.590000000000000E-002    1.471047212917327E-044
 -2.580000000000000E-002    6.830462850063313E-044
 -2.570000000000000E-002    1.490215676487804E-043
 -2.560000000000000E-002    2.646826101050027E-043
 -2.550000000000000E-002    4.147438322643997E-043
 -2.540000000000000E-002    5.960682588412859E-043
 -2.530000000000000E-002    7.955901477203790E-043
 -2.520000000000000E-002    9.858431515898127E-043
 -2.510000000000000E-002    1.121579639389540E-042
 -2.500000000000000E-002    1.135020082553895E-042
 -2.490000000000000E-002    9.351320093558247E-043
 -2.480000000000000E-002    4.014281891589653E-043
 -2.470000000000000E-002   -6.047538706574555E-043
 -2.460000000000000E-002   -2.233841652017582E-042
 -2.450000000000000E-002   -4.627804434579148E-042
 -2.440000000000000E-002   -7.884033447058126E-042
 -2.430000000000000E-002   -1.200765326465982E-041
 -2.420000000000000E-002   -1.685084486316023E-041
 -2.410000000000000E-002   -2.202712560249109E-041
 -2.400000000000000E-002   -2.682247861688976E-041
 -2.390000000000000E-002   -3.009745207713342E-041
 -2.380000000000000E-002   -3.020647501832246E-041
 -2.370000000000000E-002   -2.494950419467868E-041
 -2.360000000000000E-002   -1.159400615370818E-041
 -2.350000000000000E-002    1.298533410030276E-041
 -2.340000000000000E-002    5.200956181739446E-041
 -2.330000000000000E-002    1.082730495246375E-040
 -2.320000000000000E-002    1.833628808082374E-040
 -2.310000000000000E-002    2.765801508049997E-040
 -2.300000000000000E-002    3.835621111042935E-040
 -2.290000000000000E-002    4.946873649672251E-040
 -2.280000000000000E-002    5.933902262284001E-040
 -2.270000000000000E-002    6.546474384008846E-040
 -2.260000000000000E-002    6.440109585202250E-040
 -2.250000000000000E-002    5.177021765483679E-040
 -2.240000000000000E-002    2.244012966793732E-040
 -2.230000000000000E-002   -2.905536023825241E-040
 -2.220000000000000E-002   -1.077849635247629E-039
 -2.210000000000000E-002   -2.173184622903683E-039
 -2.200000000000000E-002   -3.582283613572721E-039
 -2.190000000000000E-002   -5.262216491754052E-039
 -2.180000000000000E-002   -7.100071797697209E-039
 -2.170000000000000E-002   -8.891067139545795E-039
 -2.160000000000000E-002   -1.031946982433943E-038
 -2.150000000000000E-002   -1.094702379236730E-038
 -2.140000000000000E-002   -1.021493541427350E-038
 -2.130000000000000E-002   -7.466437949726420E-039
 -2.120000000000000E-002   -1.997341387174952E-039
 -2.110000000000000E-002    6.858682274239949E-039
 -2.100000000000000E-002    1.960537932596875E-038
 -2.090000000000000E-002    3.641893968960730E-038
 -2.080000000000000E-002    5.694784027009938E-038
 -2.070000000000000E-002    8.009061156699174E-038
 -2.060000000000000E-002    1.037746361705966E-037
 -2.050000000000000E-002    1.247700433031303E-037
 -2.040000000000000E-002    1.385843682959176E-037
 -2.030000000000000E-002    1.394929865793641E-037
 -2.020000000000000E-002    1.207667626913182E-037
 -2.010000000000000E-002    7.515764227578065E-038
 -2.000000000000000E-002   -4.306141850392218E-039
 -1.990000000000000E-002   -1.231851956498498E-037
 -1.980000000000000E-002   -2.841593117968908E-037
 -1.970000000000000E-002   -4.852784014921910E-037
 -1.960000000000000E-002   -7.180543918936835E-037
 -1.950000000000000E-002   -9.655897273766215E-037
 -1.940000000000000E-002   -1.201021592552010E-036
 -1.930000000000000E-002   -1.386637170218679E-036
 -1.920000000000000E-002   -1.474080361428448E-036
 -1.910000000000000E-002   -1.406099821930690E-036
 -1.900000000000000E-002   -1.120273426837504E-036
 -1.890000000000000E-002   -5.550593412336619E-037
 -1.880000000000000E-002    3.416373247426179E-037
 -1.870000000000000E-002    1.601455674311803E-036
 -1.860000000000000E-002    3.222548235903957E-036
 -1.850000000000000E-002    5.155400104028680E-036
 -1.840000000000000E-002    7.288869167856812E-036
 -1.830000000000000E-002    9.438353616173919E-036
 -1.820000000000000E-002    1.133849338546157E-035
 -1.810000000000000E-002    1.264318560895980E-035
 -1.800000000000000E-002    1.293588176479260E-035
 -1.790000000000000E-002    1.175299588020709E-035
 -1.780000000000000E-002    8.622713657005945E-036
 -1.770000000000000E-002    3.120431339205926E-036
 -1.760000000000000E-002   -5.059519414104419E-036
 -1.750000000000000E-002   -1.601840304106922E-035
 -1.740000000000000E-002   -2.955910486685722E-035
 -1.730000000000000E-002   -4.509187803727374E-035
 -1.720000000000000E-002   -6.155134540246381E-035
 -1.710000000000000E-002   -7.733914242065144E-035
 -1.700000000000000E-002   -9.030905601275818E-035
 -1.690000000000000E-002   -9.781252521472083E-035
 -1.680000000000000E-002   -9.682197055518476E-035
 -1.670000000000000E-002   -8.414630826526377E-035
 -1.660000000000000E-002   -5.674754503655089E-035
 -1.650000000000000E-002   -1.215828467452886E-035
 -1.640000000000000E-002    5.101193103229522E-035
 -1.630000000000000E-002    1.325086327091004E-034
 -1.620000000000000E-002    2.298473399822309E-034
 -1.610000000000000E-002    3.377740438861458E-034
 -1.600000000000000E-002    4.478517804990860E-034
 -1.590000000000000E-002    5.482677191329622E-034
 -1.580000000000000E-002    6.239643165967283E-034
 -1.570000000000000E-002    6.571971328349703E-034
 -1.560000000000000E-002    6.286083635119811E-034
 -1.550000000000000E-002    5.188782079855987E-034
 -1.540000000000000E-002    3.109695709132969E-034
 -1.530000000000000E-002   -7.081866352807237E-036
 -1.520000000000000E-002   -4.389613892018384E-034
 -1.510000000000000E-002   -9.766776443154112E-034
 -1.500000000000000E-002   -1.597301714817579E-033
 -1.490000000000000E-002   -2.260272446955626E-033
 -1.480000000000000E-002   -2.905785972412931E-033
 -1.470000000000000E-002   -3.454844996707460E-033
 -1.460000000000000E-002   -3.811554707196893E-033
 -1.450000000000000E-002   -3.868195231881057E-033
 -1.440000000000000E-002   -3.513468992660102E-033
 -1.430000000000000E-002   -2.644083029144229E-033
 -1.420000000000000E-002   -1.179487715622639E-033
 -1.410000000000000E-002    9.208327234343818E-034
 -1.400000000000000E-002    3.638658318823569E-033
 -1.390000000000000E-002    6.878604427314012E-033
 -1.380000000000000E-002    1.045225640247370E-032
 -1.370000000000000E-002    1.406761326052179E-032
 -1.360000000000000E-002    1.732698778799212E-032
 -1.350000000000000E-002    1.973654878218850E-032
 -1.340000000000000E-002    2.073048652511625E-032
 -1.330000000000000E-002    1.971206877386106E-032
 -1.320000000000000E-002    1.611261687562559E-032
 -1.310000000000000E-002    9.467706384417098E-033
 -1.300000000000000E-002   -4.924486624863488E-034
 -1.290000000000000E-002   -1.374417949162602E-032
 -1.280000000000000E-002   -2.987190810834441E-032
 -1.270000000000000E-002   -4.798184167795315E-032
 -1.260000000000000E-002   -6.664224078192458E-032
 -1.250000000000000E-002   -8.386657148738728E-032
 -1.240000000000000E-002   -9.715624770225424E-032
 -1.230000000000000E-002   -1.036185871925175E-031
 -1.220000000000000E-002   -1.001718035514088E-031
 -1.210000000000000E-002   -8.384260933658272E-032
 -1.200000000000000E-002   -5.215339207758278E-032
 -1.190000000000000E-002   -3.583434284047981E-033
 -1.180000000000000E-002    6.192439777381103E-032
 -1.170000000000000E-002    1.424557453071913E-031
 -1.160000000000000E-002    2.336749337138948E-031
 -1.150000000000000E-002    3.285055733802802E-031
 -1.140000000000000E-002    4.170226976524934E-031
 -1.130000000000000E-002    4.866409328491464E-031
 -1.120000000000000E-002    5.226762819262702E-031
 -1.110000000000000E-002    5.093417911302972E-031
 -1.100000000000000E-002    4.312073447646356E-031
 -1.090000000000000E-002    2.751097737552765E-031
 -1.080000000000000E-002    3.244435920955800E-032
 -1.070000000000000E-002   -2.982990948414869E-031
 -1.060000000000000E-002   -7.089645769928861E-031
 -1.050000000000000E-002   -1.179403766983861E-030
 -1.040000000000000E-002   -1.675740455086576E-030
 -1.030000000000000E-002   -2.149616071273525E-030
 -1.020000000000000E-002   -2.538823498584430E-030
 -1.010000000000000E-002   -2.769710194611423E-030
 -1.000000000000000E-002   -2.761658619371425E-030
 -9.899999999999999E-003   -2.433815992059107E-030
 -9.800000000000000E-003   -1.714057902285725E-030
 -9.699999999999999E-003   -5.499088421588356E-031
 -9.599999999999999E-003    1.079149046675336E-030
 -9.500000000000000E-003    3.148887919966290E-030
 -9.399999999999999E-003    5.578309374831682E-030
 -9.299999999999999E-003    8.219932698918155E-030
 -9.200000000000000E-003    1.085418072797144E-029
 -9.099999999999999E-003    1.318975652026276E-029
 -8.999999999999999E-003    1.487186069010546E-029
 -8.900000000000000E-003    1.549982408678752E-029
 -8.799999999999999E-003    1.465520764649295E-029
 -8.699999999999999E-003    1.194067043006645E-029
 -8.600000000000000E-003    7.028828886498964E-030
 -8.499999999999999E-003   -2.809448606446884E-031
 -8.399999999999999E-003   -1.000125176750295E-029
 -8.300000000000000E-003   -2.189593860297560E-029
 -8.199999999999999E-003   -3.542636271471992E-029
 -8.100000000000000E-003   -4.971231222020662E-029
 -8.000000000000000E-003   -6.351597801215080E-029
 -7.899999999999999E-003   -7.525769519854483E-029
 -7.800000000000000E-003   -8.307116500528166E-029
 -7.699999999999999E-003   -8.490464968542711E-029
 -7.599999999999999E-003   -7.867148587467022E-029
 -7.499999999999999E-003   -6.244953825499909E-029
 -7.399999999999999E-003   -3.472414022625447E-029
 -7.299999999999999E-003    5.336770179764216E-030
 -7.199999999999999E-003    5.759305530018570E-029
 -7.100000000000000E-003    1.206527059542244E-028
 -6.999999999999999E-003    1.916323836450078E-028
 -6.899999999999999E-003    2.659933009499298E-028
 -6.800000000000000E-003    3.374902228173276E-028
 -6.699999999999999E-003    3.982712807999662E-028
 -6.599999999999999E-003    4.391626564979836E-028
 -6.499999999999999E-003    4.501634068975011E-028
 -6.399999999999999E-003    4.211636931402174E-028
 -6.299999999999999E-003    3.428814203996362E-028
 -6.199999999999999E-003    2.079901730563073E-028
 -6.100000000000000E-003    1.238637141511239E-029
 -5.999999999999999E-003   -2.434851832095614E-028
 -5.899999999999999E-003   -5.533559968271369E-028
 -5.800000000000000E-003   -9.040421855944090E-028
 -5.699999999999999E-003   -1.274691797405488E-027
 -5.599999999999999E-003   -1.636534015401201E-027
 -5.499999999999999E-003   -1.953297180666894E-027
 -5.399999999999999E-003   -2.182442350879105E-027
 -5.299999999999999E-003   -2.277323210542931E-027
 -5.199999999999999E-003   -2.190334596991399E-027
 -5.099999999999999E-003   -1.877027980105890E-027
 -4.999999999999999E-003   -1.301086032987416E-027
 -4.899999999999999E-003   -4.399350436605928E-028
 -4.799999999999999E-003    7.093448511621139E-028
 -4.699999999999999E-003    2.124268351233310E-027
 -4.599999999999999E-003    3.751925721000747E-027
 -4.499999999999999E-003    5.505347341660405E-027
 -4.399999999999999E-003    7.261966146338474E-027
 -4.299999999999999E-003    8.864881226979506E-027
 -4.199999999999999E-003    1.012757030998926E-026
 -4.099999999999999E-003    1.084255843750484E-026
 -3.999999999999999E-003    1.079432083930096E-026
 -3.899999999999999E-003    9.776394101160389E-027
 -3.799999999999999E-003    7.612284563723632E-027
 -3.699999999999999E-003    4.179303622760290E-027
 -3.599999999999999E-003   -5.660280130253547E-028
 -3.499999999999999E-003   -6.562866515213902E-027
 -3.399999999999999E-003   -1.362354531995801E-026
 -3.299999999999999E-003   -2.141638684982076E-026
 -3.199999999999999E-003   -2.945675714071746E-026
 -3.099999999999999E-003   -3.710929654992248E-026
 -2.999999999999999E-003   -4.360407007560193E-026
 -2.899999999999999E-003   -4.806879167423522E-026
 -2.799999999999999E-003   -4.957845177670493E-026
 -2.699999999999999E-003   -4.722242727098491E-026
 -2.599999999999999E-003   -4.018765623951934E-026
 -2.499999999999999E-003   -2.785465966640752E-026
 -2.399999999999999E-003   -9.901241353033607E-027
 -2.299999999999999E-003    1.359325887163418E-026
 -2.199999999999999E-003    4.205220700080309E-026
 -2.099999999999999E-003    7.432482202284057E-026
 -1.999999999999999E-003    1.086397644243438E-025
 -1.899999999999999E-003    1.426008160284702E-025
 -1.799999999999999E-003    1.732353133120093E-025
 -1.699999999999999E-003    1.971045148446341E-025
 -1.599999999999999E-003    2.104813503732545E-025
 -1.499999999999999E-003    2.095968333058107E-025
 -1.399999999999999E-003    1.909507351185009E-025
 -1.299999999999999E-003    1.516754537295875E-025
 -1.199999999999999E-003    8.993457355257628E-026
 -1.099999999999999E-003    5.330594249123005E-027
 -9.999999999999989E-004   -1.007111227602529E-025
 -8.999999999999990E-004   -2.246203551479209E-025
 -7.999999999999990E-004   -3.604644175419491E-025
 -6.999999999999989E-004   -4.998782503804648E-025
 -5.999999999999990E-004   -6.321824933449454E-025
 -4.999999999999989E-004   -7.447252300929156E-025
 -3.999999999999989E-004   -8.234689283139716E-025
 -2.999999999999989E-004   -8.538324875256784E-025
 -1.999999999999989E-004   -8.217749300536499E-025
 -9.999999999999892E-005   -7.150879174449840E-025
  1.084202172485504E-018   -5.248344899656069E-025
  1.000000000000011E-004   -2.468496413652434E-025
  2.000000000000011E-004    1.168099624486978E-025
  3.000000000000011E-004    5.565984740428845E-025
  4.000000000000011E-004    1.054543152061257E-024
  5.000000000000011E-004    1.583786661491968E-024
  6.000000000000011E-004    2.108759331909799E-024
  7.000000000000011E-004    2.586103610647767E-024
  8.000000000000011E-004    2.966445490283938E-024
  9.000000000000012E-004    3.197056885505859E-024
  1.000000000000001E-003    3.225383561658669E-024
  1.100000000000001E-003    3.003343926053394E-024
  1.200000000000001E-003    2.492217239927488E-024
  1.300000000000001E-003    1.667848612869870E-024
  1.400000000000001E-003    5.258170894306758E-025
  1.500000000000001E-003   -9.138610407315735E-025
  1.600000000000001E-003   -2.602978708435321E-024
  1.700000000000001E-003   -4.462838663220839E-024
  1.800000000000001E-003   -6.383914769454624E-024
  1.900000000000001E-003   -8.227917002056724E-024
  2.000000000000001E-003   -9.832606139281385E-024
  2.100000000000001E-003   -1.101956212525386E-023
  2.200000000000001E-003   -1.160489856835287E-023
  2.300000000000001E-003   -1.141269727635569E-023
  2.400000000000001E-003   -1.029065047678972E-023
  2.500000000000001E-003   -8.127123979862923E-024
  2.600000000000001E-003   -4.868579721309837E-024
  2.700000000000001E-003   -5.360299811029236E-025
  2.800000000000001E-003    4.760976038345043E-024
  2.900000000000001E-003    1.081446482034570E-023
  3.000000000000001E-003    1.731388356446499E-023
  3.100000000000001E-003    2.384918349530901E-023
  3.200000000000001E-003    2.992237305374786E-023
  3.300000000000001E-003    3.496837551678565E-023
  3.400000000000001E-003    3.838540733690993E-023
  3.500000000000001E-003    3.957441166612831E-023
  3.600000000000001E-003    3.798630515142388E-023
  3.700000000000001E-003    3.317479659950710E-023
  3.800000000000001E-003    2.485184185705746E-023
  3.900000000000001E-003    1.294182014406207E-023
  4.000000000000001E-003   -2.370022636324449E-024
  4.100000000000001E-003   -2.059982828748155E-023
  4.200000000000001E-003   -4.094317223660575E-023
  4.300000000000001E-003   -6.227363982007922E-023
  4.400000000000001E-003   -8.316613124222175E-023
  4.500000000000001E-003   -1.019478998239735E-022
  4.600000000000002E-003   -1.167786819827502E-022
  4.700000000000001E-003   -1.257593772423328E-022
  4.800000000000001E-003   -1.270662519663917E-022
  4.900000000000002E-003   -1.191051571552268E-022
  5.000000000000001E-003   -1.006776592228364E-022
  5.100000000000001E-003   -7.114842336363579E-023
  5.200000000000001E-003   -3.060116581518208E-023
  5.300000000000002E-003    2.003110701433148E-023
  5.400000000000001E-003    7.887640705419663E-023
  5.500000000000001E-003    1.430890592114595E-022
  5.600000000000002E-003    2.088830610564484E-022
  5.700000000000001E-003    2.716434685844480E-022
  5.800000000000001E-003    3.261215961734387E-022
  5.900000000000002E-003    3.667144500042885E-022
  6.000000000000001E-003    3.878225869718300E-022
  6.100000000000001E-003    3.842729383531097E-022
  6.200000000000002E-003    3.517862054534447E-022
  6.300000000000002E-003    2.874612283590063E-022
  6.400000000000001E-003    1.902423427130450E-022
  6.500000000000001E-003    6.133092316173714E-023
  6.600000000000002E-003   -9.549975177955135E-023
  6.700000000000001E-003   -2.737279931148227E-022
  6.800000000000001E-003   -4.640823032208908E-022
  6.900000000000002E-003   -6.547473581865906E-022
  7.000000000000001E-003   -8.317961625144093E-022
  7.100000000000001E-003   -9.798565181511937E-022
  7.200000000000002E-003   -1.083001713136196E-021
  7.300000000000002E-003   -1.125835014055108E-021
  7.400000000000001E-003   -1.094722817405064E-021
  7.500000000000001E-003   -9.791057157978411E-022
  7.600000000000002E-003   -7.728040840439283E-022
  7.700000000000001E-003   -4.752188854700108E-022
  7.800000000000001E-003   -9.232036801107052E-023
  7.900000000000001E-003    3.626851784043656E-022
  8.000000000000002E-003    8.691134057347424E-022
  8.100000000000001E-003    1.399072037735011E-021
  8.200000000000001E-003    1.918309207131159E-021
  8.300000000000002E-003    2.387668215439498E-021
  8.400000000000001E-003    2.765143107922817E-021
  8.500000000000002E-003    3.008476053111834E-021
  8.600000000000002E-003    3.078194906883487E-021
  8.700000000000001E-003    2.940932064419791E-021
  8.800000000000002E-003    2.572830106854256E-021
  8.900000000000002E-003    1.962792348989886E-021
  9.000000000000001E-003    1.115317388194093E-021
  9.100000000000002E-003    5.264208732563870E-023
  9.200000000000002E-003   -1.184070370586620E-021
  9.300000000000001E-003   -2.534732195567667E-021
  9.400000000000002E-003   -3.921707456430395E-021
  9.500000000000001E-003   -5.252669351209848E-021
  9.600000000000001E-003   -6.424963310692827E-021
  9.700000000000002E-003   -7.331372221777670E-021
  9.800000000000001E-003   -7.867094171967756E-021
  9.900000000000001E-003   -7.937591090165162E-021
  1.000000000000000E-002   -7.466876737388669E-021
  1.010000000000000E-002   -6.405706818385375E-021
  1.020000000000000E-002   -4.739066701568449E-021
  1.030000000000000E-002   -2.492310105858677E-021
  1.040000000000000E-002    2.646854902334984E-022
  1.050000000000000E-002    3.415944538375993E-021
  1.060000000000000E-002    6.800863305400045E-021
  1.070000000000000E-002    1.021907411632583E-020
  1.080000000000000E-002    1.343882908958116E-020
  1.090000000000000E-002    1.620879450790371E-020
  1.100000000000000E-002    1.827291154827602E-020
  1.110000000000000E-002    1.938766381892707E-020
  1.120000000000000E-002    1.934087273703627E-020
  1.130000000000000E-002    1.797089227888981E-020
  1.140000000000000E-002    1.518489730003437E-020
  1.150000000000000E-002    1.097483677472437E-020
  1.160000000000000E-002    5.429614071055470E-021
  1.170000000000000E-002   -1.257871307823636E-021
  1.180000000000000E-002   -8.789997738505847E-021
  1.190000000000000E-002   -1.677090363248863E-020
  1.200000000000000E-002   -2.472067678026662E-020
  1.210000000000000E-002   -3.209723910134001E-020
  1.220000000000000E-002   -3.832539060550082E-020
  1.230000000000000E-002   -4.283194774799718E-020
  1.240000000000000E-002   -4.508522715869440E-020
  1.250000000000000E-002   -4.463673802352044E-020
  1.260000000000000E-002   -4.116243739242789E-020
  1.270000000000000E-002   -3.450063257864488E-020
  1.280000000000000E-002   -2.468348848160670E-020
  1.290000000000000E-002   -1.195918622490210E-020
  1.300000000000000E-002    3.197920214522326E-021
  1.310000000000000E-002    2.009133011807705E-020
  1.320000000000000E-002    3.782199934931213E-020
  1.330000000000000E-002    5.532402492544267E-020
  1.340000000000000E-002    7.141590914960927E-020
  1.350000000000000E-002    8.486563708841060E-020
  1.360000000000000E-002    9.446686604866071E-020
  1.370000000000000E-002    9.912222489260425E-020
  1.380000000000000E-002    9.792890730552792E-020
  1.390000000000000E-002    9.026114514202845E-020
  1.400000000000000E-002    7.584349973402171E-020
  1.410000000000000E-002    5.480917940741600E-020
  1.420000000000000E-002    2.773777972402107E-020
  1.430000000000000E-002   -4.332338889940336E-021
  1.440000000000000E-002   -3.992049759885250E-020
  1.450000000000000E-002   -7.715097711350406E-020
  1.460000000000000E-002   -1.138313223604634E-019
  1.470000000000000E-002   -1.475596019710501E-019
  1.480000000000000E-002   -1.758566436204411E-019
  1.490000000000000E-002   -1.963172176724582E-019
  1.500000000000000E-002   -2.067720141258235E-019
  1.510000000000000E-002   -2.054512115129784E-019
  1.520000000000000E-002   -1.911390366402532E-019
  1.530000000000000E-002   -1.633085593363260E-019
  1.540000000000000E-002   -1.222260917056578E-019
  1.550000000000000E-002   -6.901572441007208E-020
  1.560000000000000E-002   -5.675996446654331E-021
  1.570000000000000E-002    6.495678855781305E-020
  1.580000000000000E-002    1.393011847065027E-019
  1.590000000000000E-002    2.131785428948500E-019
  1.600000000000000E-002    2.820121041544827E-019
  1.610000000000000E-002    3.410693443613175E-019
  1.620000000000000E-002    3.857365862765875E-019
  1.630000000000000E-002    4.118117215112140E-019
  1.640000000000000E-002    4.157990212300589E-019
  1.650000000000000E-002    3.951878307225929E-019
  1.660000000000000E-002    3.486975963250381E-019
  1.670000000000000E-002    2.764709621538898E-019
  1.680000000000000E-002    1.801996861001843E-019
  1.690000000000000E-002    6.316978031239434E-020
  1.700000000000000E-002   -6.978324844661455E-020
  1.710000000000000E-002   -2.124138670942716E-019
  1.720000000000000E-002   -3.573008101287547E-019
  1.730000000000000E-002   -4.961701457687001E-019
  1.740000000000000E-002   -6.202957662228484E-019
  1.750000000000000E-002   -7.209616388971063E-019
  1.760000000000000E-002   -7.899638797608009E-019
  1.770000000000000E-002   -8.201282927895871E-019
  1.780000000000000E-002   -8.058157000400240E-019
  1.790000000000000E-002   -7.433859490947839E-019
  1.800000000000000E-002   -6.315914015614526E-019
  1.810000000000000E-002   -4.718730794910284E-019
  1.820000000000000E-002   -2.685339702028353E-019
  1.830000000000000E-002   -2.877034670409903E-020
  1.840000000000000E-002    2.374530879877906E-019
  1.850000000000000E-002    5.176918196536526E-019
  1.860000000000000E-002    7.974726823987573E-019
  1.870000000000000E-002    1.060898090164076E-018