 -4.000000000000000E-002    0.000000000000000E+000
 -3.990000000000000E-002    0.000000000000000E+000
 -3.980000000000000E-002    0.000000000000000E+000
 -3.970000000000000E-002    0.000000000000000E+000
 -3.960000000000000E-002    0.000000000000000E+000
 -3.950000000000000E-002    0.000000000000000E+000
 -3.940000000000000E-002    0.000000000000000E+000
 -3.930000000000000E-002    0.000000000000000E+000
 -3.920000000000000E-002    0.000000000000000E+000
 -3.910000000000000E-002    0.000000000000000E+000
 -3.900000000000000E-002    0.000000000000000E+000
 -3.890000000000000E-002    3.426954699540087E-037
 -3.880000000000000E-002    7.046543076837985E-036
 -3.870000000000000E-002    7.462886463380209E-035
 -3.860000000000000E-002    5.413506776284861E-034
 -3.850000000000000E-002    3.017141568395346E-033
 -3.840000000000000E-002    1.373692108259287E-032
 -3.830000000000000E-002    5.302169990829788E-032
 -3.820000000000000E-002    1.776238154812156E-031
 -3.810000000000000E-002    5.239860360651710E-031
 -3.800000000000000E-002    1.370706130166655E-030
 -3.790000000000000E-002    3.175311712512244E-030
 -3.780000000000000E-002    6.419341899773523E-030
 -3.770000000000000E-002    1.082270349626070E-029
 -3.760000000000000E-002    1.296118311814674E-029
 -3.750000000000000E-002    4.328105734409141E-031
 -3.740000000000000E-002   -6.058015875312873E-029
 -3.730000000000000E-002   -2.490898663308210E-028
 -3.720000000000000E-002   -7.305418139083602E-028
 -3.710000000000000E-002   -1.821746269930696E-027
 -3.700000000000000E-002   -4.082699900189586E-027
 -3.690000000000000E-002   -8.429535905508802E-027
 -3.680000000000000E-002   -1.624452101936733E-026
 -3.670000000000000E-002   -2.942791355857473E-026
 -3.660000000000000E-002   -5.029076274841581E-026
 -3.650000000000000E-002   -8.112937800579615E-026
 -3.640000000000000E-002   -1.232602472615438E-025
 -3.630000000000000E-002   -1.752478972116997E-025
 -3.620000000000000E-002   -2.300596878045208E-025
 -3.610000000000000E-002   -2.709769160816363E-025
 -3.600000000000000E-002   -2.663346343407510E-025
 -3.590000000000000E-002   -1.636091326188380E-025
 -3.580000000000000E-002    1.159444561411736E-025
 -3.570000000000000E-002    6.799893934097049E-025
 -3.560000000000000E-002    1.661969749773519E-024
 -3.550000000000000E-002    3.207967530463611E-024
 -3.540000000000000E-002    5.448755446006775E-024
 -3.530000000000000E-002    8.452463014057013E-024
 -3.520000000000000E-002    1.215485070747498E-023
 -3.510000000000000E-002    1.626772917291489E-023
 -3.500000000000000E-002    2.017191825432740E-023
 -3.490000000000000E-002    2.280940626711694E-023
 -3.480000000000000E-002    2.259952822020969E-023
 -3.470000000000000E-002    1.741462615468749E-023
 -3.460000000000000E-002    4.659543228875302E-024
 -3.450000000000000E-002   -1.849691316272128E-023
 -3.440000000000000E-002   -5.469562292889517E-023
 -3.430000000000000E-002   -1.057415305085590E-022
 -3.420000000000000E-002   -1.717491646231150E-022
 -3.410000000000000E-002   -2.501420012307478E-022
 -3.400000000000000E-002   -3.346364155615508E-022
 -3.390000000000000E-002   -4.144154899488165E-022
 -3.380000000000000E-002   -4.737683675382311E-022
 -3.370000000000000E-002   -4.925145406788705E-022
 -3.360000000000000E-002   -4.475290114463874E-022
 -3.350000000000000E-002   -3.156050339401738E-022
 -3.340000000000000E-002   -7.771861257929879E-023
 -3.330000000000000E-002    2.755230123894401E-022
 -3.320000000000000E-002    7.378419126681082E-022
 -3.310000000000000E-002    1.281696238256680E-021
 -3.300000000000000E-002    1.854604560964390E-021
 -3.290000000000000E-002    2.379196680971472E-021
 -3.280000000000000E-002    2.758897857540524E-021
 -3.270000000000000E-002    2.890888929386164E-021
 -3.260000000000000E-002    2.687203967604720E-021
 -3.250000000000000E-002    2.103464753920758E-021
 -3.240000000000000E-002    1.172798728976366E-021
 -3.230000000000000E-002    4.003493925370639E-023
 -3.220000000000000E-002   -1.011345510295053E-021
 -3.210000000000000E-002   -1.549426095432270E-021
 -3.200000000000000E-002   -1.012711323782996E-021
 -3.190000000000000E-002    1.230960996937096E-021
 -3.180000000000000E-002    5.776324690530250E-021
 -3.170000000000000E-002    1.301960247186455E-020
 -3.160000000000000E-002    2.294906235274619E-020
 -3.150000000000000E-002    3.490355230513221E-020
 -3.140000000000000E-002    4.732934428679845E-020
 -3.130000000000000E-002    5.758042188239432E-020
 -3.120000000000000E-002    6.182059931685348E-020
 -3.110000000000000E-002    5.509481156431913E-020
 -3.100000000000000E-002    3.163762470548411E-020
 -3.090000000000000E-002   -1.452358973537937E-020
 -3.080000000000000E-002   -8.863791686895675E-020
 -3.070000000000000E-002   -1.939804440737463E-019
 -3.060000000000000E-002   -3.303451326105318E-019
 -3.050000000000000E-002   -4.924118821049243E-019
 -3.040000000000000E-002   -6.681912935690652E-019
 -3.030000000000000E-002   -8.378186050553623E-019
 -3.020000000000000E-002   -9.730219775783763E-019
 -3.010000000000000E-002   -1.037610559625949E-018
 -3.000000000000000E-002   -9.893062583581730E-019
 -2.990000000000000E-002   -7.831639158733400E-019
 -2.980000000000000E-002   -3.766842875360381E-019
 -2.970000000000000E-002    2.634807402765533E-019
 -2.960000000000000E-002    1.153586463077680E-018
 -2.950000000000000E-002    2.284263495602895E-018
 -2.940000000000000E-002    3.612331715126451E-018
 -2.930000000000000E-002    5.054142706170381E-018
 -2.920000000000000E-002    6.481805803011159E-018
 -2.910000000000000E-002    7.723675905863903E-018
 -2.900000000000000E-002    8.570339754485446E-018
 -2.890000000000000E-002    8.787001131279015E-018
 -2.880000000000000E-002    8.132598616861818E-018
 -2.870000000000000E-002    6.385260524987273E-018
 -2.860000000000000E-002    3.372814676158958E-018
 -2.850000000000000E-002   -9.938640809411818E-019
 -2.840000000000000E-002   -6.687771562581775E-018
 -2.830000000000000E-002   -1.353676798663767E-017
 -2.820000000000000E-002   -2.120287187226455E-017
 -2.810000000000000E-002   -2.917405017111028E-017
 -2.800000000000000E-002   -3.677220953853856E-017
 -2.790000000000000E-002   -4.318000920374283E-017
 -2.780000000000000E-002   -4.748758791301643E-017
 -2.770000000000000E-002   -4.875833160206584E-017
 -2.760000000000000E-002   -4.611054234781170E-017
 -2.750000000000000E-002   -3.880977506255798E-017
 -2.740000000000000E-002   -2.636457148848355E-017
 -2.730000000000000E-002   -8.616949578137920E-018
 -2.720000000000000E-002    1.418163837440589E-017
 -2.710000000000000E-002    4.131781122574943E-017
 -2.700000000000000E-002    7.159492538962780E-017
 -2.690000000000000E-002    1.033480761528363E-016
 -2.680000000000000E-002    1.344979621523042E-016
 -2.670000000000000E-002    1.626421921187581E-016
 -2.660000000000000E-002    1.851794393297556E-016
 -2.650000000000000E-002    1.994587555625497E-016
 -2.640000000000000E-002    2.029442258227700E-016
 -2.630000000000000E-002    1.933841118692790E-016
 -2.620000000000000E-002    1.689743909966617E-016
 -2.610000000000000E-002    1.285082702175056E-016
 -2.600000000000000E-002    7.150628029428526E-017
 -2.590000000000000E-002   -1.674957086890960E-018
 -2.580000000000000E-002   -8.975437268343352E-017
 -2.570000000000000E-002   -1.904548202228592E-016
 -2.560000000000000E-002   -3.004447622253170E-016
 -2.550000000000000E-002   -4.152914810090592E-016
 -2.540000000000000E-002   -5.294292018760788E-016
 -2.530000000000000E-002   -6.361515191143178E-016
 -2.520000000000000E-002   -7.276477241118497E-016
 -2.510000000000000E-002   -7.951092965781652E-016
 -2.500000000000000E-002   -8.289412846170159E-016
 -2.490000000000000E-002   -8.191161049621174E-016
 -2.480000000000000E-002   -7.557040271420104E-016
 -2.470000000000000E-002   -6.296051983422731E-016
 -2.460000000000000E-002   -4.334891237568092E-016
 -2.450000000000000E-002   -1.629195881720307E-016
 -2.440000000000000E-002    1.823901697998313E-016
 -2.430000000000000E-002    5.972853691426498E-016
 -2.420000000000000E-002    1.069972975004482E-015
 -2.410000000000000E-002    1.581084225718760E-015
 -2.400000000000000E-002    2.103179082775802E-015
 -2.390000000000000E-002    2.600880533296265E-015
 -2.380000000000000E-002    3.031806236007864E-015
 -2.370000000000000E-002    3.348418219663164E-015
 -2.360000000000000E-002    3.500839717115906E-015
 -2.350000000000000E-002    3.440597645939177E-015
 -2.340000000000000E-002    3.125131041819901E-015
 -2.330000000000000E-002    2.522791102621321E-015
 -2.320000000000000E-002    1.617947276051038E-015
 -2.310000000000000E-002    4.157142811777484E-016
 -2.300000000000000E-002   -1.054236419783000E-015
 -2.290000000000000E-002   -2.735330385308151E-015
 -2.280000000000000E-002   -4.543711927124373E-015
 -2.270000000000000E-002   -6.370222098608984E-015
 -2.260000000000000E-002   -8.084959995974871E-015
 -2.250000000000000E-002   -9.544413375583114E-015
 -2.240000000000000E-002   -1.060091595070658E-014
 -2.230000000000000E-002   -1.111389295674190E-014
 -2.220000000000000E-002   -1.096211669729675E-014
 -2.210000000000000E-002   -1.005601282720212E-014
 -2.200000000000000E-002   -8.348876567888367E-015
 -2.190000000000000E-002   -5.845886991824783E-015
 -2.180000000000000E-002   -2.609855455273742E-015
 -2.170000000000000E-002    1.237138483510439E-015
 -2.160000000000000E-002    5.516759500675391E-015
 -2.150000000000000E-002    1.000221025687695E-014
 -2.140000000000000E-002    1.443049179890932E-014
 -2.130000000000000E-002    1.851836826768349E-014
 -2.120000000000000E-002    2.198084473357343E-014
 -2.110000000000000E-002    2.455067687871077E-014
 -2.100000000000000E-002    2.599723275273769E-014
 -2.090000000000000E-002    2.614306178821102E-014
 -2.080000000000000E-002    2.487666543765366E-014
 -2.070000000000000E-002    2.216037356941341E-014
 -2.060000000000000E-002    1.803270325673701E-014
 -2.050000000000000E-002    1.260521069844460E-014
 -2.040000000000000E-002    6.054451878778733E-015
 -2.030000000000000E-002   -1.389732176207298E-015
 -2.020000000000000E-002   -9.457961459553095E-015
 -2.010000000000000E-002   -1.785523426644546E-014
 -2.000000000000000E-002   -2.627313686209164E-014
 -1.990000000000000E-002   -3.439884839172595E-014
 -1.980000000000000E-002   -4.191991568406442E-014
 -1.970000000000000E-002   -4.852469694836128E-014
 -1.960000000000000E-002   -5.389912385253998E-014
 -1.950000000000000E-002   -5.772157995769321E-014
 -1.940000000000000E-002   -5.965821497662752E-014
 -1.930000000000000E-002   -5.936179969302768E-014
 -1.920000000000000E-002   -5.647717939816748E-014
 -1.910000000000000E-002   -5.065614392393787E-014
 -1.900000000000000E-002   -4.158360494762115E-014
 -1.890000000000000E-002   -2.901563596967864E-014
 -1.880000000000000E-002   -1.282824550983527E-014
 -1.870000000000000E-002    6.926370373137322E-015
 -1.860000000000000E-002    2.996119220880776E-014
 -1.850000000000000E-002    5.570020090504395E-014
 -1.840000000000000E-002    8.323682885036199E-014
 -1.830000000000000E-002    1.113134457482855E-013
 -1.820000000000000E-002    1.383300128571200E-013
 -1.810000000000000E-002    1.623881530724624E-013
 -1.800000000000000E-002    1.813744089565158E-013
 -1.790000000000000E-002    1.930829175700553E-013
 -1.780000000000000E-002    1.953732686343983E-013
 -1.770000000000000E-002    1.863553237854002E-013
 -1.760000000000000E-002    1.645877726143542E-013
 -1.750000000000000E-002    1.292742495421430E-013
 -1.740000000000000E-002    8.043819440959750E-014
 -1.730000000000000E-002    1.905695156938892E-014
 -1.720000000000000E-002   -5.286304074077467E-014
 -1.710000000000000E-002   -1.322852380613780E-013
 -1.700000000000000E-002   -2.152256079888565E-013
 -1.690000000000000E-002   -2.969223346918581E-013
 -1.680000000000000E-002   -3.720869438131977E-013
 -1.670000000000000E-002   -4.352251689938994E-013
 -1.660000000000000E-002   -4.810055426134953E-013
 -1.650000000000000E-002   -5.046490715314624E-013
 -1.640000000000000E-002   -5.023095319156915E-013
 -1.630000000000000E-002   -4.714110199214230E-013
 -1.620000000000000E-002   -4.109129031121487E-013
 -1.610000000000000E-002   -3.214762548822049E-013
 -1.600000000000000E-002   -2.055144770033308E-013
 -1.590000000000000E-002   -6.712069709808198E-014
 -1.580000000000000E-002    8.812428912948279E-014
 -1.570000000000000E-002    2.534474203266342E-013
 -1.560000000000000E-002    4.212572122156455E-013
 -1.550000000000000E-002    5.835625952326026E-013
 -1.540000000000000E-002    7.323987413007759E-013
 -1.530000000000000E-002    8.602237989416982E-013
 -1.520000000000000E-002    9.602537480085932E-013
 -1.510000000000000E-002    1.026710590612738E-012
 -1.500000000000000E-002    1.054973980754692E-012
 -1.490000000000000E-002    1.041636385525284E-012
 -1.480000000000000E-002    9.844792834867806E-013
 -1.470000000000000E-002    8.823989878681038E-013
 -1.460000000000000E-002    7.353178354221280E-013
 -1.450000000000000E-002    5.441233003864804E-013
 -1.440000000000000E-002    3.106717378348045E-013
 -1.430000000000000E-002    3.788617211038707E-014
 -1.420000000000000E-002   -2.700383157217624E-013
 -1.410000000000000E-002   -6.073282258193248E-013
 -1.400000000000000E-002   -9.662544075821737E-013
 -1.390000000000000E-002   -1.336733885723977E-012
 -1.380000000000000E-002   -1.705983107296522E-012
 -1.370000000000000E-002   -2.058306085792883E-012
 -1.360000000000000E-002   -2.375107420475209E-012
 -1.350000000000000E-002   -2.635208269249426E-012
 -1.340000000000000E-002   -2.815528580755737E-012
 -1.330000000000000E-002   -2.892171918512868E-012
 -1.320000000000000E-002   -2.841899330627202E-012
 -1.310000000000000E-002   -2.643945841396015E-012
 -1.300000000000000E-002   -2.282075282373763E-012
 -1.290000000000000E-002   -1.746729672955500E-012
 -1.280000000000000E-002   -1.037095396531730E-012
 -1.270000000000000E-002   -1.628782904900596E-013
 -1.260000000000000E-002    8.544175077749206E-013
 -1.250000000000000E-002    1.980898143478594E-012
 -1.240000000000000E-002    3.170537098473808E-012
 -1.230000000000000E-002    4.366378767678000E-012
 -1.220000000000000E-002    5.502715663832055E-012
 -1.210000000000000E-002    6.508196200358508E-012
 -1.200000000000000E-002    7.309715564707340E-012
 -1.190000000000000E-002    7.836883605711213E-012
 -1.180000000000000E-002    8.026782888805372E-012
 -1.170000000000000E-002    7.828683149077181E-012
 -1.160000000000000E-002    7.208374414193499E-012
 -1.150000000000000E-002    6.151766927402791E-012
 -1.140000000000000E-002    4.667464419600308E-012
 -1.130000000000000E-002    2.788074152360094E-012
 -1.120000000000000E-002    5.701095386802308E-013
 -1.110000000000000E-002   -1.907557493689173E-012
 -1.100000000000000E-002   -4.546621261951955E-012
 -1.090000000000000E-002   -7.233483196584456E-012
 -1.080000000000000E-002   -9.844346360984836E-012
 -1.070000000000000E-002   -1.225092619928876E-011
 -1.060000000000000E-002   -1.432645979609980E-011
 -1.050000000000000E-002   -1.595161545179194E-011
 -1.040000000000000E-002   -1.702000835076003E-011
 -1.030000000000000E-002   -1.744303838537816E-011
 -1.020000000000000E-002   -1.715388508596773E-011
 -1.010000000000000E-002   -1.611054363255033E-011
 -1.000000000000000E-002   -1.429790527547670E-011
 -9.899999999999999E-003   -1.172895133589434E-011
 -9.800000000000000E-003   -8.445167112340372E-012
 -9.699999999999999E-003   -4.516317565212932E-012
 -9.599999999999999E-003   -3.973600271022749E-014
 -9.500000000000000E-003    4.860842387556236E-012
 -9.399999999999999E-003    1.003683299464241E-011
 -9.299999999999999E-003    1.531683659902930E-011
 -9.200000000000000E-003    2.050929802649415E-011
 -9.099999999999999E-003    2.540600027965682E-011
 -8.999999999999999E-003    2.978667666691304E-011
 -8.900000000000000E-003    3.342494011730860E-011
 -8.799999999999999E-003    3.609576009485588E-011
 -8.699999999999999E-003    3.758455398108803E-011
 -8.600000000000000E-003    3.769780235625616E-011
 -8.499999999999999E-003    3.627490397660837E-011
 -8.399999999999999E-003    3.320075745577794E-011
 -8.300000000000000E-003    2.841832733275017E-011
 -8.199999999999999E-003    2.194030381044322E-011
 -8.100000000000000E-003    1.385876684147709E-011
 -8.000000000000000E-003    4.351771755947794E-012
 -7.899999999999999E-003   -6.314222402057460E-012
 -7.800000000000000E-003   -1.778687952882001E-011
 -7.699999999999999E-003   -2.963624674585261E-011
 -7.599999999999999E-003   -4.136883008305545E-011
 -7.499999999999999E-003   -5.244736404919201E-011
 -7.399999999999999E-003   -6.231551421992564E-011
 -7.299999999999999E-003   -7.042647800784894E-011
 -7.199999999999999E-003   -7.627367341874339E-011
 -7.100000000000000E-003   -7.942168618541766E-011
 -6.999999999999999E-003   -7.953530520822880E-011
 -6.899999999999999E-003   -7.640442765196224E-011
 -6.800000000000000E-003   -6.996279212601667E-011
 -6.699999999999999E-003   -6.029882431582736E-011
 -6.599999999999999E-003   -4.765740506997432E-011
 -6.499999999999999E-003   -3.243203059292075E-011
 -6.399999999999999E-003   -1.514738185151093E-011
 -6.299999999999999E-003    3.566642416446090E-012
 -6.199999999999999E-003    2.300792931064672E-011
 -6.100000000000000E-003    4.243990369548322E-011
 -5.999999999999999E-003    6.113153171531759E-011
 -5.899999999999999E-003    7.839652468316377E-011
 -5.800000000000000E-003    9.362904429266210E-011
 -5.699999999999999E-003    1.063331670480704E-010
 -5.599999999999999E-003    1.161441153147274E-010
 -5.499999999999999E-003    1.228395562470921E-010
 -5.399999999999999E-003    1.263404165235327E-010
 -5.299999999999999E-003    1.267012181422914E-010
 -5.199999999999999E-003    1.240908928132726E-010
 -5.099999999999999E-003    1.187657374976354E-010
 -4.999999999999999E-003    1.110367391819768E-010
 -4.899999999999999E-003    1.012339053066184E-010
 -4.799999999999999E-003    8.967048262212902E-011
 -4.699999999999999E-003    7.660958511337906E-011
 -4.599999999999999E-003    6.223607447141802E-011
 -4.499999999999999E-003    4.663561737761849E-011
 -4.399999999999999E-003    2.978242504652222E-011
 -4.299999999999999E-003    1.153688490174231E-011
 -4.199999999999999E-003   -8.346583105243560E-012
 -4.099999999999999E-003   -3.020145901383758E-011
 -3.999999999999999E-003   -5.442137159558267E-011
 -3.899999999999999E-003   -8.142343524844012E-011
 -3.799999999999999E-003   -1.116036946089123E-010
 -3.699999999999999E-003   -1.452858693929314E-010
 -3.599999999999999E-003   -1.826648185308657E-010
 -3.499999999999999E-003   -2.237461169080411E-010
 -3.399999999999999E-003   -2.682836092267735E-010
 -3.299999999999999E-003   -3.157169747162417E-010
 -3.199999999999999E-003   -3.651118992190034E-010
 -3.099999999999999E-003   -4.151064774682366E-010
 -2.999999999999999E-003   -4.638671599261181E-010
 -2.899999999999999E-003   -5.090595673202190E-010
 -2.799999999999999E-003   -5.478389293038042E-010
 -2.699999999999999E-003   -5.768662337620677E-010
 -2.599999999999999E-003   -5.923559983648155E-010
 -2.499999999999999E-003   -5.901602220232940E-010
 -2.399999999999999E-003   -5.658939448553109E-010
 -2.299999999999999E-003   -5.151045086165475E-010
 -2.199999999999999E-003   -4.334856151989943E-010
 -2.099999999999999E-003   -3.171334590145564E-010
 -1.999999999999999E-003   -1.628399872450525E-010
 -1.899999999999999E-003    3.158583878368038E-011
 -1.799999999999999E-003    2.669814979262402E-010
 -1.699999999999999E-003    5.424948406962054E-010
 -1.599999999999999E-003    8.552671354341315E-010
 -1.499999999999999E-003    1.200156557745844E-009
 -1.399999999999999E-003    1.569523355055270E-009
 -1.299999999999999E-003    1.953099541896096E-009
 -1.199999999999999E-003    2.337962699005990E-009
 -1.099999999999999E-003    2.708632284542681E-009
 -9.999999999999989E-004    3.047301291717886E-009
 -8.999999999999990E-004    3.334212668901607E-009
 -7.999999999999990E-004    3.548182547240299E-009
 -6.999999999999989E-004    3.667265878428741E-009
 -5.999999999999990E-004    3.669553982459330E-009
 -4.999999999999989E-004    3.534085448893296E-009
 -3.999999999999989E-004    3.241846318101532E-009
 -2.999999999999989E-004    2.776829276936108E-009
 -1.999999999999989E-004    2.127116652210113E-009
 -9.999999999999892E-005    1.285950016800832E-009
  1.084202172485504E-018    2.527423240287081E-010
  1.000000000000011E-004   -9.660066925168895E-010
  2.000000000000011E-004   -2.355935397707116E-009
  3.000000000000011E-004   -3.894226327659304E-009
  4.000000000000011E-004   -5.549232253913673E-009
  5.000000000000011E-004   -7.280358335633013E-009
  6.000000000000011E-004   -9.038229332508160E-009
  7.000000000000011E-004   -1.076517448536549E-008
  8.000000000000011E-004   -1.239604171731365E-008
  9.000000000000012E-004   -1.385936516564727E-008
  1.000000000000001E-003   -1.507888704080704E-008
  1.100000000000001E-003   -1.597543626505159E-008
  1.200000000000001E-003   -1.646915285363703E-008
  1.300000000000001E-003   -1.648203716386056E-008
  1.400000000000001E-003   -1.594079825328795E-008
  1.500000000000001E-003   -1.477995731538059E-008
  1.600000000000001E-003   -1.294515037181181E-008
  1.700000000000001E-003   -1.039657426336893E-008
  1.800000000000001E-003   -7.112486244921639E-009
  1.900000000000001E-003   -3.092687379931170E-009
  2.000000000000001E-003    1.638118269593784E-009
  2.100000000000001E-003    7.027175918849493E-009
  2.200000000000001E-003    1.299087078095951E-008
  2.300000000000001E-003    1.941234147722219E-008
  2.400000000000001E-003    2.613961453873320E-008
  2.500000000000001E-003    3.298436989641411E-008
  2.600000000000001E-003    3.972142318788651E-008
  2.700000000000001E-003    4.608894787565204E-008
  2.800000000000001E-003    5.178952546937633E-008
  2.900000000000001E-003    5.649205110246781E-008
  3.000000000000001E-003    5.983440768606323E-008
  3.100000000000001E-003    6.142700202567267E-008
  3.200000000000001E-003    6.085702339402234E-008
  3.300000000000001E-003    5.769335256616110E-008
  3.400000000000001E-003    5.149197675091163E-008
  3.500000000000001E-003    4.180193656554808E-008
  3.600000000000001E-003    2.817137963449015E-008
  3.700000000000001E-003    1.015391804384305E-008
  3.800000000000001E-003   -1.268532487997817E-008
  3.900000000000001E-003   -4.076359679279016E-008
  4.000000000000001E-003   -7.447510389945744E-008
  4.100000000000001E-003   -1.141860913771242E-007
  4.200000000000001E-003   -1.602305617454762E-007
  4.300000000000001E-003   -2.129069315489033E-007
  4.400000000000001E-003   -2.724757813276720E-007
  4.500000000000001E-003   -3.391586273897699E-007
  4.600000000000002E-003   -4.131379300869939E-007
  4.700000000000001E-003   -4.945583439889744E-007
  4.800000000000001E-003   -5.835291438018678E-007
  4.900000000000002E-003   -6.801280777504800E-007
  5.000000000000001E-003   -7.844064093302298E-007
  5.100000000000001E-003   -8.963949237188703E-007
  5.200000000000001E-003   -1.016111417438274E-006
  5.300000000000002E-003   -1.143568783632644E-006
  5.400000000000001E-003   -1.278783763661579E-006
  5.500000000000001E-003   -1.421787103914691E-006
  5.600000000000002E-003   -1.572632853378886E-006
  5.700000000000001E-003   -1.731409337822862E-006
  5.800000000000001E-003   -1.898248487911480E-006
  5.900000000000002E-003   -2.073336625093338E-006
  6.000000000000001E-003   -2.256923015029919E-006
  6.100000000000001E-003   -2.449328880613596E-006
  6.200000000000002E-003   -2.650954803351542E-006
  6.300000000000002E-003   -2.862287414392619E-006
  6.400000000000001E-003   -3.083904691749558E-006
  6.500000000000001E-003   -3.316478748831985E-006
  6.600000000000002E-003   -3.560779248887048E-006
  6.700000000000001E-003   -3.817673341505611E-006
  6.800000000000001E-003   -4.088125316003426E-006
  6.900000000000002E-003   -4.373193857045260E-006
  7.000000000000001E-003   -4.674029710900111E-006
  7.100000000000001E-003   -4.991870077510874E-006
  7.200000000000002E-003   -5.328034574316509E-006
  7.300000000000002E-003   -5.683919066082791E-006
  7.400000000000001E-003   -6.060988632148973E-006
  7.500000000000001E-003   -6.460773141932573E-006
  7.600000000000002E-003   -6.884861173724453E-006
  7.700000000000001E-003   -7.334894398616513E-006
  7.800000000000001E-003   -7.812564276524146E-006
  7.900000000000001E-003   -8.319608880995998E-006
  8.000000000000002E-003   -8.857811100909615E-006
  8.100000000000001E-003   -9.428998174441172E-006
  8.200000000000001E-003   -1.003504412048824E-005
  8.300000000000002E-003   -1.067787083114929E-005
  8.400000000000001E-003   -1.135945562145428E-005
  8.500000000000002E-003   -1.208183493353502E-005
  8.600000000000002E-003   -1.284711275067357E-005
  8.700000000000001E-003   -1.365746940158236E-005
  8.800000000000002E-003   -1.451517404322143E-005
  8.900000000000002E-003   -1.542259211542122E-005
  9.000000000000001E-003   -1.638219938313691E-005
  9.100000000000002E-003   -1.739659613101678E-005
  9.200000000000002E-003   -1.846851707514075E-005
  9.300000000000001E-003   -1.960084489496572E-005
  9.400000000000002E-003   -2.079662302365138E-005
  9.500000000000001E-003   -2.205906819699609E-005
  9.600000000000001E-003   -2.339158038479225E-005
  9.700000000000002E-003   -2.479775291989773E-005
  9.800000000000001E-003   -2.628138566416968E-005
  9.900000000000001E-003   -2.784648737180602E-005
  1.000000000000000E-002   -2.949728598362902E-005
  1.010000000000000E-002   -3.123823294450526E-005
  1.020000000000000E-002   -3.307401235684750E-005
  1.030000000000000E-002   -3.500953512299669E-005
  1.040000000000000E-002   -3.704995083711044E-005
  1.050000000000000E-002   -3.920064830667462E-005
  1.060000000000000E-002   -4.146725213298604E-005
  1.070000000000000E-002   -4.385562726927421E-005
  1.080000000000000E-002   -4.637188570613268E-005
  1.090000000000000E-002   -4.902238729231797E-005
  1.100000000000000E-002   -5.181373834796357E-005
  1.110000000000000E-002   -5.475280161178838E-005
  1.120000000000000E-002   -5.784670932864866E-005
  1.130000000000000E-002   -6.110285828346242E-005
  1.140000000000000E-002   -6.452893333327235E-005
  1.150000000000000E-002   -6.813292036035292E-005
  1.160000000000000E-002   -7.192310663599488E-005
  1.170000000000000E-002   -7.590811208646179E-005
  1.180000000000000E-002   -8.009690351476616E-005
  1.190000000000000E-002   -8.449881557327659E-005
  1.200000000000000E-002   -8.912357422790789E-005
  1.210000000000000E-002   -9.398131245334941E-005
  1.220000000000000E-002   -9.908259015329856E-005
  1.230000000000000E-002   -1.044384315742214E-004
  1.240000000000000E-002   -1.100603367748217E-004
  1.250000000000000E-002   -1.159603142475194E-004
  1.260000000000000E-002   -1.221508818097456E-004
  1.270000000000000E-002   -1.286450961204962E-004
  1.280000000000000E-002   -1.354565887440014E-004
  1.290000000000000E-002   -1.425995545787732E-004
  1.300000000000000E-002   -1.500887830396886E-004
  1.310000000000000E-002   -1.579396834634091E-004
  1.320000000000000E-002   -1.661682669514056E-004
  1.330000000000000E-002   -1.747911935465433E-004
  1.340000000000000E-002   -1.838257554735417E-004
  1.350000000000000E-002   -1.932899047744417E-004
  1.360000000000000E-002   -2.032022539521243E-004
  1.370000000000000E-002   -2.135820760170814E-004
  1.380000000000000E-002   -2.244493318271324E-004
  1.390000000000000E-002   -2.358246683354616E-004
  1.400000000000000E-002   -2.477294082837777E-004
  1.410000000000000E-002   -2.601856151703427E-004
  1.420000000000000E-002   -2.732160357403212E-004
  1.430000000000000E-002   -2.868441775886363E-004
  1.440000000000000E-002   -3.010942419050416E-004
  1.450000000000000E-002   -3.159912355155252E-004
  1.460000000000000E-002   -3.315609082148320E-004
  1.470000000000000E-002   -3.478298459659104E-004
  1.480000000000000E-002   -3.648254331291422E-004
  1.490000000000000E-002   -3.825758667825047E-004
  1.500000000000000E-002   -4.011103040881238E-004
  1.510000000000000E-002   -4.204587336754334E-004
  1.520000000000000E-002   -4.406521301589722E-004
  1.530000000000000E-002   -4.617224482964554E-004
  1.540000000000000E-002   -4.837026271373740E-004
  1.550000000000000E-002   -5.066266706118644E-004
  1.560000000000000E-002   -5.305296894673138E-004
  1.570000000000000E-002   -5.554478783989956E-004
  1.580000000000000E-002   -5.814186145537159E-004
  1.590000000000000E-002   -6.084804786181041E-004
  1.600000000000000E-002   -6.366732330260277E-004
  1.610000000000000E-002   -6.660379256114889E-004
  1.620000000000000E-002   -6.966168571710396E-004
  1.630000000000000E-002   -7.284535795151013E-004
  1.640000000000000E-002   -7.615929742588480E-004
  1.650000000000000E-002   -7.960812067664435E-004
  1.660000000000000E-002   -8.319657240035759E-004
  1.670000000000000E-002   -8.692953641115980E-004
  1.680000000000000E-002   -9.081201894473644E-004
  1.690000000000000E-002   -9.484916191930614E-004
  1.700000000000000E-002   -9.904623012748272E-004
  1.710000000000000E-002   -1.034086178254808E-003
  1.720000000000000E-002   -1.079418591823431E-003
  1.730000000000000E-002   -1.126516009536946E-003
  1.740000000000000E-002   -1.175436215091324E-003
  1.750000000000000E-002   -1.226238259075780E-003
  1.760000000000000E-002   -1.278982525473640E-003
  1.770000000000000E-002   -1.333730508132133E-003
  1.780000000000000E-002   -1.390545120597793E-003
  1.790000000000000E-002   -1.449490526595843E-003
  1.800000000000000E-002   -1.510632070927819E-003
  1.810000000000000E-002   -1.574036661970781E-003
  1.820000000000000E-002   -1.639772367214188E-003
  1.830000000000000E-002   -1.707908632736255E-003
  1.840000000000000E-002   -1.778516212167146E-003
  1.850000000000000E-002   -1.851667433945820E-003
  1.860000000000000E-002   -1.927435819729437E-003
  1.870000000000000E-002   -2.005896451541812E-003