 -4.000000000000000E-002    0.000000000000000E+000
 -3.990000000000000E-002    0.000000000000000E+000
 -3.980000000000000E-002    0.000000000000000E+000
 -3.970000000000000E-002    0.000000000000000E+000
 -3.960000000000000E-002    0.000000000000000E+000
 -3.950000000000000E-002    0.000000000000000E+000
 -3.940000000000000E-002    0.000000000000000E+000
 -3.930000000000000E-002    0.000000000000000E+000
 -3.920000000000000E-002    0.000000000000000E+000
 -3.910000000000000E-002    0.000000000000000E+000
 -3.900000000000000E-002    5.516118721557310E-035
 -3.890000000000000E-002    1.073654824300419E-033
 -3.880000000000000E-002    1.093183567246286E-032
 -3.870000000000000E-002    7.743226562278688E-032
 -3.860000000000000E-002    4.281610130514860E-031
 -3.850000000000000E-002    1.966593591251174E-030
 -3.840000000000000E-002    7.797257356299628E-030
 -3.830000000000000E-002    2.738550774756923E-029
 -3.820000000000000E-002    8.678148281897966E-029
 -3.810000000000000E-002    2.515002889698651E-028
 -3.800000000000000E-002    6.734368555279371E-028
 -3.790000000000000E-002    1.679230582902192E-027
 -3.780000000000000E-002    3.922888309647207E-027
 -3.770000000000000E-002    8.625610208108541E-027
 -3.760000000000000E-002    1.791197420110286E-026
 -3.750000000000000E-002    3.521028808742367E-026
 -3.740000000000000E-002    6.559797301607610E-026
 -3.730000000000000E-002    1.158208501793417E-025
 -3.720000000000000E-002    1.934850126320656E-025
 -3.710000000000000E-002    3.046168931717673E-025
 -3.700000000000000E-002    4.484529973196148E-025
 -3.690000000000000E-002    6.080539742619193E-025
 -3.680000000000000E-002    7.353123117780500E-025
 -3.670000000000000E-002    7.293929843812736E-025
 -3.660000000000000E-002    4.089358705052229E-025
 -3.650000000000000E-002   -5.192120031699167E-025
 -3.640000000000000E-002   -2.488124980122075E-024
 -3.630000000000000E-002   -6.083914567910719E-024
 -3.620000000000000E-002   -1.202568738030981E-023
 -3.610000000000000E-002   -2.108792847700741E-023
 -3.600000000000000E-002   -3.393645488657308E-023
 -3.590000000000000E-002   -5.084900495952716E-023
 -3.580000000000000E-002   -7.129921859670464E-023
 -3.570000000000000E-002   -9.340151188011735E-023
 -3.560000000000000E-002   -1.132471545331479E-022
 -3.550000000000000E-002   -1.242099528595251E-022
 -3.540000000000000E-002   -1.163611448579963E-022
 -3.530000000000000E-002   -7.620149335493716E-023
 -3.520000000000000E-002    1.301776194360795E-023
 -3.510000000000000E-002    1.700727892525252E-022
 -3.500000000000000E-002    4.133347193345159E-022
 -3.490000000000000E-002    7.568920043506295E-022
 -3.480000000000000E-002    1.205157907888570E-021
 -3.470000000000000E-002    1.746165071320274E-021
 -3.460000000000000E-002    2.344126200486895E-021
 -3.450000000000000E-002    2.932293490368485E-021
 -3.440000000000000E-002    3.407625641857384E-021
 -3.430000000000000E-002    3.629185232298928E-021
 -3.420000000000000E-002    3.422416070261902E-021
 -3.410000000000000E-002    2.591365107042990E-021
 -3.400000000000000E-002    9.403797609365984E-022
 -3.390000000000000E-002   -1.694276251246724E-021
 -3.380000000000000E-002   -5.404095098473762E-021
 -3.370000000000000E-002   -1.016267000216529E-020
 -3.360000000000000E-002   -1.578057806573333E-020
 -3.350000000000000E-002   -2.186907850659162E-020
 -3.340000000000000E-002   -2.782277066615293E-020
 -3.330000000000000E-002   -3.283210571683955E-020
 -3.320000000000000E-002   -3.593554480161687E-020
 -3.310000000000000E-002   -3.611777746084595E-020
 -3.300000000000000E-002   -3.245438112732617E-020
 -3.290000000000000E-002   -2.429460891853480E-020
 -3.280000000000000E-002   -1.146348763961889E-020
 -3.270000000000000E-002    5.547240488349419E-021
 -3.260000000000000E-002    2.544001217441492E-020
 -3.250000000000000E-002    4.607191798238020E-020
 -3.240000000000000E-002    6.456355211894340E-020
 -3.230000000000000E-002    7.759702309494458E-020
 -3.220000000000000E-002    8.192582894639562E-020
 -3.210000000000000E-002    7.508883047585057E-020
 -3.200000000000000E-002    5.628029230608102E-020
 -3.190000000000000E-002    2.727942771133854E-020
 -3.180000000000000E-002   -6.707542755572065E-021
 -3.170000000000000E-002   -3.648433490514549E-020
 -3.160000000000000E-002   -4.880068304640603E-020
 -3.150000000000000E-002   -2.701030955098073E-020
 -3.140000000000000E-002    4.735939212222924E-020
 -3.130000000000000E-002    1.920150031018504E-019
 -3.120000000000000E-002    4.202941077613072E-019
 -3.110000000000000E-002    7.367313525586227E-019
 -3.100000000000000E-002    1.132172482702521E-018
 -3.090000000000000E-002    1.579022648150791E-018
 -3.080000000000000E-002    2.027414617980127E-018
 -3.070000000000000E-002    2.403212051956814E-018
 -3.060000000000000E-002    2.608826593325628E-018
 -3.050000000000000E-002    2.527743958211270E-018
 -3.040000000000000E-002    2.033431948480869E-018
 -3.030000000000000E-002    1.002910433284954E-018
 -3.020000000000000E-002   -6.652922906476755E-019
 -3.010000000000000E-002   -3.029745197355390E-018
 -3.000000000000000E-002   -6.082991650588446E-018
 -2.990000000000000E-002   -9.729129872864233E-018
 -2.980000000000000E-002   -1.376516610704336E-017
 -2.970000000000000E-002   -1.786958004308665E-017
 -2.960000000000000E-002   -2.160162066758086E-017
 -2.950000000000000E-002   -2.441443164192628E-017
 -2.940000000000000E-002   -2.568429002219861E-017
 -2.930000000000000E-002   -2.475682963299621E-017
 -2.920000000000000E-002   -2.100936051661772E-017
 -2.910000000000000E-002   -1.392630119207571E-017
 -2.900000000000000E-002   -3.182495374484954E-018
 -2.890000000000000E-002    1.127284670173470E-017
 -2.880000000000000E-002    2.914051506981188E-017
 -2.870000000000000E-002    4.971387991189621E-017
 -2.860000000000000E-002    7.184957199571594E-017
 -2.850000000000000E-002    9.397505283173507E-017
 -2.840000000000000E-002    1.141395413541289E-016
 -2.830000000000000E-002    1.301113580737779E-016
 -2.820000000000000E-002    1.395203989681150E-016
 -2.810000000000000E-002    1.400396374712905E-016
 -2.800000000000000E-002    1.295945769974436E-016
 -2.790000000000000E-002    1.065851393036390E-016
 -2.780000000000000E-002    7.010140977517998E-017
 -2.770000000000000E-002    2.011255988184690E-017
 -2.760000000000000E-002   -4.239093786987753E-017
 -2.750000000000000E-002   -1.153197072318292E-016
 -2.740000000000000E-002   -1.954852135163945E-016
 -2.730000000000000E-002   -2.786836717802402E-016
 -2.720000000000000E-002   -3.598631856747245E-016
 -2.710000000000000E-002   -4.333651199602457E-016
 -2.700000000000000E-002   -4.932239540956740E-016
 -2.690000000000000E-002   -5.335037779390469E-016
 -2.680000000000000E-002   -5.486466893084959E-016
 -2.670000000000000E-002   -5.338081649974125E-016
 -2.660000000000000E-002   -4.851576731404535E-016
 -2.650000000000000E-002   -4.001289784612422E-016
 -2.640000000000000E-002   -2.776125158679003E-016
 -2.630000000000000E-002   -1.180921981952905E-016
 -2.620000000000000E-002    7.626264010171824E-017
 -2.610000000000000E-002    3.015328501627721E-016
 -2.600000000000000E-002    5.519928488565988E-016
 -2.590000000000000E-002    8.200435467841467E-016
 -2.580000000000000E-002    1.096126740894384E-015
 -2.570000000000000E-002    1.368624524911086E-015
 -2.560000000000000E-002    1.623766527888385E-015
 -2.550000000000000E-002    1.845588967428261E-015
 -2.540000000000000E-002    2.016007966951136E-015
 -2.530000000000000E-002    2.115085620482112E-015
 -2.520000000000000E-002    2.121573694083349E-015
 -2.510000000000000E-002    2.013814532120548E-015
 -2.500000000000000E-002    1.771061013739654E-015
 -2.490000000000000E-002    1.375239337115688E-015
 -2.480000000000000E-002    8.131295739832985E-016
 -2.470000000000000E-002    7.887425395718452E-017
 -2.460000000000000E-002   -8.233432658353955E-016
 -2.450000000000000E-002   -1.876682847796098E-015
 -2.440000000000000E-002   -3.049383360724267E-015
 -2.430000000000000E-002   -4.293191061667763E-015
 -2.420000000000000E-002   -5.542827472960118E-015
 -2.410000000000000E-002   -6.716828233396838E-015
 -2.400000000000000E-002   -7.720027867246207E-015
 -2.390000000000000E-002   -8.447847572330809E-015
 -2.380000000000000E-002   -8.792415340709899E-015
 -2.370000000000000E-002   -8.650346401320225E-015
 -2.360000000000000E-002   -7.931841928282739E-015
 -2.350000000000000E-002   -6.570542011915388E-015
 -2.340000000000000E-002   -4.533399996814207E-015
 -2.330000000000000E-002   -1.829700010538796E-015
 -2.320000000000000E-002    1.481733175920888E-015
 -2.310000000000000E-002    5.288088465069844E-015
 -2.300000000000000E-002    9.421747100613371E-015
 -2.290000000000000E-002    1.366373156244062E-014
 -2.280000000000000E-002    1.775182272895320E-014
 -2.270000000000000E-002    2.139336393868012E-014
 -2.260000000000000E-002    2.428230985429833E-014
 -2.250000000000000E-002    2.611974499485996E-014
 -2.240000000000000E-002    2.663656125902420E-014
 -2.230000000000000E-002    2.561672545857207E-014
 -2.220000000000000E-002    2.291930622243722E-014
 -2.210000000000000E-002    1.849728127068496E-014
 -2.200000000000000E-002    1.241130310330613E-014
 -2.190000000000000E-002    4.836775390047359E-015
 -2.180000000000000E-002   -3.936916736526581E-015
 -2.170000000000000E-002   -1.351567202182761E-014
 -2.160000000000000E-002   -2.341830360078893E-014
 -2.150000000000000E-002   -3.310176759239074E-014
 -2.140000000000000E-002   -4.199238714763840E-014
 -2.130000000000000E-002   -4.952102114610124E-014
 -2.120000000000000E-002   -5.515942864168663E-014
 -2.110000000000000E-002   -5.845507807434926E-014
 -2.100000000000000E-002   -5.906150729599633E-014
 -2.090000000000000E-002   -5.676177360919267E-014
 -2.080000000000000E-002   -5.148304711072522E-014
 -2.070000000000000E-002   -4.330125260002043E-014
 -2.060000000000000E-002   -3.243559116859121E-014
 -2.050000000000000E-002   -1.923385643265164E-014
 -2.040000000000000E-002   -4.150358834051918E-015
 -2.030000000000000E-002    1.228093816919000E-014
 -2.020000000000000E-002    2.947488310088350E-014
 -2.010000000000000E-002    4.682202819164677E-014
 -2.000000000000000E-002    6.371092721537907E-014
 -1.990000000000000E-002    7.954358337066999E-014
 -1.980000000000000E-002    9.374287212990121E-014
 -1.970000000000000E-002    1.057520928616126E-013
 -1.960000000000000E-002    1.150282713834240E-013
 -1.950000000000000E-002    1.210322220678117E-013
 -1.940000000000000E-002    1.232195654441904E-013
 -1.930000000000000E-002    1.210375470905719E-013
 -1.920000000000000E-002    1.139325805481670E-013
 -1.910000000000000E-002    1.013729712057175E-013
 -1.900000000000000E-002    8.288950301711429E-014
 -1.890000000000000E-002    5.813488102167775E-014
 -1.880000000000000E-002    2.696003953081920E-014
 -1.870000000000000E-002   -1.049728520257389E-014
 -1.860000000000000E-002   -5.371972580926947E-014
 -1.850000000000000E-002   -1.017233669963307E-013
 -1.840000000000000E-002   -1.529891636418182E-013
 -1.830000000000000E-002   -2.054254647878632E-013
 -1.820000000000000E-002   -2.563741124071849E-013
 -1.810000000000000E-002   -3.026704995901013E-013
 -1.800000000000000E-002   -3.407641783552778E-013
 -1.790000000000000E-002   -3.669013209272160E-013
 -1.780000000000000E-002   -3.773649830627747E-013
 -1.770000000000000E-002   -3.687617118215125E-013
 -1.760000000000000E-002   -3.383372693991146E-013
 -1.750000000000000E-002   -2.842977448038067E-013
 -1.740000000000000E-002   -2.061087102129474E-013
 -1.730000000000000E-002   -1.047425041810262E-013
 -1.720000000000000E-002    1.715542056345680E-014
 -1.710000000000000E-002    1.552073468094997E-013
 -1.700000000000000E-002    3.033698848324451E-013
 -1.690000000000000E-002    4.541381798870597E-013
 -1.680000000000000E-002    5.988858242430804E-013
 -1.670000000000000E-002    7.283288945479639E-013
 -1.660000000000000E-002    8.330890981421322E-013
 -1.650000000000000E-002    9.043194391223779E-013
 -1.640000000000000E-002    9.343483118448889E-013
 -1.630000000000000E-002    9.172914359202551E-013
 -1.620000000000000E-002    8.495810211305797E-013
 -1.610000000000000E-002    7.303639027021209E-013
 -1.600000000000000E-002    5.617296164243941E-013
 -1.590000000000000E-002    3.487420272485709E-013
 -1.580000000000000E-002    9.926432230037873E-014
 -1.570000000000000E-002   -1.764169450343443E-013
 -1.560000000000000E-002   -4.661404381579953E-013
 -1.550000000000000E-002   -7.565527406724521E-013
 -1.540000000000000E-002   -1.033866871106697E-012
 -1.530000000000000E-002   -1.284635558202550E-012
 -1.520000000000000E-002   -1.496472914521106E-012
 -1.510000000000000E-002   -1.658666365472132E-012
 -1.500000000000000E-002   -1.762628607990505E-012
 -1.490000000000000E-002   -1.802159936075828E-012
 -1.480000000000000E-002   -1.773512256090166E-012
 -1.470000000000000E-002   -1.675268919089960E-012
 -1.460000000000000E-002   -1.508077285052018E-012
 -1.450000000000000E-002   -1.274291647065841E-012
 -1.440000000000000E-002   -9.775962281643504E-013
 -1.430000000000000E-002   -6.226827463488585E-013
 -1.420000000000000E-002   -2.150528417926921E-013
 -1.410000000000000E-002    2.389992543735560E-013
 -1.400000000000000E-002    7.321939633219613E-013
 -1.390000000000000E-002    1.255865655339017E-012
 -1.380000000000000E-002    1.799389063597846E-012
 -1.370000000000000E-002    2.349507535874504E-012
 -1.360000000000000E-002    2.889670623889962E-012
 -1.350000000000000E-002    3.399506511370990E-012
 -1.340000000000000E-002    3.854575045125552E-012
 -1.330000000000000E-002    4.226534287597922E-012
 -1.320000000000000E-002    4.483832102074198E-012
 -1.310000000000000E-002    4.592997981385351E-012
 -1.300000000000000E-002    4.520552473855573E-012
 -1.290000000000000E-002    4.235486525382306E-012
 -1.280000000000000E-002    3.712185083628922E-012
 -1.270000000000000E-002    2.933609815559442E-012
 -1.260000000000000E-002    1.894477642062563E-012
 -1.250000000000000E-002    6.041486072359300E-013
 -1.240000000000000E-002   -9.111045815556102E-013
 -1.230000000000000E-002   -2.606752774174370E-012
 -1.220000000000000E-002   -4.419860645642876E-012
 -1.210000000000000E-002   -6.270333957338808E-012
 -1.200000000000000E-002   -8.063661535397355E-012
 -1.190000000000000E-002   -9.695129440908515E-012
 -1.180000000000000E-002   -1.105536470370481E-011
 -1.170000000000000E-002   -1.203691608757762E-011
 -1.160000000000000E-002   -1.254148136822377E-011
 -1.150000000000000E-002   -1.248727334307897E-011
 -1.140000000000000E-002   -1.181599038272702E-011
 -1.130000000000000E-002   -1.049881229964904E-011
 -1.120000000000000E-002   -8.540895193294853E-012
 -1.110000000000000E-002   -5.983934270055028E-012
 -1.100000000000000E-002   -2.906449203678471E-012
 -1.090000000000000E-002    5.783244749601888E-013
 -1.080000000000000E-002    4.326947925390246E-012
 -1.070000000000000E-002    8.172445944986624E-012
 -1.060000000000000E-002    1.193276803486501E-011
 -1.050000000000000E-002    1.542047274682703E-011
 -1.040000000000000E-002    1.845301793134837E-011
 -1.030000000000000E-002    2.086295769965183E-011
 -1.020000000000000E-002    2.250738033432747E-011
 -1.010000000000000E-002    2.327595950435910E-011
 -1.000000000000000E-002    2.309715143943590E-011
 -9.899999999999999E-003    2.194220273627376E-011
 -9.800000000000000E-003    1.982683325762408E-011
 -9.699999999999999E-003    1.681063124091255E-011
 -9.599999999999999E-003    1.299434193191782E-011
 -9.500000000000000E-003    8.515446266079905E-012
 -9.399999999999999E-003    3.542338532165297E-012
 -9.299999999999999E-003   -1.732318674279112E-012
 -9.200000000000000E-003   -7.098816475633998E-012
 -9.099999999999999E-003   -1.233778215375717E-011
 -8.999999999999999E-003   -1.722755508491973E-011
 -8.900000000000000E-003   -2.155154463426718E-011
 -8.799999999999999E-003   -2.510552904460169E-011
 -8.699999999999999E-003   -2.770518558523642E-011
 -8.600000000000000E-003   -2.919393528403380E-011
 -8.499999999999999E-003   -2.945129627898053E-011
 -8.399999999999999E-003   -2.840178319949223E-011
 -8.300000000000000E-003   -2.602415462849780E-011
 -8.199999999999999E-003   -2.236064131361679E-011
 -8.100000000000000E-003   -1.752547138561138E-011
 -8.000000000000000E-003   -1.171167024955733E-011
 -7.899999999999999E-003   -5.195050292170317E-012
 -7.800000000000000E-003    1.666000033384561E-012
 -7.699999999999999E-003    8.436290046626784E-012
 -7.599999999999999E-003    1.461617663790025E-011
 -7.499999999999999E-003    1.966156747641520E-011
 -7.399999999999999E-003    2.301175150745489E-011
 -7.299999999999999E-003    2.412496983768777E-011
 -7.199999999999999E-003    2.252036512429273E-011
 -7.100000000000000E-003    1.782483181756937E-011
 -6.999999999999999E-003    9.821783111779339E-012
 -6.899999999999999E-003   -1.501261232736137E-012
 -6.800000000000000E-003   -1.591037265058634E-011
 -6.699999999999999E-003   -3.289219381549897E-011
 -6.599999999999999E-003   -5.163450677006737E-011
 -6.499999999999999E-003   -7.102408215560872E-011
 -6.399999999999999E-003   -8.966506287651671E-011
 -6.299999999999999E-003   -1.059198221092760E-010
 -6.199999999999999E-003   -1.179733933637615E-010
 -6.100000000000000E-003   -1.239205094912650E-010
 -5.999999999999999E-003   -1.218731356842724E-010
 -5.899999999999999E-003   -1.100846949172914E-010
 -5.800000000000000E-003   -8.708547230455189E-011
 -5.699999999999999E-003   -5.182269241061031E-011
 -5.599999999999999E-003   -3.797580513624326E-012
 -5.499999999999999E-003    5.680854865946117E-011
 -5.399999999999999E-003    1.290278724036891E-010
 -5.299999999999999E-003    2.110269045372267E-010
 -5.199999999999999E-003    3.000623474998239E-010
 -5.099999999999999E-003    3.924777920878594E-010
 -4.999999999999999E-003    4.837461867916040E-010
 -4.899999999999999E-003    5.685611288936089E-010
 -4.799999999999999E-003    6.409779336880120E-010
 -4.699999999999999E-003    6.946040579461534E-010
 -4.599999999999999E-003    7.228353243786119E-010
 -4.499999999999999E-003    7.191338962696486E-010
 -4.399999999999999E-003    6.773403565312961E-010
 -4.299999999999999E-003    5.920122295519352E-010
 -4.199999999999999E-003    4.587780729134973E-010
 -4.099999999999999E-003    2.746953859960144E-010
 -3.999999999999999E-003    3.860001354878190E-011
 -3.899999999999999E-003   -2.485681195996114E-010
 -3.799999999999999E-003   -5.834769993814883E-010
 -3.699999999999999E-003   -9.601685359771970E-010
 -3.599999999999999E-003   -1.369893802492480E-009
 -3.499999999999999E-003   -1.801033432159630E-009
 -3.399999999999999E-003   -2.239117591055318E-009
 -3.299999999999999E-003   -2.666958351885720E-009
 -3.199999999999999E-003   -3.064905480530436E-009
 -3.099999999999999E-003   -3.411233698764348E-009
 -2.999999999999999E-003   -3.682664754741490E-009
 -2.899999999999999E-003   -3.855023456223758E-009
 -2.799999999999999E-003   -3.904022218361236E-009
 -2.699999999999999E-003   -3.806160368346548E-009
 -2.599999999999999E-003   -3.539722051143471E-009
 -2.499999999999999E-003   -3.085845502719058E-009
 -2.399999999999999E-003   -2.429633206202386E-009
 -2.299999999999999E-003   -1.561266890168326E-009
 -2.199999999999999E-003   -4.770866688151678E-010
 -2.099999999999999E-003    8.194125529023376E-010
 -1.999999999999999E-003    2.316714001711050E-009
 -1.899999999999999E-003    3.994586008984471E-009
 -1.799999999999999E-003    5.823611799848520E-009
 -1.699999999999999E-003    7.764979144128179E-009
 -1.599999999999999E-003    9.770574849797317E-009
 -1.499999999999999E-003    1.178340119439677E-008
 -1.399999999999999E-003    1.373834413756782E-008
 -1.299999999999999E-003    1.556329803173264E-008
 -1.199999999999999E-003    1.718065123398875E-008
 -1.099999999999999E-003    1.850911349745815E-008
 -9.999999999999989E-004    1.946586711360296E-008
 -8.999999999999990E-004    1.996900306512837E-008
 -7.999999999999990E-004    1.994020355228041E-008
 -6.999999999999989E-004    1.930760943075191E-008
 -5.999999999999990E-004    1.800881711929918E-008
 -4.999999999999989E-004    1.599393115388844E-008
 -3.999999999999989E-004    1.322860669536274E-008
 -2.999999999999989E-004    9.697006099714650E-009
 -1.999999999999989E-004    5.404584782268385E-009
 -9.999999999999892E-005    3.806481367203944E-010
  1.084202172485504E-018   -5.319403037760305E-009
  1.000000000000011E-004   -1.161220500741490E-008
  2.000000000000011E-004   -1.838500282296848E-008
  3.000000000000011E-004   -2.549468818149223E-008
  4.000000000000011E-004   -3.276740611080098E-008
  5.000000000000011E-004   -3.999869863850780E-008
  6.000000000000011E-004   -4.695424076941462E-008
  7.000000000000011E-004   -5.337116560527395E-008
  8.000000000000011E-004   -5.895999336050347E-008
  9.000000000000012E-004   -6.340709859562309E-008
  1.000000000000001E-003   -6.637771563875415E-008
  1.100000000000001E-003   -6.751943485576469E-008
  1.200000000000001E-003   -6.646607133881833E-008
  1.300000000000001E-003   -6.284187720613531E-008
  1.400000000000001E-003   -5.626595362392840E-008
  1.500000000000001E-003   -4.635676132215471E-008
  1.600000000000001E-003   -3.273673633149945E-008
  1.700000000000001E-003   -1.503657667535324E-008
  1.800000000000001E-003    7.100572849513382E-009
  1.900000000000001E-003    3.401535405718156E-008
  2.000000000000001E-003    6.602903801226168E-008
  2.100000000000001E-003    1.034408107867080E-007
  2.200000000000001E-003    1.465258939572094E-007
  2.300000000000001E-003    1.955344381934529E-007
  2.400000000000001E-003    2.506912366401140E-007
  2.500000000000001E-003    3.121962267856734E-007
  2.600000000000001E-003    3.802259913357493E-007
  2.700000000000001E-003    4.549360275453175E-007
  2.800000000000001E-003    5.364638443106028E-007
  2.900000000000001E-003    6.249327928801790E-007
  3.000000000000001E-003    7.204565925702997E-007
  3.100000000000001E-003    8.231442691922509E-007
  3.200000000000001E-003    9.331055470107031E-007
  3.300000000000001E-003    1.050456728451250E-006
  3.400000000000001E-003    1.175326366153445E-006
  3.500000000000001E-003    1.307861550396954E-006
  3.600000000000001E-003    1.448233492551396E-006
  3.700000000000001E-003    1.596643718084665E-006
  3.800000000000001E-003    1.753329343641186E-006
  3.900000000000001E-003    1.918568375210942E-006
  4.000000000000001E-003    2.092684396662196E-006
  4.100000000000001E-003    2.276051498974397E-006
  4.200000000000001E-003    2.469097761347441E-006
  4.300000000000001E-003    2.672308911436762E-006
  4.400000000000001E-003    2.886231883108957E-006
  4.500000000000001E-003    3.111476835627779E-006
  4.600000000000002E-003    3.348719518673109E-006
  4.700000000000001E-003    3.598703798807745E-006
  4.800000000000001E-003    3.862241069937085E-006
  4.900000000000002E-003    4.140213779506909E-006
  5.000000000000001E-003    4.433574035085003E-006
  5.100000000000001E-003    4.743345258917651E-006
  5.200000000000001E-003    5.070621950570043E-006
  5.300000000000002E-003    5.416569967779805E-006
  5.400000000000001E-003    5.782426228166121E-006
  5.500000000000001E-003    6.169499099982405E-006
  5.600000000000002E-003    6.579168944645781E-006
  5.700000000000001E-003    7.012888100526282E-006
  5.800000000000001E-003    7.472181291138283E-006
  5.900000000000002E-003    7.958647852270390E-006
  6.000000000000001E-003    8.473961926025075E-006
  6.100000000000001E-003    9.019874791181188E-006
  6.200000000000002E-003    9.598218177918833E-006
  6.300000000000002E-003    1.021090572273779E-005
  6.400000000000001E-003    1.085993674761925E-005
  6.500000000000001E-003    1.154740098823233E-005
  6.600000000000002E-003    1.227548207724195E-005
  6.700000000000001E-003    1.304646184021347E-005
  6.800000000000001E-003    1.386272784071735E-005
  6.900000000000002E-003    1.472677240923944E-005
  7.000000000000001E-003    1.564120254624613E-005
  7.100000000000001E-003    1.660874329372597E-005
  7.200000000000002E-003    1.763224442193239E-005
  7.300000000000002E-003    1.871468178828032E-005
  7.400000000000001E-003    1.985916434695854E-005
  7.500000000000001E-003    2.106894060181707E-005
  7.600000000000002E-003    2.234739974877525E-005
  7.700000000000001E-003    2.369807979076391E-005
  7.800000000000001E-003    2.512467195402252E-005
  7.900000000000001E-003    2.663102395885931E-005
  8.000000000000002E-003    2.822115005757980E-005
  8.100000000000001E-003    2.989923255916557E-005
  8.200000000000001E-003    3.166963605004373E-005
  8.300000000000002E-003    3.353690746595208E-005
  8.400000000000001E-003    3.550579273051764E-005
  8.500000000000002E-003    3.758124261062327E-005
  8.600000000000002E-003    3.976842180743948E-005
  8.700000000000001E-003    4.207272503337565E-005
  8.800000000000002E-003    4.449979016942679E-005
  8.900000000000002E-003    4.705550810106477E-005
  9.000000000000001E-003    4.974603844482521E-005
  9.100000000000002E-003    5.257782124651895E-005
  9.200000000000002E-003    5.555759810906107E-005
  9.300000000000001E-003    5.869242989786470E-005
  9.400000000000002E-003    6.198969964921318E-005
  9.500000000000001E-003    6.545713420695694E-005
  9.600000000000001E-003    6.910283424750206E-005
  9.700000000000002E-003    7.293526848996978E-005
  9.800000000000001E-003    7.696329290214358E-005
  9.900000000000001E-003    8.119617831236524E-005
  1.000000000000000E-002    8.564360647476911E-005
  1.010000000000000E-002    9.031570454280188E-005
  1.020000000000000E-002    9.522303411514375E-005
  1.030000000000000E-002    1.003766208693115E-004
  1.040000000000000E-002    1.057879532656841E-004
  1.050000000000000E-002    1.114690143395961E-004
  1.060000000000000E-002    1.174322508856537E-004
  1.070000000000000E-002    1.236906312669539E-004
  1.080000000000000E-002    1.302576248047659E-004
  1.090000000000000E-002    1.371472104575590E-004
  1.100000000000000E-002    1.443739055734357E-004
  1.110000000000000E-002    1.519527459718202E-004
  1.120000000000000E-002    1.598993187895917E-004
  1.130000000000000E-002    1.682297655211561E-004
  1.140000000000000E-002    1.769607860191483E-004
  1.150000000000000E-002    1.861096670756657E-004
  1.160000000000000E-002    1.956942677053670E-004
  1.170000000000000E-002    2.057330788077232E-004
  1.180000000000000E-002    2.162451903155829E-004
  1.190000000000000E-002    2.272503557124812E-004
  1.200000000000000E-002    2.387689889986919E-004
  1.210000000000000E-002    2.508221899271844E-004
  1.220000000000000E-002    2.634317764573118E-004
  1.230000000000000E-002    2.766203145920175E-004
  1.240000000000000E-002    2.904111541989493E-004
  1.250000000000000E-002    3.048284179259996E-004
  1.260000000000000E-002    3.198970897165574E-004
  1.270000000000000E-002    3.356430203275148E-004
  1.280000000000000E-002    3.520929657037102E-004
  1.290000000000000E-002    3.692745836699629E-004
  1.300000000000000E-002    3.872164815463171E-004
  1.310000000000000E-002    4.059482686191025E-004
  1.320000000000000E-002    4.255005266344455E-004
  1.330000000000000E-002    4.459049280158621E-004
  1.340000000000000E-002    4.671941246203785E-004
  1.350000000000000E-002    4.894019051752371E-004
  1.360000000000000E-002    5.125631015573979E-004
  1.370000000000000E-002    5.367136575314116E-004
  1.380000000000000E-002    5.618906241346669E-004
  1.390000000000000E-002    5.881322145487054E-004
  1.400000000000000E-002    6.154777379697435E-004
  1.410000000000000E-002    6.439677150349149E-004
  1.420000000000000E-002    6.736437596720420E-004
  1.430000000000000E-002    7.045487704324010E-004
  1.440000000000000E-002    7.367267322779842E-004
  1.450000000000000E-002    7.702228395471032E-004
  1.460000000000000E-002    8.050835336453905E-004
  1.470000000000000E-002    8.413564018498712E-004
  1.480000000000000E-002    8.790903920717488E-004
  1.490000000000000E-002    9.183355772814854E-004
  1.500000000000000E-002    9.591432745321644E-004
  1.510000000000000E-002    1.001566131831993E-003
  1.520000000000000E-002    1.045657961466915E-003
  1.530000000000000E-002    1.091473989300007E-003
  1.540000000000000E-002    1.139070663976185E-003
  1.550000000000000E-002    1.188505731920629E-003
  1.560000000000000E-002    1.239838412635048E-003
  1.570000000000000E-002    1.293129083983185E-003
  1.580000000000000E-002    1.348439672399942E-003
  1.590000000000000E-002    1.405833264376050E-003
  1.600000000000000E-002    1.465374618794495E-003
  1.610000000000000E-002    1.527129634887172E-003
  1.620000000000000E-002    1.591166004835494E-003
  1.630000000000000E-002    1.657552520200398E-003
  1.640000000000000E-002    1.726359587664125E-003
  1.650000000000000E-002    1.797658928666230E-003
  1.660000000000000E-002    1.871524014096957E-003
  1.670000000000000E-002    1.948029524491086E-003
  1.680000000000000E-002    2.027251683258331E-003
  1.690000000000000E-002    2.109268231567474E-003
  1.700000000000000E-002    2.194158013739673E-003
  1.710000000000000E-002    2.282001556736219E-003
  1.720000000000000E-002    2.372880695051419E-003
  1.730000000000000E-002    2.466878534682218E-003
  1.740000000000000E-002    2.564079465596142E-003
  1.750000000000000E-002    2.664569178637646E-003
  1.760000000000000E-002    2.768434431666906E-003
  1.770000000000000E-002    2.875763366224287E-003
  1.780000000000000E-002    2.986644729165302E-003
  1.790000000000000E-002    3.101168964343594E-003
  1.800000000000000E-002    3.219427347851753E-003
  1.810000000000000E-002    3.341511771508331E-003
  1.820000000000000E-002    3.467515452309453E-003
  1.830000000000000E-002    3.597532342214273E-003
  1.840000000000000E-002    3.731657372791428E-003
  1.850000000000000E-002    3.869986319319637E-003
  1.860000000000000E-002    4.012615187281955E-003
  1.870000000000000E-002    4.159641439429572E-003