 -4.000000000000000E-002    0.000000000000000E+000
 -3.990000000000000E-002    0.000000000000000E+000
 -3.980000000000000E-002    0.000000000000000E+000
 -3.970000000000000E-002    0.000000000000000E+000
 -3.960000000000000E-002    0.000000000000000E+000
 -3.950000000000000E-002    0.000000000000000E+000
 -3.940000000000000E-002    0.000000000000000E+000
 -3.930000000000000E-002    0.000000000000000E+000
 -3.920000000000000E-002    0.000000000000000E+000
 -3.910000000000000E-002    0.000000000000000E+000
 -3.900000000000000E-002    0.000000000000000E+000
 -3.890000000000000E-002    0.000000000000000E+000
 -3.880000000000000E-002    0.000000000000000E+000
 -3.870000000000000E-002    0.000000000000000E+000
 -3.860000000000000E-002    0.000000000000000E+000
 -3.850000000000000E-002    0.000000000000000E+000
 -3.840000000000000E-002    0.000000000000000E+000
 -3.830000000000000E-002    0.000000000000000E+000
 -3.820000000000000E-002    0.000000000000000E+000
 -3.810000000000000E-002    0.000000000000000E+000
 -3.800000000000000E-002    0.000000000000000E+000
 -3.790000000000000E-002    0.000000000000000E+000
 -3.780000000000000E-002    0.000000000000000E+000
 -3.770000000000000E-002    0.000000000000000E+000
 -3.760000000000000E-002    0.000000000000000E+000
 -3.750000000000000E-002    0.000000000000000E+000
 -3.740000000000000E-002    0.000000000000000E+000
 -3.730000000000000E-002    0.000000000000000E+000
 -3.720000000000000E-002    0.000000000000000E+000
 -3.710000000000000E-002    0.000000000000000E+000
 -3.700000000000000E-002    0.000000000000000E+000
 -3.690000000000000E-002    0.000000000000000E+000
 -3.680000000000000E-002    0.000000000000000E+000
 -3.670000000000000E-002    0.000000000000000E+000
 -3.660000000000000E-002    0.000000000000000E+000
 -3.650000000000000E-002    0.000000000000000E+000
 -3.640000000000000E-002    0.000000000000000E+000
 -3.630000000000000E-002    0.000000000000000E+000
 -3.620000000000000E-002    0.000000000000000E+000
 -3.610000000000000E-002    0.000000000000000E+000
 -3.600000000000000E-002    0.000000000000000E+000
 -3.590000000000000E-002    0.000000000000000E+000
 -3.580000000000000E-002    0.000000000000000E+000
 -3.570000000000000E-002    0.000000000000000E+000
 -3.560000000000000E-002    0.000000000000000E+000
 -3.550000000000000E-002    0.000000000000000E+000
 -3.540000000000000E-002    0.000000000000000E+000
 -3.530000000000000E-002    0.000000000000000E+000
 -3.520000000000000E-002    0.000000000000000E+000
 -3.510000000000000E-002    0.000000000000000E+000
 -3.500000000000000E-002    0.000000000000000E+000
 -3.490000000000000E-002    0.000000000000000E+000
 -3.480000000000000E-002    0.000000000000000E+000
 -3.470000000000000E-002    0.000000000000000E+000
 -3.460000000000000E-002    0.000000000000000E+000
 -3.450000000000000E-002    0.000000000000000E+000
 -3.440000000000000E-002    0.000000000000000E+000
 -3.430000000000000E-002    0.000000000000000E+000
 -3.420000000000000E-002    0.000000000000000E+000
 -3.410000000000000E-002    0.000000000000000E+000
 -3.400000000000000E-002    0.000000000000000E+000
 -3.390000000000000E-002    0.000000000000000E+000
 -3.380000000000000E-002    0.000000000000000E+000
 -3.370000000000000E-002    0.000000000000000E+000
 -3.360000000000000E-002    0.000000000000000E+000
 -3.350000000000000E-002    0.000000000000000E+000
 -3.340000000000000E-002    0.000000000000000E+000
 -3.330000000000000E-002    0.000000000000000E+000
 -3.320000000000000E-002    0.000000000000000E+000
 -3.310000000000000E-002    0.000000000000000E+000
 -3.300000000000000E-002    0.000000000000000E+000
 -3.290000000000000E-002    0.000000000000000E+000
 -3.280000000000000E-002    0.000000000000000E+000
 -3.270000000000000E-002    0.000000000000000E+000
 -3.260000000000000E-002    0.000000000000000E+000
 -3.250000000000000E-002    0.000000000000000E+000
 -3.240000000000000E-002    0.000000000000000E+000
 -3.230000000000000E-002    0.000000000000000E+000
 -3.220000000000000E-002    0.000000000000000E+000
 -3.210000000000000E-002    0.000000000000000E+000
 -3.200000000000000E-002    0.000000000000000E+000
 -3.190000000000000E-002    0.000000000000000E+000
 -3.180000000000000E-002    0.000000000000000E+000
 -3.170000000000000E-002    0.000000000000000E+000
 -3.160000000000000E-002    0.000000000000000E+000
 -3.150000000000000E-002    0.000000000000000E+000
 -3.140000000000000E-002    0.000000000000000E+000
 -3.130000000000000E-002    0.000000000000000E+000
 -3.120000000000000E-002    0.000000000000000E+000
 -3.110000000000000E-002    0.000000000000000E+000
 -3.100000000000000E-002    0.000000000000000E+000
 -3.090000000000000E-002    0.000000000000000E+000
 -3.080000000000000E-002    0.000000000000000E+000
 -3.070000000000000E-002    0.000000000000000E+000
 -3.060000000000000E-002    0.000000000000000E+000
 -3.050000000000000E-002    0.000000000000000E+000
 -3.040000000000000E-002    0.000000000000000E+000
 -3.030000000000000E-002    0.000000000000000E+000
 -3.020000000000000E-002    0.000000000000000E+000
 -3.010000000000000E-002    0.000000000000000E+000
 -3.000000000000000E-002    0.000000000000000E+000
 -2.990000000000000E-002    0.000000000000000E+000
 -2.980000000000000E-002    0.000000000000000E+000
 -2.970000000000000E-002    0.000000000000000E+000
 -2.960000000000000E-002    0.000000000000000E+000
 -2.950000000000000E-002    0.000000000000000E+000
 -2.940000000000000E-002    0.000000000000000E+000
 -2.930000000000000E-002    0.000000000000000E+000
 -2.920000000000000E-002    0.000000000000000E+000
 -2.910000000000000E-002    0.000000000000000E+000
 -2.900000000000000E-002    0.000000000000000E+000
 -2.890000000000000E-002    0.000000000000000E+000
 -2.880000000000000E-002    0.000000000000000E+000
 -2.870000000000000E-002    0.000000000000000E+000
 -2.860000000000000E-002    0.000000000000000E+000
 -2.850000000000000E-002    0.000000000000000E+000
 -2.840000000000000E-002    0.000000000000000E+000
 -2.830000000000000E-002    0.000000000000000E+000
 -2.820000000000000E-002    0.000000000000000E+000
 -2.810000000000000E-002    0.000000000000000E+000
 -2.800000000000000E-002    0.000000000000000E+000
 -2.790000000000000E-002    0.000000000000000E+000
 -2.780000000000000E-002    0.000000000000000E+000
 -2.770000000000000E-002    0.000000000000000E+000
 -2.760000000000000E-002    0.000000000000000E+000
 -2.750000000000000E-002    0.000000000000000E+000
 -2.740000000000000E-002    0.000000000000000E+000
 -2.730000000000000E-002    0.000000000000000E+000
 -2.720000000000000E-002    0.000000000000000E+000
 -2.710000000000000E-002    0.000000000000000E+000
 -2.700000000000000E-002    0.000000000000000E+000
 -2.690000000000000E-002    0.000000000000000E+000
 -2.680000000000000E-002    0.000000000000000E+000
 -2.670000000000000E-002    0.000000000000000E+000
 -2.660000000000000E-002    0.000000000000000E+000
 -2.650000000000000E-002    0.000000000000000E+000
 -2.640000000000000E-002    0.000000000000000E+000
 -2.630000000000000E-002    0.000000000000000E+000
 -2.620000000000000E-002   -6.414635304221270E-048
 -2.610000000000000E-002   -1.282927060844254E-047
 -2.600000000000000E-002   -1.924390591266381E-047
 -2.590000000000000E-002   -5.151729508810952E-047
 -2.580000000000000E-002   -8.379068426355523E-047
 -2.570000000000000E-002   -1.288933440474435E-046
 -2.560000000000000E-002   -1.675813685271105E-046
 -2.550000000000000E-002   -1.741962164856711E-046
 -2.540000000000000E-002   -1.067621997174333E-046
 -2.530000000000000E-002    3.143301805157782E-047
 -2.520000000000000E-002    3.665167140927779E-046
 -2.510000000000000E-002    8.240791188772002E-046
 -2.500000000000000E-002    1.818411713366374E-045
 -2.490000000000000E-002    3.138526130175179E-045
 -2.480000000000000E-002    4.900647134890448E-045
 -2.470000000000000E-002    6.902660586400230E-045
 -2.460000000000000E-002    8.854691711599953E-045
 -2.450000000000000E-002    1.055701922279517E-044
 -2.440000000000000E-002    9.901107957298857E-045
 -2.430000000000000E-002    7.610591622358351E-045
 -2.420000000000000E-002    1.175567316459494E-045
 -2.410000000000000E-002   -1.057627373709578E-044
 -2.400000000000000E-002   -2.835368352500400E-044
 -2.390000000000000E-002   -5.483688100103222E-044
 -2.380000000000000E-002   -8.986091761658669E-044
 -2.370000000000000E-002   -1.321601606695398E-043
 -2.360000000000000E-002   -1.784227781535803E-043
 -2.350000000000000E-002   -2.225490615765793E-043
 -2.340000000000000E-002   -2.538434716222628E-043
 -2.330000000000000E-002   -2.593750223128668E-043
 -2.320000000000000E-002   -2.197995714075774E-043
 -2.310000000000000E-002   -1.123679632143648E-043
 -2.300000000000000E-002    8.863356378926749E-044
 -2.290000000000000E-002    4.092208127236313E-043
 -2.280000000000000E-002    8.681627120745694E-043
 -2.270000000000000E-002    1.472277044904967E-042
 -2.260000000000000E-002    2.208835194029182E-042
 -2.250000000000000E-002    3.030622235164478E-042
 -2.240000000000000E-002    3.849219996849407E-042
 -2.230000000000000E-002    4.517481270433786E-042
 -2.220000000000000E-002    4.827124789484525E-042
 -2.210000000000000E-002    4.502519760633142E-042
 -2.200000000000000E-002    3.207420878035549E-042
 -2.190000000000000E-002    5.669793473709822E-043
 -2.180000000000000E-002   -3.795642141381779E-042
 -2.170000000000000E-002   -1.019188212243907E-041
 -2.160000000000000E-002   -1.878821004749927E-041
 -2.150000000000000E-002   -2.948661656041584E-041
 -2.140000000000000E-002   -4.179270305804936E-041
 -2.130000000000000E-002   -5.466843006162218E-041
 -2.120000000000000E-002   -6.638981654191229E-041
 -2.110000000000000E-002   -7.443535040976481E-041
 -2.100000000000000E-002   -7.543233386966424E-041
 -2.090000000000000E-002   -6.521579113531847E-041
 -2.080000000000000E-002   -3.903508622847926E-041
 -2.070000000000000E-002    8.035781867213947E-042
 -2.060000000000000E-002    8.044246071895614E-041
 -2.050000000000000E-002    1.812169047806053E-040
 -2.040000000000000E-002    3.107642622648718E-040
 -2.030000000000000E-002    4.654078858784992E-040
 -2.020000000000000E-002    6.357800908270369E-040
 -2.010000000000000E-002    8.052186281689384E-040
 -2.000000000000000E-002    9.484104875301137E-040
 -1.990000000000000E-002    1.030601590110922E-039
 -1.980000000000000E-002    1.007761980277481E-039
 -1.970000000000000E-002    8.281784519981765E-040
 -1.960000000000000E-002    4.359249857699161E-040
 -1.950000000000000E-002   -2.233314687943357E-040
 -1.940000000000000E-002   -1.193898769086422E-039
 -1.930000000000000E-002   -2.498879763409377E-039
 -1.920000000000000E-002   -4.126491085127053E-039
 -1.910000000000000E-002   -6.014574498447432E-039
 -1.900000000000000E-002   -8.034552152968854E-039
 -1.890000000000000E-002   -9.976766565310840E-039
 -1.880000000000000E-002   -1.153982327656113E-038
 -1.870000000000000E-002   -1.232725093965157E-038
 -1.860000000000000E-002   -1.185531066530485E-038
 -1.850000000000000E-002   -9.576059951977155E-039
 -1.840000000000000E-002   -4.919608623129000E-039
 -1.830000000000000E-002    2.641241705914057E-039
 -1.820000000000000E-002    1.350228979505511E-038
 -1.810000000000000E-002    2.781583785425598E-038
 -1.800000000000000E-002    4.535922096342528E-038
 -1.790000000000000E-002    6.539222758950800E-038
 -1.780000000000000E-002    8.651668846014636E-038
 -1.770000000000000E-002    1.065569920010204E-037
 -1.760000000000000E-002    1.224857720533192E-037
 -1.750000000000000E-002    1.304236452338080E-037
 -1.740000000000000E-002    1.257450750177549E-037
 -1.730000000000000E-002    1.033227358879032E-037
 -1.720000000000000E-002    5.793948679728898E-038
 -1.710000000000000E-002   -1.511134048137976E-038
 -1.700000000000000E-002   -1.192307543209376E-037
 -1.690000000000000E-002   -2.555381969353696E-037
 -1.680000000000000E-002   -4.217563867792237E-037
 -1.670000000000000E-002   -6.110319007787526E-037
 -1.660000000000000E-002   -8.108041744542057E-037
 -1.650000000000000E-002   -1.001875747316006E-036
 -1.640000000000000E-002   -1.157874157317745E-036
 -1.630000000000000E-002   -1.245327564628402E-036
 -1.620000000000000E-002   -1.224594143492683E-036
 -1.610000000000000E-002   -1.051884430065356E-036
 -1.600000000000000E-002   -6.825876220016073E-037
 -1.590000000000000E-002   -7.605071113124783E-038
 -1.580000000000000E-002    7.981429208284931E-037
 -1.570000000000000E-002    1.952495253187361E-036
 -1.560000000000000E-002    3.372809335406507E-036
 -1.550000000000000E-002    5.008828369603379E-036
 -1.540000000000000E-002    6.765102896111247E-036
 -1.530000000000000E-002    8.493182117555813E-036
 -1.520000000000000E-002    9.986524812317197E-036
 -1.510000000000000E-002    1.097978527151478E-035
 -1.500000000000000E-002    1.115432510626745E-035
 -1.490000000000000E-002    1.015187478210961E-035
 -1.480000000000000E-002    7.598162605208336E-036
 -1.470000000000000E-002    3.137981047054345E-036
 -1.460000000000000E-002   -3.517490745899635E-036
 -1.450000000000000E-002   -1.253130474226255E-035
 -1.440000000000000E-002   -2.387092847647155E-035
 -1.430000000000000E-002   -3.723146757555295E-035
 -1.420000000000000E-002   -5.195764299272444E-035
 -1.410000000000000E-002   -6.697280105487939E-035
 -1.400000000000000E-002   -8.072592911001696E-035
 -1.390000000000000E-002   -9.117023648540576E-035
 -1.380000000000000E-002   -9.578898652394225E-035
 -1.370000000000000E-002   -9.168543190142595E-035
 -1.360000000000000E-002   -7.575339459310374E-035
 -1.350000000000000E-002   -4.494258082755882E-035
 -1.340000000000000E-002    3.372473315273146E-036
 -1.330000000000000E-002    7.091938275424364E-035
 -1.320000000000000E-002    1.579626345443692E-034
 -1.310000000000000E-002    2.626737794042943E-034
 -1.300000000000000E-002    3.804841545543386E-034
 -1.290000000000000E-002    5.034891287118524E-034
 -1.280000000000000E-002    6.199952466576206E-034
 -1.270000000000000E-002    7.143225930602254E-034
 -1.260000000000000E-002    7.669904056097328E-034
 -1.250000000000000E-002    7.554203899632673E-034
 -1.240000000000000E-002    6.552854530382157E-034
 -1.230000000000000E-002    4.426055028129838E-034
 -1.220000000000000E-002    9.664372401757700E-035
 -1.210000000000000E-002   -3.964177190143044E-034
 -1.200000000000000E-002   -1.039145446240753E-033
 -1.190000000000000E-002   -1.818116484210372E-033
 -1.180000000000000E-002   -2.699171363008489E-033
 -1.170000000000000E-002   -3.623214472177337E-033
 -1.160000000000000E-002   -4.503268626528517E-033
 -1.150000000000000E-002   -5.223618467645377E-033
 -1.140000000000000E-002   -5.641950493607966E-033
 -1.130000000000000E-002   -5.595393902019583E-033
 -1.120000000000000E-002   -4.911252116683095E-033
 -1.110000000000000E-002   -3.422960588029919E-033
 -1.100000000000000E-002   -9.913962094485325E-034
 -1.090000000000000E-002    2.468911684484687E-033
 -1.080000000000000E-002    6.959872145617996E-033
 -1.070000000000000E-002    1.236829406595577E-032
 -1.060000000000000E-002    1.843575541420061E-032
 -1.050000000000000E-002    2.473386292038045E-032
 -1.040000000000000E-002    3.064973502769941E-032
 -1.030000000000000E-002    3.538710913340027E-032
 -1.020000000000000E-002    3.798864398410413E-032
 -1.010000000000000E-002    3.738457244053242E-032
 -1.000000000000000E-002    3.247167168543932E-032
 -9.899999999999999E-003    2.222450324231803E-032
 -9.800000000000000E-003    5.837861541513294E-033
 -9.699999999999999E-003   -1.710453480220011E-032
 -9.599999999999999E-003   -4.644481332232507E-032
 -9.500000000000000E-003   -8.126417837358898E-032
 -9.399999999999999E-003   -1.197149774414484E-031
 -9.299999999999999E-003   -1.588969918091500E-031
 -9.200000000000000E-003   -1.948071882135055E-031
 -9.099999999999999E-003   -2.223939739041727E-031
 -8.999999999999999E-003   -2.357460282092526E-031
 -8.900000000000000E-003   -2.284410308470169E-031
 -8.799999999999999E-003   -1.940706302451373E-031
 -8.699999999999999E-003   -1.269437388415501E-031
 -8.600000000000000E-003   -2.295143685691522E-032
 -8.499999999999999E-003    1.194466550594705E-031
 -8.399999999999999E-003    2.981816021376868E-031
 -8.300000000000000E-003    5.065752416023153E-031
 -8.199999999999999E-003    7.325035333948756E-031
 -8.100000000000000E-003    9.578685068609216E-031
 -8.000000000000000E-003    1.158537766751287E-030
 -7.899999999999999E-003    1.304912901061562E-030
 -7.800000000000000E-003    1.363271866392770E-030
 -7.699999999999999E-003    1.297994702322700E-030
 -7.599999999999999E-003    1.074722087240271E-030
 -7.499999999999999E-003    6.644126473719394E-031
 -7.399999999999999E-003    4.815649054340099E-032
 -7.299999999999999E-003   -7.775217759621340E-031
 -7.199999999999999E-003   -1.795276833245781E-030
 -7.100000000000000E-003   -2.962016117111091E-030
 -6.999999999999999E-003   -4.205098375197418E-030
 -6.899999999999999E-003   -5.420417742739430E-030
 -6.800000000000000E-003   -6.473168026220296E-030
 -6.699999999999999E-003   -7.202056257238931E-030
 -6.599999999999999E-003   -7.427608167655128E-030
 -6.499999999999999E-003   -6.964982328467791E-030
 -6.399999999999999E-003   -5.641368932337871E-030
 -6.299999999999999E-003   -3.317597268747921E-030
 -6.199999999999999E-003    8.698596529039721E-032
 -6.100000000000000E-003    4.567915725565958E-030
 -5.999999999999999E-003    1.000950333077232E-029
 -5.899999999999999E-003    1.616206062064366E-029
 -5.800000000000000E-003    2.262580649704404E-029
 -5.699999999999999E-003    2.884515008754079E-029
 -5.599999999999999E-003    3.411708719284744E-029
 -5.499999999999999E-003    3.761713130529894E-029
 -5.399999999999999E-003    3.844545229996379E-029
 -5.299999999999999E-003    3.569461905577744E-029
 -5.199999999999999E-003    2.853857384573020E-029
 -5.099999999999999E-003    1.634020384253768E-029
 -4.999999999999999E-003   -1.227801171732941E-030
 -4.899999999999999E-003   -2.405700491208478E-029
 -4.799999999999999E-003   -5.148337222671525E-029
 -4.699999999999999E-003   -8.218732343358493E-029
 -4.599999999999999E-003   -1.141295092414557E-028
 -4.499999999999999E-003   -1.445393121299452E-028
 -4.399999999999999E-003   -1.699725627909954E-028
 -4.299999999999999E-003   -1.864529450525081E-028
 -4.199999999999999E-003   -1.897073333055694E-028
 -4.099999999999999E-003   -1.754990189061147E-028
 -3.999999999999999E-003   -1.400539798705552E-028
 -3.899999999999999E-003   -8.056494742785357E-029
 -3.799999999999999E-003    4.254156864359782E-030
 -3.699999999999999E-003    1.136035895805824E-028
 -3.599999999999999E-003    2.440754711949411E-028
 -3.499999999999999E-003    3.892370534287039E-028
 -3.399999999999999E-003    5.393900664975871E-028
 -3.299999999999999E-003    6.815792604718474E-028
 -3.199999999999999E-003    7.999192248060812E-028
 -3.099999999999999E-003    8.762965139124362E-028
 -2.999999999999999E-003    8.914835258560499E-028
 -2.899999999999999E-003    8.266702196799733E-028
 -2.799999999999999E-003    6.653810438444361E-028
 -2.699999999999999E-003    3.956985076595167E-028
 -2.599999999999999E-003    1.266236296897825E-029
 -2.499999999999999E-003   -4.793373800201266E-028
 -2.399999999999999E-003   -1.064404833273015E-027
 -2.299999999999999E-003   -1.713491305602265E-027
 -2.199999999999999E-003   -2.383550788009864E-027
 -2.099999999999999E-003   -3.017794766090892E-027
 -1.999999999999999E-003   -3.547315186779593E-027
 -1.899999999999999E-003   -3.894287153182089E-027
 -1.799999999999999E-003   -3.976866283632953E-027
 -1.699999999999999E-003   -3.715766717756204E-027
 -1.599999999999999E-003   -3.042340447160230E-027
 -1.499999999999999E-003   -1.907791763687086E-027
 -1.399999999999999E-003   -2.929569952312880E-028
 -1.299999999999999E-003    1.782119302265934E-027
 -1.199999999999999E-003    4.249760704241471E-027
 -1.099999999999999E-003    6.988471634485889E-027
 -9.999999999999989E-004    9.820134546025244E-027
 -8.999999999999990E-004    1.251171991114183E-026
 -7.999999999999990E-004    1.478249478148357E-026
 -6.999999999999989E-004    1.631746172010034E-026
 -5.999999999999990E-004    1.678735323455964E-026
 -4.999999999999989E-004    1.587499279333329E-026
 -3.999999999999989E-004    1.330718686930963E-026
 -2.999999999999989E-004    8.890606631203267E-027
 -1.999999999999989E-004    2.549358409682234E-027
 -9.999999999999892E-005   -5.638766680725686E-027
  1.084202172485504E-018   -1.541098840971480E-026
  1.000000000000011E-004   -2.629724654950298E-026
  2.000000000000011E-004   -3.761112806921984E-026
  3.000000000000011E-004   -4.845805250124951E-026
  4.000000000000011E-004   -5.776415211070519E-026
  5.000000000000011E-004   -6.432821051256461E-026
  6.000000000000011E-004   -6.689752419180331E-026
  7.000000000000011E-004   -6.426659480127310E-026
  8.000000000000011E-004   -5.539522286998624E-026
  9.000000000000012E-004   -3.954005799179665E-026
  1.000000000000001E-003   -1.639103175241110E-026
  1.100000000000001E-003    1.379830429189534E-026
  1.200000000000001E-003    5.009954016871731E-026
  1.300000000000001E-003    9.083156781447826E-026
  1.400000000000001E-003    1.335307512227519E-025
  1.500000000000001E-003    1.749827997509106E-025
  1.600000000000001E-003    2.113277409248909E-025
  1.700000000000001E-003    2.382454229459825E-025
  1.800000000000001E-003    2.512237013113769E-025
  1.900000000000001E-003    2.459044988897580E-025
  2.000000000000001E-003    2.184951867900500E-025
  2.100000000000001E-003    1.662240194774095E-025
  2.200000000000001E-003    8.781000863626723E-026
  2.300000000000001E-003   -1.609035582204628E-026
  2.400000000000001E-003   -1.425035861533934E-025
  2.500000000000001E-003   -2.858740775875452E-025
  2.600000000000001E-003   -4.379619004684829E-025
  2.700000000000001E-003   -5.879476958611656E-025
  2.800000000000001E-003   -7.227809422348435E-025
  2.900000000000001E-003   -8.277946304100780E-025
  3.000000000000001E-003   -8.875911933009811E-025
  3.100000000000001E-003   -8.871827116535244E-025
  3.200000000000001E-003   -8.133423852481742E-025
  3.300000000000001E-003   -6.560973636697555E-025
  3.400000000000001E-003   -4.102664832550913E-025
  3.500000000000001E-003   -7.692166654974504E-026
  3.600000000000001E-003    3.353666245622914E-025
  3.700000000000001E-003    8.096503137506020E-025
  3.800000000000001E-003    1.320242009149518E-024
  3.900000000000001E-003    1.833008636151259E-024
  4.000000000000001E-003    2.306430988577952E-024
  4.100000000000001E-003    2.693499099616003E-024
  4.200000000000001E-003    2.944455618010180E-024
  4.300000000000001E-003    3.010330873648197E-024
  4.400000000000001E-003    2.847137456783474E-024
  4.500000000000001E-003    2.420506124173919E-024
  4.600000000000002E-003    1.710468021041494E-024
  4.700000000000001E-003    7.160158485635770E-025
  4.800000000000001E-003   -5.409793136341535E-025
  4.900000000000002E-003   -2.012946404400014E-024
  5.000000000000001E-003   -3.625337922925650E-024
  5.100000000000001E-003   -5.277308922321049E-024
  5.200000000000001E-003   -6.844678689202107E-024
  5.300000000000002E-003   -8.185376181144296E-024
  5.400000000000001E-003   -9.147405298894441E-024
  5.500000000000001E-003   -9.579166630184955E-024
  5.600000000000002E-003   -9.341743329351212E-024
  5.700000000000001E-003   -8.322523766565248E-024
  5.800000000000001E-003   -6.449310810057889E-024
  5.900000000000002E-003   -3.703854772160655E-024
  6.000000000000001E-003   -1.336130836972473E-025
  6.100000000000001E-003    4.139557233359014E-024
  6.200000000000002E-003    8.915044023099578E-024
  6.300000000000002E-003    1.391462256875322E-023
  6.400000000000001E-003    1.879001459951323E-023
  6.500000000000001E-003    2.313743624629794E-023
  6.600000000000002E-003    2.651924518029422E-023
  6.700000000000001E-003    2.849224116017178E-023
  6.800000000000001E-003    2.864155009191145E-023
  6.900000000000002E-003    2.661840473587274E-023
  7.000000000000001E-003    2.217948723097395E-023
  7.100000000000001E-003    1.522499300268095E-023
  7.200000000000002E-003    5.832161374227283E-024
  7.300000000000002E-003   -5.719180850162283E-024
  7.400000000000001E-003   -1.893249618667376E-023
  7.500000000000001E-003   -3.309489976761157E-023
  7.600000000000002E-003   -4.729452062386470E-023
  7.700000000000001E-003   -6.045639093037546E-023
  7.800000000000001E-003   -7.139721102838486E-023
  7.900000000000001E-003   -7.889790077325902E-023
  8.000000000000002E-003   -8.179126317704027E-023
  8.100000000000001E-003   -7.906043235198914E-023
  8.200000000000001E-003   -6.994222913611092E-023
  8.300000000000002E-003   -5.402821631274099E-023
  8.400000000000001E-003   -3.135521200266584E-023
  8.500000000000002E-003   -2.476516567397448E-024
  8.600000000000002E-003    3.149476072863536E-023
  8.700000000000001E-003    6.887814929976131E-023
  8.800000000000002E-003    1.074603111011043E-022
  8.900000000000002E-003    1.445756519031369E-022
  9.000000000000001E-003    1.772341862331465E-022
  9.100000000000002E-003    2.022941848510532E-022
  9.200000000000002E-003    2.166735659168756E-022
  9.300000000000001E-003    2.175897920478348E-022
  9.400000000000002E-003    2.028144934058060E-022
  9.500000000000001E-003    1.709257663364856E-022
  9.600000000000001E-003    1.215387312369958E-022
  9.700000000000002E-003    5.549361973612981E-023
  9.800000000000001E-003   -2.501902024626334E-023
  9.900000000000001E-003   -1.164147358473001E-022
  1.000000000000000E-002   -2.137684891098163E-022
  1.010000000000000E-002   -3.109749785657871E-022
  1.020000000000000E-002   -4.010196320732489E-022
  1.030000000000000E-002   -4.763558602214885E-022
  1.040000000000000E-002   -5.293759705777378E-022
  1.050000000000000E-002   -5.529539717160060E-022
  1.060000000000000E-002   -5.410305194807088E-022
  1.070000000000000E-002   -4.892030482926231E-022
  1.080000000000000E-002   -3.952781976622580E-022
  1.090000000000000E-002   -2.597412564182610E-022
  1.100000000000000E-002   -8.609739136489779E-023
  1.110000000000000E-002    1.189575281467642E-022
  1.120000000000000E-002    3.455717089931487E-022
  1.130000000000000E-002    5.810021305234050E-022
  1.140000000000000E-002    8.101204706761837E-022
  1.150000000000000E-002    1.016155252054692E-021
  1.160000000000000E-002    1.181647723866765E-021
  1.170000000000000E-002    1.289580452255546E-021
  1.180000000000000E-002    1.324620839163154E-021
  1.190000000000000E-002    1.274406221255372E-021
  1.200000000000000E-002    1.130784584432552E-021
  1.210000000000000E-002    8.909198701733856E-022
  1.220000000000000E-002    5.581671106758802E-022
  1.230000000000000E-002    1.426300848920942E-022
  1.240000000000000E-002   -3.386763803950097E-022
  1.250000000000000E-002   -8.621155192325917E-022
  1.260000000000000E-002   -1.398203578359981E-021
  1.270000000000000E-002   -1.912872893525086E-021
  1.280000000000000E-002   -2.369194057576493E-021
  1.290000000000000E-002   -2.729492292757596E-021
  1.300000000000000E-002   -2.957760802299340E-021
  1.310000000000000E-002   -3.022241906279535E-021
  1.320000000000000E-002   -2.898023287402604E-021
  1.330000000000000E-002   -2.569479894250316E-021
  1.340000000000000E-002   -2.032383186961141E-021
  1.350000000000000E-002   -1.295505247185019E-021
  1.360000000000000E-002   -3.815585880767155E-022
  1.370000000000000E-002    6.726568964747569E-022
  1.380000000000000E-002    1.816993601763157E-021
  1.390000000000000E-002    2.989626666178315E-021
  1.400000000000000E-002    4.119644082683347E-021
  1.410000000000000E-002    5.130490019499444E-021
  1.420000000000000E-002    5.944129059409633E-021
  1.430000000000000E-002    6.485748277190779E-021
  1.440000000000000E-002    6.688761774795874E-021
  1.450000000000000E-002    6.499840316912200E-021
  1.460000000000000E-002    5.883664987959072E-021
  1.470000000000000E-002    4.827091821318331E-021
  1.480000000000000E-002    3.342418193093810E-021
  1.490000000000000E-002    1.469468234023571E-021
  1.500000000000000E-002   -7.237399295109546E-022
  1.510000000000000E-002   -3.141926999587294E-021
  1.520000000000000E-002   -5.665193556985319E-021
  1.530000000000000E-002   -8.153386547945432E-021
  1.540000000000000E-002   -1.045211422973153E-020
  1.550000000000000E-002   -1.240024277295714E-020
  1.560000000000000E-002   -1.383859443834425E-020
  1.570000000000000E-002   -1.461949515010651E-020
  1.580000000000000E-002   -1.461671567341013E-020
  1.590000000000000E-002   -1.373530421593151E-020
  1.600000000000000E-002   -1.192074942977234E-020
  1.610000000000000E-002   -9.166892139005340E-021
  1.620000000000000E-002   -5.522007923539390E-021
  1.630000000000000E-002   -1.092519418808010E-021
  1.640000000000000E-002    3.956146192876452E-021
  1.650000000000000E-002    9.401944818300587E-021
  1.660000000000000E-002    1.497209699175555E-020
  1.670000000000000E-002    2.035258323904335E-020
  1.680000000000000E-002    2.520116477002741E-020
  1.690000000000000E-002    2.916366545797972E-020
  1.700000000000000E-002    3.189301676900119E-020
  1.710000000000000E-002    3.307035828346170E-020
  1.720000000000000E-002    3.242728109472334E-020
  1.730000000000000E-002    2.976808186013953E-020
  1.740000000000000E-002    2.499077792966879E-020
  1.750000000000000E-002    1.810547310344926E-020
  1.760000000000000E-002    9.248640079973464E-021
  1.770000000000000E-002   -1.308073950104242E-021
  1.780000000000000E-002   -1.315585793405802E-020
  1.790000000000000E-002   -2.575461421093940E-020
  1.800000000000000E-002   -3.844751408406536E-020
  1.810000000000000E-002   -5.048459854161841E-020
  1.820000000000000E-002   -6.105528641318558E-020
  1.830000000000000E-002   -6.932912800159967E-020
  1.840000000000000E-002   -7.450346309502372E-020
  1.850000000000000E-002   -7.585608008378986E-020
  1.860000000000000E-002   -7.280029201217889E-020
  1.870000000000000E-002   -6.493938390329859E-020