 -4.000000000000000E-002    0.000000000000000E+000
 -3.990000000000000E-002    0.000000000000000E+000
 -3.980000000000000E-002    0.000000000000000E+000
 -3.970000000000000E-002    0.000000000000000E+000
 -3.960000000000000E-002    0.000000000000000E+000
 -3.950000000000000E-002    0.000000000000000E+000
 -3.940000000000000E-002    0.000000000000000E+000
 -3.930000000000000E-002    0.000000000000000E+000
 -3.920000000000000E-002    0.000000000000000E+000
 -3.910000000000000E-002    0.000000000000000E+000
 -3.900000000000000E-002    0.000000000000000E+000
 -3.890000000000000E-002    0.000000000000000E+000
 -3.880000000000000E-002    0.000000000000000E+000
 -3.870000000000000E-002    0.000000000000000E+000
 -3.860000000000000E-002    4.103953866202725E-042
 -3.850000000000000E-002    9.963405387929898E-041
 -3.840000000000000E-002    1.225516462977852E-039
 -3.830000000000000E-002    1.013710933114388E-038
 -3.820000000000000E-002    6.306555962942817E-038
 -3.810000000000000E-002    3.121749976135783E-037
 -3.800000000000000E-002    1.264582321004621E-036
 -3.790000000000000E-002    4.217921808321167E-036
 -3.780000000000000E-002    1.129645785802904E-035
 -3.770000000000000E-002    2.167653244032959E-035
 -3.760000000000000E-002    1.172717772105302E-035
 -3.750000000000000E-002   -1.356930534239453E-034
 -3.740000000000000E-002   -8.348756369354330E-034
 -3.730000000000000E-002   -3.297305909115157E-033
 -3.720000000000000E-002   -1.059525865110096E-032
 -3.710000000000000E-002   -2.960755930147338E-032
 -3.700000000000000E-002   -7.395751517668616E-032
 -3.690000000000000E-002   -1.671561592959668E-031
 -3.680000000000000E-002   -3.428808195837213E-031
 -3.670000000000000E-002   -6.347909161791888E-031
 -3.660000000000000E-002   -1.040958672628771E-030
 -3.650000000000000E-002   -1.438702090725878E-030
 -3.640000000000000E-002   -1.418407717033384E-030
 -3.630000000000000E-002   -9.537703311053166E-033
 -3.620000000000000E-002    4.693998976382155E-030
 -3.610000000000000E-002    1.591324753042304E-029
 -3.600000000000000E-002    3.830156103922202E-029
 -3.590000000000000E-002    7.726521829402038E-029
 -3.580000000000000E-002    1.366139673676705E-028
 -3.570000000000000E-002    2.133668645424623E-028
 -3.560000000000000E-002    2.885096747936109E-028
 -3.550000000000000E-002    3.131345115804717E-028
 -3.540000000000000E-002    1.912168785750076E-028
 -3.530000000000000E-002   -2.361636781284810E-028
 -3.520000000000000E-002   -1.194795995704754E-027
 -3.510000000000000E-002   -2.952001367236521E-027
 -3.500000000000000E-002   -5.737474395227062E-027
 -3.490000000000000E-002   -9.582460787432481E-027
 -3.480000000000000E-002   -1.405548011908611E-026
 -3.470000000000000E-002   -1.789564191082253E-026
 -3.460000000000000E-002   -1.859167264678653E-026
 -3.450000000000000E-002   -1.203040131345560E-026
 -3.440000000000000E-002    7.561274540780455E-027
 -3.430000000000000E-002    4.704990754014577E-026
 -3.420000000000000E-002    1.127976009833071E-025
 -3.410000000000000E-002    2.076405833603011E-025
 -3.400000000000000E-002    3.262353286983647E-025
 -3.390000000000000E-002    4.489935780764945E-025
 -3.380000000000000E-002    5.355589547147364E-025
 -3.370000000000000E-002    5.197918833040723E-025
 -3.360000000000000E-002    3.093933317263042E-025
 -3.350000000000000E-002   -2.056895099156659E-025
 -3.340000000000000E-002   -1.131550430447857E-024
 -3.330000000000000E-002   -2.531662756120415E-024
 -3.320000000000000E-002   -4.370444995801924E-024
 -3.310000000000000E-002   -6.443498667442238E-024
 -3.300000000000000E-002   -8.306734275747598E-024
 -3.290000000000000E-002   -9.226137288526605E-024
 -3.280000000000000E-002   -8.179392952648642E-024
 -3.270000000000000E-002   -3.946879274387366E-024
 -3.260000000000000E-002    4.671544199875426E-024
 -3.250000000000000E-002    1.849061695343278E-023
 -3.240000000000000E-002    3.743040726441705E-023
 -3.230000000000000E-002    5.991614324483661E-023
 -3.220000000000000E-002    8.230111374706959E-023
 -3.210000000000000E-002    9.849387738835826E-023
 -3.200000000000000E-002    1.000276372434714E-022
 -3.190000000000000E-002    7.683283825718754E-023
 -3.180000000000000E-002    1.893619182748429E-023
 -3.170000000000000E-002   -8.081430283807046E-023
 -3.160000000000000E-002   -2.231239303164153E-022
 -3.150000000000000E-002   -3.981721623818011E-022
 -3.140000000000000E-002   -5.819096731264085E-022
 -3.130000000000000E-002   -7.339329655955723E-022
 -3.120000000000000E-002   -7.983928679026980E-022
 -3.110000000000000E-002   -7.093944533219697E-022
 -3.100000000000000E-002   -4.019609509257828E-022
 -3.090000000000000E-002    1.712416426169406E-022
 -3.080000000000000E-002    1.018611073642042E-021
 -3.070000000000000E-002    2.086736513815251E-021
 -3.060000000000000E-002    3.240886714447010E-021
 -3.050000000000000E-002    4.255462030817242E-021
 -3.040000000000000E-002    4.821828032252419E-021
 -3.030000000000000E-002    4.580284726086104E-021
 -3.020000000000000E-002    3.180243494343416E-021
 -3.010000000000000E-002    3.676973739602046E-022
 -3.000000000000000E-002   -3.908049007905053E-021
 -2.990000000000000E-002   -9.384893535567887E-021
 -2.980000000000000E-002   -1.540054898673090E-020
 -2.970000000000000E-002   -2.085820895478466E-020
 -2.960000000000000E-002   -2.427761665645622E-020
 -2.950000000000000E-002   -2.395811139660858E-020
 -2.940000000000000E-002   -1.826557931693017E-020
 -2.930000000000000E-002   -6.031419410830422E-021
 -2.920000000000000E-002    1.297962790438332E-020
 -2.910000000000000E-002    3.761032441496420E-020
 -2.900000000000000E-002    6.496869260361511E-020
 -2.890000000000000E-002    9.032930428835336E-020
 -2.880000000000000E-002    1.074013822018695E-019
 -2.870000000000000E-002    1.090541601110851E-019
 -2.860000000000000E-002    8.852324438985074E-020
 -2.850000000000000E-002    4.102346231453419E-020
 -2.840000000000000E-002   -3.442630578813705E-020
 -2.830000000000000E-002   -1.332832213269608E-019
 -2.820000000000000E-002   -2.442814010568982E-019
 -2.810000000000000E-002   -3.492127033653257E-019
 -2.800000000000000E-002   -4.241057624103162E-019
 -2.790000000000000E-002   -4.420721180510041E-019
 -2.780000000000000E-002   -3.778282103935747E-019
 -2.770000000000000E-002   -2.135437967748286E-019
 -2.760000000000000E-002    5.474098819787853E-020
 -2.750000000000000E-002    4.112773666421082E-019
 -2.740000000000000E-002    8.167756166971409E-019
 -2.730000000000000E-002    1.208077380665023E-018
 -2.720000000000000E-002    1.502608884352867E-018
 -2.710000000000000E-002    1.608326671396886E-018
 -2.700000000000000E-002    1.438963070065079E-018
 -2.690000000000000E-002    9.332206211123451E-019
 -2.680000000000000E-002    7.530875361789239E-020
 -2.670000000000000E-002   -1.086899656243547E-018
 -2.660000000000000E-002   -2.430518899419894E-018
 -2.650000000000000E-002   -3.757550339192664E-018
 -2.640000000000000E-002   -4.809584640642660E-018
 -2.630000000000000E-002   -5.298979384907739E-018
 -2.620000000000000E-002   -4.955390065178932E-018
 -2.610000000000000E-002   -3.583136340074006E-018
 -2.600000000000000E-002   -1.121382707375707E-018
 -2.590000000000000E-002    2.303796183039590E-018
 -2.580000000000000E-002    6.347984607717261E-018
 -2.570000000000000E-002    1.044967425776416E-017
 -2.560000000000000E-002    1.387329025708163E-017
 -2.550000000000000E-002    1.579750627893757E-017
 -2.540000000000000E-002    1.544453047449614E-017
 -2.530000000000000E-002    1.223697546125567E-017
 -2.520000000000000E-002    5.959974461615173E-018
 -2.510000000000000E-002   -3.100777164281844E-018
 -2.500000000000000E-002   -1.407751588614751E-017
 -2.490000000000000E-002   -2.552561663638755E-017
 -2.480000000000000E-002   -3.553704334705394E-017
 -2.470000000000000E-002   -4.196857033297973E-017
 -2.460000000000000E-002   -4.277133734223469E-017
 -2.450000000000000E-002   -3.638592557126091E-017
 -2.440000000000000E-002   -2.214603023712548E-017
 -2.430000000000000E-002   -6.182907730187150E-019
 -2.420000000000000E-002    2.619967203762208E-017
 -2.410000000000000E-002    5.489330495460154E-017
 -2.400000000000000E-002    8.090493252399217E-017
 -2.390000000000000E-002    9.907833764362933E-017
 -2.380000000000000E-002    1.044377864488109E-016
 -2.370000000000000E-002    9.311420411310621E-017
 -2.360000000000000E-002    6.328459949353242E-017
 -2.350000000000000E-002    1.595857231139848E-017
 -2.340000000000000E-002   -4.456327240240088E-017
 -2.330000000000000E-002   -1.107131627011122E-016
 -2.320000000000000E-002   -1.722630633354068E-016
 -2.310000000000000E-002   -2.175328642910392E-016
 -2.300000000000000E-002   -2.351139659825721E-016
 -2.290000000000000E-002   -2.159139357397680E-016
 -2.280000000000000E-002   -1.552302669022605E-016
 -2.270000000000000E-002   -5.449679836806060E-017
 -2.260000000000000E-002    7.766832386400455E-017
 -2.250000000000000E-002    2.254357909437178E-016
 -2.240000000000000E-002    3.669689778450593E-016
 -2.230000000000000E-002    4.768955655497894E-016
 -2.220000000000000E-002    5.298730170394804E-016
 -2.210000000000000E-002    5.048539987265686E-016
 -2.200000000000000E-002    3.894646855729362E-016
 -2.190000000000000E-002    1.837810403434995E-016
 -2.180000000000000E-002   -9.724036010938613E-017
 -2.170000000000000E-002   -4.233286871734455E-016
 -2.160000000000000E-002   -7.508968494075022E-016
 -2.150000000000000E-002   -1.027580065674582E-015
 -2.140000000000000E-002   -1.199019392011674E-015
 -2.130000000000000E-002   -1.217183158067282E-015
 -2.120000000000000E-002   -1.049145766827451E-015
 -2.110000000000000E-002   -6.849928561891045E-016
 -2.100000000000000E-002   -1.434471292238698E-016
 -2.090000000000000E-002    5.260528758677275E-016
 -2.080000000000000E-002    1.245719624918023E-015
 -2.070000000000000E-002    1.916572962590696E-015
 -2.060000000000000E-002    2.430018040848404E-015
 -2.050000000000000E-002    2.682745669083313E-015
 -2.040000000000000E-002    2.593164500936032E-015
 -2.030000000000000E-002    2.117088496849121E-015
 -2.020000000000000E-002    1.260182704432835E-015
 -2.010000000000000E-002    8.481041877669743E-017
 -2.000000000000000E-002   -1.290554945809219E-015
 -1.990000000000000E-002   -2.700328965593181E-015
 -1.980000000000000E-002   -3.949084408649286E-015
 -1.970000000000000E-002   -4.835688901656623E-015
 -1.960000000000000E-002   -5.181717466890381E-015
 -1.950000000000000E-002   -4.860572165422364E-015
 -1.940000000000000E-002   -3.823163438211027E-015
 -1.930000000000000E-002   -2.115951248391672E-015
 -1.920000000000000E-002    1.122919818506374E-016
 -1.910000000000000E-002    2.617512647209232E-015
 -1.900000000000000E-002    5.082065111150528E-015
 -1.890000000000000E-002    7.149968423587439E-015
 -1.880000000000000E-002    8.472555287567358E-015
 -1.870000000000000E-002    8.759471589403786E-015
 -1.860000000000000E-002    7.828531056870231E-015
 -1.850000000000000E-002    5.647203601347206E-015
 -1.840000000000000E-002    2.358726428743372E-015
 -1.830000000000000E-002   -1.713084628251608E-015
 -1.820000000000000E-002   -6.084019770794703E-015
 -1.810000000000000E-002   -1.015549402151756E-014
 -1.800000000000000E-002   -1.328368001386252E-014
 -1.790000000000000E-002   -1.486547821586341E-014
 -1.780000000000000E-002   -1.443169405393143E-014
 -1.770000000000000E-002   -1.173535554267682E-014
 -1.760000000000000E-002   -6.821881770458559E-015
 -1.750000000000000E-002   -6.828047884218600E-017
 -1.740000000000000E-002    7.819037821976461E-015
 -1.730000000000000E-002    1.585421294592605E-014
 -1.720000000000000E-002    2.287011240076386E-014
 -1.710000000000000E-002    2.765847233677723E-014
 -1.700000000000000E-002    2.913867627153458E-014
 -1.690000000000000E-002    2.653547514909931E-014
 -1.680000000000000E-002    1.954138966089621E-014
 -1.670000000000000E-002    8.437697814396943E-015
 -1.660000000000000E-002   -5.850491124941685E-015
 -1.650000000000000E-002   -2.178385361823141E-014
 -1.640000000000000E-002   -3.733291013695184E-014
 -1.630000000000000E-002   -5.019376244041628E-014
 -1.620000000000000E-002   -5.807882798794155E-014
 -1.610000000000000E-002   -5.905195662388038E-014
 -1.600000000000000E-002   -5.186569611954401E-014
 -1.590000000000000E-002   -3.625124239270260E-014
 -1.580000000000000E-002   -1.311055313418966E-014
 -1.570000000000000E-002    1.543309638651008E-014
 -1.560000000000000E-002    4.615610437335065E-014
 -1.550000000000000E-002    7.503539113562905E-014
 -1.540000000000000E-002    9.771234863187034E-014
 -1.530000000000000E-002    1.100755821197504E-013
 -1.520000000000000E-002    1.088937945666778E-013
 -1.510000000000000E-002    9.241222025385810E-014
 -1.500000000000000E-002    6.081894409683261E-014
 -1.490000000000000E-002    1.649313325393352E-014
 -1.480000000000000E-002   -3.603263022322365E-014
 -1.470000000000000E-002   -9.043020048000947E-014
 -1.460000000000000E-002   -1.392448261854899E-013
 -1.450000000000000E-002   -1.748190546254407E-013
 -1.440000000000000E-002   -1.903689917621774E-013
 -1.430000000000000E-002   -1.810746760943809E-013
 -1.420000000000000E-002   -1.450263869841699E-013
 -1.410000000000000E-002   -8.387015162760681E-014
 -1.400000000000000E-002   -3.020220508765107E-015
 -1.390000000000000E-002    8.864371642729064E-014
 -1.380000000000000E-002    1.796140412626103E-013
 -1.370000000000000E-002    2.570676015611055E-013
 -1.360000000000000E-002    3.085190179384473E-013
 -1.350000000000000E-002    3.236155932296441E-013
 -1.340000000000000E-002    2.958331915221783E-013
 -1.330000000000000E-002    2.238206569220678E-013
 -1.320000000000000E-002    1.121653736990431E-013
 -1.310000000000000E-002   -2.858794794313348E-014
 -1.300000000000000E-002   -1.827430378360968E-013
 -1.290000000000000E-002   -3.310522418793684E-013
 -1.280000000000000E-002   -4.529660221842679E-013
 -1.270000000000000E-002   -5.292836755303131E-013
 -1.260000000000000E-002   -5.448795228939631E-013
 -1.250000000000000E-002   -4.911428588389647E-013
 -1.240000000000000E-002   -3.677732388241712E-013
 -1.230000000000000E-002   -1.836365559336042E-013
 -1.220000000000000E-002    4.351441527708756E-014
 -1.210000000000000E-002    2.885175819605260E-013
 -1.200000000000000E-002    5.213840919697303E-013
 -1.190000000000000E-002    7.107471473326020E-013
 -1.180000000000000E-002    8.278051502580379E-013
 -1.170000000000000E-002    8.502996547765439E-013
 -1.160000000000000E-002    7.660270251940207E-013
 -1.150000000000000E-002    5.754016036421141E-013
 -1.140000000000000E-002    2.926660844309434E-013
 -1.130000000000000E-002   -5.452532449146987E-014
 -1.120000000000000E-002   -4.272554829707739E-013
 -1.110000000000000E-002   -7.791300737814206E-013
 -1.100000000000000E-002   -1.061408629969559E-012
 -1.090000000000000E-002   -1.228999796152066E-012
 -1.080000000000000E-002   -1.246691484551082E-012
 -1.070000000000000E-002   -1.094880502447357E-012
 -1.060000000000000E-002   -7.740489711614919E-013
 -1.050000000000000E-002   -3.072676449135760E-013
 -1.040000000000000E-002    2.598392764633578E-013
 -1.030000000000000E-002    8.620275436251080E-013
 -1.020000000000000E-002    1.420317158465174E-012
 -1.010000000000000E-002    1.850530635788757E-012
 -1.000000000000000E-002    2.073805297867663E-012
 -9.899999999999999E-003    2.028034544004914E-012
 -9.800000000000000E-003    1.678887994131600E-012
 -9.699999999999999E-003    1.028868248094877E-012
 -9.599999999999999E-003    1.228462694488348E-013
 -9.500000000000000E-003   -9.512912544350141E-013
 -9.399999999999999E-003   -2.067849144526226E-012
 -9.299999999999999E-003   -3.074689283747159E-012
 -9.200000000000000E-003   -3.810273368913834E-012
 -9.099999999999999E-003   -4.124975280894077E-012
 -8.999999999999999E-003   -3.904376050337786E-012
 -8.900000000000000E-003   -3.091527678402502E-012
 -8.799999999999999E-003   -1.704758164617770E-012
 -8.699999999999999E-003    1.523886530893240E-013
 -8.600000000000000E-003    2.291951073500445E-012
 -8.499999999999999E-003    4.454866502146768E-012
 -8.399999999999999E-003    6.337005977229722E-012
 -8.300000000000000E-003    7.626264484055111E-012
 -8.199999999999999E-003    8.046995450966678E-012
 -8.100000000000000E-003    7.406372390348608E-012
 -8.000000000000000E-003    5.635959671759317E-012
 -7.899999999999999E-003    2.821371071222842E-012
 -7.800000000000000E-003   -7.864492567373167E-013
 -7.699999999999999E-003   -4.783067116730764E-012
 -7.599999999999999E-003   -8.647419061296736E-012
 -7.499999999999999E-003   -1.180203092209294E-011
 -7.399999999999999E-003   -1.369100674598272E-011
 -7.299999999999999E-003   -1.386653962097140E-011
 -7.199999999999999E-003   -1.207189095915726E-011
 -7.100000000000000E-003   -8.307504334920310E-012
 -6.999999999999999E-003   -2.867462002362868E-012
 -6.899999999999999E-003    3.663749825561147E-012
 -6.800000000000000E-003    1.045946695820645E-011
 -6.699999999999999E-003    1.654305914013496E-011
 -6.599999999999999E-003    2.091611972325310E-011
 -6.499999999999999E-003    2.270772434581144E-011
 -6.399999999999999E-003    2.132439381182101E-011
 -6.299999999999999E-003    1.657752424544830E-011
 -6.199999999999999E-003    8.765276919750207E-012
 -6.100000000000000E-003   -1.310027533756116E-012
 -5.999999999999999E-003   -1.240033745037309E-011
 -5.899999999999999E-003   -2.294700556872193E-011
 -5.800000000000000E-003   -3.128152336061816E-011
 -5.699999999999999E-003   -3.586885966752073E-011
 -5.599999999999999E-003   -3.556073551005242E-011
 -5.499999999999999E-003   -2.982039519205020E-011
 -5.399999999999999E-003   -1.888001195467683E-011
 -5.299999999999999E-003   -3.797650043296892E-012
 -5.199999999999999E-003    1.360749465324604E-011
 -5.099999999999999E-003    3.094631970348973E-011
 -4.999999999999999E-003    4.556262670756077E-011
 -4.899999999999999E-003    5.491341056883193E-011
 -4.799999999999999E-003    5.697602239814024E-011
 -4.699999999999999E-003    5.062138305495122E-011
 -4.599999999999999E-003    3.589065060008701E-011
 -4.499999999999999E-003    1.412078635425067E-011
 -4.399999999999999E-003   -1.211802761852995E-011
 -4.299999999999999E-003   -3.928448690779892E-011
 -4.199999999999999E-003   -6.330913533781372E-011
 -4.099999999999999E-003   -8.016861110301110E-011
 -3.999999999999999E-003   -8.651545865631005E-011
 -3.899999999999999E-003   -8.027079777703681E-011
 -3.799999999999999E-003   -6.108266885910053E-011
 -3.699999999999999E-003   -3.056368717021587E-011
 -3.599999999999999E-003    7.752670673001800E-012
 -3.499999999999999E-003    4.876018516121191E-011
 -3.399999999999999E-003    8.640954042612533E-011
 -3.299999999999999E-003    1.145503111802257E-010
 -3.199999999999999E-003    1.278749634355424E-010
 -3.099999999999999E-003    1.228278708275994E-010
 -2.999999999999999E-003    9.833324942344114E-011
 -2.899999999999999E-003    5.621027149796241E-011
 -2.799999999999999E-003    1.179298419819297E-012
 -2.699999999999999E-003   -5.958208023089628E-011
 -2.599999999999999E-003   -1.173078995596865E-010
 -2.499999999999999E-003   -1.628433982944583E-010
 -2.399999999999999E-003   -1.880199206629306E-010
 -2.299999999999999E-003   -1.870080982240769E-010
 -2.199999999999999E-003   -1.574367883538081E-010
 -2.099999999999999E-003   -1.010819286156025E-010
 -1.999999999999999E-003   -2.397879220562622E-011
 -1.899999999999999E-003    6.411244443562292E-011
 -1.799999999999999E-003    1.508636352455163E-010
 -1.699999999999999E-003    2.230346732431123E-010
 -1.599999999999999E-003    2.684166593347460E-010
 -1.499999999999999E-003    2.777872443012772E-010
 -1.399999999999999E-003    2.465771557406005E-010
 -1.299999999999999E-003    1.759661153883319E-010
 -1.199999999999999E-003    7.319089687426216E-011
 -1.099999999999999E-003   -4.904803612062907E-011
 -9.999999999999989E-004   -1.740647580658596E-010
 -8.999999999999990E-004   -2.833964944382077E-010
 -7.999999999999990E-004   -3.594619408159850E-010
 -6.999999999999989E-004   -3.882978947067943E-010
 -5.999999999999990E-004   -3.619599725772465E-010
 -4.999999999999989E-004   -2.801932487307821E-010
 -3.999999999999989E-004   -1.510601947154187E-010
 -2.999999999999989E-004    9.650144652934803E-012
 -1.999999999999989E-004    1.802336591771982E-010
 -9.999999999999892E-005    3.359176609371664E-010
  1.084202172485504E-018    4.523838948859729E-010
  1.000000000000011E-004    5.094790754647586E-010
  2.000000000000011E-004    4.945597835268036E-010
  3.000000000000011E-004    4.049346765929477E-010
  4.000000000000011E-004    2.489668655434604E-010
  5.000000000000011E-004    4.557412687860343E-011
  6.000000000000011E-004   -1.779088909821763E-010
  7.000000000000011E-004   -3.892931444517427E-010
  8.000000000000011E-004   -5.560777361281397E-010
  9.000000000000012E-004   -6.503456782041106E-010
  1.000000000000001E-003   -6.532916580721763E-010
  1.100000000000001E-003   -5.586675943163786E-010
  1.200000000000001E-003   -3.745491307081189E-010
  1.300000000000001E-003   -1.230440491452556E-010
  1.400000000000001E-003    1.621478716150445E-010
  1.500000000000001E-003    4.400925655789052E-010
  1.600000000000001E-003    6.683580123999448E-010
  1.700000000000001E-003    8.093471932233997E-010
  1.800000000000001E-003    8.363036494986324E-010
  1.900000000000001E-003    7.380578651871070E-010
  2.000000000000001E-003    5.217150348128842E-010
  2.100000000000001E-003    2.127469624597818E-010
  2.200000000000001E-003   -1.476886549028950E-010
  2.300000000000001E-003   -5.079696386137010E-010
  2.400000000000001E-003   -8.131401968139385E-010
  2.500000000000001E-003   -1.012994096120795E-009
  2.600000000000001E-003   -1.069949232720282E-009
  2.700000000000001E-003   -9.655156497336624E-010
  2.800000000000001E-003   -7.042993829764511E-010
  2.900000000000001E-003   -3.147899942338259E-010
  3.000000000000001E-003    1.533792409365091E-010
  3.100000000000001E-003    6.354996203021131E-010
  3.200000000000001E-003    1.060474845060890E-009
  3.300000000000001E-003    1.360986542449991E-009
  3.400000000000001E-003    1.483707754255713E-009
  3.500000000000001E-003    1.398050127427092E-009
  3.600000000000001E-003    1.102059133650803E-009
  3.700000000000001E-003    6.244232407093385E-010
  3.800000000000001E-003    2.208147207683444E-011
  3.900000000000001E-003   -6.264601655034161E-010
  4.000000000000001E-003   -1.231348415058191E-009
  4.100000000000001E-003   -1.703822210656488E-009
  4.200000000000001E-003   -1.969150835448061E-009
  4.300000000000001E-003   -1.978192229920551E-009
  4.400000000000001E-003   -1.715793620877648E-009
  4.500000000000001E-003   -1.204634429001392E-009
  4.600000000000002E-003   -5.037142402785173E-010
  4.700000000000001E-003    2.985613018316126E-010
  4.800000000000001E-003    1.095945974620333E-009
  4.900000000000002E-003    1.779094615758041E-009
  5.000000000000001E-003    2.251460023950321E-009
  5.100000000000001E-003    2.444053268915255E-009
  5.200000000000001E-003    2.326829094679731E-009
  5.300000000000002E-003    1.914843913449062E-009
  5.400000000000001E-003    1.268017061929412E-009
  5.500000000000001E-003    4.842102155453872E-010
  5.600000000000002E-003   -3.136829086219845E-010
  5.700000000000001E-003   -9.950290631234627E-010
  5.800000000000001E-003   -1.440789526073470E-009
  5.900000000000002E-003   -1.562142447192031E-009
  6.000000000000001E-003   -1.315602828186867E-009
  6.100000000000001E-003   -7.122290908112247E-010
  6.200000000000002E-003    1.807436217141162E-010
  6.300000000000002E-003    1.246474600821875E-009
  6.400000000000001E-003    2.332748083277866E-009
  6.500000000000001E-003    3.272167719762811E-009
  6.600000000000002E-003    3.905671924732077E-009
  6.700000000000001E-003    4.106110113416248E-009
  6.800000000000001E-003    3.798467195909190E-009
  6.900000000000002E-003    2.973662961943590E-009
  7.000000000000001E-003    1.693659172635548E-009
  7.100000000000001E-003    8.679087472952532E-011
  7.200000000000002E-003   -1.666374974610058E-009
  7.300000000000002E-003   -3.354925979845661E-009
  7.400000000000001E-003   -4.764292045214419E-009
  7.500000000000001E-003   -5.703948104616913E-009
  7.600000000000002E-003   -6.032018075814418E-009
  7.700000000000001E-003   -5.672942381902476E-009
  7.800000000000001E-003   -4.625240907408867E-009
  7.900000000000001E-003   -2.957705627765585E-009
  8.000000000000002E-003   -7.940335532230070E-010
  8.100000000000001E-003    1.712389665009176E-009
  8.200000000000001E-003    4.410313697081534E-009
  8.300000000000002E-003    7.184638858580980E-009
  8.400000000000001E-003    9.987731626467040E-009
  8.500000000000002E-003    1.286328898430841E-008
  8.600000000000002E-003    1.595888869087019E-008
  8.700000000000001E-003    1.952485737852694E-008
  8.800000000000002E-003    2.389903139431818E-008
  8.900000000000002E-003    2.947896115039370E-008
  9.000000000000001E-003    3.668513397605839E-008
  9.100000000000002E-003    4.592024374287952E-008
  9.200000000000002E-003    5.753022884769047E-008
  9.300000000000001E-003    7.177289596278621E-008
  9.400000000000002E-003    8.879910860679850E-008
  9.500000000000001E-003    1.086496527452003E-007
  9.600000000000001E-003    1.312690037158768E-007
  9.700000000000002E-003    1.565345428749330E-007
  9.800000000000001E-003    1.842975103822910E-007
  9.900000000000001E-003    2.144302824038110E-007
  1.000000000000000E-002    2.468730773948048E-007
  1.010000000000000E-002    2.816733881293332E-007
  1.020000000000000E-002    3.190120344703353E-007
  1.030000000000000E-002    3.592114958581088E-007
  1.040000000000000E-002    4.027249638395298E-007
  1.050000000000000E-002    4.501065699098132E-007
  1.060000000000000E-002    5.019671188038648E-007
  1.070000000000000E-002    5.589212273627606E-007
  1.080000000000000E-002    6.215330094943620E-007
  1.090000000000000E-002    6.902692353527452E-007
  1.100000000000000E-002    7.654659203311421E-007
  1.110000000000000E-002    8.473153124242597E-007
  1.120000000000000E-002    9.358747807107396E-007
  1.130000000000000E-002    1.031097673100033E-006
  1.140000000000000E-002    1.132882520731459E-006
  1.150000000000000E-002    1.241133967347986E-006
  1.160000000000000E-002    1.355827337421706E-006
  1.170000000000000E-002    1.477067119643101E-006
  1.180000000000000E-002    1.605131393281664E-006
  1.190000000000000E-002    1.740495661951347E-006
  1.200000000000000E-002    1.883831647087209E-006
  1.210000000000000E-002    2.035980848359715E-006
  1.220000000000000E-002    2.197906806177413E-006
  1.230000000000000E-002    2.370632631867132E-006
  1.240000000000000E-002    2.555172364949275E-006
  1.250000000000000E-002    2.752465977747575E-006
  1.260000000000000E-002    2.963329985255069E-006
  1.270000000000000E-002    3.188427701385964E-006
  1.280000000000000E-002    3.428268948894081E-006
  1.290000000000000E-002    3.683236416915631E-006
  1.300000000000000E-002    3.953637512302717E-006
  1.310000000000000E-002    4.239774456305925E-006
  1.320000000000000E-002    4.542023688806579E-006
  1.330000000000000E-002    4.860913300398976E-006
  1.340000000000000E-002    5.197186980127782E-006
  1.350000000000000E-002    5.551845321281714E-006
  1.360000000000000E-002    5.926157781896481E-006
  1.370000000000000E-002    6.321645675403202E-006
  1.380000000000000E-002    6.740034720292264E-006
  1.390000000000000E-002    7.183186535726646E-006
  1.400000000000000E-002    7.653016120092705E-006
  1.410000000000000E-002    8.151411675542790E-006
  1.420000000000000E-002    8.680165327778828E-006
  1.430000000000000E-002    9.240925334739452E-006
  1.440000000000000E-002    9.835181949433071E-006
  1.450000000000000E-002    1.046428518026089E-005
  1.460000000000000E-002    1.112949263469813E-005
  1.470000000000000E-002    1.183205172577968E-005
  1.480000000000000E-002    1.257328849694735E-005
  1.490000000000000E-002    1.335470928544917E-005
  1.500000000000000E-002    1.417808700477894E-005
  1.510000000000000E-002    1.504552777227158E-005
  1.520000000000000E-002    1.595950648944093E-005
  1.530000000000000E-002    1.692286688979577E-005
  1.540000000000000E-002    1.793878318396894E-005
  1.550000000000000E-002    1.901069255475264E-005
  1.560000000000000E-002    2.014221220847620E-005
  1.570000000000000E-002    2.133703265779391E-005
  1.580000000000000E-002    2.259884203864208E-005
  1.590000000000000E-002    2.393124967129151E-005
  1.600000000000000E-002    2.533775422881719E-005
  1.610000000000000E-002    2.682173925137717E-005
  1.620000000000000E-002    2.838652274534234E-005
  1.630000000000000E-002    3.003542881816386E-005
  1.640000000000000E-002    3.177189535914531E-005
  1.650000000000000E-002    3.359958474897890E-005
  1.660000000000000E-002    3.552249853596247E-005
  1.670000000000000E-002    3.754507171982152E-005
  1.680000000000000E-002    3.967223600000280E-005
  1.690000000000000E-002    4.190944400842500E-005
  1.700000000000000E-002    4.426265164135430E-005
  1.710000000000000E-002    4.673825760502455E-005
  1.720000000000000E-002    4.934301664298029E-005
  1.730000000000000E-002    5.208393217280444E-005
  1.740000000000000E-002    5.496815180443922E-005
  1.750000000000000E-002    5.800287548094414E-005
  1.760000000000000E-002    6.119529822678639E-005
  1.770000000000000E-002    6.455258686753807E-005
  1.780000000000000E-002    6.808191263585282E-005
  1.790000000000000E-002    7.179051901837780E-005
  1.800000000000000E-002    7.568582250921278E-005
  1.810000000000000E-002    7.977555278326437E-005
  1.820000000000000E-002    8.406786815534566E-005
  1.830000000000000E-002    8.857151249780604E-005
  1.840000000000000E-002    9.329588000676691E-005
  1.850000000000000E-002    9.825106519969898E-005
  1.860000000000000E-002    1.034478833870328E-004
  1.870000000000000E-002    1.088978340488144E-004