 -4.000000000000000E-002    0.000000000000000E+000
 -3.990000000000000E-002    0.000000000000000E+000
 -3.980000000000000E-002    0.000000000000000E+000
 -3.970000000000000E-002    0.000000000000000E+000
 -3.960000000000000E-002    0.000000000000000E+000
 -3.950000000000000E-002    0.000000000000000E+000
 -3.940000000000000E-002    0.000000000000000E+000
 -3.930000000000000E-002    0.000000000000000E+000
 -3.920000000000000E-002    0.000000000000000E+000
 -3.910000000000000E-002    0.000000000000000E+000
 -3.900000000000000E-002    0.000000000000000E+000
 -3.890000000000000E-002    0.000000000000000E+000
 -3.880000000000000E-002    0.000000000000000E+000
 -3.870000000000000E-002    0.000000000000000E+000
 -3.860000000000000E-002    0.000000000000000E+000
 -3.850000000000000E-002    0.000000000000000E+000
 -3.840000000000000E-002    0.000000000000000E+000
 -3.830000000000000E-002    0.000000000000000E+000
 -3.820000000000000E-002    0.000000000000000E+000
 -3.810000000000000E-002    0.000000000000000E+000
 -3.800000000000000E-002    0.000000000000000E+000
 -3.790000000000000E-002    0.000000000000000E+000
 -3.780000000000000E-002    0.000000000000000E+000
 -3.770000000000000E-002    0.000000000000000E+000
 -3.760000000000000E-002    0.000000000000000E+000
 -3.750000000000000E-002    0.000000000000000E+000
 -3.740000000000000E-002    0.000000000000000E+000
 -3.730000000000000E-002    0.000000000000000E+000
 -3.720000000000000E-002    0.000000000000000E+000
 -3.710000000000000E-002    0.000000000000000E+000
 -3.700000000000000E-002    0.000000000000000E+000
 -3.690000000000000E-002    0.000000000000000E+000
 -3.680000000000000E-002    0.000000000000000E+000
 -3.670000000000000E-002    0.000000000000000E+000
 -3.660000000000000E-002    0.000000000000000E+000
 -3.650000000000000E-002    0.000000000000000E+000
 -3.640000000000000E-002    0.000000000000000E+000
 -3.630000000000000E-002    0.000000000000000E+000
 -3.620000000000000E-002    0.000000000000000E+000
 -3.610000000000000E-002    0.000000000000000E+000
 -3.600000000000000E-002    0.000000000000000E+000
 -3.590000000000000E-002    0.000000000000000E+000
 -3.580000000000000E-002    0.000000000000000E+000
 -3.570000000000000E-002    0.000000000000000E+000
 -3.560000000000000E-002    0.000000000000000E+000
 -3.550000000000000E-002    0.000000000000000E+000
 -3.540000000000000E-002    0.000000000000000E+000
 -3.530000000000000E-002    0.000000000000000E+000
 -3.520000000000000E-002    0.000000000000000E+000
 -3.510000000000000E-002    0.000000000000000E+000
 -3.500000000000000E-002    0.000000000000000E+000
 -3.490000000000000E-002    0.000000000000000E+000
 -3.480000000000000E-002    0.000000000000000E+000
 -3.470000000000000E-002    0.000000000000000E+000
 -3.460000000000000E-002    0.000000000000000E+000
 -3.450000000000000E-002    0.000000000000000E+000
 -3.440000000000000E-002    0.000000000000000E+000
 -3.430000000000000E-002    0.000000000000000E+000
 -3.420000000000000E-002    0.000000000000000E+000
 -3.410000000000000E-002    0.000000000000000E+000
 -3.400000000000000E-002    0.000000000000000E+000
 -3.390000000000000E-002    0.000000000000000E+000
 -3.380000000000000E-002    0.000000000000000E+000
 -3.370000000000000E-002    0.000000000000000E+000
 -3.360000000000000E-002    0.000000000000000E+000
 -3.350000000000000E-002    0.000000000000000E+000
 -3.340000000000000E-002    0.000000000000000E+000
 -3.330000000000000E-002    0.000000000000000E+000
 -3.320000000000000E-002    0.000000000000000E+000
 -3.310000000000000E-002    0.000000000000000E+000
 -3.300000000000000E-002    0.000000000000000E+000
 -3.290000000000000E-002    0.000000000000000E+000
 -3.280000000000000E-002    0.000000000000000E+000
 -3.270000000000000E-002    0.000000000000000E+000
 -3.260000000000000E-002    0.000000000000000E+000
 -3.250000000000000E-002   -1.924390591266381E-047
 -3.240000000000000E-002   -3.848781182532762E-047
 -3.230000000000000E-002   -3.848781182532762E-047
 -3.220000000000000E-002    0.000000000000000E+000
 -3.210000000000000E-002    3.993907412312417E-046
 -3.200000000000000E-002    1.172513682476840E-045
 -3.190000000000000E-002    2.654813424580163E-045
 -3.180000000000000E-002    5.110773154729467E-045
 -3.170000000000000E-002    8.495490425795203E-045
 -3.160000000000000E-002    1.198103733771764E-044
 -3.150000000000000E-002    1.154483916450348E-044
 -3.140000000000000E-002    4.090515834386524E-045
 -3.130000000000000E-002   -1.702164577796020E-044
 -3.120000000000000E-002   -6.351143603032410E-044
 -3.110000000000000E-002   -1.477258873775656E-043
 -3.100000000000000E-002   -2.779650852897074E-043
 -3.090000000000000E-002   -4.522251342660692E-043
 -3.080000000000000E-002   -6.404886409024813E-043
 -3.070000000000000E-002   -7.661650818198301E-043
 -3.060000000000000E-002   -6.706654871078738E-043
 -3.050000000000000E-002   -9.421051531365818E-044
 -3.040000000000000E-002    1.338131747445508E-042
 -3.030000000000000E-002    4.075936552180535E-042
 -3.020000000000000E-002    8.527291061918934E-042
 -3.010000000000000E-002    1.480275716834214E-041
 -3.000000000000000E-002    2.229217829149755E-041
 -2.990000000000000E-002    2.904756449888632E-041
 -2.980000000000000E-002    3.103389073770215E-041
 -2.970000000000000E-002    2.143667441698811E-041
 -2.960000000000000E-002   -9.607782132848197E-042
 -2.950000000000000E-002   -7.424483394123351E-041
 -2.940000000000000E-002   -1.842500351196083E-040
 -2.930000000000000E-002   -3.455487300492725E-040
 -2.920000000000000E-002   -5.490877889650545E-040
 -2.910000000000000E-002   -7.579576302089396E-040
 -2.900000000000000E-002   -8.920746887092187E-040
 -2.890000000000000E-002   -8.141433600088530E-040
 -2.880000000000000E-002   -3.239483462407935E-040
 -2.870000000000000E-002    8.280997399846682E-040
 -2.860000000000000E-002    2.893867771106657E-039
 -2.850000000000000E-002    6.031519714194939E-039
 -2.840000000000000E-002    1.014926958667002E-038
 -2.830000000000000E-002    1.468968626623113E-038
 -2.820000000000000E-002    1.837893123218609E-038
 -2.810000000000000E-002    1.900184641448407E-038
 -2.800000000000000E-002    1.331150036724219E-038
 -2.790000000000000E-002   -2.767109215593395E-039
 -2.780000000000000E-002   -3.344078724354247E-038
 -2.770000000000000E-002   -8.166016721275215E-038
 -2.760000000000000E-002   -1.469118246987475E-037
 -2.750000000000000E-002   -2.222421091090916E-037
 -2.740000000000000E-002   -2.908826981072853E-037
 -2.730000000000000E-002   -3.233105730451201E-037
 -2.720000000000000E-002   -2.761401322603491E-037
 -2.710000000000000E-002   -9.480195928898537E-038
 -2.700000000000000E-002    2.776910406100070E-037
 -2.690000000000000E-002    8.837449905274551E-037
 -2.680000000000000E-002    1.724822040944803E-036
 -2.670000000000000E-002    2.726799717266411E-036
 -2.660000000000000E-002    3.701776113237996E-036
 -2.650000000000000E-002    4.316004588745715E-036
 -2.640000000000000E-002    4.079304640933960E-036
 -2.630000000000000E-002    2.376353809703360E-036
 -2.620000000000000E-002   -1.437429995028362E-036
 -2.610000000000000E-002   -7.855975950310208E-036
 -2.600000000000000E-002   -1.695117914226778E-035
 -2.590000000000000E-002   -2.802600000427228E-035
 -2.580000000000000E-002   -3.924373473533672E-035
 -2.570000000000000E-002   -4.733093114985383E-035
 -2.560000000000000E-002   -4.750016582333783E-035
 -2.550000000000000E-002   -3.377735106528187E-035
 -2.540000000000000E-002    7.273076085799580E-038
 -2.530000000000000E-002    5.887325668742985E-035
 -2.520000000000000E-002    1.435861563290771E-034
 -2.510000000000000E-002    2.482728000841671E-034
 -2.500000000000000E-002    3.569572319958592E-034
 -2.490000000000000E-002    4.412536153863419E-034
 -2.480000000000000E-002    4.599833695641742E-034
 -2.470000000000000E-002    3.622512429559868E-034
 -2.460000000000000E-002    9.542430088292904E-035
 -2.450000000000000E-002   -3.810109332541299E-034
 -2.440000000000000E-002   -1.075798644964463E-033
 -2.430000000000000E-002   -1.942287952880926E-033
 -2.420000000000000E-002   -2.854973800285606E-033
 -2.410000000000000E-002   -3.592976184180007E-033
 -2.400000000000000E-002   -3.839596510536349E-033
 -2.390000000000000E-002   -3.208344148136147E-033
 -2.380000000000000E-002   -1.304928188235146E-033
 -2.370000000000000E-002    2.169447714282240E-033
 -2.360000000000000E-002    7.276353398366270E-033
 -2.350000000000000E-002    1.367528949266037E-032
 -2.340000000000000E-002    2.046682301987431E-032
 -2.330000000000000E-002    2.609146597097253E-032
 -2.320000000000000E-002    2.834554370763942E-032
 -2.310000000000000E-002    2.458001123597807E-032
 -2.300000000000000E-002    1.213756988296563E-032
 -2.290000000000000E-002   -1.094841618988997E-032
 -2.280000000000000E-002   -4.502649380222598E-032
 -2.270000000000000E-002   -8.778510547762381E-032
 -2.260000000000000E-002   -1.333061480871072E-031
 -2.250000000000000E-002   -1.715190189804092E-031
 -2.240000000000000E-002   -1.884271974949872E-031
 -2.230000000000000E-002   -1.674851489669386E-031
 -2.220000000000000E-002   -9.241259852202570E-032
 -2.210000000000000E-002    4.848348853122327E-032
 -2.200000000000000E-002    2.567632243242281E-031
 -2.190000000000000E-002    5.178419842257137E-031
 -2.180000000000000E-002    7.958026337480289E-031
 -2.170000000000000E-002    1.030806616242624E-030
 -2.160000000000000E-002    1.141164145202943E-030
 -2.150000000000000E-002    1.032029015542750E-030
 -2.140000000000000E-002    6.120349459418654E-031
 -2.130000000000000E-002   -1.821333112560227E-031
 -2.120000000000000E-002   -1.355254527452872E-030
 -2.110000000000000E-002   -2.821729294000315E-030
 -2.100000000000000E-002   -4.379628228895193E-030
 -2.090000000000000E-002   -5.700109312848233E-030
 -2.080000000000000E-002   -6.342664865551563E-030
 -2.070000000000000E-002   -5.805507745796971E-030
 -2.060000000000000E-002   -3.616372998507220E-030
 -2.050000000000000E-002    5.383615740313510E-031
 -2.040000000000000E-002    6.658798449155774E-030
 -2.030000000000000E-002    1.427595729164412E-029
 -2.020000000000000E-002    2.233301473793019E-029
 -2.010000000000000E-002    2.915004188028183E-029
 -2.000000000000000E-002    3.252116242771626E-029
 -1.990000000000000E-002    2.998435704324156E-029
 -1.980000000000000E-002    1.928158393668733E-029
 -1.970000000000000E-002   -1.010688508357204E-030
 -1.960000000000000E-002   -3.075072818655663E-029
 -1.950000000000000E-002   -6.752761397575616E-029
 -1.940000000000000E-002   -1.061638074660466E-028
 -1.930000000000000E-002   -1.386376181023973E-028
 -1.920000000000000E-002   -1.546370498743256E-028
 -1.910000000000000E-002   -1.429033913233340E-028
 -1.900000000000000E-002   -9.340780329654447E-029
 -1.890000000000000E-002   -2.275600792088552E-031
 -1.880000000000000E-002    1.352361160994753E-028
 -1.870000000000000E-002    3.012960094062082E-028
 -1.860000000000000E-002    4.740748691221188E-028
 -1.850000000000000E-002    6.175679184921308E-028
 -1.840000000000000E-002    6.865205567829295E-028
 -1.830000000000000E-002    6.326849644349659E-028
 -1.820000000000000E-002    4.144819349975889E-028
 -1.810000000000000E-002    9.317080701067147E-030
 -1.800000000000000E-002   -5.731307106764765E-028
 -1.790000000000000E-002   -1.279271434070577E-027
 -1.780000000000000E-002   -2.004970256390662E-027
 -1.770000000000000E-002   -2.597537577425181E-027
 -1.760000000000000E-002   -2.869508550602309E-027
 -1.750000000000000E-002   -2.626010932137363E-027
 -1.740000000000000E-002   -1.705177977678734E-027
 -1.730000000000000E-002   -2.788051325260454E-029
 -1.720000000000000E-002    2.350576470773177E-027
 -1.710000000000000E-002    5.197590072174557E-027
 -1.700000000000000E-002    8.082404750936000E-027
 -1.690000000000000E-002    1.039081351032146E-026
 -1.680000000000000E-002    1.138641829743186E-026
 -1.670000000000000E-002    1.032343653424459E-026
 -1.660000000000000E-002    6.606514882661984E-027
 -1.650000000000000E-002   -1.922995412385412E-029
 -1.640000000000000E-002   -9.278015552311774E-027
 -1.630000000000000E-002   -2.021488059086356E-026
 -1.620000000000000E-002   -3.113770232603040E-026
 -1.610000000000000E-002   -3.969749318759176E-026
 -1.600000000000000E-002   -4.314260908007572E-026
 -1.590000000000000E-002   -3.875795513365166E-026
 -1.580000000000000E-002   -2.446395181615608E-026
 -1.570000000000000E-002    4.944183119758545E-028
 -1.560000000000000E-002    3.488396983338055E-026
 -1.550000000000000E-002    7.499821542659191E-026
 -1.540000000000000E-002    1.145220928028398E-025
 -1.530000000000000E-002    1.449053192537045E-025
 -1.520000000000000E-002    1.563516958381969E-025
 -1.510000000000000E-002    1.394380133134153E-025
 -1.500000000000000E-002    8.724568149762905E-026
 -1.490000000000000E-002   -2.264184622324030E-027
 -1.480000000000000E-002   -1.240507109386584E-025
 -1.470000000000000E-002   -2.644990359560068E-025
 -1.460000000000000E-002   -4.012012285785771E-025
 -1.450000000000000E-002   -5.045116794183668E-025
 -1.440000000000000E-002   -5.411750879257334E-025
 -1.430000000000000E-002   -4.799898093013265E-025
 -1.420000000000000E-002   -2.990256025785038E-025
 -1.410000000000000E-002    6.580997704869571E-027
 -1.400000000000000E-002    4.176888679141673E-025
 -1.390000000000000E-002    8.868201515381553E-025
 -1.380000000000000E-002    1.338230745929954E-024
 -1.370000000000000E-002    1.673868163076848E-024
 -1.360000000000000E-002    1.785970230301531E-024
 -1.350000000000000E-002    1.575924367997212E-024
 -1.340000000000000E-002    9.775737526896798E-025
 -1.330000000000000E-002   -1.837325763446436E-026
 -1.320000000000000E-002   -1.343509653459832E-024
 -1.310000000000000E-002   -2.839953189267910E-024
 -1.300000000000000E-002   -4.263026701449539E-024
 -1.290000000000000E-002   -5.302568193401120E-024
 -1.280000000000000E-002   -5.624555172457359E-024
 -1.270000000000000E-002   -4.931081009975162E-024
 -1.260000000000000E-002   -3.032319851384568E-024
 -1.250000000000000E-002    8.038030060177674E-026
 -1.240000000000000E-002    4.174826989666531E-024
 -1.230000000000000E-002    8.748141573457140E-024
 -1.220000000000000E-002    1.304222644363770E-023
 -1.210000000000000E-002    1.611563959125736E-023
 -1.200000000000000E-002    1.697492794248818E-023
 -1.190000000000000E-002    1.475736598585777E-023
 -1.180000000000000E-002    8.944073176059956E-024
 -1.170000000000000E-002   -4.300938105945639E-025
 -1.160000000000000E-002   -1.261313779769096E-023
 -1.150000000000000E-002   -2.606604139160882E-023
 -1.140000000000000E-002   -3.852884828745043E-023
 -1.130000000000000E-002   -4.725054178264367E-023
 -1.120000000000000E-002   -4.938600984592077E-023
 -1.110000000000000E-002   -4.253081278437660E-023
 -1.100000000000000E-002   -2.532811322350782E-023
 -1.090000000000000E-002    1.951672412057267E-024
 -1.080000000000000E-002    3.698183734872337E-023
 -1.070000000000000E-002    7.523041426400854E-023
 -1.060000000000000E-002    1.102026474070298E-022
 -1.050000000000000E-002    1.341409203225773E-022
 -1.040000000000000E-002    1.391762398486980E-022
 -1.030000000000000E-002    1.188343292929830E-022
 -1.020000000000000E-002    6.970135815333522E-023
 -1.010000000000000E-002   -7.032700432734230E-024
 -1.000000000000000E-002   -1.044909436903554E-022
 -9.899999999999999E-003   -2.098292577267600E-022
 -9.800000000000000E-003   -3.050396847212699E-022
 -9.699999999999999E-003   -3.689841837181616E-022
 -9.599999999999999E-003   -3.806048124721785E-022
 -9.500000000000000E-003   -3.230115776457114E-022
 -9.399999999999999E-003   -1.878949562790061E-022
 -9.299999999999999E-003    2.050459881355744E-023
 -9.200000000000000E-003    2.827614751813756E-022
 -9.099999999999999E-003    5.638373140571373E-022
 -8.999999999999999E-003    8.155420312406578E-022
 -8.900000000000000E-003    9.821875033065883E-022
 -8.799999999999999E-003    1.009200394975228E-021
 -8.699999999999999E-003    8.538274317132563E-022
 -8.600000000000000E-003    4.964317782413347E-022
 -8.499999999999999E-003   -4.963094621574098E-023
 -8.399999999999999E-003   -7.318225533173992E-022
 -8.300000000000000E-003   -1.458068359435017E-021
 -8.199999999999999E-003   -2.103828495549627E-021
 -8.100000000000000E-003   -2.527172260870047E-021
 -8.000000000000000E-003   -2.591050868248364E-021
 -7.899999999999999E-003   -2.190382295852499E-021
 -7.800000000000000E-003   -1.280034751170466E-021
 -7.699999999999999E-003    1.013688006079723E-022
 -7.599999999999999E-003    1.817392080230500E-021
 -7.499999999999999E-003    3.634587976661929E-021
 -7.399999999999999E-003    5.241739145753089E-021
 -7.299999999999999E-003    6.288512071916053E-021
 -7.199999999999999E-003    6.441068989083545E-021
 -7.100000000000000E-003    5.448376218350094E-021
 -6.999999999999999E-003    3.209389169826292E-021
 -6.899999999999999E-003   -1.712714815134807E-022
 -6.800000000000000E-003   -4.352382138629813E-021
 -6.699999999999999E-003   -8.761709914468144E-021
 -6.599999999999999E-003   -1.264590833443997E-020
 -6.499999999999999E-003   -1.516607254704639E-020
 -6.399999999999999E-003   -1.553206756702149E-020
 -6.299999999999999E-003   -1.315988719347210E-020
 -6.199999999999999E-003   -7.828278155495147E-021
 -6.100000000000000E-003    1.946103890150521E-022
 -5.999999999999999E-003    1.008503570229793E-020
 -5.899999999999999E-003    2.048431374077858E-020
 -5.800000000000000E-003    2.962270013853026E-020
 -5.699999999999999E-003    3.554755268648395E-020
 -5.599999999999999E-003    3.643777013636030E-020
 -5.499999999999999E-003    3.096644713603857E-020
 -5.399999999999999E-003    1.865612055275173E-020
 -5.299999999999999E-003    1.597444154550853E-022
 -5.199999999999999E-003   -2.260092109315367E-020
 -5.099999999999999E-003   -4.649693327853478E-020
 -4.999999999999999E-003   -6.748737657114384E-020
 -4.899999999999999E-003   -8.114641253942609E-020
 -4.799999999999999E-003   -8.337761704555117E-020
 -4.699999999999999E-003   -7.122697188910387E-020
 -4.599999999999999E-003   -4.366845839685551E-020
 -4.499999999999999E-003   -2.213649065092761E-021
 -4.399999999999999E-003    4.880358461329893E-020
 -4.299999999999999E-003    1.023893414852533E-019
 -4.199999999999999E-003    1.495661352600677E-019
 -4.099999999999999E-003    1.805519951768659E-019
 -3.999999999999999E-003    1.863373322692114E-019
 -3.899999999999999E-003    1.604603085703464E-019
 -3.799999999999999E-003    1.007036528289971E-019
 -3.699999999999999E-003    1.039174829980860E-020
 -3.599999999999999E-003   -1.010287591642711E-019
 -3.499999999999999E-003   -2.183786014803355E-019
 -3.399999999999999E-003   -3.222382494466918E-019
 -3.299999999999999E-003   -3.915050538069422E-019
 -3.199999999999999E-003   -4.067790752823330E-019
 -3.099999999999999E-003   -3.541445179446810E-019
 -2.999999999999999E-003   -2.287555742410524E-019
 -2.899999999999999E-003   -3.754952491147637E-020
 -2.799999999999999E-003    1.995705850820136E-019
 -2.699999999999999E-003    4.506023083116778E-019
 -2.599999999999999E-003    6.746170827251630E-019
 -2.499999999999999E-003    8.271416379577956E-019
 -2.399999999999999E-003    8.672371704270772E-019
 -2.299999999999999E-003    7.653659406278429E-019
 -2.199999999999999E-003    5.108161910741266E-019
 -2.099999999999999E-003    1.172945749691750E-019
 -1.999999999999999E-003   -3.746540392801982E-019
 -1.899999999999999E-003   -8.994405622309244E-019
 -1.799999999999999E-003   -1.372942826937467E-018
 -1.699999999999999E-003   -1.703505413100055E-018
 -1.599999999999999E-003   -1.806371707460689E-018
 -1.499999999999999E-003   -1.619688233216599E-018
 -1.399999999999999E-003   -1.119596344908884E-018
 -1.299999999999999E-003   -3.316128990447526E-019
 -1.199999999999999E-003    6.643755543281903E-019
 -1.099999999999999E-003    1.737572867054586E-018
 -9.999999999999989E-004    2.719171165828200E-018
 -8.999999999999990E-004    3.424217134818534E-018
 -7.999999999999990E-004    3.680336139600342E-018
 -6.999999999999989E-004    3.359628057638722E-018
 -5.999999999999990E-004    2.408824413104306E-018
 -4.999999999999989E-004    8.722014050180254E-019
 -3.999999999999989E-004   -1.098013405553334E-018
 -2.999999999999989E-004   -3.247802356401557E-018
 -1.999999999999989E-004   -5.246034171308121E-018
 -9.999999999999892E-005   -6.726779538423410E-018
  1.084202172485504E-018   -7.345201909821443E-018
  1.000000000000011E-004   -6.839919483669484E-018
  2.000000000000011E-004   -5.092359167777334E-018
  3.000000000000011E-004   -2.172458019282311E-018
  4.000000000000011E-004    1.639476837650824E-018
  5.000000000000011E-004    5.862676317251879E-018
  6.000000000000011E-004    9.861494328460091E-018
  7.000000000000011E-004    1.292519999802543E-017
  8.000000000000011E-004    1.437444837360449E-017
  9.000000000000012E-004    1.368108200991627E-017
  1.000000000000001E-003    1.058334178642043E-017
  1.100000000000001E-003    5.176269244054232E-018
  1.200000000000001E-003   -2.042207153173801E-018
  1.300000000000001E-003   -1.018487037794061E-017
  1.400000000000001E-003   -1.805643379917181E-017
  1.500000000000001E-003   -2.430029594409274E-017
  1.600000000000001E-003   -2.759737328694821E-017
  1.700000000000001E-003   -2.689254580202519E-017
  1.800000000000001E-003   -2.161549223156386E-017
  1.900000000000001E-003   -1.185807949036183E-017
  2.000000000000001E-003    1.528650365729538E-018
  2.100000000000001E-003    1.694753525510370E-017
  2.200000000000001E-003    3.219463975390599E-017
  2.300000000000001E-003    4.472274962260417E-017
  2.400000000000001E-003    5.200586718503901E-017
  2.500000000000001E-003    5.196092283831645E-017
  2.600000000000001E-003    4.336615212259504E-017
  2.700000000000001E-003    2.620623601490087E-017
  2.800000000000001E-003    1.874945433746316E-018
  2.900000000000001E-003   -2.682167356834991E-017
  3.000000000000001E-003   -5.589479942184598E-017
  3.100000000000001E-003   -8.063516892046086E-017
  3.200000000000001E-003   -9.626991359208158E-017
  3.300000000000001E-003   -9.873716533282443E-017
  3.400000000000001E-003   -8.546993275821001E-017
  3.500000000000001E-003   -5.606154923308576E-017
  3.600000000000001E-003   -1.268398006160620E-017
  3.700000000000001E-003    3.984972898302296E-017
  3.800000000000001E-003    9.444658164630970E-017
  3.900000000000001E-003    1.425270720283290E-016
  4.000000000000001E-003    1.751901776618626E-016
  4.100000000000001E-003    1.846182300421570E-016
  4.200000000000001E-003    1.655296210170903E-016
  4.300000000000001E-003    1.164488170183420E-016
  4.400000000000001E-003    4.055640499383230E-017
  4.500000000000001E-003   -5.408686288530284E-017
  4.600000000000002E-003   -1.550782712496722E-016
  4.700000000000001E-003   -2.470064046674078E-016
  4.800000000000001E-003   -3.134874700757950E-016
  4.900000000000002E-003   -3.396825160630776E-016
  5.000000000000001E-003   -3.149603868733521E-016
  5.100000000000001E-003   -2.352938811717112E-016
  5.200000000000001E-003   -1.049557526892933E-016
  5.300000000000002E-003    6.287249419743852E-017
  5.400000000000001E-003    2.468490238479307E-016
  5.500000000000001E-003    4.196674666365438E-016
  5.600000000000002E-003    5.515682714828038E-016
  5.700000000000001E-003    6.147976328425677E-016
  5.800000000000001E-003    5.884336964499714E-016
  5.900000000000002E-003    4.628504756880339E-016
  6.000000000000001E-003    2.430342063196308E-016
  6.100000000000001E-003   -4.996668214653251E-017
  6.200000000000002E-003   -3.799830526944849E-016
  6.300000000000002E-003   -6.992742530016077E-016
  6.400000000000001E-003   -9.545080827505116E-016
  6.500000000000001E-003   -1.094569906159956E-015
  6.600000000000002E-003   -1.079209065779599E-015
  6.700000000000001E-003   -8.872396856162913E-016
  6.800000000000001E-003   -5.228906025616585E-016
  6.900000000000002E-003   -1.898513672368503E-017
  7.000000000000001E-003    5.640506997106929E-016
  7.100000000000001E-003    1.143825013952876E-015
  7.200000000000002E-003    1.626047347766822E-015
  7.300000000000002E-003    1.918055270247649E-015
  7.400000000000001E-003    1.944115863282727E-015
  7.500000000000001E-003    1.660272932347240E-015
  7.600000000000002E-003    1.066248696117047E-015
  7.700000000000001E-003    2.120139559395944E-016
  7.800000000000001E-003   -8.028436541613836E-016
  7.900000000000001E-003   -1.837927806891985E-015
  8.000000000000002E-003   -2.728798161923696E-015
  8.100000000000001E-003   -3.310138977043946E-015
  8.200000000000001E-003   -3.442497844235923E-015
  8.300000000000002E-003   -3.038755236211038E-015
  8.400000000000001E-003   -2.085963670803176E-015
  8.500000000000002E-003   -6.583051120584674E-016
  8.600000000000002E-003    1.082252776405799E-015
  8.700000000000001E-003    2.899510798040032E-015
  8.800000000000002E-003    4.510662831495347E-015
  8.900000000000002E-003    5.625523971933034E-015
  9.000000000000001E-003    5.992641068558989E-015
  9.100000000000002E-003    5.445736402120708E-015
  9.200000000000002E-003    3.942951443131298E-015
  9.300000000000001E-003    1.591434582455655E-015
  9.400000000000002E-003   -1.348848065187523E-015
  9.500000000000001E-003   -4.485670626846066E-015
  9.600000000000001E-003   -7.339586182574118E-015
  9.700000000000002E-003   -9.409562223962396E-015
  9.800000000000001E-003   -1.025139534534848E-014
  9.900000000000001E-003   -9.557892230206734E-015
  1.000000000000000E-002   -7.227948191541284E-015
  1.010000000000000E-002   -3.411681613200622E-015
  1.020000000000000E-002    1.479109907758011E-015
  1.030000000000000E-002    6.801698894014374E-015
  1.040000000000000E-002    1.175507819700428E-014
  1.050000000000000E-002    1.548841861510378E-014
  1.060000000000000E-002    1.723253909207482E-014
  1.070000000000000E-002    1.643604778987717E-014
  1.080000000000000E-002    1.288453623227686E-014
  1.090000000000000E-002    6.781038006393123E-015
  1.100000000000000E-002   -1.230663964015628E-015
  1.110000000000000E-002   -1.011141154349882E-014
  1.120000000000000E-002   -1.854256356297290E-014
  1.130000000000000E-002   -2.510292349763454E-014
  1.140000000000000E-002   -2.848594830822292E-014
  1.150000000000000E-002   -2.772712297435434E-014
  1.160000000000000E-002   -2.240567102282058E-014
  1.170000000000000E-002   -1.278429661444097E-014
  1.180000000000000E-002    1.440414139949131E-016
  1.190000000000000E-002    1.472213464376308E-014
  1.200000000000000E-002    2.881123946048440E-014
  1.210000000000000E-002    4.007586186311255E-014
  1.220000000000000E-002    4.633730478233771E-014
  1.230000000000000E-002    4.594716840781633E-014
  1.240000000000000E-002    3.812240671746084E-014
  1.250000000000000E-002    2.318235845876729E-014
  1.260000000000000E-002    2.636637255925447E-015
  1.270000000000000E-002   -2.090937640467075E-014
  1.280000000000000E-002   -4.403903129546124E-014
  1.290000000000000E-002   -6.297640472953841E-014
  1.300000000000000E-002   -7.415308561098765E-014
  1.310000000000000E-002   -7.481172853793757E-014
  1.320000000000000E-002   -6.355254116837944E-014
  1.330000000000000E-002   -4.072679728230248E-014
  1.340000000000000E-002   -8.594390547930854E-015
  1.350000000000000E-002    2.880907379538363E-014
  1.360000000000000E-002    6.610937250376102E-014
  1.370000000000000E-002    9.730081006337002E-014
  1.380000000000000E-002    1.166409623900284E-013
  1.390000000000000E-002    1.196101668394258E-013
  1.400000000000000E-002    1.037874658266049E-013
  1.410000000000000E-002    6.949083676847140E-014
  1.420000000000000E-002    2.004957565966878E-014
  1.430000000000000E-002   -3.837869384097924E-014
  1.440000000000000E-002   -9.747033394122883E-014
  1.450000000000000E-002   -1.478258729568081E-013
  1.460000000000000E-002   -1.803610691731637E-013
  1.470000000000000E-002   -1.878080965199307E-013
  1.480000000000000E-002   -1.660961929183423E-013
  1.490000000000000E-002   -1.153740914913477E-013
  1.500000000000000E-002   -4.046760335398648E-014
  1.510000000000000E-002    4.936612517667785E-014
  1.520000000000000E-002    1.414276736865287E-013
  1.530000000000000E-002    2.212315279459132E-013
  1.540000000000000E-002    2.746363668328658E-013
  1.550000000000000E-002    2.901579220520194E-013
  1.560000000000000E-002    2.611108493232625E-013
  1.570000000000000E-002    1.872143768922061E-013
  1.580000000000000E-002    7.534329666769083E-014
  1.590000000000000E-002   -6.079101309899178E-014
  1.600000000000000E-002   -2.020949292150634E-013
  1.610000000000000E-002   -3.265712358719703E-013
  1.620000000000000E-002   -4.125332919688558E-013
  1.630000000000000E-002   -4.421158040504582E-013
  1.640000000000000E-002   -4.045482576681221E-013
  1.650000000000000E-002   -2.986385436027501E-013
  1.660000000000000E-002   -1.339825719261076E-013
  1.670000000000000E-002    6.942927132691081E-014
  1.680000000000000E-002    2.833147524574922E-013
  1.690000000000000E-002    4.747524284597861E-013
  1.700000000000000E-002    6.109592299469502E-013
  1.710000000000000E-002    6.645420744818217E-013
  1.720000000000000E-002    6.184298391907056E-013
  1.730000000000000E-002    4.696606932602019E-013
  1.740000000000000E-002    2.313006540854640E-013
  1.750000000000000E-002   -6.800511593843844E-014
  1.760000000000000E-002   -3.870163693447418E-013
  1.770000000000000E-002   -6.771948298195544E-013
  1.780000000000000E-002   -8.896991010675371E-013
  1.790000000000000E-002   -9.831272411051289E-013
  1.800000000000000E-002   -9.308433773283757E-013
  1.810000000000000E-002   -7.266759385253888E-013
  1.820000000000000E-002   -3.879159691062512E-013
  1.830000000000000E-002    4.512743875785264E-014
  1.840000000000000E-002    5.132802515184507E-013
  1.850000000000000E-002    9.460623764185435E-013
  1.860000000000000E-002    1.271776190135949E-012
  1.870000000000000E-002    1.428759823861262E-012