 -4.000000000000000E-002    0.000000000000000E+000
 -3.990000000000000E-002    0.000000000000000E+000
 -3.980000000000000E-002    0.000000000000000E+000
 -3.970000000000000E-002    0.000000000000000E+000
 -3.960000000000000E-002    0.000000000000000E+000
 -3.950000000000000E-002    0.000000000000000E+000
 -3.940000000000000E-002    0.000000000000000E+000
 -3.930000000000000E-002    0.000000000000000E+000
 -3.920000000000000E-002    0.000000000000000E+000
 -3.910000000000000E-002   -1.735223353313702E-030
 -3.900000000000000E-002   -2.795746308306825E-029
 -3.890000000000000E-002   -2.305937717715848E-028
 -3.880000000000000E-002   -1.287805669643720E-027
 -3.870000000000000E-002   -5.420479006441210E-027
 -3.860000000000000E-002   -1.805574735796653E-026
 -3.850000000000000E-002   -4.826913324053570E-026
 -3.840000000000000E-002   -1.006783870412808E-025
 -3.830000000000000E-002   -1.407003617789488E-025
 -3.820000000000000E-002   -8.714877554098180E-028
 -3.810000000000000E-002    8.098778432424159E-025
 -3.800000000000000E-002    3.399276386059645E-024
 -3.790000000000000E-002    9.767181664053596E-024
 -3.780000000000000E-002    2.265767982367420E-023
 -3.770000000000000E-002    4.408818452300295E-023
 -3.760000000000000E-002    7.100861812490713E-023
 -3.750000000000000E-002    8.601454120204908E-023
 -3.740000000000000E-002    4.124354474995501E-023
 -3.730000000000000E-002   -1.644403529989833E-022
 -3.720000000000000E-002   -7.098167855518283E-022
 -3.710000000000000E-002   -1.862809830675166E-021
 -3.700000000000000E-002   -3.951149856568158E-021
 -3.690000000000000E-002   -7.248776009287628E-021
 -3.680000000000000E-002   -1.172346190621794E-020
 -3.670000000000000E-002   -1.659553615440673E-020
 -3.660000000000000E-002   -1.969306172810296E-020
 -3.650000000000000E-002   -1.667245166585612E-020
 -3.640000000000000E-002   -3.167540265024698E-022
 -3.630000000000000E-002    3.967650757100925E-020
 -3.620000000000000E-002    1.157827973535242E-019
 -3.610000000000000E-002    2.398025944307046E-019
 -3.600000000000000E-002    4.172554429376217E-019
 -3.590000000000000E-002    6.384962215601810E-019
 -3.580000000000000E-002    8.668069682991615E-019
 -3.570000000000000E-002    1.025061994934901E-018
 -3.560000000000000E-002    9.844566399284211E-019
 -3.550000000000000E-002    5.609819487125277E-019
 -3.540000000000000E-002   -4.727031815054001E-019
 -3.530000000000000E-002   -2.351445480322442E-018
 -3.520000000000000E-002   -5.250484193828351E-018
 -3.510000000000000E-002   -9.184162693677778E-018
 -3.500000000000000E-002   -1.387603906481511E-017
 -3.490000000000000E-002   -1.861845239979095E-017
 -3.480000000000000E-002   -2.215500297388964E-017
 -3.470000000000000E-002   -2.263469185136062E-017
 -3.460000000000000E-002   -1.769757282975632E-017
 -3.450000000000000E-002   -4.752068167298501E-018
 -3.440000000000000E-002    1.851139528260486E-017
 -3.430000000000000E-002    5.336355601715440E-017
 -3.420000000000000E-002    9.908971958104598E-017
 -3.410000000000000E-002    1.519865594981738E-016
 -3.400000000000000E-002    2.045231749072711E-016
 -3.390000000000000E-002    2.449635579761089E-016
 -3.380000000000000E-002    2.577869643617544E-016
 -3.370000000000000E-002    2.252158703425810E-016
 -3.360000000000000E-002    1.300430585425593E-016
 -3.350000000000000E-002   -4.027343400009494E-017
 -3.340000000000000E-002   -2.885997986629080E-016
 -3.330000000000000E-002   -6.029374732283225E-016
 -3.320000000000000E-002   -9.521735059637177E-016
 -3.310000000000000E-002   -1.284167381877910E-015
 -3.300000000000000E-002   -1.527644836189521E-015
 -3.290000000000000E-002   -1.599116406199330E-015
 -3.280000000000000E-002   -1.415397016042705E-015
 -3.270000000000000E-002   -9.112547109983466E-016
 -3.260000000000000E-002   -6.034027222088418E-017
 -3.250000000000000E-002    1.103942094617830E-015
 -3.240000000000000E-002    2.472301471582313E-015
 -3.230000000000000E-002    3.853628400894462E-015
 -3.220000000000000E-002    4.984553943057310E-015
 -3.210000000000000E-002    5.558400490195919E-015
 -3.200000000000000E-002    5.274558798807419E-015
 -3.190000000000000E-002    3.905206369733949E-015
 -3.180000000000000E-002    1.371301961100887E-015
 -3.170000000000000E-002   -2.185254533263183E-015
 -3.160000000000000E-002   -6.350348057434810E-015
 -3.150000000000000E-002   -1.042599499594218E-014
 -3.140000000000000E-002   -1.347524205696158E-014
 -3.130000000000000E-002   -1.443443315757676E-014
 -3.120000000000000E-002   -1.229323313784804E-014
 -3.110000000000000E-002   -6.328613313485486E-015
 -3.100000000000000E-002    3.636925225247056E-015
 -3.090000000000000E-002    1.699766124501928E-014
 -3.080000000000000E-002    3.220305238127351E-014
 -3.070000000000000E-002    4.673045054385667E-014
 -3.060000000000000E-002    5.724230732374608E-014
 -3.050000000000000E-002    5.995714323402279E-014
 -3.040000000000000E-002    5.123074245754875E-014
 -3.030000000000000E-002    2.830157370670223E-014
 -3.020000000000000E-002   -9.890879369225088E-015
 -3.010000000000000E-002   -6.194763948648249E-014
 -3.000000000000000E-002   -1.234714154202893E-013
 -2.990000000000000E-002   -1.869117289802530E-013
 -2.980000000000000E-002   -2.419327341788973E-013
 -2.970000000000000E-002   -2.763838080443977E-013
 -2.960000000000000E-002   -2.778642357718302E-013
 -2.950000000000000E-002   -2.357633480689559E-013
 -2.940000000000000E-002   -1.435407643704419E-013
 -2.930000000000000E-002   -9.096802131172302E-016
 -2.920000000000000E-002    1.844791888996607E-013
 -2.910000000000000E-002    3.962648567749420E-013
 -2.900000000000000E-002    6.098626247885067E-013
 -2.890000000000000E-002    7.944195341858545E-013
 -2.880000000000000E-002    9.162405635627993E-013
 -2.870000000000000E-002    9.434354169942488E-013
 -2.860000000000000E-002    8.512726612605023E-013
 -2.850000000000000E-002    6.275008330381430E-013
 -2.840000000000000E-002    2.767504927556144E-013
 -2.830000000000000E-002   -1.768909433440450E-013
 -2.820000000000000E-002   -6.899088133310321E-013
 -2.810000000000000E-002   -1.202482978114968E-012
 -2.800000000000000E-002   -1.644764598254675E-012
 -2.790000000000000E-002   -1.945854357335432E-012
 -2.780000000000000E-002   -2.044496461494110E-012
 -2.770000000000000E-002   -1.900042897319632E-012
 -2.760000000000000E-002   -1.501949239877097E-012
 -2.750000000000000E-002   -8.760043965349369E-013
 -2.740000000000000E-002   -8.574073079953322E-014
 -2.730000000000000E-002    7.719980989152151E-013
 -2.720000000000000E-002    1.577551384505898E-012
 -2.710000000000000E-002    2.204262325389131E-012
 -2.700000000000000E-002    2.537892979395908E-012
 -2.690000000000000E-002    2.497036499173536E-012
 -2.680000000000000E-002    2.051355830855145E-012
 -2.670000000000000E-002    1.234337955058670E-012
 -2.660000000000000E-002    1.476190038732879E-013
 -2.650000000000000E-002   -1.045155990255510E-012
 -2.640000000000000E-002   -2.135603428164704E-012
 -2.630000000000000E-002   -2.897989531781267E-012
 -2.620000000000000E-002   -3.123953349931181E-012
 -2.610000000000000E-002   -2.660195217777715E-012
 -2.600000000000000E-002   -1.443615588059159E-012
 -2.590000000000000E-002    4.720277313673969E-013
 -2.580000000000000E-002    2.903494385590770E-012
 -2.570000000000000E-002    5.543666052872809E-012
 -2.560000000000000E-002    7.987440343163900E-012
 -2.550000000000000E-002    9.777186369790826E-012
 -2.540000000000000E-002    1.046399206058316E-011
 -2.530000000000000E-002    9.677978435962285E-012
 -2.520000000000000E-002    7.198618807089334E-012
 -2.510000000000000E-002    3.014632393748046E-012
 -2.500000000000000E-002   -2.637009874439651E-012
 -2.490000000000000E-002   -9.261946739523513E-012
 -2.480000000000000E-002   -1.613515348026425E-011
 -2.470000000000000E-002   -2.236526200170809E-011
 -2.460000000000000E-002   -2.699306594580852E-011
 -2.450000000000000E-002   -2.911540082672255E-011
 -2.440000000000000E-002   -2.802066661933360E-011
 -2.430000000000000E-002   -2.331848294375042E-011
 -2.420000000000000E-002   -1.504423681440337E-011
 -2.410000000000000E-002   -3.719800941375869E-012
 -2.400000000000000E-002    9.644826995838698E-012
 -2.390000000000000E-002    2.361823287212347E-011
 -2.380000000000000E-002    3.648361547225841E-011
 -2.370000000000000E-002    4.643533254299190E-011
 -2.360000000000000E-002    5.181720984776352E-011
 -2.350000000000000E-002    5.137494099021170E-011
 -2.340000000000000E-002    4.448848425321719E-011
 -2.330000000000000E-002    3.134802863196495E-011
 -2.320000000000000E-002    1.303952525214639E-011
 -2.310000000000000E-002   -8.486376634772064E-012
 -2.300000000000000E-002   -3.057515459495578E-011
 -2.290000000000000E-002   -5.015507175756586E-011
 -2.280000000000000E-002   -6.412655795363572E-011
 -2.270000000000000E-002   -6.981219617061656E-011
 -2.260000000000000E-002   -6.540959022514619E-011
 -2.250000000000000E-002   -5.037993169212853E-011
 -2.240000000000000E-002   -2.570425909415522E-011
 -2.230000000000000E-002    6.050989798317447E-012
 -2.220000000000000E-002    4.089750920350734E-011
 -2.210000000000000E-002    7.382696293326992E-011
 -2.200000000000000E-002    9.942508996603605E-011
 -2.190000000000000E-002    1.126354986798917E-010
 -2.180000000000000E-002    1.095778809277900E-010
 -2.170000000000000E-002    8.830265086656751E-011
 -2.160000000000000E-002    4.935678961072899E-011
 -2.150000000000000E-002   -3.953660858055927E-012
 -2.140000000000000E-002   -6.568774009832013E-011
 -2.130000000000000E-002   -1.278152878683576E-010
 -2.120000000000000E-002   -1.811576223382737E-010
 -2.110000000000000E-002   -2.166308436800458E-010
 -2.100000000000000E-002   -2.266388375879904E-010
 -2.090000000000000E-002   -2.064184720633126E-010
 -2.080000000000000E-002   -1.551202491941806E-010
 -2.070000000000000E-002   -7.642091119891677E-011
 -2.060000000000000E-002    2.148827462708989E-011
 -2.050000000000000E-002    1.266146964267205E-010
 -2.040000000000000E-002    2.245545817077607E-010
 -2.030000000000000E-002    3.004246248366393E-010
 -2.020000000000000E-002    3.410962277463114E-010
 -2.010000000000000E-002    3.374157920331874E-010
 -2.000000000000000E-002    2.860577121206222E-010
 -1.990000000000000E-002    1.906733684861729E-010
 -1.980000000000000E-002    6.207209399667564E-011
 -1.970000000000000E-002   -8.270630529657585E-011
 -1.960000000000000E-002   -2.224061029348434E-010
 -1.950000000000000E-002   -3.344592043426999E-010
 -1.940000000000000E-002   -3.984149320004668E-010
 -1.930000000000000E-002   -3.994080728032401E-010
 -1.920000000000000E-002   -3.311167070090051E-010
 -1.910000000000000E-002   -1.976843319004794E-010
 -1.900000000000000E-002   -1.418806354318112E-011
 -1.890000000000000E-002    1.945754159765288E-010
 -1.880000000000000E-002    3.969710791473255E-010
 -1.870000000000000E-002    5.587907020386320E-010
 -1.860000000000000E-002    6.483685476346510E-010
 -1.850000000000000E-002    6.418269758958203E-010
 -1.840000000000000E-002    5.276371853601786E-010
 -1.830000000000000E-002    3.097103762390807E-010
 -1.820000000000000E-002    8.392299162876017E-012
 -1.810000000000000E-002   -3.409944693390821E-010
 -1.800000000000000E-002   -6.920618754106293E-010
 -1.790000000000000E-002   -9.933375965940762E-010
 -1.780000000000000E-002   -1.195572343046335E-009
 -1.770000000000000E-002   -1.259357553218267E-009
 -1.760000000000000E-002   -1.161902253652496E-009
 -1.750000000000000E-002   -9.018552472305901E-010
 -1.740000000000000E-002   -5.012686569760292E-010
 -1.730000000000000E-002   -4.176523064211777E-012
 -1.720000000000000E-002    5.282567703090039E-010
 -1.710000000000000E-002    1.025533060021317E-009
 -1.700000000000000E-002    1.417584593905028E-009
 -1.690000000000000E-002    1.645155683399397E-009
 -1.680000000000000E-002    1.669257413283597E-009
 -1.670000000000000E-002    1.478190713894862E-009
 -1.660000000000000E-002    1.090905267064988E-009
 -1.650000000000000E-002    5.559434538783306E-010
 -1.640000000000000E-002   -5.414767351729390E-011
 -1.630000000000000E-002   -6.523673139162587E-010
 -1.620000000000000E-002   -1.149559334012563E-009
 -1.610000000000000E-002   -1.467748860615059E-009
 -1.600000000000000E-002   -1.552546199622349E-009
 -1.590000000000000E-002   -1.382675501633539E-009
 -1.580000000000000E-002   -9.750100045727325E-010
 -1.570000000000000E-002   -3.840962070065969E-010
 -1.560000000000000E-002    3.040730419676723E-010
 -1.550000000000000E-002    9.834102641042911E-010
 -1.540000000000000E-002    1.542771745220271E-009
 -1.530000000000000E-002    1.882607472836541E-009
 -1.520000000000000E-002    1.930796076251598E-009
 -1.510000000000000E-002    1.655232451568587E-009
 -1.500000000000000E-002    1.071102892445627E-009
 -1.490000000000000E-002    2.414760895549329E-010
 -1.480000000000000E-002   -7.292246075358072E-010
 -1.470000000000000E-002   -1.708258352225494E-009
 -1.460000000000000E-002   -2.552502863634924E-009
 -1.450000000000000E-002   -3.128867180337059E-009
 -1.440000000000000E-002   -3.334276688348757E-009
 -1.430000000000000E-002   -3.112254305413822E-009
 -1.420000000000000E-002   -2.463484541106320E-009
 -1.410000000000000E-002   -1.448517080083197E-009
 -1.400000000000000E-002   -1.818371164721547E-010
 -1.390000000000000E-002    1.182227878313625E-009
 -1.380000000000000E-002    2.470082547790751E-009
 -1.370000000000000E-002    3.513201405323286E-009
 -1.360000000000000E-002    4.172847223997836E-009
 -1.350000000000000E-002    4.361563053390294E-009
 -1.340000000000000E-002    4.058148829263000E-009
 -1.330000000000000E-002    3.313615179955141E-009
 -1.320000000000000E-002    2.246807189768324E-009
 -1.310000000000000E-002    1.029820425611385E-009
 -1.300000000000000E-002   -1.351878448427435E-010
 -1.290000000000000E-002   -1.044873305275276E-009
 -1.280000000000000E-002   -1.525383045959450E-009
 -1.270000000000000E-002   -1.460518075409091E-009
 -1.260000000000000E-002   -8.131885018867794E-010
 -1.250000000000000E-002    3.632667310570810E-010
 -1.240000000000000E-002    1.926069023437733E-009
 -1.230000000000000E-002    3.656838547130681E-009
 -1.220000000000000E-002    5.287043012327766E-009
 -1.210000000000000E-002    6.532127555820447E-009
 -1.200000000000000E-002    7.130061684056402E-009
 -1.190000000000000E-002    6.879211339687119E-009
 -1.180000000000000E-002    5.670335059728856E-009
 -1.170000000000000E-002    3.508103809856572E-009
 -1.160000000000000E-002    5.188142736121988E-010
 -1.150000000000000E-002   -3.057212291142410E-009
 -1.140000000000000E-002   -6.887950134301730E-009
 -1.130000000000000E-002   -1.058399027793276E-008
 -1.120000000000000E-002   -1.374032553784967E-008
 -1.110000000000000E-002   -1.597977300985791E-008
 -1.100000000000000E-002   -1.699173652318396E-008
 -1.090000000000000E-002   -1.656038677293738E-008
 -1.080000000000000E-002   -1.457758768771607E-008
 -1.070000000000000E-002   -1.103790744244557E-008
 -1.060000000000000E-002   -6.015495354701795E-009
 -1.050000000000000E-002    3.747547376285505E-010
 -1.040000000000000E-002    8.026950571852722E-009
 -1.030000000000000E-002    1.689824523491945E-008
 -1.020000000000000E-002    2.705962002989261E-008
 -1.010000000000000E-002    3.873598769082601E-008
 -1.000000000000000E-002    5.232938157963954E-008
 -9.899999999999999E-003    6.842120603400457E-008
 -9.800000000000000E-003    8.775236099983544E-008
 -9.699999999999999E-003    1.111832101837015E-007
 -9.599999999999999E-003    1.396384250057735E-007
 -9.500000000000000E-003    1.740440299166917E-007
 -9.399999999999999E-003    2.152655618144625E-007
 -9.299999999999999E-003    2.640563280414777E-007
 -9.200000000000000E-003    3.210234618241785E-007
 -9.099999999999999E-003    3.866174477244627E-007
 -8.999999999999999E-003    4.611470999572265E-007
 -8.900000000000000E-003    5.448188649744198E-007
 -8.799999999999999E-003    6.377947671374538E-007
 -8.699999999999999E-003    7.402615192847052E-007
 -8.600000000000000E-003    8.525003180174389E-007
 -8.499999999999999E-003    9.749471301980023E-007
 -8.399999999999999E-003    1.108233927710721E-006
 -8.300000000000000E-003    1.253205234424829E-006
 -8.199999999999999E-003    1.410904836103981E-006
 -8.100000000000000E-003    1.582535987434195E-006
 -8.000000000000000E-003    1.769400112261368E-006
 -7.899999999999999E-003    1.972821218182863E-006
 -7.800000000000000E-003    2.194069694064988E-006
 -7.699999999999999E-003    2.434296220958500E-006
 -7.599999999999999E-003    2.694486203005185E-006
 -7.499999999999999E-003    2.975443271791191E-006
 -7.399999999999999E-003    3.277806070206577E-006
 -7.299999999999999E-003    3.602096216231934E-006
 -7.199999999999999E-003    3.948793119725943E-006
 -7.100000000000000E-003    4.318423954984564E-006
 -6.999999999999999E-003    4.711659822189920E-006
 -6.899999999999999E-003    5.129400232835124E-006
 -6.800000000000000E-003    5.572837477627350E-006
 -6.699999999999999E-003    6.043490684760245E-006
 -6.599999999999999E-003    6.543201715123439E-006
 -6.499999999999999E-003    7.074098611439196E-006
 -6.399999999999999E-003    7.638527180693343E-006
 -6.299999999999999E-003    8.238965460351061E-006
 -6.199999999999999E-003    8.877929503646791E-006
 -6.100000000000000E-003    9.557888986430461E-006
 -5.999999999999999E-003    1.028120387227215E-005
 -5.899999999999999E-003    1.105009459244535E-005
 -5.800000000000000E-003    1.186664899415368E-005
 -5.699999999999999E-003    1.273286994409072E-005
 -5.599999999999999E-003    1.365075230839072E-005
 -5.499999999999999E-003    1.462238991138473E-005
 -5.399999999999999E-003    1.565008169509776E-005
 -5.299999999999999E-003    1.673644266690942E-005
 -5.199999999999999E-003    1.788448622307575E-005
 -5.099999999999999E-003    1.909767680532912E-005
 -4.999999999999999E-003    2.037994391549193E-005
 -4.899999999999999E-003    2.173564779187175E-005
 -4.799999999999999E-003    2.316952015832379E-005
 -4.699999999999999E-003    2.468656419702277E-005
 -4.599999999999999E-003    2.629195193257473E-005
 -4.499999999999999E-003    2.799091685501087E-005
 -4.399999999999999E-003    2.978867995653425E-005
 -4.299999999999999E-003    3.169038866815921E-005
 -4.199999999999999E-003    3.370111511425227E-005
 -4.099999999999999E-003    3.582589830410800E-005
 -3.999999999999999E-003    3.806982574058892E-005
 -3.899999999999999E-003    4.043815470021254E-005
 -3.799999999999999E-003    4.293645010651238E-005
 -3.699999999999999E-003    4.557073622341673E-005
 -3.599999999999999E-003    4.834762720200874E-005
 -3.499999999999999E-003    5.127442839264609E-005
 -3.399999999999999E-003    5.435921474132409E-005
 -3.299999999999999E-003    5.761082736560821E-005
 -3.199999999999999E-003    6.103885732145857E-005
 -3.099999999999999E-003    6.465355163540996E-005
 -2.999999999999999E-003    6.846572499078613E-005
 -2.899999999999999E-003    7.248662247675700E-005
 -2.799999999999999E-003    7.672780856228547E-005
 -2.699999999999999E-003    8.120105287294604E-005
 -2.599999999999999E-003    8.591827392998854E-005
 -2.499999999999999E-003    9.089151919764571E-005
 -2.399999999999999E-003    9.613299858820419E-005
 -2.299999999999999E-003    1.016551621921546E-004
 -2.199999999999999E-003    1.074708249283378E-004
 -2.099999999999999E-003    1.135933010458127E-004
 -1.999999999999999E-003    1.200365951595042E-004
 -1.899999999999999E-003    1.268155291190078E-004
 -1.799999999999999E-003    1.339458605414119E-004
 -1.699999999999999E-003    1.414444151891564E-004
 -1.599999999999999E-003    1.493290933356799E-004
 -1.499999999999999E-003    1.576188977833159E-004
 -1.399999999999999E-003    1.663338854584331E-004
 -1.299999999999999E-003    1.754951078139177E-004
 -1.199999999999999E-003    1.851244887469424E-004
 -1.099999999999999E-003    1.952447695640642E-004
 -9.999999999999989E-004    2.058794504157152E-004
 -8.999999999999990E-004    2.170527015956665E-004
 -7.999999999999990E-004    2.287893801274151E-004
 -6.999999999999989E-004    2.411150981177623E-004
 -5.999999999999990E-004    2.540562469883100E-004
 -4.999999999999989E-004    2.676401354266521E-004
 -3.999999999999989E-004    2.818951466651215E-004
 -2.999999999999989E-004    2.968507694196174E-004
 -1.999999999999989E-004    3.125378059721755E-004
 -9.999999999999892E-005    3.289884696506129E-004
  1.084202172485504E-018    3.462364183354029E-004
  1.000000000000011E-004    3.643168292136350E-004
  2.000000000000011E-004    3.832663488546595E-004
  3.000000000000011E-004    4.031231661207262E-004
  4.000000000000011E-004    4.239269560192314E-004
  5.000000000000011E-004    4.457187977833277E-004
  6.000000000000011E-004    4.685411887255979E-004
  7.000000000000011E-004    4.924381758539065E-004
  8.000000000000011E-004    5.174552277676117E-004
  9.000000000000012E-004    5.436393750811095E-004
  1.000000000000001E-003    5.710392650515985E-004
  1.100000000000001E-003    5.997053268601579E-004
  1.200000000000001E-003    6.296897893202164E-004
  1.300000000000001E-003    6.610469005350761E-004
  1.400000000000001E-003    6.938328037968566E-004
  1.500000000000001E-003    7.281057554100673E-004
  1.600000000000001E-003    7.639260594829278E-004
  1.700000000000001E-003    8.013561059789349E-004
  1.800000000000001E-003    8.404602672202150E-004
  1.900000000000001E-003    8.813048197238623E-004
  2.000000000000001E-003    9.239580307715501E-004
  2.100000000000001E-003    9.684901856544541E-004
  2.200000000000001E-003    1.014973347761608E-003
  2.300000000000001E-003    1.063481728993501E-003
  2.400000000000001E-003    1.114091491884690E-003
  2.500000000000001E-003    1.166881084721082E-003
  2.600000000000001E-003    1.221931453066616E-003
  2.700000000000001E-003    1.279326005092028E-003
  2.800000000000001E-003    1.339151169339287E-003
  2.900000000000001E-003    1.401496056443076E-003
  3.000000000000001E-003    1.466453077538496E-003
  3.100000000000001E-003    1.534117681979439E-003
  3.200000000000001E-003    1.604588562226329E-003
  3.300000000000001E-003    1.677967490139025E-003
  3.400000000000001E-003    1.754359351495671E-003
  3.500000000000001E-003    1.833871745064271E-003
  3.600000000000001E-003    1.916615590178493E-003
  3.700000000000001E-003    2.002704163776594E-003
  3.800000000000001E-003    2.092253436211436E-003
  3.900000000000001E-003    2.185381940787666E-003
  4.000000000000001E-003    2.282211105622380E-003
  4.100000000000001E-003    2.382864387415006E-003
  4.200000000000001E-003    2.487468524991338E-003
  4.300000000000001E-003    2.596152855540820E-003
  4.400000000000001E-003    2.709049903590605E-003
  4.500000000000001E-003    2.826295015021282E-003
  4.600000000000002E-003    2.948027036238682E-003
  4.700000000000001E-003    3.074388384056481E-003
  4.800000000000001E-003    3.205524928096923E-003
  4.900000000000002E-003    3.341585991483240E-003
  5.000000000000001E-003    3.482724636345955E-003
  5.100000000000001E-003    3.629097696694899E-003
  5.200000000000001E-003    3.780865060464238E-003
  5.300000000000002E-003    3.938190086708802E-003
  5.400000000000001E-003    4.101239504665426E-003
  5.500000000000001E-003    4.270183096740296E-003
  5.600000000000002E-003    4.445194195732170E-003
  5.700000000000001E-003    4.626448376075698E-003
  5.800000000000001E-003    4.814125233606440E-003
  5.900000000000002E-003    5.008406481787806E-003
  6.000000000000001E-003    5.209477501809636E-003
  6.100000000000001E-003    5.417526055501417E-003
  6.200000000000002E-003    5.632743288116977E-003
  6.300000000000002E-003    5.855323209585487E-003
  6.400000000000001E-003    6.085462718065601E-003
  6.500000000000001E-003    6.323361694793403E-003
  6.600000000000002E-003    6.569223047607334E-003
  6.700000000000001E-003    6.823252488685265E-003
  6.800000000000001E-003    7.085658513789309E-003
  6.900000000000002E-003    7.356651158450694E-003
  7.000000000000001E-003    7.636444112627896E-003
  7.100000000000001E-003    7.925252267468326E-003
  7.200000000000002E-003    8.223293171995827E-003
  7.300000000000002E-003    8.530786041535097E-003
  7.400000000000001E-003    8.847952732782322E-003
  7.500000000000001E-003    9.175015297168109E-003
  7.600000000000002E-003    9.512198164644102E-003
  7.700000000000001E-003    9.859727045193759E-003
  7.800000000000001E-003    1.021782946942895E-002
  7.900000000000001E-003    1.058673306019827E-002
  8.000000000000002E-003    1.096666658650792E-002
  8.100000000000001E-003    1.135786005356480E-002
  8.200000000000001E-003    1.176054417213893E-002
  8.300000000000002E-003    1.217494987280353E-002
  8.400000000000001E-003    1.260130890873156E-002
  8.500000000000002E-003    1.303985220203683E-002
  8.600000000000002E-003    1.349081077183283E-002
  8.700000000000001E-003    1.395441534003145E-002
  8.800000000000002E-003    1.443089524952420E-002
  8.900000000000002E-003    1.492047899371872E-002
  9.000000000000001E-003    1.542339434707043E-002
  9.100000000000002E-003    1.593986513404907E-002
  9.200000000000002E-003    1.647011650190180E-002
  9.300000000000001E-003    1.701436654007648E-002
  9.400000000000002E-003    1.757283559544436E-002
  9.500000000000001E-003    1.814573695449799E-002
  9.600000000000001E-003    1.873328021069804E-002
  9.700000000000002E-003    1.933567192860977E-002
  9.800000000000001E-003    1.995311308569248E-002
  9.900000000000001E-003    2.058580246379025E-002
  1.000000000000000E-002    2.123392939180574E-002
  1.010000000000000E-002    2.189768102719713E-002
  1.020000000000000E-002    2.257723817916915E-002
  1.030000000000000E-002    2.327277411077661E-002
  1.040000000000000E-002    2.398445687006060E-002
  1.050000000000000E-002    2.471244625229574E-002
  1.060000000000000E-002    2.545689821551298E-002
  1.070000000000000E-002    2.621795934654476E-002
  1.080000000000000E-002    2.699576541102101E-002
  1.090000000000000E-002    2.779044812685805E-002
  1.100000000000000E-002    2.860212954613251E-002
  1.110000000000000E-002    2.943091745844628E-002
  1.120000000000000E-002    3.027691226185285E-002
  1.130000000000000E-002    3.114020391408678E-002
  1.140000000000000E-002    3.202086712235704E-002
  1.150000000000000E-002    3.291896771753558E-002
  1.160000000000000E-002    3.383455255618964E-002
  1.170000000000000E-002    3.476766254831194E-002
  1.180000000000000E-002    3.571831767421004E-002
  1.190000000000000E-002    3.668652560796202E-002
  1.200000000000000E-002    3.767228052521303E-002
  1.210000000000000E-002    3.867555406963320E-002
  1.220000000000000E-002    3.969630938113796E-002
  1.230000000000000E-002    4.073449123165338E-002
  1.240000000000000E-002    4.179002547641329E-002
  1.250000000000000E-002    4.286282310404643E-002
  1.260000000000000E-002    4.395277504776556E-002
  1.270000000000000E-002    4.505975565855803E-002
  1.280000000000000E-002    4.618362102192604E-002
  1.290000000000000E-002    4.732420830463920E-002
  1.300000000000000E-002    4.848133123040867E-002
  1.310000000000000E-002    4.965478128588893E-002
  1.320000000000000E-002    5.084433471063855E-002
  1.330000000000000E-002    5.204973926966045E-002
  1.340000000000000E-002    5.327071968571558E-002
  1.350000000000000E-002    5.450697762697537E-002
  1.360000000000000E-002    5.575819306332033E-002
  1.370000000000000E-002    5.702401285822375E-002
  1.380000000000000E-002    5.830406512542921E-002
  1.390000000000000E-002    5.959795424552122E-002
  1.400000000000000E-002    6.090525918987114E-002
  1.410000000000000E-002    6.222552235182709E-002
  1.420000000000000E-002    6.355826369984574E-002
  1.430000000000000E-002    6.490298065224040E-002
  1.440000000000000E-002    6.625914602328101E-002
  1.450000000000000E-002    6.762618885257819E-002
  1.460000000000000E-002    6.900352296568012E-002
  1.470000000000000E-002    7.039053194462802E-002
  1.480000000000000E-002    7.178656292844346E-002
  1.490000000000000E-002    7.319093675933661E-002
  1.500000000000000E-002    7.460294621833097E-002
  1.510000000000000E-002    7.602185242353295E-002
  1.520000000000000E-002    7.744689074899362E-002
  1.530000000000000E-002    7.887725916192682E-002
  1.540000000000000E-002    8.031213244253735E-002
  1.550000000000000E-002    8.175063987120676E-002
  1.560000000000000E-002    8.319189708751533E-002
  1.570000000000000E-002    8.463498330193223E-002
  1.580000000000000E-002    8.607893379657638E-002
  1.590000000000000E-002    8.752276663004013E-002
  1.600000000000000E-002    8.896546737025768E-002
  1.610000000000000E-002    9.040598449817508E-002
  1.620000000000000E-002    9.184323518792067E-002
  1.630000000000000E-002    9.327610440095291E-002
  1.640000000000000E-002    9.470345757934784E-002
  1.650000000000000E-002    9.612411118633099E-002
  1.660000000000000E-002    9.753685949617405E-002
  1.670000000000000E-002    9.894046513687786E-002
  1.680000000000000E-002    0.100333658101201     
  1.690000000000000E-002    0.101715150053113     
  1.700000000000000E-002    0.103083601729836     
  1.710000000000000E-002    0.104437667276918     
  1.720000000000000E-002    0.105775963307148     
  1.730000000000000E-002    0.107097076180361     
  1.740000000000000E-002    0.108399570397557     
  1.750000000000000E-002    0.109681982995174     
  1.760000000000000E-002    0.110942823254762     
  1.770000000000000E-002    0.112180581696284     
  1.780000000000000E-002    0.113393713208532     
  1.790000000000000E-002    0.114580662334595     
  1.800000000000000E-002    0.115739845503060     
  1.810000000000000E-002    0.116869658327544     
  1.820000000000000E-002    0.117968472904659     
  1.830000000000000E-002    0.119034641556485     
  1.840000000000000E-002    0.120066507142620     
  1.850000000000000E-002    0.121062382196283     
  1.860000000000000E-002    0.122020569445430     
  1.870000000000000E-002    0.122939367451769     