 -4.000000000000000E-002    0.000000000000000E+000
 -3.990000000000000E-002    0.000000000000000E+000
 -3.980000000000000E-002    0.000000000000000E+000
 -3.970000000000000E-002    0.000000000000000E+000
 -3.960000000000000E-002    0.000000000000000E+000
 -3.950000000000000E-002   -1.736215164322453E-020
 -3.940000000000000E-002   -1.735782480221267E-019
 -3.930000000000000E-002   -9.201491853674149E-019
 -3.920000000000000E-002   -3.399652346719203E-018
 -3.910000000000000E-002   -9.681315559185610E-018
 -3.900000000000000E-002   -2.212582414521478E-017
 -3.890000000000000E-002   -4.052724013403823E-017
 -3.880000000000000E-002   -5.530560316795874E-017
 -3.870000000000000E-002   -3.552269966121977E-017
 -3.860000000000000E-002    8.735841361921320E-017
 -3.850000000000000E-002    4.346453451035804E-016
 -3.840000000000000E-002    1.182698640711969E-015
 -3.830000000000000E-002    2.533340375052263E-015
 -3.820000000000000E-002    4.628729668574990E-015
 -3.810000000000000E-002    7.389434014714774E-015
 -3.800000000000000E-002    1.026909813584814E-014
 -3.790000000000000E-002    1.194973769436958E-014
 -3.780000000000000E-002    1.004823994749243E-014
 -3.770000000000000E-002    9.605247850848081E-016
 -3.760000000000000E-002   -1.997909041047577E-014
 -3.750000000000000E-002   -5.782171182088717E-014
 -3.740000000000000E-002   -1.166375603452404E-013
 -3.730000000000000E-002   -1.973900747953195E-013
 -3.720000000000000E-002   -2.951718597725386E-013
 -3.710000000000000E-002   -3.961918732630010E-013
 -3.700000000000000E-002   -4.752106176750222E-013
 -3.690000000000000E-002   -4.943970150137642E-013
 -3.680000000000000E-002   -4.047342185446970E-013
 -3.670000000000000E-002   -1.510317476848877E-013
 -3.660000000000000E-002    3.187769921190582E-013
 -3.650000000000000E-002    1.040100994299345E-012
 -3.640000000000000E-002    2.015003806030801E-012
 -3.630000000000000E-002    3.194667239461853E-012
 -3.620000000000000E-002    4.464476884723399E-012
 -3.610000000000000E-002    5.636042980513691E-012
 -3.600000000000000E-002    6.450637820093812E-012
 -3.590000000000000E-002    6.597774598245464E-012
 -3.580000000000000E-002    5.750830943819855E-012
 -3.570000000000000E-002    3.618756464802214E-012
 -3.560000000000000E-002    9.356246041466017E-015
 -3.550000000000000E-002   -5.104100802584760E-012
 -3.540000000000000E-002   -1.152432540164556E-011
 -3.530000000000000E-002   -1.879262916905740E-011
 -3.520000000000000E-002   -2.618539811189516E-011
 -3.510000000000000E-002   -3.275409592498825E-011
 -3.500000000000000E-002   -3.741269245254037E-011
 -3.490000000000000E-002   -3.906857127766823E-011
 -3.480000000000000E-002   -3.678400754087474E-011
 -3.470000000000000E-002   -2.994676868141848E-011
 -3.460000000000000E-002   -1.842215486984885E-011
 -3.450000000000000E-002   -2.656433782873660E-012
 -3.440000000000000E-002    1.629544338594963E-011
 -3.430000000000000E-002    3.683639411563370E-011
 -3.420000000000000E-002    5.699278491619678E-011
 -3.410000000000000E-002    7.466661841870574E-011
 -3.400000000000000E-002    8.794388466578466E-011
 -3.390000000000000E-002    9.541298784487559E-011
 -3.380000000000000E-002    9.643748188041783E-011
 -3.370000000000000E-002    9.132624223891844E-011
 -3.360000000000000E-002    8.135336147822837E-011
 -3.350000000000000E-002    6.859953277562728E-011
 -3.340000000000000E-002    5.561442952751128E-011
 -3.330000000000000E-002    4.493178886041000E-011
 -3.320000000000000E-002    3.850074628593147E-011
 -3.310000000000000E-002    3.712239846642983E-011
 -3.300000000000000E-002    3.999447279028557E-011
 -3.290000000000000E-002    4.446542460786997E-011
 -3.280000000000000E-002    4.608047964501098E-011
 -3.270000000000000E-002    3.896705513522211E-011
 -3.260000000000000E-002    1.655946335054891E-011
 -3.250000000000000E-002   -2.739120319117161E-011
 -3.240000000000000E-002   -9.762822650721296E-011
 -3.230000000000000E-002   -1.961710396822209E-010
 -3.220000000000000E-002   -3.212430559500468E-010
 -3.210000000000000E-002   -4.665251365190824E-010
 -3.200000000000000E-002   -6.208940140039198E-010
 -3.190000000000000E-002   -7.687613180471844E-010
 -3.180000000000000E-002   -8.910644990038906E-010
 -3.170000000000000E-002   -9.668852421658308E-010
 -3.160000000000000E-002   -9.755895256691961E-010
 -3.150000000000000E-002   -8.993062969758818E-010
 -3.140000000000000E-002   -7.254986180305444E-010
 -3.130000000000000E-002   -4.493394967571040E-010
 -3.120000000000000E-002   -7.558815241109592E-011
 -3.110000000000000E-002    3.803199806801335E-010
 -3.100000000000000E-002    8.922070057468402E-010
 -3.090000000000000E-002    1.424265894390081E-009
 -3.080000000000000E-002    1.933397943078788E-009
 -3.070000000000000E-002    2.372685952038649E-009
 -3.060000000000000E-002    2.695768603934943E-009
 -3.050000000000000E-002    2.861742337058291E-009
 -3.040000000000000E-002    2.840087302115327E-009
 -3.030000000000000E-002    2.615035998401562E-009
 -3.020000000000000E-002    2.188774563090249E-009
 -3.010000000000000E-002    1.582915224365991E-009
 -3.000000000000000E-002    8.378169794944667E-010
 -2.990000000000000E-002    9.546252273716304E-012
 -2.980000000000000E-002   -8.354359645230913E-010
 -2.970000000000000E-002   -1.627445337228096E-009
 -2.960000000000000E-002   -2.301856369330558E-009
 -2.950000000000000E-002   -2.807471068682089E-009
 -2.940000000000000E-002   -3.113777136028260E-009
 -2.930000000000000E-002   -3.215891125300277E-009
 -2.920000000000000E-002   -3.136150721850617E-009
 -2.910000000000000E-002   -2.921695916495144E-009
 -2.900000000000000E-002   -2.637913861941922E-009
 -2.890000000000000E-002   -2.358265994697651E-009
 -2.880000000000000E-002   -2.151680490779280E-009
 -2.870000000000000E-002   -2.069258289863562E-009
 -2.860000000000000E-002   -2.132409383495992E-009
 -2.850000000000000E-002   -2.324598884802542E-009
 -2.840000000000000E-002   -2.588592390493981E-009
 -2.830000000000000E-002   -2.830439196915124E-009
 -2.820000000000000E-002   -2.930478256740255E-009
 -2.810000000000000E-002   -2.760516362578079E-009
 -2.800000000000000E-002   -2.205176485189056E-009
 -2.790000000000000E-002   -1.184450832035952E-009
 -2.780000000000000E-002    3.261105200535634E-010
 -2.770000000000000E-002    2.281210946658377E-009
 -2.760000000000000E-002    4.560739021923835E-009
 -2.750000000000000E-002    6.975825558567144E-009
 -2.740000000000000E-002    9.286455089960587E-009
 -2.730000000000000E-002    1.122924360037944E-008
 -2.720000000000000E-002    1.255216670950298E-008
 -2.710000000000000E-002    1.305158142175895E-008
 -2.700000000000000E-002    1.260599976950525E-008
 -2.690000000000000E-002    1.120105148035068E-008
 -2.680000000000000E-002    8.940925895116417E-009
 -2.670000000000000E-002    6.043296514414329E-009
 -2.660000000000000E-002    2.817077877490214E-009
 -2.650000000000000E-002   -3.749875119848338E-010
 -2.640000000000000E-002   -3.164376949264035E-009
 -2.630000000000000E-002   -5.228912912704605E-009
 -2.620000000000000E-002   -6.341325292774908E-009
 -2.610000000000000E-002   -6.406635528069604E-009
 -2.600000000000000E-002   -5.482010593821149E-009
 -2.590000000000000E-002   -3.775080661560803E-009
 -2.580000000000000E-002   -1.619832925954811E-009
 -2.570000000000000E-002    5.673903966373112E-010
 -2.560000000000000E-002    2.346058645617174E-009
 -2.550000000000000E-002    3.315639526507736E-009
 -2.540000000000000E-002    3.176400004946255E-009
 -2.530000000000000E-002    1.777613258785557E-009
 -2.520000000000000E-002   -8.543694441123208E-010
 -2.510000000000000E-002   -4.512838816538085E-009
 -2.500000000000000E-002   -8.833157052635818E-009
 -2.490000000000000E-002   -1.333784945863192E-008
 -2.480000000000000E-002   -1.749772610887648E-008
 -2.470000000000000E-002   -2.079975574527801E-008
 -2.460000000000000E-002   -2.281121078568510E-008
 -2.450000000000000E-002   -2.322997951270658E-008
 -2.440000000000000E-002   -2.191290130434496E-008
 -2.430000000000000E-002   -1.887724008001523E-008
 -2.420000000000000E-002   -1.427443404879046E-008
 -2.410000000000000E-002   -8.339419784863648E-009
 -2.400000000000000E-002   -1.322490236116582E-009
 -2.390000000000000E-002    6.586744283295064E-009
 -2.380000000000000E-002    1.533264030892460E-008
 -2.370000000000000E-002    2.505383683786472E-008
 -2.360000000000000E-002    3.612245568605571E-008
 -2.350000000000000E-002    4.915723131446772E-008
 -2.340000000000000E-002    6.500940069301531E-008
 -2.330000000000000E-002    8.472419807457772E-008
 -2.320000000000000E-002    1.094840279376611E-007
 -2.310000000000000E-002    1.405419495879929E-007
 -2.300000000000000E-002    1.791548356069393E-007
 -2.290000000000000E-002    2.265254869805616E-007
 -2.280000000000000E-002    2.837609503243860E-007
 -2.270000000000000E-002    3.518518019533704E-007
 -2.260000000000000E-002    4.316740459159601E-007
 -2.250000000000000E-002    5.240114778732004E-007
 -2.240000000000000E-002    6.295943906461249E-007
 -2.230000000000000E-002    7.491473457861972E-007
 -2.220000000000000E-002    8.834388894402971E-007
 -2.210000000000000E-002    1.033324719997715E-006
 -2.200000000000000E-002    1.199778920232725E-006
 -2.190000000000000E-002    1.383907380948989E-006
 -2.180000000000000E-002    1.586941993378295E-006
 -2.170000000000000E-002    1.810215851656729E-006
 -2.160000000000000E-002    2.055122795857254E-006
 -2.150000000000000E-002    2.323066517778265E-006
 -2.140000000000000E-002    2.615405797660397E-006
 -2.130000000000000E-002    2.933404102076531E-006
 -2.120000000000000E-002    3.278192168684837E-006
 -2.110000000000000E-002    3.650747238933305E-006
 -2.100000000000000E-002    4.051896513130776E-006
 -2.090000000000000E-002    4.482345982021383E-006
 -2.080000000000000E-002    4.942734211944164E-006
 -2.070000000000000E-002    5.433705529887074E-006
 -2.060000000000000E-002    5.955996701250961E-006
 -2.050000000000000E-002    6.510525040530304E-006
 -2.040000000000000E-002    7.098472710001986E-006
 -2.030000000000000E-002    7.721346481645535E-006
 -2.020000000000000E-002    8.381012802956032E-006
 -2.010000000000000E-002    9.079696765755634E-006
 -2.000000000000000E-002    9.819940718626618E-006
 -1.990000000000000E-002    1.060453457155992E-005
 -1.980000000000000E-002    1.143641525872042E-005
 -1.970000000000000E-002    1.231855678673394E-005
 -1.960000000000000E-002    1.325386714217968E-005
 -1.950000000000000E-002    1.424510698457911E-005
 -1.940000000000000E-002    1.529484642309102E-005
 -1.930000000000000E-002    1.640547451632635E-005
 -1.920000000000000E-002    1.757926537296095E-005
 -1.910000000000000E-002    1.881849765372675E-005
 -1.900000000000000E-002    2.012561389572864E-005
 -1.890000000000000E-002    2.150340611245988E-005
 -1.880000000000000E-002    2.295519297784781E-005
 -1.870000000000000E-002    2.448497369102266E-005
 -1.860000000000000E-002    2.609753057066222E-005
 -1.850000000000000E-002    2.779844699558409E-005
 -1.840000000000000E-002    2.959406439665792E-005
 -1.830000000000000E-002    3.149134197817963E-005
 -1.820000000000000E-002    3.349766874748453E-005
 -1.810000000000000E-002    3.562062102283322E-005
 -1.800000000000000E-002    3.786772742602159E-005
 -1.790000000000000E-002    4.024625040444575E-005
 -1.780000000000000E-002    4.276304008070266E-005
 -1.770000000000000E-002    4.542446920796430E-005
 -1.760000000000000E-002    4.823646847079337E-005
 -1.750000000000000E-002    5.120466858352538E-005
 -1.740000000000000E-002    5.433463269822795E-005
 -1.730000000000000E-002    5.763214315248489E-005
 -1.720000000000000E-002    6.110351430958349E-005
 -1.710000000000000E-002    6.475589545419244E-005
 -1.700000000000000E-002    6.859752805896107E-005
 -1.690000000000000E-002    7.263792639696553E-005
 -1.680000000000000E-002    7.688794367037715E-005
 -1.670000000000000E-002    8.135975076130275E-005
 -1.660000000000000E-002    8.606671298537053E-005
 -1.650000000000000E-002    9.102321314237801E-005
 -1.640000000000000E-002    9.624442555027370E-005
 -1.630000000000000E-002    1.017460817302018E-004
 -1.620000000000000E-002    1.075442917518921E-004
 -1.610000000000000E-002    1.136553697952570E-004
 -1.600000000000000E-002    1.200957980750459E-004
 -1.590000000000000E-002    1.268822045811843E-004
 -1.580000000000000E-002    1.340314707311905E-004
 -1.570000000000000E-002    1.415607991925639E-004
 -1.560000000000000E-002    1.494878926020490E-004
 -1.550000000000000E-002    1.578311266478107E-004
 -1.540000000000000E-002    1.666096589608795E-004
 -1.530000000000000E-002    1.758435520913043E-004
 -1.520000000000000E-002    1.855538160996876E-004
 -1.510000000000000E-002    1.957624525326161E-004
 -1.500000000000000E-002    2.064924845713442E-004
 -1.490000000000000E-002    2.177679094586107E-004
 -1.480000000000000E-002    2.296137394673439E-004
 -1.470000000000000E-002    2.420559867601217E-004
 -1.460000000000000E-002    2.551217425849691E-004
 -1.450000000000000E-002    2.688392222770228E-004
 -1.440000000000000E-002    2.832379185133174E-004
 -1.430000000000000E-002    2.983487054772762E-004
 -1.420000000000000E-002    3.142039088110109E-004
 -1.410000000000000E-002    3.308374248153584E-004
 -1.400000000000000E-002    3.482848203235791E-004
 -1.390000000000000E-002    3.665833503309828E-004
 -1.380000000000000E-002    3.857718848138219E-004
 -1.370000000000000E-002    4.058909250347225E-004
 -1.360000000000000E-002    4.269824376181722E-004
 -1.350000000000000E-002    4.490897926511104E-004
 -1.340000000000000E-002    4.722577778527291E-004
 -1.330000000000000E-002    4.965323048515090E-004
 -1.320000000000000E-002    5.219605949503445E-004
 -1.310000000000000E-002    5.485911161212781E-004
 -1.300000000000000E-002    5.764737543556720E-004
 -1.290000000000000E-002    6.056597771195058E-004
 -1.280000000000000E-002    6.362021494245992E-004
 -1.270000000000000E-002    6.681555701284830E-004
 -1.260000000000000E-002    7.015767682201419E-004
 -1.250000000000000E-002    7.365244705980723E-004
 -1.240000000000000E-002    7.730597102332617E-004
 -1.230000000000000E-002    8.112457782865847E-004
 -1.220000000000000E-002    8.511482763332928E-004
 -1.210000000000000E-002    8.928351937112491E-004
 -1.200000000000000E-002    9.363769050260574E-004
 -1.190000000000000E-002    9.818459481160612E-004
 -1.180000000000000E-002    1.029317362735574E-003
 -1.170000000000000E-002    1.078868262818701E-003
 -1.160000000000000E-002    1.130578295108702E-003
 -1.150000000000000E-002    1.184529379363366E-003
 -1.140000000000000E-002    1.240805718938849E-003
 -1.130000000000000E-002    1.299494245231736E-003
 -1.120000000000000E-002    1.360684358220004E-003
 -1.110000000000000E-002    1.424468106174918E-003
 -1.100000000000000E-002    1.490940377258271E-003
 -1.090000000000000E-002    1.560198809744146E-003
 -1.080000000000000E-002    1.632343863410818E-003
 -1.070000000000000E-002    1.707478924472794E-003
 -1.060000000000000E-002    1.785710160452600E-003
 -1.050000000000000E-002    1.867146934388883E-003
 -1.040000000000000E-002    1.951901002453221E-003
 -1.030000000000000E-002    2.040087263212045E-003
 -1.020000000000000E-002    2.131823257428116E-003
 -1.010000000000000E-002    2.227229685578767E-003
 -1.000000000000000E-002    2.326429829823816E-003
 -9.899999999999999E-003    2.429549927203838E-003
 -9.800000000000000E-003    2.536719014411316E-003
 -9.699999999999999E-003    2.648068967240748E-003
 -9.599999999999999E-003    2.763734753065105E-003
 -9.500000000000000E-003    2.883854164616000E-003
 -9.399999999999999E-003    3.008568440821407E-003
 -9.299999999999999E-003    3.138021561985168E-003
 -9.200000000000000E-003    3.272360760203614E-003
 -9.099999999999999E-003    3.411736540060857E-003
 -8.999999999999999E-003    3.556302401586522E-003
 -8.900000000000000E-003    3.706215321797307E-003
 -8.799999999999999E-003    3.861635628303161E-003
 -8.699999999999999E-003    4.022727022891710E-003
 -8.600000000000000E-003    4.189656154040914E-003
 -8.499999999999999E-003    4.362593476723549E-003
 -8.399999999999999E-003    4.541711771654788E-003
 -8.300000000000000E-003    4.727187520654747E-003
 -8.199999999999999E-003    4.919200023046991E-003
 -8.100000000000000E-003    5.117930925259112E-003
 -8.000000000000000E-003    5.323565293095888E-003
 -7.899999999999999E-003    5.536289676610216E-003
 -7.800000000000000E-003    5.756293290935470E-003
 -7.699999999999999E-003    5.983767205270440E-003
 -7.599999999999999E-003    6.218904527129861E-003
 -7.499999999999999E-003    6.461899991937383E-003
 -7.399999999999999E-003    6.712949841147302E-003
 -7.299999999999999E-003    6.972252038369613E-003
 -7.199999999999999E-003    7.240006443610267E-003
 -7.100000000000000E-003    7.516415464222543E-003
 -6.999999999999999E-003    7.801681382211535E-003
 -6.899999999999999E-003    8.096009767769242E-003
 -6.800000000000000E-003    8.399607749244512E-003
 -6.699999999999999E-003    8.712682313987336E-003
 -6.599999999999999E-003    9.035443203857355E-003
 -6.499999999999999E-003    9.368100693868222E-003
 -6.399999999999999E-003    9.710865326396244E-003
 -6.299999999999999E-003    1.006394787150094E-002
 -6.199999999999999E-003    1.042755906598184E-002
 -6.100000000000000E-003    1.080190970411618E-002
 -5.999999999999999E-003    1.118720900649802E-002
 -5.899999999999999E-003    1.158366515733385E-002
 -5.800000000000000E-003    1.199148572524255E-002
 -5.699999999999999E-003    1.241087604983696E-002
 -5.599999999999999E-003    1.284203992832386E-002
 -5.499999999999999E-003    1.328517968701842E-002
 -5.399999999999999E-003    1.374049340565337E-002
 -5.299999999999999E-003    1.420817889463297E-002
 -5.199999999999999E-003    1.468842805953994E-002
 -5.099999999999999E-003    1.518143187559004E-002
 -4.999999999999999E-003    1.568737523286249E-002
 -4.899999999999999E-003    1.620643834314084E-002
 -4.799999999999999E-003    1.673879909571683E-002
 -4.699999999999999E-003    1.728462834561017E-002
 -4.599999999999999E-003    1.784408818106582E-002
 -4.499999999999999E-003    1.841734014601573E-002
 -4.399999999999999E-003    1.900453497727543E-002
 -4.299999999999999E-003    1.960581810903886E-002
 -4.199999999999999E-003    2.022132888488323E-002
 -4.099999999999999E-003    2.085119650271608E-002
 -3.999999999999999E-003    2.149554468827800E-002
 -3.899999999999999E-003    2.215448820642895E-002
 -3.799999999999999E-003    2.282813077418508E-002
 -3.699999999999999E-003    2.351656736719697E-002
 -3.599999999999999E-003    2.421988233899022E-002
 -3.499999999999999E-003    2.493814669250769E-002
 -3.399999999999999E-003    2.567141878688859E-002
 -3.299999999999999E-003    2.641974550268204E-002
 -3.199999999999999E-003    2.718316025467344E-002
 -3.099999999999999E-003    2.796168150009560E-002
 -2.999999999999999E-003    2.875531261562243E-002
 -2.899999999999999E-003    2.956404021279162E-002
 -2.799999999999999E-003    3.038783938400219E-002
 -2.699999999999999E-003    3.122666634051162E-002
 -2.599999999999999E-003    3.208045895381684E-002
 -2.499999999999999E-003    3.294914824446496E-002
 -2.399999999999999E-003    3.383263632472328E-002
 -2.299999999999999E-003    3.473081222976263E-002
 -2.199999999999999E-003    3.564354331005639E-002
 -2.099999999999999E-003    3.657067648114792E-002
 -1.999999999999999E-003    3.751203513673518E-002
 -1.899999999999999E-003    3.846742403211558E-002
 -1.799999999999999E-003    3.943661975678688E-002
 -1.699999999999999E-003    4.041937506123679E-002
 -1.599999999999999E-003    4.141542039249727E-002
 -1.499999999999999E-003    4.242445791242665E-002
 -1.399999999999999E-003    4.344616432825781E-002
 -1.299999999999999E-003    4.448019131876754E-002
 -1.199999999999999E-003    4.552616373407203E-002
 -1.099999999999999E-003    4.658368223341552E-002
 -9.999999999999989E-004    4.765231744543566E-002
 -8.999999999999990E-004    4.873161247677631E-002
 -7.999999999999990E-004    4.982108197434851E-002
 -6.999999999999989E-004    5.092020402032801E-002
 -5.999999999999990E-004    5.202843509033915E-002
 -4.999999999999989E-004    5.314518855073505E-002
 -3.999999999999989E-004    5.426985297130642E-002
 -2.999999999999989E-004    5.540178141213684E-002
 -1.999999999999989E-004    5.654028611623066E-002
 -9.999999999999892E-005    5.768464994097333E-002
  1.084202172485504E-018    5.883411968734555E-002
  1.000000000000011E-004    5.998790947590157E-002
  2.000000000000011E-004    6.114519747093532E-002
  3.000000000000011E-004    6.230511795091735E-002
  4.000000000000011E-004    6.346677888999759E-002
  5.000000000000011E-004    6.462924849644074E-002
  6.000000000000011E-004    6.579155337910261E-002
  7.000000000000011E-004    6.695268847317934E-002
  8.000000000000011E-004    6.811160234301518E-002
  9.000000000000012E-004    6.926721261333507E-002
  1.000000000000001E-003    7.041839110579884E-002
  1.100000000000001E-003    7.156396707617838E-002
  1.200000000000001E-003    7.270273319908208E-002
  1.300000000000001E-003    7.383344203786935E-002
  1.400000000000001E-003    7.495480290388921E-002
  1.500000000000001E-003    7.606549089138255E-002
  1.600000000000001E-003    7.716413423431369E-002
  1.700000000000001E-003    7.824932702340834E-002
  1.800000000000001E-003    7.931962335775961E-002
  1.900000000000001E-003    8.037353602004861E-002
  2.000000000000001E-003    8.140954259098850E-002
  2.100000000000001E-003    8.242606959763266E-002
  2.200000000000001E-003    8.342151948628779E-002
  2.300000000000001E-003    8.439424447900588E-002
  2.400000000000001E-003    8.534255710926449E-002
  2.500000000000001E-003    8.626473113745714E-002
  2.600000000000001E-003    8.715900720196801E-002
  2.700000000000001E-003    8.802359072564317E-002
  2.800000000000001E-003    8.885663826535729E-002
  2.900000000000001E-003    8.965628177760038E-002
  3.000000000000001E-003    9.042061154223044E-002
  3.100000000000001E-003    9.114768816293957E-002
  3.200000000000001E-003    9.183553906073103E-002
  3.300000000000001E-003    9.248215451012290E-002
  3.400000000000001E-003    9.308549974018981E-002
  3.500000000000001E-003    9.364350461226352E-002
  3.600000000000001E-003    9.415406659729861E-002
  3.700000000000001E-003    9.461506006851193E-002
  3.800000000000001E-003    9.502432926000717E-002
  3.900000000000001E-003    9.537969066755350E-002
  4.000000000000001E-003    9.567893593701962E-002
  4.100000000000001E-003    9.591983179118940E-002
  4.200000000000001E-003    9.610012858502670E-002
  4.300000000000001E-003    9.621755277919454E-002
  4.400000000000001E-003    9.626981204726894E-002
  4.500000000000001E-003    9.625460142718334E-002
  4.600000000000002E-003    9.616961314462355E-002
  4.700000000000001E-003    9.601250878298989E-002
  4.800000000000001E-003    9.578095043341657E-002
  4.900000000000002E-003    9.547258910924603E-002
  5.000000000000001E-003    9.508507372196844E-002
  5.100000000000001E-003    9.461604016541053E-002
  5.200000000000001E-003    9.406312288510563E-002
  5.300000000000002E-003    9.342396151293808E-002
  5.400000000000001E-003    9.269618920573117E-002
  5.500000000000001E-003    9.187745729664057E-002
  5.600000000000002E-003    9.096540393455368E-002
  5.700000000000001E-003    8.995769858154802E-002
  5.800000000000001E-003    8.885201148594160E-002
  5.900000000000002E-003    8.764604361105451E-002
  6.000000000000001E-003    8.633749660569652E-002
  6.100000000000001E-003    8.492410526827680E-002
  6.200000000000002E-003    8.340362274816024E-002
  6.300000000000002E-003    8.177383410760311E-002
  6.400000000000001E-003    8.003254867672185E-002
  6.500000000000001E-003    7.817761145817238E-002
  6.600000000000002E-003    7.620689340320302E-002
  6.700000000000001E-003    7.411831321360966E-002
  6.800000000000001E-003    7.190982875456212E-002
  6.900000000000002E-003    6.957944092320227E-002
  7.000000000000001E-003    6.712520083859089E-002
  7.100000000000001E-003    6.454520658748761E-002
  7.200000000000002E-003    6.183761363262551E-002
  7.300000000000002E-003    5.900063382780074E-002
  7.400000000000001E-003    5.603254212114152E-002
  7.500000000000001E-003    5.293167704605325E-002
  7.600000000000002E-003    4.969644889093632E-002
  7.700000000000001E-003    4.632532208767523E-002
  7.800000000000001E-003    4.281685252884487E-002
  7.900000000000001E-003    3.916966015644445E-002
  8.000000000000002E-003    3.538244946400367E-002
  8.100000000000001E-003    3.145400613047562E-002
  8.200000000000001E-003    2.738320014918290E-002
  8.300000000000002E-003    2.316899484004833E-002
  8.400000000000001E-003    1.881044140360932E-002
  8.500000000000002E-003    1.430669060004295E-002
  8.600000000000002E-003    9.656989285692653E-003
  8.700000000000001E-003    4.860688907160058E-003
  8.800000000000002E-003   -8.275488794422421E-005
  8.900000000000002E-003   -5.173782516594328E-003
  9.000000000000001E-003   -1.041272122377472E-002
  9.100000000000002E-003   -1.579979041889701E-002
  9.200000000000002E-003   -2.133509501140120E-002
  9.300000000000001E-003   -2.701861784294353E-002
  9.400000000000002E-003   -3.285022929476003E-002
  9.500000000000001E-003   -3.882966947592858E-002
  9.600000000000001E-003   -4.495656531432050E-002
  9.700000000000002E-003   -5.123040568183211E-002
  9.800000000000001E-003   -5.765055306869196E-002
  9.900000000000001E-003   -6.421624265595674E-002
  1.000000000000000E-002   -7.092656170975693E-002
  1.010000000000000E-002   -7.778047491364799E-002
  1.020000000000000E-002   -8.477679914519298E-002
  1.030000000000000E-002   -9.191422535132829E-002
  1.040000000000000E-002   -9.919127807659738E-002
  1.050000000000000E-002   -0.106606368244342     
  1.060000000000000E-002   -0.114157763138744     
  1.070000000000000E-002   -0.121843561412536     
  1.080000000000000E-002   -0.129661734163474     
  1.090000000000000E-002   -0.137610108348255     
  1.100000000000000E-002   -0.145686356887808     
  1.110000000000000E-002   -0.153888008635525     
  1.120000000000000E-002   -0.162212449002130     
  1.130000000000000E-002   -0.170656908724392     
  1.140000000000000E-002   -0.179218478376585     
  1.150000000000000E-002   -0.187894082168046     
  1.160000000000000E-002   -0.196680512752852     
  1.170000000000000E-002   -0.205574413239257     
  1.180000000000000E-002   -0.214572287965324     
  1.190000000000000E-002   -0.223670470186785     
  1.200000000000000E-002   -0.232865152127621     
  1.210000000000000E-002   -0.242152399612507     
  1.220000000000000E-002   -0.251528120605913     
  1.230000000000000E-002   -0.260988096056706     
  1.240000000000000E-002   -0.270527972695853     
  1.250000000000000E-002   -0.280143229353614     
  1.260000000000000E-002   -0.289829234259708     
  1.270000000000000E-002   -0.299581189029588     
  1.280000000000000E-002   -0.309394192038329     
  1.290000000000000E-002   -0.319263173973656     
  1.300000000000000E-002   -0.329182981859392     
  1.310000000000000E-002   -0.339148307861410     
  1.320000000000000E-002   -0.349153739965871     
  1.330000000000000E-002   -0.359193752033951     
  1.340000000000000E-002   -0.369262696946078     
  1.350000000000000E-002   -0.379354780309465     
  1.360000000000000E-002   -0.389464147569872     
  1.370000000000000E-002   -0.399584796992715     
  1.380000000000000E-002   -0.409710665363774     
  1.390000000000000E-002   -0.419835550328365     
  1.400000000000000E-002   -0.429953178411198     
  1.410000000000000E-002   -0.440057193023720     
  1.420000000000000E-002   -0.450141142443236     
  1.430000000000000E-002   -0.460198513254891     
  1.440000000000000E-002   -0.470222650049840     
  1.450000000000000E-002   -0.480206891436500     
  1.460000000000000E-002   -0.490144531056008     
  1.470000000000000E-002   -0.500028728225601     
  1.480000000000000E-002   -0.509852586685553     
  1.490000000000000E-002   -0.519609237917937     
  1.500000000000000E-002   -0.529291715316330     
  1.510000000000000E-002   -0.538893026864290     
  1.520000000000000E-002   -0.548406111720281     
  1.530000000000000E-002   -0.557823913517405     
  1.540000000000000E-002   -0.567139359403360     
  1.550000000000000E-002   -0.576345363578865     
  1.560000000000000E-002   -0.585434811216495     
  1.570000000000000E-002   -0.594400547343579     
  1.580000000000000E-002   -0.603235474998876     
  1.590000000000000E-002   -0.611932512950165     
  1.600000000000000E-002   -0.620484523852090     
  1.610000000000000E-002   -0.628884425251567     
  1.620000000000000E-002   -0.637125200463681     
  1.630000000000000E-002   -0.645199785761294     
  1.640000000000000E-002   -0.653101197736231     
  1.650000000000000E-002   -0.660822498531781     
  1.660000000000000E-002   -0.668356811983809     
  1.670000000000000E-002   -0.675697281471755     
  1.680000000000000E-002   -0.682837145050252     
  1.690000000000000E-002   -0.689769697404200     
  1.700000000000000E-002   -0.696488268352935     
  1.710000000000000E-002   -0.702986358060083     
  1.720000000000000E-002   -0.709257465562272     
  1.730000000000000E-002   -0.715295195251588     
  1.740000000000000E-002   -0.721093273039806     
  1.750000000000000E-002   -0.726645573143108     
  1.760000000000000E-002   -0.731945991508467     
  1.770000000000000E-002   -0.736988618154721     
  1.780000000000000E-002   -0.741767616035276     
  1.790000000000000E-002   -0.746277300237472     
  1.800000000000000E-002   -0.750512148752109     
  1.810000000000000E-002   -0.754466652581962     
  1.820000000000000E-002   -0.758135601107276     
  1.830000000000000E-002   -0.761513845678482     
  1.840000000000000E-002   -0.764596405340496     
  1.850000000000000E-002   -0.767378456273790     
  1.860000000000000E-002   -0.769855376429403     
  1.870000000000000E-002   -0.772022639832213     