 -4.000000000000000E-002    0.000000000000000E+000
 -3.990000000000000E-002    0.000000000000000E+000
 -3.980000000000000E-002    0.000000000000000E+000
 -3.970000000000000E-002    0.000000000000000E+000
 -3.960000000000000E-002    0.000000000000000E+000
 -3.950000000000000E-002    0.000000000000000E+000
 -3.940000000000000E-002    0.000000000000000E+000
 -3.930000000000000E-002    0.000000000000000E+000
 -3.920000000000000E-002    0.000000000000000E+000
 -3.910000000000000E-002    0.000000000000000E+000
 -3.900000000000000E-002    0.000000000000000E+000
 -3.890000000000000E-002    0.000000000000000E+000
 -3.880000000000000E-002    0.000000000000000E+000
 -3.870000000000000E-002    0.000000000000000E+000
 -3.860000000000000E-002    0.000000000000000E+000
 -3.850000000000000E-002    0.000000000000000E+000
 -3.840000000000000E-002    0.000000000000000E+000
 -3.830000000000000E-002    0.000000000000000E+000
 -3.820000000000000E-002    0.000000000000000E+000
 -3.810000000000000E-002    0.000000000000000E+000
 -3.800000000000000E-002    0.000000000000000E+000
 -3.790000000000000E-002    0.000000000000000E+000
 -3.780000000000000E-002    0.000000000000000E+000
 -3.770000000000000E-002    0.000000000000000E+000
 -3.760000000000000E-002    0.000000000000000E+000
 -3.750000000000000E-002    0.000000000000000E+000
 -3.740000000000000E-002    0.000000000000000E+000
 -3.730000000000000E-002    0.000000000000000E+000
 -3.720000000000000E-002    0.000000000000000E+000
 -3.710000000000000E-002    0.000000000000000E+000
 -3.700000000000000E-002    0.000000000000000E+000
 -3.690000000000000E-002    0.000000000000000E+000
 -3.680000000000000E-002    0.000000000000000E+000
 -3.670000000000000E-002    0.000000000000000E+000
 -3.660000000000000E-002    0.000000000000000E+000
 -3.650000000000000E-002    0.000000000000000E+000
 -3.640000000000000E-002    0.000000000000000E+000
 -3.630000000000000E-002    0.000000000000000E+000
 -3.620000000000000E-002    0.000000000000000E+000
 -3.610000000000000E-002    0.000000000000000E+000
 -3.600000000000000E-002    0.000000000000000E+000
 -3.590000000000000E-002    0.000000000000000E+000
 -3.580000000000000E-002    0.000000000000000E+000
 -3.570000000000000E-002    0.000000000000000E+000
 -3.560000000000000E-002    0.000000000000000E+000
 -3.550000000000000E-002    0.000000000000000E+000
 -3.540000000000000E-002    0.000000000000000E+000
 -3.530000000000000E-002    0.000000000000000E+000
 -3.520000000000000E-002    0.000000000000000E+000
 -3.510000000000000E-002    0.000000000000000E+000
 -3.500000000000000E-002    0.000000000000000E+000
 -3.490000000000000E-002    0.000000000000000E+000
 -3.480000000000000E-002    0.000000000000000E+000
 -3.470000000000000E-002    0.000000000000000E+000
 -3.460000000000000E-002    0.000000000000000E+000
 -3.450000000000000E-002    0.000000000000000E+000
 -3.440000000000000E-002    0.000000000000000E+000
 -3.430000000000000E-002    0.000000000000000E+000
 -3.420000000000000E-002    0.000000000000000E+000
 -3.410000000000000E-002    0.000000000000000E+000
 -3.400000000000000E-002    0.000000000000000E+000
 -3.390000000000000E-002    0.000000000000000E+000
 -3.380000000000000E-002    0.000000000000000E+000
 -3.370000000000000E-002    0.000000000000000E+000
 -3.360000000000000E-002    0.000000000000000E+000
 -3.350000000000000E-002    0.000000000000000E+000
 -3.340000000000000E-002    0.000000000000000E+000
 -3.330000000000000E-002    0.000000000000000E+000
 -3.320000000000000E-002    1.924390591266381E-047
 -3.310000000000000E-002    8.980489425909777E-048
 -3.300000000000000E-002    1.282927060844254E-048
 -3.290000000000000E-002    6.049778451401930E-047
 -3.280000000000000E-002    1.571177393860171E-046
 -3.270000000000000E-002   -2.656825491920402E-047
 -3.260000000000000E-002    3.681396720338668E-046
 -3.250000000000000E-002    1.115513105277652E-045
 -3.240000000000000E-002    1.612791447358272E-045
 -3.230000000000000E-002    2.451012074141907E-045
 -3.220000000000000E-002    1.989751375148202E-045
 -3.210000000000000E-002   -6.787461513644339E-046
 -3.200000000000000E-002   -8.393182602722826E-045
 -3.190000000000000E-002   -2.532061454667870E-044
 -3.180000000000000E-002   -5.583337792206114E-044
 -3.170000000000000E-002   -1.048588773530868E-043
 -3.160000000000000E-002   -1.723878406813927E-043
 -3.150000000000000E-002   -2.516420798964106E-043
 -3.140000000000000E-002   -3.145546059278390E-043
 -3.130000000000000E-002   -3.007314701770675E-043
 -3.120000000000000E-002   -9.492046434193918E-044
 -3.110000000000000E-002    4.859448539713538E-043
 -3.100000000000000E-002    1.695351634162415E-042
 -3.090000000000000E-002    3.829098298175300E-042
 -3.080000000000000E-002    7.132418287053002E-042
 -3.070000000000000E-002    1.160475849896006E-041
 -3.060000000000000E-002    1.666212528322088E-041
 -3.050000000000000E-002    2.062961092555278E-041
 -3.040000000000000E-002    2.009352384540361E-041
 -3.030000000000000E-002    9.242075546625132E-042
 -3.020000000000000E-002   -2.052523367064126E-041
 -3.010000000000000E-002   -8.019462522699666E-041
 -3.000000000000000E-002   -1.811509067998700E-040
 -2.990000000000000E-002   -3.305901396586836E-040
 -2.980000000000000E-002   -5.232489143917609E-040
 -2.970000000000000E-002   -7.287311298795439E-040
 -2.960000000000000E-002   -8.747764386967308E-040
 -2.950000000000000E-002   -8.289194357718058E-040
 -2.940000000000000E-002   -3.843951232950411E-040
 -2.930000000000000E-002    7.391627960302724E-040
 -2.920000000000000E-002    2.864332877935499E-039
 -2.910000000000000E-002    6.273267023368131E-039
 -2.900000000000000E-002    1.105203597210545E-038
 -2.890000000000000E-002    1.684625779341553E-038
 -2.880000000000000E-002    2.253085313007316E-038
 -2.870000000000000E-002    2.583274243267899E-038
 -2.860000000000000E-002    2.300226048264076E-038
 -2.850000000000000E-002    8.705755956305125E-039
 -2.840000000000000E-002   -2.360186220643367E-038
 -2.830000000000000E-002   -8.049312204168917E-038
 -2.820000000000000E-002   -1.662204132578533E-037
 -2.810000000000000E-002   -2.789429557670194E-037
 -2.800000000000000E-002   -4.055329194609742E-037
 -2.790000000000000E-002   -5.154763349626114E-037
 -2.780000000000000E-002   -5.551734853522468E-037
 -2.770000000000000E-002   -4.449836573535104E-037
 -2.760000000000000E-002   -8.250445906112821E-038
 -2.750000000000000E-002    6.434784612066925E-037
 -2.740000000000000E-002    1.823699597823511E-036
 -2.730000000000000E-002    3.480227494120955E-036
 -2.720000000000000E-002    5.499143981939310E-036
 -2.710000000000000E-002    7.549958947738350E-036
 -2.700000000000000E-002    9.006975671569821E-036
 -2.690000000000000E-002    8.899727108692474E-036
 -2.680000000000000E-002    5.932492130932630E-036
 -2.670000000000000E-002   -1.376804346884743E-036
 -2.660000000000000E-002   -1.438579900228402E-035
 -2.650000000000000E-002   -3.380496331680134E-035
 -2.640000000000000E-002   -5.895828852945551E-035
 -2.630000000000000E-002   -8.688651530250076E-035
 -2.620000000000000E-002   -1.114468531406808E-034
 -2.610000000000000E-002   -1.226819514237623E-034
 -2.600000000000000E-002   -1.068553301802795E-034
 -2.590000000000000E-002   -4.764696388703031E-035
 -2.580000000000000E-002    7.098132283891291E-035
 -2.570000000000000E-002    2.598647910774636E-034
 -2.560000000000000E-002    5.176048494207289E-034
 -2.550000000000000E-002    8.219597642830581E-034
 -2.540000000000000E-002    1.121033063684384E-033
 -2.530000000000000E-002    1.326677397752851E-033
 -2.520000000000000E-002    1.313584040128712E-033
 -2.510000000000000E-002    9.283165018644463E-034
 -2.500000000000000E-002    1.263539187419135E-035
 -2.490000000000000E-002   -1.555640113330062E-033
 -2.480000000000000E-002   -3.803760332432065E-033
 -2.470000000000000E-002   -6.591449259719442E-033
 -2.460000000000000E-002   -9.535586152919695E-033
 -2.450000000000000E-002   -1.195124119037047E-032
 -2.440000000000000E-002   -1.283610095344780E-032
 -2.430000000000000E-002   -1.093096970019764E-032
 -2.420000000000000E-002   -4.889270659428070E-033
 -2.410000000000000E-002    6.420241194087338E-033
 -2.400000000000000E-002    2.347415805127002E-032
 -2.390000000000000E-002    4.554989641172334E-032
 -2.380000000000000E-002    7.015519780900584E-032
 -2.370000000000000E-002    9.256705525227432E-032
 -2.360000000000000E-002    1.056693617845716E-031
 -2.350000000000000E-002    1.003148700981199E-031
 -2.340000000000000E-002    6.643500505285554E-032
 -2.330000000000000E-002   -4.941214610414536E-033
 -2.320000000000000E-002   -1.187393193850913E-031
 -2.310000000000000E-002   -2.721727541708749E-031
 -2.300000000000000E-002   -4.508769440686869E-031
 -2.290000000000000E-002   -6.257153185050170E-031
 -2.280000000000000E-002   -7.514587940447991E-031
 -2.270000000000000E-002   -7.687476713570066E-031
 -2.260000000000000E-002   -6.107071483985084E-031
 -2.250000000000000E-002   -2.151799001983274E-031
 -2.240000000000000E-002    4.573397081220230E-031
 -2.230000000000000E-002    1.401373681410816E-030
 -2.220000000000000E-002    2.542848864523097E-030
 -2.210000000000000E-002    3.719350550957198E-030
 -2.200000000000000E-002    4.671197794535656E-030
 -2.190000000000000E-002    5.051362885093816E-030
 -2.180000000000000E-002    4.461881727298449E-030
 -2.170000000000000E-002    2.521925987489279E-030
 -2.160000000000000E-002   -1.032330005792562E-030
 -2.150000000000000E-002   -6.223615778048882E-030
 -2.140000000000000E-002   -1.270264394013970E-029
 -2.130000000000000E-002   -1.963836068545366E-029
 -2.120000000000000E-002   -2.566654018914308E-029
 -2.110000000000000E-002   -2.893871078214009E-029
 -2.100000000000000E-002   -2.731032432671791E-029
 -2.090000000000000E-002   -1.869322933229525E-029
 -2.080000000000000E-002   -1.570540861759973E-030
 -2.070000000000000E-002    2.436767179250049E-029
 -2.060000000000000E-002    5.755866859757693E-029
 -2.050000000000000E-002    9.401356234917878E-029
 -2.040000000000000E-002    1.270608306587200E-028
 -2.030000000000000E-002    1.475901622175855E-028
 -2.020000000000000E-002    1.449797443153471E-028
 -2.010000000000000E-002    1.088162813666629E-028
 -2.000000000000000E-002    3.138270376284012E-029
 -1.990000000000000E-002   -8.930303579854268E-029
 -1.980000000000000E-002   -2.463452598910327E-028
 -1.970000000000000E-002   -4.214035065125168E-028
 -1.960000000000000E-002   -5.835609897905088E-028
 -1.950000000000000E-002   -6.905529596964777E-028
 -1.940000000000000E-002   -6.931543018046786E-028
 -1.930000000000000E-002   -5.431620450003327E-028
 -1.920000000000000E-002   -2.047746099390743E-028
 -1.910000000000000E-002    3.316986673875049E-028
 -1.900000000000000E-002    1.035879570154529E-027
 -1.890000000000000E-002    1.826183746429458E-027
 -1.880000000000000E-002    2.565286692250562E-027
 -1.870000000000000E-002    3.066150961502004E-027
 -1.860000000000000E-002    3.111906369571615E-027
 -1.850000000000000E-002    2.491165885513413E-027
 -1.840000000000000E-002    1.047575522669536E-027
 -1.830000000000000E-002   -1.261359155357545E-027
 -1.820000000000000E-002   -4.305331166703833E-027
 -1.810000000000000E-002   -7.735296673235897E-027
 -1.800000000000000E-002   -1.096635351020428E-026
 -1.790000000000000E-002   -1.320547953773261E-026
 -1.780000000000000E-002   -1.353699421568204E-026
 -1.770000000000000E-002   -1.107113225438751E-026
 -1.760000000000000E-002   -5.149429207086247E-027
 -1.750000000000000E-002    4.414583938631461E-027
 -1.740000000000000E-002    1.709751568650328E-026
 -1.730000000000000E-002    3.148424639446761E-026
 -1.720000000000000E-002    4.520465158747684E-026
 -1.710000000000000E-002    5.505101570352195E-026
 -1.700000000000000E-002    5.732385916161917E-026
 -1.690000000000000E-002    4.842350810959221E-026
 -1.680000000000000E-002    2.565830604414067E-026
 -1.670000000000000E-002   -1.181795011345724E-026
 -1.660000000000000E-002   -6.208918096695027E-026
 -1.650000000000000E-002   -1.197848419467287E-025
 -1.640000000000000E-002   -1.758477297274865E-025
 -1.630000000000000E-002   -2.179903072670941E-025
 -1.620000000000000E-002   -2.320090233114758E-025
 -1.610000000000000E-002   -2.040077692525034E-025
 -1.600000000000000E-002   -1.234100726743806E-025
 -1.590000000000000E-002    1.357542876618855E-026
 -1.580000000000000E-002    2.005912481310660E-025
 -1.570000000000000E-002    4.186118419625919E-025
 -1.560000000000000E-002    6.351099773518119E-025
 -1.550000000000000E-002    8.057061187255488E-025
 -1.540000000000000E-002    8.788738866873118E-025
 -1.530000000000000E-002    8.038443890013170E-025
 -1.520000000000000E-002    5.412372037485408E-025
 -1.510000000000000E-002    7.521216710715042E-026
 -1.500000000000000E-002   -5.748168392015247E-025
 -1.490000000000000E-002   -1.345470034809504E-024
 -1.480000000000000E-002   -2.126546969005049E-024
 -1.470000000000000E-002   -2.766683084534230E-024
 -1.460000000000000E-002   -3.089349887646593E-024
 -1.450000000000000E-002   -2.919552865261035E-024
 -1.440000000000000E-002   -2.119500602619097E-024
 -1.430000000000000E-002   -6.290900144891254E-025
 -1.420000000000000E-002    1.495346445697044E-024
 -1.410000000000000E-002    4.052488121172289E-024
 -1.400000000000000E-002    6.686905419983065E-024
 -1.390000000000000E-002    8.907776078407349E-024
 -1.380000000000000E-002    1.014102988048522E-023
 -1.370000000000000E-002    9.815600958402391E-024
 -1.360000000000000E-002    7.477784286161797E-024
 -1.350000000000000E-002    2.920044609236922E-024
 -1.340000000000000E-002   -3.696794260986714E-024
 -1.330000000000000E-002   -1.175460548701222E-023
 -1.320000000000000E-002   -2.015090782539562E-023
 -1.310000000000000E-002   -2.735915169466074E-023
 -1.300000000000000E-002   -3.159260592001286E-023
 -1.290000000000000E-002   -3.107243095313213E-023
 -1.280000000000000E-002   -2.438004014596741E-023
 -1.270000000000000E-002   -1.085058348321592E-023
 -1.260000000000000E-002    9.057389383379606E-024
 -1.250000000000000E-002    3.349682371545950E-023
 -1.240000000000000E-002    5.915682176192646E-023
 -1.230000000000000E-002    8.145132663526147E-023
 -1.220000000000000E-002    9.501670326641786E-023
 -1.210000000000000E-002    9.451600385088140E-023
 -1.200000000000000E-002    7.568650765500277E-023
 -1.190000000000000E-002    3.649937257147590E-023
 -1.180000000000000E-002   -2.176128747574385E-023
 -1.170000000000000E-002   -9.373577055773664E-023
 -1.160000000000000E-002   -1.697872986246314E-022
 -1.150000000000000E-002   -2.365699708242929E-022
 -1.140000000000000E-002   -2.784868222169716E-022
 -1.130000000000000E-002   -2.800199693665066E-022
 -1.120000000000000E-002   -2.287398107655729E-022
 -1.110000000000000E-002   -1.186113584201881E-022
 -1.100000000000000E-002    4.695467142191105E-023
 -1.090000000000000E-002    2.529701429620067E-022
 -1.080000000000000E-002    4.723362839079630E-022
 -1.070000000000000E-002    6.674763418223145E-022
 -1.060000000000000E-002    7.944453488060152E-022
 -1.050000000000000E-002    8.094412493214066E-022
 -1.040000000000000E-002    6.771591244842835E-022
 -1.030000000000000E-002    3.799132894392010E-022
 -1.020000000000000E-002   -7.399373642853571E-023
 -1.010000000000000E-002   -6.444638874209140E-022
 -1.000000000000000E-002   -1.258181185049320E-021
 -9.899999999999999E-003   -1.813068883483748E-021
 -9.800000000000000E-003   -2.189415814957501E-021
 -9.699999999999999E-003   -2.267407514448989E-021
 -9.599999999999999E-003   -1.949514103285521E-021
 -9.500000000000000E-003   -1.184837335795368E-021
 -9.399999999999999E-003    8.630977988028473E-024
 -9.299999999999999E-003    1.528595279840120E-021
 -9.200000000000000E-003    3.184623672670789E-021
 -9.099999999999999E-003    4.709720210997628E-021
 -8.999999999999999E-003    5.789249791354465E-021
 -8.900000000000000E-003    6.106414448585849E-021
 -8.799999999999999E-003    5.400169563701124E-021
 -8.699999999999999E-003    3.528058113085367E-021
 -8.600000000000000E-003    5.235640421968881E-022
 -8.499999999999999E-003   -3.364095311947052E-021
 -8.399999999999999E-003   -7.659663427761488E-021
 -8.300000000000000E-003   -1.169052643609351E-020
 -8.199999999999999E-003   -1.465906821042759E-020
 -8.100000000000000E-003   -1.575646469744605E-020
 -8.000000000000000E-003   -1.430745195718325E-020
 -7.899999999999999E-003   -9.927221109656237E-021
 -7.800000000000000E-003   -2.664629181271245E-021
 -7.699999999999999E-003    6.897994919226644E-021
 -7.599999999999999E-003    1.761753705992322E-020
 -7.499999999999999E-003    2.785824404638756E-020
 -7.399999999999999E-003    3.566633265047700E-020
 -7.299999999999999E-003    3.904529987840164E-020
 -7.199999999999999E-003    3.630619535813632E-020
 -7.100000000000000E-003    2.644729115406369E-020
 -6.999999999999999E-003    9.501125869792434E-021
 -6.899999999999999E-003   -1.322201701594964E-020
 -6.800000000000000E-003   -3.906311354820079E-020
 -6.699999999999999E-003   -6.416990346440666E-020
 -6.599999999999999E-003   -8.390431353871835E-020
 -6.499999999999999E-003   -9.348769058796997E-020
 -6.399999999999999E-003   -8.882301885247557E-020
 -6.299999999999999E-003   -6.738732380699956E-020
 -6.199999999999999E-003   -2.904967344309495E-020
 -6.100000000000000E-003    2.334946473967933E-020
 -5.999999999999999E-003    8.381670570287428E-020
 -5.899999999999999E-003    1.435459172264159E-019
 -5.800000000000000E-003    1.918380809650078E-019
 -5.699999999999999E-003    2.175683300307925E-019
 -5.599999999999999E-003    2.110613287983886E-019
 -5.499999999999999E-003    1.661324817994660E-019
 -5.399999999999999E-003    8.196812543954418E-020
 -5.299999999999999E-003   -3.552600884616310E-020
 -5.199999999999999E-003   -1.732659495391858E-019
 -5.099999999999999E-003   -3.116984904007004E-019
 -4.999999999999999E-003   -4.268095175186229E-019
 -4.899999999999999E-003   -4.933603574726278E-019
 -4.799999999999999E-003   -4.890481049507188E-019
 -4.699999999999999E-003   -3.990552006682774E-019
 -4.599999999999999E-003   -2.202699157544063E-019
 -4.499999999999999E-003    3.563640392225361E-020
 -4.399999999999999E-003    3.410614945496162E-019
 -4.299999999999999E-003    6.538672269498809E-019
 -4.199999999999999E-003    9.216118592841978E-019
 -4.099999999999999E-003    1.088477082151189E-018
 -3.999999999999999E-003    1.104245143082188E-018
 -3.899999999999999E-003    9.341848151880724E-019
 -3.799999999999999E-003    5.683116992829597E-019
 -3.699999999999999E-003    2.827796313306754E-020
 -3.599999999999999E-003   -6.297960164128851E-019
 -3.499999999999999E-003   -1.317875050858846E-018
 -3.399999999999999E-003   -1.924605225820278E-018
 -3.299999999999999E-003   -2.329692493773986E-018
 -3.199999999999999E-003   -2.422745964617618E-018
 -3.099999999999999E-003   -2.124229808546095E-018
 -2.999999999999999E-003   -1.405325873163896E-018
 -2.899999999999999E-003   -3.030671783671679E-019
 -2.799999999999999E-003    1.072807501662148E-018
 -2.699999999999999E-003    2.544097986792287E-018
 -2.599999999999999E-003    3.880942985578390E-018
 -2.499999999999999E-003    4.830762958768388E-018
 -2.399999999999999E-003    5.156754159114597E-018
 -2.299999999999999E-003    4.681209307444434E-018
 -2.199999999999999E-003    3.327190891567522E-018
 -2.099999999999999E-003    1.151128304495855E-018
 -1.999999999999999E-003   -1.640966248061729E-018
 -1.899999999999999E-003   -4.699557426611066E-018
 -1.799999999999999E-003   -7.563126180611475E-018
 -1.699999999999999E-003   -9.714675018180502E-018
 -1.599999999999999E-003   -1.065831091381512E-017
 -1.499999999999999E-003   -1.000670972517196E-017
 -1.399999999999999E-003   -7.566688266024899E-018
 -1.299999999999999E-003   -3.408071914975992E-018
 -1.199999999999999E-003    2.098885327911465E-018
 -1.099999999999999E-003    8.289644948151601E-018
 -9.999999999999989E-004    1.426210079460787E-017
 -8.999999999999990E-004    1.898356500013280E-017
 -7.999999999999990E-004    2.143927108665962E-017
 -6.999999999999989E-004    2.080496801017847E-017
 -5.999999999999990E-004    1.661907560369562E-017
 -4.999999999999989E-004    8.925434264062556E-018
 -3.999999999999989E-004   -1.642486396228965E-018
 -2.999999999999989E-004   -1.386051159595381E-017
 -1.999999999999989E-004   -2.601083765098448E-017
 -9.999999999999892E-005   -3.607851740584343E-017
  1.084202172485504E-018   -4.203227563243037E-017
  1.000000000000011E-004   -4.215772645821069E-017
  2.000000000000011E-004   -3.539693229540052E-017
  3.000000000000011E-004   -2.163893522391697E-017
  4.000000000000011E-004   -1.904531453776062E-018
  5.000000000000011E-004    2.162374411716562E-017
  6.000000000000011E-004    4.575829654858438E-017
  7.000000000000011E-004    6.665605863367682E-017
  8.000000000000011E-004    8.033664800656628E-017
  9.000000000000012E-004    8.331234309861073E-017
  1.000000000000001E-003    7.324523408482660E-017
  1.100000000000001E-003    4.952787386684515E-017
  1.200000000000001E-003    1.367886304913484E-017
  1.300000000000001E-003   -3.054313100997325E-017
  1.400000000000001E-003   -7.737323139654237E-017
  1.500000000000001E-003   -1.196423411259214E-016
  1.600000000000001E-003   -1.497103343396978E-016
  1.700000000000001E-003   -1.606332046346644E-016
  1.800000000000001E-003   -1.474118101966956E-016
  1.900000000000001E-003   -1.081318728618696E-016
  2.000000000000001E-003   -4.479040978854001E-017
  2.100000000000001E-003    3.637808201626875E-017
  2.200000000000001E-003    1.252116825682873E-016
  2.300000000000001E-003    2.086217541857808E-016
  2.400000000000001E-003    2.722342649584072E-016
  2.500000000000001E-003    3.025099789380444E-016
  2.600000000000001E-003    2.890760155563892E-016
  2.700000000000001E-003    2.269243103400122E-016
  2.800000000000001E-003    1.180980272526993E-016
  2.900000000000001E-003   -2.749136563868625E-017
  3.000000000000001E-003   -1.923895394780051E-016
  3.100000000000001E-003   -3.531989737420219E-016
  3.200000000000001E-003   -4.833984697878238E-016
  3.300000000000001E-003   -5.571213604093845E-016
  3.400000000000001E-003   -5.534342932959774E-016
  3.500000000000001E-003   -4.605032829718119E-016
  3.600000000000001E-003   -2.789549147813876E-016
  3.700000000000001E-003   -2.376130298949460E-017
  3.800000000000001E-003    2.758908339195707E-016
  3.900000000000001E-003    5.790445618141158E-016
  4.000000000000001E-003    8.377011897886740E-016
  4.100000000000001E-003    1.003429608763460E-015
  4.200000000000001E-003    1.035083669385952E-015
  4.300000000000001E-003    9.065579669296075E-016
  4.400000000000001E-003    6.133348088809804E-016
  4.500000000000001E-003    1.765788926534403E-016
  4.600000000000002E-003   -3.562628795352711E-016
  4.700000000000001E-003   -9.149963576696591E-016
  4.800000000000001E-003   -1.414420020181072E-015
  4.900000000000002E-003   -1.765674629153592E-015
  5.000000000000001E-003   -1.889929705978748E-015
  5.100000000000001E-003   -1.732562027770348E-015
  5.200000000000001E-003   -1.275620928550659E-015
  5.300000000000002E-003   -5.463075121731182E-016
  5.400000000000001E-003    3.805038233911375E-016
  5.500000000000001E-003    1.387015981233692E-015
  5.600000000000002E-003    2.324874171292908E-015
  5.700000000000001E-003    3.034306107268553E-015
  5.800000000000001E-003    3.367989569466300E-015
  5.900000000000002E-003    3.216513408151569E-015
  6.000000000000001E-003    2.531578305795818E-015
  6.100000000000001E-003    1.342867146487740E-015
  6.200000000000002E-003   -2.350804559802067E-016
  6.300000000000002E-003   -2.008586324423298E-015
  6.400000000000001E-003   -3.724100638965560E-015
  6.500000000000001E-003   -5.099932797152854E-015
  6.600000000000002E-003   -5.867184801454906E-015
  6.700000000000001E-003   -5.814669058240990E-015
  6.800000000000001E-003   -4.831168302514737E-015
  6.900000000000002E-003   -2.937847556576312E-015
  7.000000000000001E-003   -3.041671596809189E-016
  7.100000000000001E-003    2.757678087628411E-015
  7.200000000000002E-003    5.822028993180673E-015
  7.300000000000002E-003    8.401472628238318E-015
  7.400000000000001E-003    1.001593454006864E-014
  7.500000000000001E-003    1.027054149172540E-014
  7.600000000000002E-003    8.930997925942629E-015
  7.700000000000001E-003    5.983995161442783E-015
  7.800000000000001E-003    1.670791745044778E-015
  7.900000000000001E-003   -3.515264842279743E-015
  8.000000000000002E-003   -8.872002115402875E-015
  8.100000000000001E-003   -1.357129477104233E-014
  8.200000000000001E-003   -1.677381564651967E-014
  8.300000000000002E-003   -1.776169385833472E-014
  8.400000000000001E-003   -1.607026021734669E-014
  8.500000000000002E-003   -1.159756339429758E-014
  8.600000000000002E-003   -4.670946745618159E-015
  8.700000000000001E-003    3.945994243829092E-015
  8.800000000000002E-003    1.311543528129554E-014
  8.900000000000002E-003    2.145588202406720E-014
  9.000000000000001E-003    2.752967423977408E-014
  9.100000000000002E-003    3.006510606751533E-014
  9.200000000000002E-003    2.818214613701930E-014
  9.300000000000001E-003    2.158598090597209E-014
  9.400000000000002E-003    1.069290574119841E-014
  9.500000000000001E-003   -3.340821915362397E-015
  9.600000000000001E-003   -1.870481309164478E-014
  9.700000000000002E-003   -3.313665127295937E-014
  9.800000000000001E-003   -4.422330343991342E-014
  9.900000000000001E-003   -4.976654130365164E-014
  1.000000000000000E-002   -4.816220300764286E-014
  1.010000000000000E-002   -3.873413407853099E-014
  1.020000000000000E-002   -2.196321566235700E-014
  1.030000000000000E-002    4.389921236654825E-016
  1.040000000000000E-002    2.564410055670821E-014
  1.050000000000000E-002    5.001424547603045E-014
  1.060000000000000E-002    6.957859693451113E-014
  1.070000000000000E-002    8.062426500103086E-014
  1.080000000000000E-002    8.032142094784302E-014
  1.090000000000000E-002    6.728668634049083E-014
  1.100000000000000E-002    4.198645554526219E-014
  1.110000000000000E-002    6.895317456835757E-015
  1.120000000000000E-002   -3.364680846988954E-014
  1.130000000000000E-002   -7.389362260402329E-014
  1.140000000000000E-002   -1.074333759035841E-013
  1.150000000000000E-002   -1.281280816362254E-013
  1.160000000000000E-002   -1.311250379813845E-013
  1.170000000000000E-002   -1.137873299617361E-013
  1.180000000000000E-002   -7.638443560900588E-014
  1.190000000000000E-002   -2.240297475102856E-014
  1.200000000000000E-002    4.161848528871405E-014
  1.210000000000000E-002    1.067616743082397E-013
  1.220000000000000E-002    1.628613728070697E-013
  1.230000000000000E-002    1.999729447153226E-013
  1.240000000000000E-002    2.099794306961584E-013
  1.250000000000000E-002    1.880982802865391E-013
  1.260000000000000E-002    1.340344553769032E-013
  1.270000000000000E-002    5.255425044533046E-014
  1.280000000000000E-002   -4.668001167390683E-014
  1.290000000000000E-002   -1.500742179541572E-013
  1.300000000000000E-002   -2.418045604950476E-013
  1.310000000000000E-002   -3.060708968002930E-013
  1.320000000000000E-002   -3.296054289617629E-013
  1.330000000000000E-002   -3.040653809293344E-013
  1.340000000000000E-002   -2.279151953868751E-013
  1.350000000000000E-002   -1.074396767572136E-013
  1.360000000000000E-002    4.337126447444869E-014
  1.370000000000000E-002    2.041747508282714E-013
  1.380000000000000E-002    3.507870668233453E-013
  1.390000000000000E-002    4.585849172814685E-013
  1.400000000000000E-002    5.063526132681211E-013
  1.410000000000000E-002    4.800125341811331E-013
  1.420000000000000E-002    3.756320208062085E-013
  1.430000000000000E-002    2.011498735999053E-013
  1.440000000000000E-002   -2.359145707872518E-014
  1.450000000000000E-002   -2.686964088265815E-013
  1.460000000000000E-002   -4.978582597784206E-013
  1.470000000000000E-002   -6.734063687694662E-013
  1.480000000000000E-002   -7.621069261915495E-013
  1.490000000000000E-002   -7.408771232461828E-013
  1.500000000000000E-002   -6.014966551649188E-013
  1.510000000000000E-002   -3.534644097374241E-013
  1.520000000000000E-002   -2.435288785244891E-014
  1.530000000000000E-002    3.426560024420204E-013
  1.540000000000000E-002    6.939564449320359E-013
  1.550000000000000E-002    9.728847566317504E-013
  1.560000000000000E-002    1.128325127812985E-012
  1.570000000000000E-002    1.123319093823158E-012
  1.580000000000000E-002    9.423196123306822E-013
  1.590000000000000E-002    5.958046564105117E-013
  1.600000000000000E-002    1.212558525094387E-013
  1.610000000000000E-002   -4.200170733267908E-013
  1.620000000000000E-002   -9.501195024906955E-013
  1.630000000000000E-002   -1.385145284909747E-012
  1.640000000000000E-002   -1.647741111611788E-012
  1.650000000000000E-002   -1.679878907155772E-012
  1.660000000000000E-002   -1.453844246221020E-012
  1.670000000000000E-002   -9.795378116594383E-013
  1.680000000000000E-002   -3.065822694522030E-013
  1.690000000000000E-002    4.795973455891620E-013
  1.700000000000000E-002    1.267682675352576E-012
  1.710000000000000E-002    1.935375432194280E-012
  1.720000000000000E-002    2.367451738414245E-012
  1.730000000000000E-002    2.474416806228758E-012
  1.740000000000000E-002    2.208894472611603E-012
  1.750000000000000E-002    1.576967319506668E-012
  1.760000000000000E-002    6.422211484809299E-013
  1.770000000000000E-002   -4.788170598749249E-013
  1.780000000000000E-002   -1.629927856938910E-012
  1.790000000000000E-002   -2.635857127098216E-012
  1.800000000000000E-002   -3.327833583557164E-012
  1.810000000000000E-002   -3.570392685238277E-012
  1.820000000000000E-002   -3.285441345494947E-012
  1.830000000000000E-002   -2.469551748993132E-012
  1.840000000000000E-002   -1.201181256001347E-012
  1.850000000000000E-002    3.642059600575629E-013
  1.860000000000000E-002    2.011428757383602E-012
  1.870000000000000E-002    3.493688997274572E-012