 -4.000000000000000E-002    0.000000000000000E+000
 -3.990000000000000E-002    0.000000000000000E+000
 -3.980000000000000E-002    0.000000000000000E+000
 -3.970000000000000E-002    0.000000000000000E+000
 -3.960000000000000E-002    0.000000000000000E+000
 -3.950000000000000E-002    0.000000000000000E+000
 -3.940000000000000E-002    0.000000000000000E+000
 -3.930000000000000E-002    0.000000000000000E+000
 -3.920000000000000E-002    0.000000000000000E+000
 -3.910000000000000E-002    0.000000000000000E+000
 -3.900000000000000E-002    0.000000000000000E+000
 -3.890000000000000E-002    0.000000000000000E+000
 -3.880000000000000E-002    0.000000000000000E+000
 -3.870000000000000E-002    1.376509440676803E-041
 -3.860000000000000E-002    2.690924213377416E-040
 -3.850000000000000E-002    2.503675528911852E-039
 -3.840000000000000E-002    1.379567947405953E-038
 -3.830000000000000E-002    3.948525764299755E-038
 -3.820000000000000E-002   -6.500513329758344E-038
 -3.810000000000000E-002   -1.554209439146441E-036
 -3.800000000000000E-002   -1.108022797347051E-035
 -3.790000000000000E-002   -5.571189116884354E-035
 -3.780000000000000E-002   -2.259216704549130E-034
 -3.770000000000000E-002   -7.762227789439059E-034
 -3.760000000000000E-002   -2.308184146357315E-033
 -3.750000000000000E-002   -5.970821415799592E-033
 -3.740000000000000E-002   -1.327553476156464E-032
 -3.730000000000000E-002   -2.422153811725202E-032
 -3.720000000000000E-002   -3.049895118133568E-032
 -3.710000000000000E-002    2.849960664757536E-033
 -3.700000000000000E-002    1.785773476604987E-031
 -3.690000000000000E-002    7.462305808704352E-031
 -3.680000000000000E-002    2.230861616724768E-030
 -3.670000000000000E-002    5.600302044963510E-030
 -3.660000000000000E-002    1.239599039662115E-029
 -3.650000000000000E-002    2.461989550364365E-029
 -3.640000000000000E-002    4.394611334927961E-029
 -3.630000000000000E-002    6.951625099343080E-029
 -3.620000000000000E-002    9.326496157166001E-029
 -3.610000000000000E-002    9.162005265903345E-029
 -3.600000000000000E-002    1.295184802563105E-029
 -3.590000000000000E-002   -2.380556247006720E-028
 -3.580000000000000E-002   -8.140765451621836E-028
 -3.570000000000000E-002   -1.925244180675177E-027
 -3.560000000000000E-002   -3.804746420127449E-027
 -3.550000000000000E-002   -6.608500084812680E-027
 -3.540000000000000E-002   -1.020992818175507E-026
 -3.530000000000000E-002   -1.385403391676025E-026
 -3.520000000000000E-002   -1.566048385378984E-026
 -3.510000000000000E-002   -1.202719542267843E-026
 -3.500000000000000E-002    2.902779096428705E-027
 -3.490000000000000E-002    3.738452138486067E-026
 -3.480000000000000E-002    1.012975057332997E-025
 -3.470000000000000E-002    2.037408215381289E-025
 -3.460000000000000E-002    3.482048395592669E-025
 -3.450000000000000E-002    5.246992116704567E-025
 -3.440000000000000E-002    6.988201466032985E-025
 -3.430000000000000E-002    7.989465599965512E-025
 -3.420000000000000E-002    7.046530101429409E-025
 -3.410000000000000E-002    2.419330826786831E-025
 -3.400000000000000E-002   -8.064775283963358E-025
 -3.390000000000000E-002   -2.665319356324444E-024
 -3.380000000000000E-002   -5.495097767276583E-024
 -3.370000000000000E-002   -9.277430924128443E-024
 -3.360000000000000E-002   -1.365931359090287E-023
 -3.350000000000000E-002   -1.777362375914525E-023
 -3.340000000000000E-002   -2.007532581229518E-023
 -3.330000000000000E-002   -1.825914892914639E-023
 -3.320000000000000E-002   -9.349977522629151E-024
 -3.310000000000000E-002    9.927704543977709E-024
 -3.300000000000000E-002    4.240222094843462E-023
 -3.290000000000000E-002    8.927340647159513E-023
 -3.280000000000000E-002    1.485335398570888E-022
 -3.270000000000000E-002    2.131715549557947E-022
 -3.260000000000000E-002    2.695316983489617E-022
 -3.250000000000000E-002    2.964064365493233E-022
 -3.240000000000000E-002    2.656202405108004E-022
 -3.230000000000000E-002    1.449351995947187E-022
 -3.220000000000000E-002   -9.600987333081197E-023
 -3.210000000000000E-002   -4.764084599846717E-022
 -3.200000000000000E-002   -9.920538640643029E-022
 -3.190000000000000E-002   -1.601633331199186E-021
 -3.180000000000000E-002   -2.214309703279238E-021
 -3.170000000000000E-002   -2.682653157263318E-021
 -3.160000000000000E-002   -2.805953648002100E-021
 -3.150000000000000E-002   -2.349104233252516E-021
 -3.140000000000000E-002   -1.081143085452320E-021
 -3.130000000000000E-002    1.165279920137658E-021
 -3.120000000000000E-002    4.416939106403414E-021
 -3.110000000000000E-002    8.475355691482213E-021
 -3.100000000000000E-002    1.284144182511501E-020
 -3.090000000000000E-002    1.667323349511614E-020
 -3.080000000000000E-002    1.880468100605334E-020
 -3.070000000000000E-002    1.785282903484549E-020
 -3.060000000000000E-002    1.243292217202167E-020
 -3.050000000000000E-002    1.484311643421492E-021
 -3.040000000000000E-002   -1.531537699219563E-020
 -3.030000000000000E-002   -3.710300070831576E-020
 -3.020000000000000E-002   -6.143965587025580E-020
 -3.010000000000000E-002   -8.409733027361912E-020
 -3.000000000000000E-002   -9.915781122619726E-020
 -2.990000000000000E-002   -9.954939178929532E-020
 -2.980000000000000E-002   -7.810321283006409E-020
 -2.970000000000000E-002   -2.912803144917637E-020
 -2.960000000000000E-002    4.961783988724433E-020
 -2.950000000000000E-002    1.548242136462535E-019
 -2.940000000000000E-002    2.758114920863400E-019
 -2.930000000000000E-002    3.935308139655829E-019
 -2.920000000000000E-002    4.809638597310371E-019
 -2.910000000000000E-002    5.054407995203858E-019
 -2.900000000000000E-002    4.331915580427252E-019
 -2.890000000000000E-002    2.360866355007443E-019
 -2.880000000000000E-002   -9.997162904395529E-020
 -2.870000000000000E-002   -5.661234355800094E-019
 -2.860000000000000E-002   -1.122773805634737E-018
 -2.850000000000000E-002   -1.695067879711557E-018
 -2.840000000000000E-002   -2.173859104598307E-018
 -2.830000000000000E-002   -2.424126823656078E-018
 -2.820000000000000E-002   -2.301980864979856E-018
 -2.810000000000000E-002   -1.680037765411980E-018
 -2.800000000000000E-002   -4.791424666631345E-019
 -2.790000000000000E-002    1.297643463476342E-018
 -2.780000000000000E-002    3.534807193065801E-018
 -2.770000000000000E-002    5.985316587655737E-018
 -2.760000000000000E-002    8.270498987649228E-018
 -2.750000000000000E-002    9.905538353182189E-018
 -2.740000000000000E-002    1.035446575913940E-017
 -2.730000000000000E-002    9.113934931682720E-018
 -2.720000000000000E-002    5.819156529661374E-018
 -2.710000000000000E-002    3.588152632134108E-019
 -2.700000000000000E-002   -7.020272963620832E-018
 -2.690000000000000E-002   -1.564223153272600E-017
 -2.680000000000000E-002   -2.438921319101713E-017
 -2.670000000000000E-002   -3.176730126275145E-017
 -2.660000000000000E-002   -3.606315085293584E-017
 -2.650000000000000E-002   -3.558949827649221E-017
 -2.640000000000000E-002   -2.900019892911474E-017
 -2.630000000000000E-002   -1.563615904880133E-017
 -2.620000000000000E-002    4.153632890502193E-018
 -2.610000000000000E-002    2.878339273586027E-017
 -2.600000000000000E-002    5.536356108754568E-017
 -2.590000000000000E-002    7.985430412613217E-017
 -2.580000000000000E-002    9.747324941783632E-017
 -2.570000000000000E-002    1.033528988294485E-016
 -2.560000000000000E-002    9.339493205380266E-017
 -2.550000000000000E-002    6.521729308834627E-017
 -2.540000000000000E-002    1.904427398641894E-017
 -2.530000000000000E-002   -4.164011007757047E-017
 -2.520000000000000E-002   -1.098594058243489E-016
 -2.510000000000000E-002   -1.754869622143557E-016
 -2.500000000000000E-002   -2.262523674127065E-016
 -2.490000000000000E-002   -2.494010137351791E-016
 -2.480000000000000E-002   -2.338735046371608E-016
 -2.470000000000000E-002   -1.727411915614294E-016
 -2.460000000000000E-002   -6.551953917621835E-017
 -2.450000000000000E-002    8.009161419879262E-017
 -2.440000000000000E-002    2.475021366012617E-016
 -2.430000000000000E-002    4.119484566190174E-016
 -2.420000000000000E-002    5.428591058010668E-016
 -2.410000000000000E-002    6.078558202025465E-016
 -2.400000000000000E-002    5.780765011007502E-016
 -2.390000000000000E-002    4.341956772274754E-016
 -2.380000000000000E-002    1.722433669756862E-016
 -2.370000000000000E-002   -1.918580630639333E-016
 -2.360000000000000E-002   -6.201465760327389E-016
 -2.350000000000000E-002   -1.053809535375486E-015
 -2.340000000000000E-002   -1.418291130234180E-015
 -2.330000000000000E-002   -1.632351127457996E-015
 -2.320000000000000E-002   -1.620424030387599E-015
 -2.310000000000000E-002   -1.326910534853167E-015
 -2.300000000000000E-002   -7.303903807362247E-016
 -2.290000000000000E-002    1.446920264399433E-016
 -2.280000000000000E-002    1.221421521054870E-015
 -2.270000000000000E-002    2.371140559282730E-015
 -2.260000000000000E-002    3.423002729628548E-015
 -2.250000000000000E-002    4.182677656565591E-015
 -2.240000000000000E-002    4.459066890676207E-015
 -2.230000000000000E-002    4.096294711632321E-015
 -2.220000000000000E-002    3.006798235133910E-015
 -2.210000000000000E-002    1.200286957643307E-015
 -2.200000000000000E-002   -1.197044791032029E-015
 -2.190000000000000E-002   -3.938203454393187E-015
 -2.180000000000000E-002   -6.669729024574068E-015
 -2.170000000000000E-002   -8.966095138934883E-015
 -2.160000000000000E-002   -1.038263809033543E-014
 -2.150000000000000E-002   -1.052212783700299E-014
 -2.140000000000000E-002   -9.106958376160324E-015
 -2.130000000000000E-002   -6.046460221842405E-015
 -2.120000000000000E-002   -1.487624924308994E-015
 -2.110000000000000E-002    4.161997991971022E-015
 -2.100000000000000E-002    1.024821185356826E-014
 -2.090000000000000E-002    1.592553958238478E-014
 -2.080000000000000E-002    2.025309069868350E-014
 -2.070000000000000E-002    2.232324106119905E-014
 -2.060000000000000E-002    2.140891139414093E-014
 -2.050000000000000E-002    1.710963163075006E-014
 -2.040000000000000E-002    9.473265955773862E-015
 -2.030000000000000E-002   -9.301566782844823E-016
 -2.020000000000000E-002   -1.300263765151828E-014
 -2.010000000000000E-002   -2.519352013833446E-014
 -2.000000000000000E-002   -3.565860280817009E-014
 -1.990000000000000E-002   -4.249309522857607E-014
 -1.980000000000000E-002   -4.401515730098906E-014
 -1.970000000000000E-002   -3.906481180519443E-014
 -1.960000000000000E-002   -2.727445410389140E-014
 -1.950000000000000E-002   -9.264029159265340E-015
 -1.940000000000000E-002    1.328251913512849E-014
 -1.930000000000000E-002    3.769189239313687E-014
 -1.920000000000000E-002    6.054182704773452E-014
 -1.910000000000000E-002    7.805851418267267E-014
 -1.900000000000000E-002    8.663656306265201E-014
 -1.890000000000000E-002    8.342233602751532E-014
 -1.880000000000000E-002    6.688124494529793E-014
 -1.870000000000000E-002    3.725877690033930E-014
 -1.860000000000000E-002   -3.153887233288957E-015
 -1.850000000000000E-002   -5.002379915228206E-014
 -1.840000000000000E-002   -9.729481195560672E-014
 -1.830000000000000E-002   -1.378247902806420E-013
 -1.820000000000000E-002   -1.642970671669813E-013
 -1.810000000000000E-002   -1.703118780639192E-013
 -1.800000000000000E-002   -1.515201383446599E-013
 -1.790000000000000E-002   -1.066319725455363E-013
 -1.780000000000000E-002   -3.812404269793062E-014
 -1.770000000000000E-002    4.751307291186862E-014
 -1.760000000000000E-002    1.401022315926061E-013
 -1.750000000000000E-002    2.267262910925225E-013
 -1.740000000000000E-002    2.932506065173816E-013
 -1.730000000000000E-002    3.262821850892462E-013
 -1.720000000000000E-002    3.153364249049738E-013
 -1.710000000000000E-002    2.549120021088948E-013
 -1.700000000000000E-002    1.461405512244884E-013
 -1.690000000000000E-002   -2.311607237764153E-015
 -1.680000000000000E-002   -1.743481211132215E-013
 -1.670000000000000E-002   -3.477009409477248E-013
 -1.660000000000000E-002   -4.963329862012193E-013
 -1.650000000000000E-002   -5.937998800610363E-013
 -1.640000000000000E-002   -6.172074374242990E-013
 -1.630000000000000E-002   -5.512522833417371E-013
 -1.620000000000000E-002   -3.917393050023025E-013
 -1.610000000000000E-002   -1.479551856721602E-013
 -1.600000000000000E-002    1.566431806419224E-013
 -1.590000000000000E-002    4.857919989295897E-013
 -1.580000000000000E-002    7.939435016320380E-013
 -1.570000000000000E-002    1.031737678163043E-012
 -1.560000000000000E-002    1.152883947981117E-012
 -1.550000000000000E-002    1.121614635696834E-012
 -1.540000000000000E-002    9.196539702959990E-013
 -1.530000000000000E-002    5.515693526181994E-013
 -1.520000000000000E-002    4.744544493118338E-014
 -1.510000000000000E-002   -5.379185627162534E-013
 -1.500000000000000E-002   -1.129674938614533E-012
 -1.490000000000000E-002   -1.641304872296610E-012
 -1.480000000000000E-002   -1.985960843383756E-012
 -1.470000000000000E-002   -2.089472321480828E-012
 -1.460000000000000E-002   -1.903262774742492E-012
 -1.450000000000000E-002   -1.415200117307486E-012
 -1.440000000000000E-002   -6.564377382600343E-013
 -1.430000000000000E-002    2.973589252559393E-013
 -1.420000000000000E-002    1.331351294304583E-012
 -1.410000000000000E-002    2.303524432735432E-012
 -1.400000000000000E-002    3.062414244208550E-012
 -1.390000000000000E-002    3.468637292351227E-012
 -1.380000000000000E-002    3.417450330534060E-012
 -1.370000000000000E-002    2.859039960701527E-012
 -1.360000000000000E-002    1.813144376763891E-012
 -1.350000000000000E-002    3.750389911272296E-013
 -1.340000000000000E-002   -1.289162249922167E-012
 -1.330000000000000E-002   -2.958559162138076E-012
 -1.320000000000000E-002   -4.383885955320121E-012
 -1.310000000000000E-002   -5.321610459271229E-012
 -1.300000000000000E-002   -5.571489156633728E-012
 -1.290000000000000E-002   -5.012287807658625E-012
 -1.280000000000000E-002   -3.629992114492435E-012
 -1.270000000000000E-002   -1.533256872011307E-012
 -1.260000000000000E-002    1.047854369231218E-012
 -1.250000000000000E-002    3.781733422873078E-012
 -1.240000000000000E-002    6.272978547112481E-012
 -1.230000000000000E-002    8.114476084848936E-012
 -1.220000000000000E-002    8.947645677185556E-012
 -1.210000000000000E-002    8.522672152610549E-012
 -1.200000000000000E-002    6.749551653425204E-012
 -1.190000000000000E-002    3.731070749628643E-012
 -1.180000000000000E-002   -2.294723700947079E-013
 -1.170000000000000E-002   -4.650011167778901E-012
 -1.160000000000000E-002   -8.921121060603241E-012
 -1.150000000000000E-002   -1.238281748646925E-011
 -1.140000000000000E-002   -1.441807512542754E-011
 -1.130000000000000E-002   -1.455084896465298E-011
 -1.120000000000000E-002   -1.253425145353588E-011
 -1.110000000000000E-002   -8.414386178970111E-012
 -1.100000000000000E-002   -2.557355184544612E-012
 -1.090000000000000E-002    4.368887600913519E-012
 -1.080000000000000E-002    1.146023657249647E-011
 -1.070000000000000E-002    1.768516009755391E-011
 -1.060000000000000E-002    2.202487996295742E-011
 -1.050000000000000E-002    2.362732624810964E-011
 -1.040000000000000E-002    2.195318468850533E-011
 -1.030000000000000E-002    1.689109070450998E-011
 -1.020000000000000E-002    8.821161106726416E-012
 -1.010000000000000E-002   -1.388354049067327E-012
 -1.000000000000000E-002   -1.245812075052164E-011
 -9.899999999999999E-003   -2.284478417098318E-011
 -9.800000000000000E-003   -3.094350278319294E-011
 -9.699999999999999E-003   -3.532127234052129E-011
 -9.599999999999999E-003   -3.494918187148240E-011
 -9.500000000000000E-003   -2.939849874264433E-011
 -9.399999999999999E-003   -1.896719389542742E-011
 -9.299999999999999E-003   -4.710568390705302E-012
 -9.200000000000000E-003    1.163862034349230E-011
 -9.099999999999999E-003    2.785995768960745E-011
 -8.999999999999999E-003    4.152782315070645E-011
 -8.900000000000000E-003    5.035343593096133E-011
 -8.799999999999999E-003    5.254102776486767E-011
 -8.699999999999999E-003    4.710597794523961E-011
 -8.600000000000000E-003    3.410308240688324E-011
 -8.499999999999999E-003    1.472167907890523E-011
 -8.399999999999999E-003   -8.780030546505357E-012
 -8.300000000000000E-003   -3.330747641253666E-011
 -8.199999999999999E-003   -5.531042230839652E-011
 -8.100000000000000E-003   -7.126915085359854E-011
 -8.000000000000000E-003   -7.822314733982728E-011
 -7.899999999999999E-003   -7.426681408817899E-011
 -7.800000000000000E-003   -5.893457963773102E-011
 -7.699999999999999E-003   -3.340672714414436E-011
 -7.599999999999999E-003   -4.882296770923304E-013
 -7.499999999999999E-003    3.565785452097014E-011
 -7.399999999999999E-003    7.000500251197217E-011
 -7.299999999999999E-003    9.733284100959520E-011
 -7.199999999999999E-003    1.129869935768424E-010
 -7.100000000000000E-003    1.136232657422691E-010
 -6.999999999999999E-003    9.782265039600287E-011
 -6.899999999999999E-003    6.647324871549093E-011
 -6.800000000000000E-003    2.284040160675328E-011
 -6.699999999999999E-003   -2.771289130963155E-011
 -6.599999999999999E-003   -7.834426383268507E-011
 -6.499999999999999E-003   -1.216255491747317E-010
 -6.399999999999999E-003   -1.506011296416357E-010
 -6.299999999999999E-003   -1.598659276799008E-010
 -6.199999999999999E-003   -1.465023195014191E-010
 -6.100000000000000E-003   -1.107228141627562E-010
 -5.999999999999999E-003   -5.609675003777715E-011
 -5.899999999999999E-003    1.070854200064102E-011
 -5.800000000000000E-003    8.067360805378412E-011
 -5.699999999999999E-003    1.435880206232260E-010
 -5.599999999999999E-003    1.894865113751883E-010
 -5.499999999999999E-003    2.101658898845892E-010
 -5.399999999999999E-003    2.005609054187728E-010
 -5.299999999999999E-003    1.597599199740229E-010
 -5.199999999999999E-003    9.147805306706476E-011
 -5.099999999999999E-003    3.872330741824514E-012
 -4.999999999999999E-003   -9.132632690794241E-011
 -4.899999999999999E-003   -1.802882482492143E-010
 -4.799999999999999E-003   -2.489939861818322E-010
 -4.699999999999999E-003   -2.853242988558706E-010
 -4.599999999999999E-003   -2.810313063063358E-010
 -4.499999999999999E-003   -2.332852496191492E-010
 -4.399999999999999E-003   -1.455319941636394E-010
 -4.299999999999999E-003   -2.747911852001264E-011
 -4.199999999999999E-003    1.058542470913294E-010
 -4.099999999999999E-003    2.359527750556276E-010
 -3.999999999999999E-003    3.432796121003016E-010
 -3.899999999999999E-003    4.100901263542900E-010
 -3.799999999999999E-003    4.231901842322876E-010
 -3.699999999999999E-003    3.762240651615655E-010
 -3.599999999999999E-003    2.711170266654842E-010
 -3.499999999999999E-003    1.183978275278973E-010
 -3.399999999999999E-003   -6.372647920108235E-011
 -3.299999999999999E-003   -2.514927809515691E-010
 -3.199999999999999E-003   -4.186700714464819E-010
 -3.099999999999999E-003   -5.402205231845344E-010
 -2.999999999999999E-003   -5.960300488335729E-010
 -2.899999999999999E-003   -5.741601960481744E-010
 -2.799999999999999E-003   -4.731079803068573E-010
 -2.699999999999999E-003   -3.026740951757450E-010
 -2.599999999999999E-003   -8.322137194038296E-011
 -2.499999999999999E-003    1.566692129287235E-010
 -2.399999999999999E-003    3.838994208915646E-010
 -2.299999999999999E-003    5.654474289059708E-010
 -2.199999999999999E-003    6.732294634036619E-010
 -2.099999999999999E-003    6.885240950333780E-010
 -1.999999999999999E-003    6.052760275643303E-010
 -1.899999999999999E-003    4.317200971540128E-010
 -1.799999999999999E-003    1.899824698705472E-010
 -1.699999999999999E-003   -8.640680502230498E-011
 -1.599999999999999E-003   -3.568455602192582E-010
 -1.499999999999999E-003   -5.793064425257509E-010
 -1.399999999999999E-003   -7.165393170582833E-010
 -1.299999999999999E-003   -7.419434239600475E-010
 -1.199999999999999E-003   -6.442182874220584E-010
 -1.099999999999999E-003   -4.300306166869004E-010
 -9.999999999999989E-004   -1.241826864670050E-010
 -8.999999999999990E-004    2.328929650844376E-010
 -7.999999999999990E-004    5.901029379137857E-010
 -6.999999999999989E-004    8.925411063427122E-010
 -5.999999999999990E-004    1.089318408562816E-009
 -4.999999999999989E-004    1.141281890898541E-009
 -3.999999999999989E-004    1.027484149660897E-009
 -2.999999999999989E-004    7.493842469533723E-010
 -1.999999999999989E-004    3.320384249724058E-010
 -9.999999999999892E-005   -1.780631083499160E-010
  1.084202172485504E-018   -7.183778756674798E-010
  1.000000000000011E-004   -1.218301825442503E-009
  2.000000000000011E-004   -1.608739781747446E-009
  3.000000000000011E-004   -1.831942765826291E-009
  4.000000000000011E-004   -1.850189240860037E-009
  5.000000000000011E-004   -1.651982993793215E-009
  6.000000000000011E-004   -1.254737787922446E-009
  7.000000000000011E-004   -7.033783857531073E-010
  8.000000000000011E-004   -6.486428933891002E-011
  9.000000000000012E-004    5.807631152359002E-010
  1.000000000000001E-003    1.151660995543764E-009
  1.100000000000001E-003    1.576244161039626E-009
  1.200000000000001E-003    1.804277264174549E-009
  1.300000000000001E-003    1.815306320567324E-009
  1.400000000000001E-003    1.623038881846017E-009
  1.500000000000001E-003    1.274805569846783E-009
  1.600000000000001E-003    8.459134363722946E-010
  1.700000000000001E-003    4.294480910553162E-010
  1.800000000000001E-003    1.227736455386916E-010
  1.900000000000001E-003    1.253881646135242E-011
  2.000000000000001E-003    1.603099445106248E-010
  2.100000000000001E-003    5.909778004351672E-010
  2.200000000000001E-003    1.285793217707727E-009
  2.300000000000001E-003    2.181314224199446E-009
  2.400000000000001E-003    3.174756946599895E-009
  2.500000000000001E-003    4.135345230679464E-009
  2.600000000000001E-003    4.920367895932076E-009
  2.700000000000001E-003    5.393912310260790E-009
  2.800000000000001E-003    5.445775719845452E-009
  2.900000000000001E-003    5.007907271699560E-009
  3.000000000000001E-003    4.065987870894989E-009
  3.100000000000001E-003    2.664355568340973E-009
  3.200000000000001E-003    9.033792738341708E-010
  3.300000000000001E-003   -1.070562771106392E-009
  3.400000000000001E-003   -3.081235254856848E-009
  3.500000000000001E-003   -4.942643798726854E-009
  3.600000000000001E-003   -6.480183149274785E-009
  3.700000000000001E-003   -7.549693676471871E-009
  3.800000000000001E-003   -8.051441315634665E-009
  3.900000000000001E-003   -7.936631745841428E-009
  4.000000000000001E-003   -7.205105334033757E-009
  4.100000000000001E-003   -5.894037834803927E-009
  4.200000000000001E-003   -4.058820304986097E-009
  4.300000000000001E-003   -1.748493983729094E-009
  4.400000000000001E-003    1.020997603696877E-009
  4.500000000000001E-003    4.292038401143638E-009
  4.600000000000002E-003    8.185304527494520E-009
  4.700000000000001E-003    1.291143411137469E-008
  4.800000000000001E-003    1.877238859889896E-008
  4.900000000000002E-003    2.615188216590967E-008
  5.000000000000001E-003    3.549580536301943E-008
  5.100000000000001E-003    4.728515440229128E-008
  5.200000000000001E-003    6.200502216602151E-008
  5.300000000000002E-003    8.011391666129714E-008
  5.400000000000001E-003    1.020179142232277E-007
  5.500000000000001E-003    1.280534958144750E-007
  5.600000000000002E-003    1.584818324920098E-007
  5.700000000000001E-003    1.934957236142807E-007
  5.800000000000001E-003    2.332386267786050E-007
  5.900000000000002E-003    2.778333063698975E-007
  6.000000000000001E-003    3.274165980773982E-007
  6.100000000000001E-003    3.821749998123361E-007
  6.200000000000002E-003    4.423763479642132E-007
  6.300000000000002E-003    5.083926913481511E-007
  6.400000000000001E-003    5.807108590124131E-007
  6.500000000000001E-003    6.599288849142754E-007
  6.600000000000002E-003    7.467383056869060E-007
  6.700000000000001E-003    8.418947603328114E-007
  6.800000000000001E-003    9.461806889202679E-007
  6.900000000000002E-003    1.060365444880503E-006
  7.000000000000001E-003    1.185169224353651E-006
  7.100000000000001E-003    1.321235562644467E-006
  7.200000000000002E-003    1.469117839789382E-006
  7.300000000000002E-003    1.629281046697861E-006
  7.400000000000001E-003    1.802121431936175E-006
  7.500000000000001E-003    1.988000316265700E-006
  7.600000000000002E-003    2.187288300274433E-006
  7.700000000000001E-003    2.400414717231172E-006
  7.800000000000001E-003    2.627915528547703E-006
  7.900000000000001E-003    2.870472538831017E-006
  8.000000000000002E-003    3.128939612276273E-006
  8.100000000000001E-003    3.404350904465012E-006
  8.200000000000001E-003    3.697910816664007E-006
  8.300000000000002E-003    4.010966933017790E-006
  8.400000000000001E-003    4.344968738304032E-006
  8.500000000000002E-003    4.701420097774689E-006
  8.600000000000002E-003    5.081831842296943E-006
  8.700000000000001E-003    5.487680866745770E-006
  8.800000000000002E-003    5.920383063458055E-006
  8.900000000000002E-003    6.381285423174848E-006
  9.000000000000001E-003    6.871679857465007E-006
  9.100000000000002E-003    7.392833798879180E-006
  9.200000000000002E-003    7.946041276782971E-006
  9.300000000000001E-003    8.532679369970693E-006
  9.400000000000002E-003    9.154271297284480E-006
  9.500000000000001E-003    9.812540724833876E-006
  9.600000000000001E-003    1.050945404926547E-005
  9.700000000000002E-003    1.124724538136942E-005
  9.800000000000001E-003    1.202841264113405E-005
  9.900000000000001E-003    1.285570108468942E-005
  1.000000000000000E-002    1.373206012682009E-005
  1.010000000000000E-002    1.466059153725884E-005
  1.020000000000000E-002    1.564449425042092E-005
  1.030000000000000E-002    1.668701135412523E-005
  1.040000000000000E-002    1.779139128279518E-005
  1.050000000000000E-002    1.896086941580535E-005
  1.060000000000000E-002    2.019867699401559E-005
  1.070000000000000E-002    2.150807497006305E-005
  1.080000000000000E-002    2.289240502200207E-005
  1.090000000000000E-002    2.435516076215997E-005
  1.100000000000000E-002    2.590007299614157E-005
  1.110000000000000E-002    2.753118027525109E-005
  1.120000000000000E-002    2.925289673015058E-005
  1.130000000000000E-002    3.107005505982381E-005
  1.140000000000000E-002    3.298792402961107E-005
  1.150000000000000E-002    3.501220552596561E-005
  1.160000000000000E-002    3.714898692064410E-005
  1.170000000000000E-002    3.940469831684492E-005
  1.180000000000000E-002    4.178604045453563E-005
  1.190000000000000E-002    4.429991817646564E-005
  1.200000000000000E-002    4.695338936725239E-005
  1.210000000000000E-002    4.975363754196576E-005
  1.220000000000000E-002    5.270795943747883E-005
  1.230000000000000E-002    5.582378978100062E-005
  1.240000000000000E-002    5.910876878127392E-005
  1.250000000000000E-002    6.257082439040596E-005
  1.260000000000000E-002    6.621826680447800E-005
  1.270000000000000E-002    7.005989022945401E-005
  1.280000000000000E-002    7.410507699698707E-005
  1.290000000000000E-002    7.836387395501496E-005
  1.300000000000000E-002    8.284701809932605E-005
  1.310000000000000E-002    8.756597445918688E-005
  1.320000000000000E-002    9.253291458048350E-005
  1.330000000000000E-002    9.776064383384755E-005
  1.340000000000000E-002    1.032625556475355E-004
  1.350000000000000E-002    1.090525334997839E-004
  1.360000000000000E-002    1.151448947512537E-004
  1.370000000000000E-002    1.215543195078840E-004
  1.380000000000000E-002    1.282958318960061E-004
  1.390000000000000E-002    1.353848176575967E-004
  1.400000000000000E-002    1.428370491593563E-004
  1.410000000000000E-002    1.506688138905052E-004
  1.420000000000000E-002    1.588969800015681E-004
  1.430000000000000E-002    1.675391641831161E-004
  1.440000000000000E-002    1.766138383399856E-004
  1.450000000000000E-002    1.861404638117758E-004
  1.460000000000000E-002    1.961395972042093E-004
  1.470000000000000E-002    2.066329076510015E-004
  1.480000000000000E-002    2.176432445668913E-004
  1.490000000000000E-002    2.291945899080438E-004
  1.500000000000000E-002    2.413120222853807E-004
  1.510000000000000E-002    2.540216197286874E-004
  1.520000000000000E-002    2.673504168144266E-004
  1.530000000000000E-002    2.813263019573547E-004
  1.540000000000000E-002    2.959780031902243E-004
  1.550000000000000E-002    3.113349923745336E-004
  1.560000000000000E-002    3.274276071780583E-004
  1.570000000000000E-002    3.442870748496104E-004
  1.580000000000000E-002    3.619455708450973E-004
  1.590000000000000E-002    3.804363615634933E-004
  1.600000000000000E-002    3.997940013350206E-004
  1.610000000000000E-002    4.200543777204732E-004
  1.620000000000000E-002    4.412549244479626E-004
  1.630000000000000E-002    4.634346296202000E-004
  1.640000000000000E-002    4.866341769382947E-004
  1.650000000000000E-002    5.108959241628216E-004
  1.660000000000000E-002    5.362638759391146E-004
  1.670000000000000E-002    5.627836940798990E-004
  1.680000000000000E-002    5.905026605125151E-004
  1.690000000000000E-002    6.194695329152962E-004
  1.700000000000000E-002    6.497345106173805E-004
  1.710000000000000E-002    6.813492927899847E-004
  1.720000000000000E-002    7.143670753132402E-004
  1.730000000000000E-002    7.488425560976576E-004
  1.740000000000000E-002    7.848320409266819E-004
  1.750000000000000E-002    8.223935603693416E-004
  1.760000000000000E-002    8.615869621767782E-004
  1.770000000000000E-002    9.024740278185111E-004
  1.780000000000000E-002    9.451187313624493E-004
  1.790000000000000E-002    9.895872170236830E-004
  1.800000000000000E-002    1.035947865354385E-003
  1.810000000000000E-002    1.084271360798124E-003
  1.820000000000000E-002    1.134630660597411E-003
  1.830000000000000E-002    1.187101017329342E-003
  1.840000000000000E-002    1.241759797399114E-003
  1.850000000000000E-002    1.298686827913910E-003
  1.860000000000000E-002    1.357963644196488E-003
  1.870000000000000E-002    1.419674111566922E-003