 -4.000000000000000E-002    0.000000000000000E+000
 -3.990000000000000E-002    0.000000000000000E+000
 -3.980000000000000E-002    7.547826995519471E-011
 -3.970000000000000E-002    3.290039766159784E-010
 -3.960000000000000E-002    8.852182002000464E-010
 -3.950000000000000E-002    1.942496485149646E-009
 -3.940000000000000E-002    3.878921757181766E-009
 -3.930000000000000E-002    7.397198075498059E-009
 -3.920000000000000E-002    1.368462847615233E-008
 -3.910000000000000E-002    2.456033924306835E-008
 -3.900000000000000E-002    4.258283949386415E-008
 -3.890000000000000E-002    7.109540699645121E-008
 -3.880000000000000E-002    1.141942047093616E-007
 -3.870000000000000E-002    1.766131039986844E-007
 -3.860000000000000E-002    2.635285586658152E-007
 -3.850000000000000E-002    3.802986913780522E-007
 -3.840000000000000E-002    5.321579928446661E-007
 -3.830000000000000E-002    7.238963843434738E-007
 -3.820000000000000E-002    9.595551826072743E-007
 -3.810000000000000E-002    1.242172724886663E-006
 -3.800000000000000E-002    1.573608587951389E-006
 -3.790000000000000E-002    1.954467350683344E-006
 -3.780000000000000E-002    2.384133618843711E-006
 -3.770000000000000E-002    2.860914393317846E-006
 -3.760000000000000E-002    3.382273056880032E-006
 -3.750000000000000E-002    3.945124540401219E-006
 -3.740000000000000E-002    4.546157461686747E-006
 -3.730000000000000E-002    5.182138421467904E-006
 -3.720000000000000E-002    5.850163199544617E-006
 -3.710000000000000E-002    6.547824078303586E-006
 -3.700000000000000E-002    7.273277794334027E-006
 -3.690000000000000E-002    8.025217883545914E-006
 -3.680000000000000E-002    8.802766600402157E-006
 -3.670000000000000E-002    9.605319596993225E-006
 -3.660000000000000E-002    1.043238721886308E-005
 -3.650000000000000E-002    1.128346562765665E-005
 -3.640000000000000E-002    1.215797666847795E-005
 -3.630000000000000E-002    1.305529360052566E-005
 -3.620000000000000E-002    1.397485179542341E-005
 -3.610000000000000E-002    1.491632531137001E-005
 -3.600000000000000E-002    1.587983390017235E-005
 -3.590000000000000E-002    1.686613913638646E-005
 -3.580000000000000E-002    1.787678137966674E-005
 -3.570000000000000E-002    1.891412641050236E-005
 -3.560000000000000E-002    1.998129767752690E-005
 -3.550000000000000E-002    2.108200040055327E-005
 -3.540000000000000E-002    2.222027008874304E-005
 -3.530000000000000E-002    2.340017947830339E-005
 -3.520000000000000E-002    2.462555816230468E-005
 -3.510000000000000E-002    2.589979508849114E-005
 -3.500000000000000E-002    2.722575159067112E-005
 -3.490000000000000E-002    2.860580038678520E-005
 -3.480000000000000E-002    3.004201578288677E-005
 -3.470000000000000E-002    3.153644359005367E-005
 -3.460000000000000E-002    3.309143815015456E-005
 -3.450000000000000E-002    3.470997857486918E-005
 -3.440000000000000E-002    3.639590262120659E-005
 -3.430000000000000E-002    3.815402701314718E-005
 -3.420000000000000E-002    3.999011312644298E-005
 -3.410000000000000E-002    4.191069241487994E-005
 -3.400000000000000E-002    4.392279406596780E-005
 -3.390000000000000E-002    4.603361237808716E-005
 -3.380000000000000E-002    4.825021615252865E-005
 -3.370000000000000E-002    5.057933167630668E-005
 -3.360000000000000E-002    5.302728197807130E-005
 -3.350000000000000E-002    5.560008742256709E-005
 -3.340000000000000E-002    5.830370117949801E-005
 -3.330000000000000E-002    6.114437054119496E-005
 -3.320000000000000E-002    6.412900691335874E-005
 -3.310000000000000E-002    6.726550573499940E-005
 -3.300000000000000E-002    7.056296693138590E-005
 -3.290000000000000E-002    7.403169714853435E-005
 -3.280000000000000E-002    7.768303346717099E-005
 -3.270000000000000E-002    8.152896711398127E-005
 -3.260000000000000E-002    8.558167631128843E-005
 -3.250000000000000E-002    8.985298640606858E-005
 -3.240000000000000E-002    9.435392703881513E-005
 -3.230000000000000E-002    9.909441048297976E-005
 -3.220000000000000E-002    1.040831739763550E-004
 -3.210000000000000E-002    1.093278701305887E-004
 -3.200000000000000E-002    1.148355104967913E-004
 -3.190000000000000E-002    1.206129577269341E-004
 -3.180000000000000E-002    1.266675279749841E-004
 -3.170000000000000E-002    1.330075412401369E-004
 -3.160000000000000E-002    1.396427131675332E-004
 -3.150000000000000E-002    1.465843535790340E-004
 -3.140000000000000E-002    1.538453114655484E-004
 -3.130000000000000E-002    1.614396582236104E-004
 -3.120000000000000E-002    1.693822750612354E-004
 -3.110000000000000E-002    1.776882992289194E-004
 -3.100000000000000E-002    1.863726631202019E-004
 -3.090000000000000E-002    1.954497032857284E-004
 -3.080000000000000E-002    2.049330759828358E-004
 -3.070000000000000E-002    2.148358687852506E-004
 -3.060000000000000E-002    2.251709159943993E-004
 -3.050000000000000E-002    2.359512542588134E-004
 -3.040000000000000E-002    2.471906872110500E-004
 -3.030000000000000E-002    2.589042140737273E-004
 -3.020000000000000E-002    2.711083228240306E-004
 -3.010000000000000E-002    2.838210610414671E-004
 -3.000000000000000E-002    2.970617963855595E-004
 -2.990000000000000E-002    3.108509212630884E-004
 -2.980000000000000E-002    3.252092062053911E-004
 -2.970000000000000E-002    3.401573414993736E-004
 -2.960000000000000E-002    3.557152112471294E-004
 -2.950000000000000E-002    3.719018839758086E-004
 -2.940000000000000E-002    3.887354089306424E-004
 -2.930000000000000E-002    4.062330202377743E-004
 -2.920000000000000E-002    4.244117122307506E-004
 -2.910000000000000E-002    4.432886878206697E-004
 -2.900000000000000E-002    4.628820575949365E-004
 -2.890000000000000E-002    4.832112707160070E-004
 -2.880000000000000E-002    5.042973161074062E-004
 -2.870000000000000E-002    5.261626439824446E-004
 -2.860000000000000E-002    5.488310640968340E-004
 -2.850000000000000E-002    5.723268400741632E-004
 -2.840000000000000E-002    5.966741114093996E-004
 -2.830000000000000E-002    6.218958326841507E-004
 -2.820000000000000E-002    6.480135087065516E-004
 -2.810000000000000E-002    6.750466559519771E-004
 -2.800000000000000E-002    7.030126224342423E-004
 -2.790000000000000E-002    7.319266540747460E-004
 -2.780000000000000E-002    7.618028924718020E-004
 -2.770000000000000E-002    7.926547710445417E-004
 -2.760000000000000E-002    8.244958390897427E-004
 -2.750000000000000E-002    8.573403361300835E-004
 -2.740000000000000E-002    8.912036805197398E-004
 -2.730000000000000E-002    9.261025048209143E-004
 -2.720000000000000E-002    9.620544533260678E-004
 -2.710000000000000E-002    9.990776827652869E-004
 -2.700000000000000E-002    1.037189886718443E-003
 -2.690000000000000E-002    1.076407606969025E-003
 -2.680000000000000E-002    1.116744919243914E-003
 -2.670000000000000E-002    1.158213617348393E-003
 -2.660000000000000E-002    1.200822822131519E-003
 -2.650000000000000E-002    1.244578033439420E-003
 -2.640000000000000E-002    1.289482458628859E-003
 -2.630000000000000E-002    1.335536985043063E-003
 -2.620000000000000E-002    1.382740849383347E-003
 -2.610000000000000E-002    1.431092073525383E-003
 -2.600000000000000E-002    1.480587154509838E-003
 -2.590000000000000E-002    1.531222031186507E-003
 -2.580000000000000E-002    1.582991076310227E-003
 -2.570000000000000E-002    1.635886973379180E-003
 -2.560000000000000E-002    1.689899174864039E-003
 -2.550000000000000E-002    1.745013788491309E-003
 -2.540000000000000E-002    1.801212470033796E-003
 -2.530000000000000E-002    1.858471664195531E-003
 -2.520000000000000E-002    1.916761978159777E-003
 -2.510000000000000E-002    1.976049878576843E-003
 -2.500000000000000E-002    2.036295454955581E-003
 -2.490000000000000E-002    2.097454122270847E-003
 -2.480000000000000E-002    2.159477326719526E-003
 -2.470000000000000E-002    2.222311658507012E-003
 -2.460000000000000E-002    2.285900113401299E-003
 -2.450000000000000E-002    2.350181729701240E-003
 -2.440000000000000E-002    2.415090024821226E-003
 -2.430000000000000E-002    2.480554533090313E-003
 -2.420000000000000E-002    2.546497063862060E-003
 -2.410000000000000E-002    2.612833475444898E-003
 -2.400000000000000E-002    2.679471612691378E-003
 -2.390000000000000E-002    2.746310208902724E-003
 -2.380000000000000E-002    2.813239552815977E-003
 -2.370000000000000E-002    2.880141845570803E-003
 -2.360000000000000E-002    2.946888562940402E-003
 -2.350000000000000E-002    3.013342466763008E-003
 -2.340000000000000E-002    3.079358203003817E-003
 -2.330000000000000E-002    3.144781861904909E-003
 -2.320000000000000E-002    3.209450598344903E-003
 -2.310000000000000E-002    3.273192026766574E-003
 -2.300000000000000E-002    3.335822651598372E-003
 -2.290000000000000E-002    3.397151689413875E-003
 -2.280000000000000E-002    3.456974757872796E-003
 -2.270000000000000E-002    3.515075650129872E-003
 -2.260000000000000E-002    3.571224170334757E-003
 -2.250000000000000E-002    3.625176043852487E-003
 -2.240000000000000E-002    3.676672818881838E-003
 -2.230000000000000E-002    3.725441411504112E-003
 -2.220000000000000E-002    3.771191132315633E-003
 -2.210000000000000E-002    3.813618424608407E-003
 -2.200000000000000E-002    3.852402617011476E-003
 -2.190000000000000E-002    3.887208360621119E-003
 -2.180000000000000E-002    3.917687665232587E-003
 -2.170000000000000E-002    3.943474185598039E-003
 -2.160000000000000E-002    3.964184910432074E-003
 -2.150000000000000E-002    3.979420309521935E-003
 -2.140000000000000E-002    3.988763898040084E-003
 -2.130000000000000E-002    3.991777433641963E-003
 -2.120000000000000E-002    3.988007329702595E-003
 -2.110000000000000E-002    3.976974371715587E-003
 -2.100000000000000E-002    3.958180878574120E-003
 -2.090000000000000E-002    3.931105091777758E-003
 -2.080000000000000E-002    3.895204765757752E-003
 -2.070000000000000E-002    3.849917349676976E-003
 -2.060000000000000E-002    3.794655699777969E-003
 -2.050000000000000E-002    3.728814255813322E-003
 -2.040000000000000E-002    3.651761402077120E-003
 -2.030000000000000E-002    3.562847761515740E-003
 -2.020000000000000E-002    3.461398451755842E-003
 -2.010000000000000E-002    3.346712134779939E-003
 -2.000000000000000E-002    3.218068975160908E-003
 -1.990000000000000E-002    3.074720248243859E-003
 -1.980000000000000E-002    2.915886685011866E-003
 -1.970000000000000E-002    2.740766776112014E-003
 -1.960000000000000E-002    2.548528894289338E-003
 -1.950000000000000E-002    2.338312514946296E-003
 -1.940000000000000E-002    2.109231587618440E-003
 -1.930000000000000E-002    1.860372785576304E-003
 -1.920000000000000E-002    1.590789985258811E-003
 -1.910000000000000E-002    1.299510094314338E-003
 -1.900000000000000E-002    9.855366357332321E-004
 -1.890000000000000E-002    6.478376419829998E-004
 -1.880000000000000E-002    2.853649483402637E-004
 -1.870000000000000E-002   -1.029694645237819E-004
 -1.860000000000000E-002   -5.182768605520652E-004
 -1.850000000000000E-002   -9.617024068831539E-004
 -1.840000000000000E-002   -1.434411571807258E-003
 -1.830000000000000E-002   -1.937612217853317E-003
 -1.820000000000000E-002   -2.472542116867260E-003
 -1.810000000000000E-002   -3.040458666714915E-003
 -1.800000000000000E-002   -3.642659952454608E-003
 -1.790000000000000E-002   -4.280467205026575E-003
 -1.780000000000000E-002   -4.955230794935310E-003
 -1.770000000000000E-002   -5.668335867768950E-003
 -1.760000000000000E-002   -6.421192204011189E-003
 -1.750000000000000E-002   -7.215234206139523E-003
 -1.740000000000000E-002   -8.051921027384515E-003
 -1.730000000000000E-002   -8.932755958515656E-003
 -1.720000000000000E-002   -9.859244062472433E-003
 -1.710000000000000E-002   -1.083293701930380E-002
 -1.700000000000000E-002   -1.185540120484315E-002
 -1.690000000000000E-002   -1.292824123225371E-002
 -1.680000000000000E-002   -1.405307112317992E-002
 -1.670000000000000E-002   -1.523154941278219E-002
 -1.660000000000000E-002   -1.646534516222990E-002
 -1.650000000000000E-002   -1.775615056532273E-002
 -1.640000000000000E-002   -1.910568872208405E-002
 -1.630000000000000E-002   -2.051569888216995E-002
 -1.620000000000000E-002   -2.198792616891998E-002
 -1.610000000000000E-002   -2.352415071510734E-002
 -1.600000000000000E-002   -2.512616813783131E-002
 -1.590000000000000E-002   -2.679578666194782E-002
 -1.580000000000000E-002   -2.853482420979521E-002
 -1.570000000000000E-002   -3.034511637434681E-002
 -1.560000000000000E-002   -3.222849326006449E-002
 -1.550000000000000E-002   -3.418682160129424E-002
 -1.540000000000000E-002   -3.622196897638445E-002
 -1.530000000000000E-002   -3.833580638204297E-002
 -1.520000000000000E-002   -4.053020957366080E-002
 -1.510000000000000E-002   -4.280706509546922E-002
 -1.500000000000000E-002   -4.516826507701534E-002
 -1.490000000000000E-002   -4.761567757872853E-002
 -1.480000000000000E-002   -5.015119934413617E-002
 -1.470000000000000E-002   -5.277669044869496E-002
 -1.460000000000000E-002   -5.549402098775588E-002
 -1.450000000000000E-002   -5.830506266860500E-002
 -1.440000000000000E-002   -6.121163502477894E-002
 -1.430000000000000E-002   -6.421558483196779E-002
 -1.420000000000000E-002   -6.731870764678274E-002
 -1.410000000000000E-002   -7.052279043923199E-002
 -1.400000000000000E-002   -7.382961318108430E-002
 -1.390000000000000E-002   -7.724090726573132E-002
 -1.380000000000000E-002   -8.075840241386117E-002
 -1.370000000000000E-002   -8.438377788525370E-002
 -1.360000000000000E-002   -8.811868938595746E-002
 -1.350000000000000E-002   -9.196473796225507E-002
 -1.340000000000000E-002   -9.592350936914468E-002
 -1.330000000000000E-002   -9.999654992373785E-002
 -1.320000000000000E-002   -0.104185328341517     
 -1.310000000000000E-002   -0.108491302351830     
 -1.300000000000000E-002   -0.112915850316006     
 -1.290000000000000E-002   -0.117460302301025     
 -1.280000000000000E-002   -0.122125915488809     
 -1.270000000000000E-002   -0.126913910102220     
 -1.260000000000000E-002   -0.131825401706651     
 -1.250000000000000E-002   -0.136861465381285     
 -1.240000000000000E-002   -0.142023094128414     
 -1.230000000000000E-002   -0.147311240647193     
 -1.220000000000000E-002   -0.152726721356557     
 -1.210000000000000E-002   -0.158270266901836     
 -1.200000000000000E-002   -0.163942571865828     
 -1.190000000000000E-002   -0.169744208655907     
 -1.180000000000000E-002   -0.175675670789857     
 -1.170000000000000E-002   -0.181737321152470     
 -1.160000000000000E-002   -0.187929475018448     
 -1.150000000000000E-002   -0.194252286509386     
 -1.140000000000000E-002   -0.200705817783458     
 -1.130000000000000E-002   -0.207290040044392     
 -1.120000000000000E-002   -0.214004783325202     
 -1.110000000000000E-002   -0.220849772343151     
 -1.100000000000000E-002   -0.227824578718570     
 -1.090000000000000E-002   -0.234928673249595     
 -1.080000000000000E-002   -0.242161387019448     
 -1.070000000000000E-002   -0.249521934971743     
 -1.060000000000000E-002   -0.257009385696460     
 -1.050000000000000E-002   -0.264622659071021     
 -1.040000000000000E-002   -0.272360580067770     
 -1.030000000000000E-002   -0.280221769708201     
 -1.020000000000000E-002   -0.288204725560678     
 -1.010000000000000E-002   -0.296307799321586     
 -1.000000000000000E-002   -0.304529197903219     
 -9.899999999999999E-003   -0.312866941919129     
 -9.800000000000000E-003   -0.321318916867894     
 -9.699999999999999E-003   -0.329882829839467     
 -9.599999999999999E-003   -0.338556215200331     
 -9.500000000000000E-003   -0.347336505982868     
 -9.399999999999999E-003   -0.356220893678837     
 -9.299999999999999E-003   -0.365206449149590     
 -9.200000000000000E-003   -0.374290048918522     
 -9.099999999999999E-003   -0.383468427861329     
 -8.999999999999999E-003   -0.392738178346940     
 -8.900000000000000E-003   -0.402095646329798     
 -8.799999999999999E-003   -0.411537020850749     
 -8.699999999999999E-003   -0.421058354207287     
 -8.600000000000000E-003   -0.430655469606738     
 -8.499999999999999E-003   -0.440324086241306     
 -8.399999999999999E-003   -0.450059684121636     
 -8.300000000000000E-003   -0.459857591201239     
 -8.199999999999999E-003   -0.469712947156446     
 -8.100000000000000E-003   -0.479620755077601     
 -8.000000000000000E-003   -0.489575779633825     
 -7.899999999999999E-003   -0.499572691875525     
 -7.800000000000000E-003   -0.509605971262867     
 -7.699999999999999E-003   -0.519669888582969     
 -7.599999999999999E-003   -0.529758597168130     
 -7.499999999999999E-003   -0.539866039779980     
 -7.399999999999999E-003   -0.549986077090516     
 -7.299999999999999E-003   -0.560112325410045     
 -7.199999999999999E-003   -0.570238326578469     
 -7.100000000000000E-003   -0.580357408054960     
 -6.999999999999999E-003   -0.590462703840574     
 -6.899999999999999E-003   -0.600547267918295     
 -6.800000000000000E-003   -0.610604011834643     
 -6.699999999999999E-003   -0.620625693097953     
 -6.599999999999999E-003   -0.630604944934662     
 -6.499999999999999E-003   -0.640534250781997     
 -6.399999999999999E-003   -0.650405962042734     
 -6.299999999999999E-003   -0.660212412023658     
 -6.199999999999999E-003   -0.669945706030959     
 -6.100000000000000E-003   -0.679597907333734     
 -5.999999999999999E-003   -0.689160935625089     
 -5.899999999999999E-003   -0.698626608503512     
 -5.800000000000000E-003   -0.707986755524256     
 -5.699999999999999E-003   -0.717232957714223     
 -5.599999999999999E-003   -0.726356847572013     
 -5.499999999999999E-003   -0.735349936784608     
 -5.399999999999999E-003   -0.744203690666648     
 -5.299999999999999E-003   -0.752909488117215     
 -5.199999999999999E-003   -0.761458717303833     
 -5.099999999999999E-003   -0.769842720136472     
 -4.999999999999999E-003   -0.778052729502373     
 -4.899999999999999E-003   -0.786080065346503     
 -4.799999999999999E-003   -0.793915992270819     
 -4.699999999999999E-003   -0.801551770563833     
 -4.599999999999999E-003   -0.808978642565723     
 -4.499999999999999E-003   -0.816187894591195     
 -4.399999999999999E-003   -0.823170838049199     
 -4.299999999999999E-003   -0.829918816835603     
 -4.199999999999999E-003   -0.836423125804801     
 -4.099999999999999E-003   -0.842675248052435     
 -3.999999999999999E-003   -0.848666593179587     
 -3.899999999999999E-003   -0.854388759769236     
 -3.799999999999999E-003   -0.859833357550398     
 -3.699999999999999E-003   -0.864992097455803     
 -3.599999999999999E-003   -0.869856802882937     
 -3.499999999999999E-003   -0.874419457339840     
 -3.399999999999999E-003   -0.878672121614370     
 -3.299999999999999E-003   -0.882606966482003     
 -3.199999999999999E-003   -0.886216301776985     
 -3.099999999999999E-003   -0.889492625843421     
 -2.999999999999999E-003   -0.892428562738097     
 -2.899999999999999E-003   -0.895016902054022     
 -2.799999999999999E-003   -0.897250614073756     
 -2.699999999999999E-003   -0.899122853880631     
 -2.599999999999999E-003   -0.900626954306599     
 -2.499999999999999E-003   -0.901756518502743     
 -2.399999999999999E-003   -0.902505348788986     
 -2.299999999999999E-003   -0.902867395918023     
 -2.199999999999999E-003   -0.902836940271608     
 -2.099999999999999E-003   -0.902408527235695     
 -1.999999999999999E-003   -0.901576815848951     
 -1.899999999999999E-003   -0.900336898969132     
 -1.799999999999999E-003   -0.898684016892028     
 -1.699999999999999E-003   -0.896613718539207     
 -1.599999999999999E-003   -0.894121869694403     
 -1.499999999999999E-003   -0.891204646581822     
 -1.399999999999999E-003   -0.887858447793767     
 -1.299999999999999E-003   -0.884079980958196     
 -1.199999999999999E-003   -0.879866385592410     
 -1.099999999999999E-003   -0.875214951785739     
 -9.999999999999989E-004   -0.870123436857164     
 -8.999999999999990E-004   -0.864589866906851     
 -7.999999999999990E-004   -0.858612643917934     
 -6.999999999999989E-004   -0.852190508921897     
 -5.999999999999990E-004   -0.845322498252090     
 -4.999999999999989E-004   -0.838008045206595     
 -3.999999999999989E-004   -0.830246943292101     
 -2.999999999999989E-004   -0.822039371638634     
 -1.999999999999989E-004   -0.813385828105010     
 -9.999999999999892E-005   -0.804287194536912     
  1.084202172485504E-018   -0.794744683521409     
  1.000000000000011E-004   -0.784759945802616     
  2.000000000000011E-004   -0.774334935043701     
  3.000000000000011E-004   -0.763472047930913     
  4.000000000000011E-004   -0.752174048556850     
  5.000000000000011E-004   -0.740444034053929     
  6.000000000000011E-004   -0.728285532570769     
  7.000000000000011E-004   -0.715702387464518     
  8.000000000000011E-004   -0.702698871342651     
  9.000000000000012E-004   -0.689279638617164     
  1.000000000000001E-003   -0.675449672109786     
  1.100000000000001E-003   -0.661214335250597     
  1.200000000000001E-003   -0.646579379437691     
  1.300000000000001E-003   -0.631550875105396     
  1.400000000000001E-003   -0.616135279711554     
  1.500000000000001E-003   -0.600339423938716     
  1.600000000000001E-003   -0.584170448696098     
  1.700000000000001E-003   -0.567635815933081     
  1.800000000000001E-003   -0.550743435054885     
  1.900000000000001E-003   -0.533501421910812     
  2.000000000000001E-003   -0.515918333964911     
  2.100000000000001E-003   -0.498002957268149     
  2.200000000000001E-003   -0.479764452620502     
  2.300000000000001E-003   -0.461212284255638     
  2.400000000000001E-003   -0.442356169944349     
  2.500000000000001E-003   -0.423206187578041     
  2.600000000000001E-003   -0.403772655324740     
  2.700000000000001E-003   -0.384066121061298     
  2.800000000000001E-003   -0.364097454547040     
  2.900000000000001E-003   -0.343877757996640     
  3.000000000000001E-003   -0.323418374351508     
  3.100000000000001E-003   -0.302730875258309     
  3.200000000000001E-003   -0.281827045219160     
  3.300000000000001E-003   -0.260718892238414     
  3.400000000000001E-003   -0.239418662489789     
  3.500000000000001E-003   -0.217938732753307     
  3.600000000000001E-003   -0.196291672082915     
  3.700000000000001E-003   -0.174490233980482     
  3.800000000000001E-003   -0.152547272546653     
  3.900000000000001E-003   -0.130475819571137     
  4.000000000000001E-003   -0.108289029351633     
  4.100000000000001E-003   -8.600020093664365E-002
  4.200000000000001E-003   -6.362264779017346E-002
  4.300000000000001E-003   -4.116985402205908E-002
  4.400000000000001E-003   -1.865531621883548E-002
  4.500000000000001E-003    3.907386862050416E-003
  4.600000000000002E-003    2.650461722421876E-002
  4.700000000000001E-003    4.912270706224617E-002
  4.800000000000001E-003    7.174798091449602E-002
  4.900000000000002E-003    9.436672987412981E-002
  5.000000000000001E-003    0.116965298522666     
  5.100000000000001E-003    0.139529965400835     
  5.200000000000001E-003    0.162047125539427     
  5.300000000000002E-003    0.184503200144531     
  5.400000000000001E-003    0.206884674026997     
  5.500000000000001E-003    0.229178117949298     
  5.600000000000002E-003    0.251370151484102     
  5.700000000000001E-003    0.273447576997521     
  5.800000000000001E-003    0.295397239906710     
  5.900000000000002E-003    0.317206129772449     
  6.000000000000001E-003    0.338861366239259     
  6.100000000000001E-003    0.360350167004155     
  6.200000000000002E-003    0.381660033957602     
  6.300000000000002E-003    0.402778531368906     
  6.400000000000001E-003    0.423693429301479     
  6.500000000000001E-003    0.444392784979313     
  6.600000000000002E-003    0.464864725022125     
  6.700000000000001E-003    0.485097733773845     
  6.800000000000001E-003    0.505080452646142     
  6.900000000000002E-003    0.524801761245158     
  7.000000000000001E-003    0.544250844753201     
  7.100000000000001E-003    0.563417120066507     
  7.200000000000002E-003    0.582290276327341     
  7.300000000000002E-003    0.600860310009084     
  7.400000000000001E-003    0.619117425265295     
  7.500000000000001E-003    0.637052166525223     
  7.600000000000002E-003    0.654655401077807     
  7.700000000000001E-003    0.671918246034006     
  7.800000000000001E-003    0.688832179332859     
  7.900000000000001E-003    0.705388992926057     
  8.000000000000002E-003    0.721580761061720     
  8.100000000000001E-003    0.737399978183775     
  8.200000000000001E-003    0.752839484052827     
  8.300000000000002E-003    0.767892374339285     
  8.400000000000001E-003    0.782552223337887     
  8.500000000000002E-003    0.796812861800320     
  8.600000000000002E-003    0.810668582615493     
  8.700000000000001E-003    0.824113899143527     
  8.800000000000002E-003    0.837143802451278     
  8.900000000000002E-003    0.849753600313182     
  9.000000000000001E-003    0.861938911119431     
  9.100000000000002E-003    0.873695838416024     
  9.200000000000002E-003    0.885020704718955     
  9.300000000000001E-003    0.895910325862472     
  9.400000000000002E-003    0.906361873245885     
  9.500000000000001E-003    0.916372793583083     
  9.600000000000001E-003    0.925941001218108     
  9.700000000000002E-003    0.935064781396559     
  9.800000000000001E-003    0.943742696195855     
  9.900000000000001E-003    0.951973866044850     
  1.000000000000000E-002    0.959757568700508     
  1.010000000000000E-002    0.967093507635280     
  1.020000000000000E-002    0.973981751504076     
  1.030000000000000E-002    0.980422745398658     
  1.040000000000000E-002    0.986417240489108     
  1.050000000000000E-002    0.991966242122778     
  1.060000000000000E-002    0.997071223161112     
  1.070000000000000E-002     1.00173391041860     
  1.080000000000000E-002     1.00595640939581     
  1.090000000000000E-002     1.00974117011404     
  1.100000000000000E-002     1.01309088635646     
  1.110000000000000E-002     1.01600864151951     
  1.120000000000000E-002     1.01849779168315     
  1.130000000000000E-002     1.02056203049975     
  1.140000000000000E-002     1.02220525094839     
  1.150000000000000E-002     1.02343167983339     
  1.160000000000000E-002     1.02424579217738     
  1.170000000000000E-002     1.02465235089489     
  1.180000000000000E-002     1.02465631826287     
  1.190000000000000E-002     1.02426296245683     
  1.200000000000000E-002     1.02347768963559     
  1.210000000000000E-002     1.02230623882007     
  1.220000000000000E-002     1.02075450030238     
  1.230000000000000E-002     1.01882860943453     
  1.240000000000000E-002     1.01653492943373     
  1.250000000000000E-002     1.01388003050754     
  1.260000000000000E-002     1.01087065256839     
  1.270000000000000E-002     1.00751373425000     
  1.280000000000000E-002     1.00381642445856     
  1.290000000000000E-002    0.999785912478879     
  1.300000000000000E-002    0.995429590211986     
  1.310000000000000E-002    0.990755007562683     
  1.320000000000000E-002    0.985769830930922     
  1.330000000000000E-002    0.980481797632332     
  1.340000000000000E-002    0.974898775230341     
  1.350000000000000E-002    0.969028746754755     
  1.360000000000000E-002    0.962879719381715     
  1.370000000000000E-002    0.956459809775303     
  1.380000000000000E-002    0.949777305353360     
  1.390000000000000E-002    0.942840451582244     
  1.400000000000000E-002    0.935657662081486     
  1.410000000000000E-002    0.928237306888571     
  1.420000000000000E-002    0.920587875997505     
  1.430000000000000E-002    0.912717764204021     
  1.440000000000000E-002    0.904635468294707     
  1.450000000000000E-002    0.896349464581269     
  1.460000000000000E-002    0.887868264444267     
  1.470000000000000E-002    0.879200271003957     
  1.480000000000000E-002    0.870353962583840     
  1.490000000000000E-002    0.861337796206107     
  1.500000000000000E-002    0.852160113451785     
  1.510000000000000E-002    0.842829225380721     
  1.520000000000000E-002    0.833353565900994     
  1.530000000000000E-002    0.823741331151544     
  1.540000000000000E-002    0.814000706908596     
  1.550000000000000E-002    0.804139918846956     
  1.560000000000000E-002    0.794166993689061     
  1.570000000000000E-002    0.784089963033175     
  1.580000000000000E-002    0.773916761499638     
  1.590000000000000E-002    0.763655148724022     
  1.600000000000000E-002    0.753312791721406     
  1.610000000000000E-002    0.742897368393417     
  1.620000000000000E-002    0.732416291994472     
  1.630000000000000E-002    0.721876978221621     
  1.640000000000000E-002    0.711286672813174     
  1.650000000000000E-002    0.700652508243800     
  1.660000000000000E-002    0.689981461866397     
  1.670000000000000E-002    0.679280475454079     
  1.680000000000000E-002    0.668556331675587     
  1.690000000000000E-002    0.657815653589346     
  1.700000000000000E-002    0.647064933864350     
  1.710000000000000E-002    0.636310530883211     
  1.720000000000000E-002    0.625558652401463     
  1.730000000000000E-002    0.614815331688145     
  1.740000000000000E-002    0.604086410583991     
  1.750000000000000E-002    0.593377664715163     
  1.760000000000000E-002    0.582694659371321     
  1.770000000000000E-002    0.572042811634507     
  1.780000000000000E-002    0.561427343484811     
  1.790000000000000E-002    0.550853394739280     
  1.800000000000000E-002    0.540325882933743     
  1.810000000000000E-002    0.529849617826612     
  1.820000000000000E-002    0.519429261947248     
  1.830000000000000E-002    0.509069273610742     
  1.840000000000000E-002    0.498773966569272     
  1.850000000000000E-002    0.488547530913830     
  1.860000000000000E-002    0.478393936061465     
  1.870000000000000E-002    0.468316999293015     