 -4.000000000000000E-002    0.000000000000000E+000
 -3.990000000000000E-002    0.000000000000000E+000
 -3.980000000000000E-002    0.000000000000000E+000
 -3.970000000000000E-002    0.000000000000000E+000
 -3.960000000000000E-002    0.000000000000000E+000
 -3.950000000000000E-002    0.000000000000000E+000
 -3.940000000000000E-002    0.000000000000000E+000
 -3.930000000000000E-002    0.000000000000000E+000
 -3.920000000000000E-002    0.000000000000000E+000
 -3.910000000000000E-002    0.000000000000000E+000
 -3.900000000000000E-002    0.000000000000000E+000
 -3.890000000000000E-002    0.000000000000000E+000
 -3.880000000000000E-002    0.000000000000000E+000
 -3.870000000000000E-002    0.000000000000000E+000
 -3.860000000000000E-002    0.000000000000000E+000
 -3.850000000000000E-002    0.000000000000000E+000
 -3.840000000000000E-002    0.000000000000000E+000
 -3.830000000000000E-002    0.000000000000000E+000
 -3.820000000000000E-002    0.000000000000000E+000
 -3.810000000000000E-002    0.000000000000000E+000
 -3.800000000000000E-002    0.000000000000000E+000
 -3.790000000000000E-002    0.000000000000000E+000
 -3.780000000000000E-002    0.000000000000000E+000
 -3.770000000000000E-002    0.000000000000000E+000
 -3.760000000000000E-002    0.000000000000000E+000
 -3.750000000000000E-002    0.000000000000000E+000
 -3.740000000000000E-002    0.000000000000000E+000
 -3.730000000000000E-002    0.000000000000000E+000
 -3.720000000000000E-002    0.000000000000000E+000
 -3.710000000000000E-002    0.000000000000000E+000
 -3.700000000000000E-002    0.000000000000000E+000
 -3.690000000000000E-002    0.000000000000000E+000
 -3.680000000000000E-002    0.000000000000000E+000
 -3.670000000000000E-002    0.000000000000000E+000
 -3.660000000000000E-002    0.000000000000000E+000
 -3.650000000000000E-002    0.000000000000000E+000
 -3.640000000000000E-002    0.000000000000000E+000
 -3.630000000000000E-002    0.000000000000000E+000
 -3.620000000000000E-002    0.000000000000000E+000
 -3.610000000000000E-002    0.000000000000000E+000
 -3.600000000000000E-002    0.000000000000000E+000
 -3.590000000000000E-002    0.000000000000000E+000
 -3.580000000000000E-002    0.000000000000000E+000
 -3.570000000000000E-002    0.000000000000000E+000
 -3.560000000000000E-002    0.000000000000000E+000
 -3.550000000000000E-002    0.000000000000000E+000
 -3.540000000000000E-002    0.000000000000000E+000
 -3.530000000000000E-002    0.000000000000000E+000
 -3.520000000000000E-002    0.000000000000000E+000
 -3.510000000000000E-002    0.000000000000000E+000
 -3.500000000000000E-002    0.000000000000000E+000
 -3.490000000000000E-002    0.000000000000000E+000
 -3.480000000000000E-002    0.000000000000000E+000
 -3.470000000000000E-002    0.000000000000000E+000
 -3.460000000000000E-002    0.000000000000000E+000
 -3.450000000000000E-002    0.000000000000000E+000
 -3.440000000000000E-002    0.000000000000000E+000
 -3.430000000000000E-002    0.000000000000000E+000
 -3.420000000000000E-002    0.000000000000000E+000
 -3.410000000000000E-002    0.000000000000000E+000
 -3.400000000000000E-002    0.000000000000000E+000
 -3.390000000000000E-002    0.000000000000000E+000
 -3.380000000000000E-002    0.000000000000000E+000
 -3.370000000000000E-002    0.000000000000000E+000
 -3.360000000000000E-002    0.000000000000000E+000
 -3.350000000000000E-002    0.000000000000000E+000
 -3.340000000000000E-002    0.000000000000000E+000
 -3.330000000000000E-002    0.000000000000000E+000
 -3.320000000000000E-002    0.000000000000000E+000
 -3.310000000000000E-002    0.000000000000000E+000
 -3.300000000000000E-002    0.000000000000000E+000
 -3.290000000000000E-002    0.000000000000000E+000
 -3.280000000000000E-002    0.000000000000000E+000
 -3.270000000000000E-002    0.000000000000000E+000
 -3.260000000000000E-002    0.000000000000000E+000
 -3.250000000000000E-002    0.000000000000000E+000
 -3.240000000000000E-002    0.000000000000000E+000
 -3.230000000000000E-002    0.000000000000000E+000
 -3.220000000000000E-002    0.000000000000000E+000
 -3.210000000000000E-002    0.000000000000000E+000
 -3.200000000000000E-002    0.000000000000000E+000
 -3.190000000000000E-002    0.000000000000000E+000
 -3.180000000000000E-002    0.000000000000000E+000
 -3.170000000000000E-002    0.000000000000000E+000
 -3.160000000000000E-002    0.000000000000000E+000
 -3.150000000000000E-002    0.000000000000000E+000
 -3.140000000000000E-002    0.000000000000000E+000
 -3.130000000000000E-002    0.000000000000000E+000
 -3.120000000000000E-002    0.000000000000000E+000
 -3.110000000000000E-002    0.000000000000000E+000
 -3.100000000000000E-002    0.000000000000000E+000
 -3.090000000000000E-002    0.000000000000000E+000
 -3.080000000000000E-002    0.000000000000000E+000
 -3.070000000000000E-002    0.000000000000000E+000
 -3.060000000000000E-002    0.000000000000000E+000
 -3.050000000000000E-002    0.000000000000000E+000
 -3.040000000000000E-002    0.000000000000000E+000
 -3.030000000000000E-002    0.000000000000000E+000
 -3.020000000000000E-002    0.000000000000000E+000
 -3.010000000000000E-002    0.000000000000000E+000
 -3.000000000000000E-002    0.000000000000000E+000
 -2.990000000000000E-002    0.000000000000000E+000
 -2.980000000000000E-002    0.000000000000000E+000
 -2.970000000000000E-002    0.000000000000000E+000
 -2.960000000000000E-002    0.000000000000000E+000
 -2.950000000000000E-002    0.000000000000000E+000
 -2.940000000000000E-002    0.000000000000000E+000
 -2.930000000000000E-002    0.000000000000000E+000
 -2.920000000000000E-002    0.000000000000000E+000
 -2.910000000000000E-002    0.000000000000000E+000
 -2.900000000000000E-002    0.000000000000000E+000
 -2.890000000000000E-002    0.000000000000000E+000
 -2.880000000000000E-002    0.000000000000000E+000
 -2.870000000000000E-002    0.000000000000000E+000
 -2.860000000000000E-002    0.000000000000000E+000
 -2.850000000000000E-002    0.000000000000000E+000
 -2.840000000000000E-002    0.000000000000000E+000
 -2.830000000000000E-002    0.000000000000000E+000
 -2.820000000000000E-002    0.000000000000000E+000
 -2.810000000000000E-002    0.000000000000000E+000
 -2.800000000000000E-002    0.000000000000000E+000
 -2.790000000000000E-002    0.000000000000000E+000
 -2.780000000000000E-002    0.000000000000000E+000
 -2.770000000000000E-002    0.000000000000000E+000
 -2.760000000000000E-002    0.000000000000000E+000
 -2.750000000000000E-002    0.000000000000000E+000
 -2.740000000000000E-002    0.000000000000000E+000
 -2.730000000000000E-002    0.000000000000000E+000
 -2.720000000000000E-002    0.000000000000000E+000
 -2.710000000000000E-002    0.000000000000000E+000
 -2.700000000000000E-002    0.000000000000000E+000
 -2.690000000000000E-002    0.000000000000000E+000
 -2.680000000000000E-002    0.000000000000000E+000
 -2.670000000000000E-002    0.000000000000000E+000
 -2.660000000000000E-002    0.000000000000000E+000
 -2.650000000000000E-002    0.000000000000000E+000
 -2.640000000000000E-002    0.000000000000000E+000
 -2.630000000000000E-002    0.000000000000000E+000
 -2.620000000000000E-002    0.000000000000000E+000
 -2.610000000000000E-002    0.000000000000000E+000
 -2.600000000000000E-002    0.000000000000000E+000
 -2.590000000000000E-002    0.000000000000000E+000
 -2.580000000000000E-002    0.000000000000000E+000
 -2.570000000000000E-002    0.000000000000000E+000
 -2.560000000000000E-002    0.000000000000000E+000
 -2.550000000000000E-002    0.000000000000000E+000
 -2.540000000000000E-002    0.000000000000000E+000
 -2.530000000000000E-002    0.000000000000000E+000
 -2.520000000000000E-002    0.000000000000000E+000
 -2.510000000000000E-002    0.000000000000000E+000
 -2.500000000000000E-002    0.000000000000000E+000
 -2.490000000000000E-002    0.000000000000000E+000
 -2.480000000000000E-002    0.000000000000000E+000
 -2.470000000000000E-002    0.000000000000000E+000
 -2.460000000000000E-002    0.000000000000000E+000
 -2.450000000000000E-002    0.000000000000000E+000
 -2.440000000000000E-002    0.000000000000000E+000
 -2.430000000000000E-002    0.000000000000000E+000
 -2.420000000000000E-002    0.000000000000000E+000
 -2.410000000000000E-002    0.000000000000000E+000
 -2.400000000000000E-002    0.000000000000000E+000
 -2.390000000000000E-002    0.000000000000000E+000
 -2.380000000000000E-002    0.000000000000000E+000
 -2.370000000000000E-002    0.000000000000000E+000
 -2.360000000000000E-002    0.000000000000000E+000
 -2.350000000000000E-002    0.000000000000000E+000
 -2.340000000000000E-002    0.000000000000000E+000
 -2.330000000000000E-002    0.000000000000000E+000
 -2.320000000000000E-002    0.000000000000000E+000
 -2.310000000000000E-002    0.000000000000000E+000
 -2.300000000000000E-002    0.000000000000000E+000
 -2.290000000000000E-002    0.000000000000000E+000
 -2.280000000000000E-002    0.000000000000000E+000
 -2.270000000000000E-002    0.000000000000000E+000
 -2.260000000000000E-002    0.000000000000000E+000
 -2.250000000000000E-002    0.000000000000000E+000
 -2.240000000000000E-002    0.000000000000000E+000
 -2.230000000000000E-002    0.000000000000000E+000
 -2.220000000000000E-002    0.000000000000000E+000
 -2.210000000000000E-002    0.000000000000000E+000
 -2.200000000000000E-002    0.000000000000000E+000
 -2.190000000000000E-002    0.000000000000000E+000
 -2.180000000000000E-002    0.000000000000000E+000
 -2.170000000000000E-002    0.000000000000000E+000
 -2.160000000000000E-002    0.000000000000000E+000
 -2.150000000000000E-002    0.000000000000000E+000
 -2.140000000000000E-002    0.000000000000000E+000
 -2.130000000000000E-002    0.000000000000000E+000
 -2.120000000000000E-002    0.000000000000000E+000
 -2.110000000000000E-002    0.000000000000000E+000
 -2.100000000000000E-002    0.000000000000000E+000
 -2.090000000000000E-002    0.000000000000000E+000
 -2.080000000000000E-002    0.000000000000000E+000
 -2.070000000000000E-002    0.000000000000000E+000
 -2.060000000000000E-002    0.000000000000000E+000
 -2.050000000000000E-002    0.000000000000000E+000
 -2.040000000000000E-002    0.000000000000000E+000
 -2.030000000000000E-002    0.000000000000000E+000
 -2.020000000000000E-002    0.000000000000000E+000
 -2.010000000000000E-002    0.000000000000000E+000
 -2.000000000000000E-002    0.000000000000000E+000
 -1.990000000000000E-002    0.000000000000000E+000
 -1.980000000000000E-002    0.000000000000000E+000
 -1.970000000000000E-002    0.000000000000000E+000
 -1.960000000000000E-002    0.000000000000000E+000
 -1.950000000000000E-002    0.000000000000000E+000
 -1.940000000000000E-002    0.000000000000000E+000
 -1.930000000000000E-002    0.000000000000000E+000
 -1.920000000000000E-002    0.000000000000000E+000
 -1.910000000000000E-002    0.000000000000000E+000
 -1.900000000000000E-002    0.000000000000000E+000
 -1.890000000000000E-002    0.000000000000000E+000
 -1.880000000000000E-002    0.000000000000000E+000
 -1.870000000000000E-002    0.000000000000000E+000
 -1.860000000000000E-002    0.000000000000000E+000
 -1.850000000000000E-002    0.000000000000000E+000
 -1.840000000000000E-002    0.000000000000000E+000
 -1.830000000000000E-002    0.000000000000000E+000
 -1.820000000000000E-002    0.000000000000000E+000
 -1.810000000000000E-002    0.000000000000000E+000
 -1.800000000000000E-002    0.000000000000000E+000
 -1.790000000000000E-002    0.000000000000000E+000
 -1.780000000000000E-002    0.000000000000000E+000
 -1.770000000000000E-002    0.000000000000000E+000
 -1.760000000000000E-002    0.000000000000000E+000
 -1.750000000000000E-002    0.000000000000000E+000
 -1.740000000000000E-002    0.000000000000000E+000
 -1.730000000000000E-002    0.000000000000000E+000
 -1.720000000000000E-002    0.000000000000000E+000
 -1.710000000000000E-002    0.000000000000000E+000
 -1.700000000000000E-002    0.000000000000000E+000
 -1.690000000000000E-002    0.000000000000000E+000
 -1.680000000000000E-002    0.000000000000000E+000
 -1.670000000000000E-002    0.000000000000000E+000
 -1.660000000000000E-002    0.000000000000000E+000
 -1.650000000000000E-002    0.000000000000000E+000
 -1.640000000000000E-002    0.000000000000000E+000
 -1.630000000000000E-002    0.000000000000000E+000
 -1.620000000000000E-002    0.000000000000000E+000
 -1.610000000000000E-002    0.000000000000000E+000
 -1.600000000000000E-002    0.000000000000000E+000
 -1.590000000000000E-002    0.000000000000000E+000
 -1.580000000000000E-002    0.000000000000000E+000
 -1.570000000000000E-002    0.000000000000000E+000
 -1.560000000000000E-002    0.000000000000000E+000
 -1.550000000000000E-002    0.000000000000000E+000
 -1.540000000000000E-002    0.000000000000000E+000
 -1.530000000000000E-002    0.000000000000000E+000
 -1.520000000000000E-002    0.000000000000000E+000
 -1.510000000000000E-002    0.000000000000000E+000
 -1.500000000000000E-002    0.000000000000000E+000
 -1.490000000000000E-002    0.000000000000000E+000
 -1.480000000000000E-002    0.000000000000000E+000
 -1.470000000000000E-002    0.000000000000000E+000
 -1.460000000000000E-002    0.000000000000000E+000
 -1.450000000000000E-002    0.000000000000000E+000
 -1.440000000000000E-002    0.000000000000000E+000
 -1.430000000000000E-002    0.000000000000000E+000
 -1.420000000000000E-002    0.000000000000000E+000
 -1.410000000000000E-002    0.000000000000000E+000
 -1.400000000000000E-002    0.000000000000000E+000
 -1.390000000000000E-002    0.000000000000000E+000
 -1.380000000000000E-002    0.000000000000000E+000
 -1.370000000000000E-002    0.000000000000000E+000
 -1.360000000000000E-002    0.000000000000000E+000
 -1.350000000000000E-002   -1.924390591266381E-047
 -1.340000000000000E-002   -3.848781182532762E-047
 -1.330000000000000E-002   -3.848781182532762E-047
 -1.320000000000000E-002   -3.848781182532762E-047
 -1.310000000000000E-002    0.000000000000000E+000
 -1.300000000000000E-002    2.029026882677315E-046
 -1.290000000000000E-002    4.314639177523480E-046
 -1.280000000000000E-002    8.051961177667047E-046
 -1.270000000000000E-002    1.166099047172619E-045
 -1.260000000000000E-002    1.336928558919244E-045
 -1.250000000000000E-002    1.279196841181252E-045
 -1.240000000000000E-002    6.640741410738367E-046
 -1.230000000000000E-002   -4.145856533070334E-046
 -1.220000000000000E-002   -3.094651223267276E-045
 -1.210000000000000E-002   -6.354839557889971E-045
 -1.200000000000000E-002   -9.982545669877140E-045
 -1.190000000000000E-002   -1.214194903631708E-044
 -1.180000000000000E-002   -1.322890703102604E-044
 -1.170000000000000E-002   -1.099173055072442E-044
 -1.160000000000000E-002   -4.143036782488987E-045
 -1.150000000000000E-002    7.351886012402637E-045
 -1.140000000000000E-002    2.185574962117395E-044
 -1.130000000000000E-002    3.907039336875908E-044
 -1.120000000000000E-002    5.600544402862132E-044
 -1.110000000000000E-002    6.893102848676607E-044
 -1.100000000000000E-002    7.090977925866705E-044
 -1.090000000000000E-002    5.590440714597729E-044
 -1.080000000000000E-002    1.887443511001584E-044
 -1.070000000000000E-002   -4.339589534297957E-044
 -1.060000000000000E-002   -1.292874631571719E-043
 -1.050000000000000E-002   -2.286377736088546E-043
 -1.040000000000000E-002   -3.266663362656793E-043
 -1.030000000000000E-002   -3.964499434891966E-043
 -1.020000000000000E-002   -4.073326430814630E-043
 -1.010000000000000E-002   -3.235438111676581E-043
 -1.000000000000000E-002   -1.157540902064340E-043
 -9.899999999999999E-003    2.314992763728490E-043
 -9.800000000000000E-003    7.070166194863793E-043
 -9.699999999999999E-003    1.262186691503014E-042
 -9.599999999999999E-003    1.802958607195166E-042
 -9.500000000000000E-003    2.190775770027396E-042
 -9.399999999999999E-003    2.251408245791858E-042
 -9.299999999999999E-003    1.799942938958482E-042
 -9.200000000000000E-003    6.807006881072993E-043
 -9.099999999999999E-003   -1.180670095939364E-042
 -8.999999999999999E-003   -3.716823770214699E-042
 -8.900000000000000E-003   -6.662765869245138E-042
 -8.799999999999999E-003   -9.520582403244019E-042
 -8.699999999999999E-003   -1.155965233176720E-041
 -8.600000000000000E-003   -1.187891202587820E-041
 -8.499999999999999E-003   -9.536499092174160E-042
 -8.399999999999999E-003   -3.755439404381197E-042
 -8.300000000000000E-003    5.807163130617250E-042
 -8.199999999999999E-003    1.876305895788959E-041
 -8.100000000000000E-003    3.372651444796453E-041
 -8.000000000000000E-003    4.814955432789408E-041
 -7.899999999999999E-003    5.836514074791412E-041
 -7.800000000000000E-003    5.990521992733417E-041
 -7.699999999999999E-003    4.817624276335466E-041
 -7.599999999999999E-003    1.948332795068342E-041
 -7.499999999999999E-003   -2.766393449678393E-041
 -7.399999999999999E-003   -9.114266973194345E-041
 -7.299999999999999E-003   -1.639841115846197E-040
 -7.199999999999999E-003   -2.337019253746448E-040
 -7.100000000000000E-003   -2.825991308056003E-040
 -6.999999999999999E-003   -2.894452519962108E-040
 -6.899999999999999E-003   -2.327693965969870E-040
 -6.800000000000000E-003   -9.575312332797951E-041
 -6.699999999999999E-003    1.276756375341087E-040
 -6.599999999999999E-003    4.264268549947437E-040
 -6.499999999999999E-003    7.668560112937813E-040
 -6.399999999999999E-003    1.090120796513871E-039
 -6.299999999999999E-003    1.314181228464787E-039
 -6.199999999999999E-003    1.342077554418628E-039
 -6.100000000000000E-003    1.077448820402619E-039
 -5.999999999999999E-003    4.469691764481483E-040
 -5.899999999999999E-003   -5.723692398254060E-040
 -5.800000000000000E-003   -1.925223161405796E-039
 -5.699999999999999E-003   -3.455265544119877E-039
 -5.599999999999999E-003   -4.895568065631257E-039
 -5.499999999999999E-003   -5.880020368613301E-039
 -5.399999999999999E-003   -5.982503771870920E-039
 -5.299999999999999E-003   -4.787121659321250E-039
 -5.199999999999999E-003   -1.987127948199738E-039
 -5.099999999999999E-003    2.497446534326469E-039
 -4.999999999999999E-003    8.402098796216488E-039
 -4.899999999999999E-003    1.502685508536775E-038
 -4.799999999999999E-003    2.120426201911356E-038
 -4.699999999999999E-003    2.535917768617099E-038
 -4.599999999999999E-003    2.568643781998995E-038
 -4.499999999999999E-003    2.045688931448244E-038
 -4.399999999999999E-003    8.437693624923710E-039
 -4.299999999999999E-003   -1.061911080597873E-038
 -4.199999999999999E-003   -3.550076081556732E-038
 -4.099999999999999E-003   -6.318301045695519E-038
 -3.999999999999999E-003   -8.873605443059561E-038
 -3.899999999999999E-003   -1.056163611001410E-037
 -3.799999999999999E-003   -1.064409765047894E-037
 -3.699999999999999E-003   -8.427309851767954E-038
 -3.599999999999999E-003   -3.434502221107560E-038
 -3.499999999999999E-003    4.398368153067681E-038
 -3.399999999999999E-003    1.453711854325686E-037
 -3.299999999999999E-003    2.571961908608873E-037
 -3.199999999999999E-003    3.593355740318664E-037
 -3.099999999999999E-003    4.255064448117700E-037
 -2.999999999999999E-003    4.265143732732183E-037
 -2.899999999999999E-003    3.354660368325882E-037
 -2.799999999999999E-003    1.345930680747386E-037
 -2.699999999999999E-003   -1.771645487036844E-037
 -2.599999999999999E-003   -5.771771318737912E-037
 -2.499999999999999E-003   -1.014521049869365E-036
 -2.399999999999999E-003   -1.409711594239764E-036
 -2.299999999999999E-003   -1.660560666083508E-036
 -2.199999999999999E-003   -1.655311848219713E-036
 -2.099999999999999E-003   -1.293066397401895E-036
 -1.999999999999999E-003   -5.099238034947457E-037
 -1.899999999999999E-003    6.926075539434706E-037
 -1.799999999999999E-003    2.222217006219681E-036
 -1.699999999999999E-003    3.880108076915957E-036
 -1.599999999999999E-003    5.362206352657833E-036
 -1.499999999999999E-003    6.283551844873142E-036
 -1.399999999999999E-003    6.229568953027969E-036
 -1.299999999999999E-003    4.833503656028314E-036
 -1.199999999999999E-003    1.873381045036405E-036
 -1.099999999999999E-003   -2.624921706804023E-036
 -9.999999999999989E-004   -8.298323347476930E-036
 -8.999999999999990E-004   -1.439531362374866E-035
 -7.999999999999990E-004   -1.978830533419033E-035
 -6.999999999999989E-004   -2.307093547274595E-035
 -5.999999999999990E-004   -2.275149825205476E-035
 -4.999999999999989E-004   -1.753726721412827E-035
 -3.999999999999989E-004   -6.683046985206771E-036
 -2.999999999999989E-004    9.646370814438483E-036
 -1.999999999999989E-004    3.007181200283706E-035
 -9.999999999999892E-005    5.183960289143756E-035
  1.084202172485504E-018    7.089299668911164E-035
  1.000000000000011E-004    8.224522391842299E-035
  2.000000000000011E-004    8.068583393090728E-035
  3.000000000000011E-004    6.179282066910533E-035
  4.000000000000011E-004    2.314823719492669E-035
  5.000000000000011E-004   -3.442523997077486E-035
  6.000000000000011E-004   -1.058597038131673E-034
  7.000000000000011E-004   -1.813645319759915E-034
  8.000000000000011E-004   -2.467660229588278E-034
  9.000000000000012E-004   -2.848859075103504E-034
  1.000000000000001E-003   -2.780410329039268E-034
  1.100000000000001E-003   -2.115404613929224E-034
  1.200000000000001E-003   -7.780254013859465E-035
  1.300000000000001E-003    1.195483759237132E-034
  1.400000000000001E-003    3.624678011370122E-034
  1.500000000000001E-003    6.171398479773442E-034
  1.600000000000001E-003    8.354234550491184E-034
  1.700000000000001E-003    9.597734566422618E-034
  1.800000000000001E-003    9.318251406854725E-034
  1.900000000000001E-003    7.041343844076354E-034
  2.000000000000001E-003    2.537329209925522E-034
  2.100000000000001E-003   -4.046795499183495E-034
  2.200000000000001E-003   -1.208759319163518E-033
  2.300000000000001E-003   -2.044921766117225E-033
  2.400000000000001E-003   -2.754046828579014E-033
  2.500000000000001E-003   -3.148482768557830E-033
  2.600000000000001E-003   -3.040688368642824E-033
  2.700000000000001E-003   -2.281567506957147E-033
  2.800000000000001E-003   -8.038994729991601E-034
  2.900000000000001E-003    1.336330038665409E-033
  3.000000000000001E-003    3.929868084973206E-033
  3.100000000000001E-003    6.605328906360784E-033
  3.200000000000001E-003    8.850404682945655E-033
  3.300000000000001E-003    1.006882471699824E-032
  3.400000000000001E-003    9.673292305295028E-033
  3.500000000000001E-003    7.207355569932652E-033
  3.600000000000001E-003    2.480935388110031E-033
  3.700000000000001E-003   -4.303559891243716E-033
  3.800000000000001E-003   -1.246322752851576E-032
  3.900000000000001E-003   -2.081507255245830E-032
  4.000000000000001E-003   -2.775105556203883E-032
  4.100000000000001E-003   -3.142329733660192E-032
  4.200000000000001E-003   -3.003763071972380E-032
  4.300000000000001E-003   -2.223111688172699E-032
  4.400000000000001E-003   -7.484359226222767E-033
  4.500000000000001E-003    1.350337652739482E-032
  4.600000000000002E-003    3.856365417021006E-032
  4.700000000000001E-003    6.402306096096132E-032
  4.800000000000001E-003    8.495752376137701E-032
  4.900000000000002E-003    9.577752043926598E-032
  5.000000000000001E-003    9.113132988965770E-032
  5.100000000000001E-003    6.704544548284213E-032
  5.200000000000001E-003    2.214837025539346E-032
  5.300000000000002E-003   -4.124083525207126E-032
  5.400000000000001E-003   -1.164187788392088E-031
  5.500000000000001E-003   -1.922599126669097E-031
  5.600000000000002E-003   -2.540456040604680E-031
  5.700000000000001E-003   -2.852628960117142E-031
  5.800000000000001E-003   -2.703140317836394E-031
  5.900000000000002E-003   -1.978781311730563E-031
  6.000000000000001E-003   -6.445752116987207E-032
  6.100000000000001E-003    1.225381402528431E-031
  6.200000000000002E-003    3.429216144774385E-031
  6.300000000000002E-003    5.638102602128240E-031
  6.400000000000001E-003    7.422351566471173E-031
  6.500000000000001E-003    8.305242702970683E-031
  6.600000000000002E-003    7.842316996375345E-031
  6.700000000000001E-003    5.718141460342886E-031
  6.800000000000001E-003    1.846704679369628E-031
  6.900000000000002E-003   -3.543213454318871E-031
  7.000000000000001E-003   -9.858951191161955E-031
  7.100000000000001E-003   -1.615153472514975E-030
  7.200000000000002E-003   -2.119516365613747E-030
  7.300000000000002E-003   -2.364421332266824E-030
  7.400000000000001E-003   -2.225978468766322E-030
  7.500000000000001E-003   -1.618183878352937E-030
  7.600000000000002E-003   -5.207059541769861E-031
  7.700000000000001E-003    9.980146760680918E-031
  7.800000000000001E-003    2.768215305906503E-030
  7.900000000000001E-003    4.522309254986095E-030
  8.000000000000002E-003    5.918378867553714E-030
  8.100000000000001E-003    6.584844199914763E-030
  8.200000000000001E-003    6.183699064054308E-030
  8.300000000000002E-003    4.485345647134887E-030
  8.400000000000001E-003    1.443819307697488E-030
  8.500000000000002E-003   -2.742061349159198E-030
  8.600000000000002E-003   -7.597445424344060E-030
  8.700000000000001E-003   -1.238459065555370E-029
  8.800000000000002E-003   -1.617036066285373E-029
  8.900000000000002E-003   -1.795030365219149E-029
  9.000000000000001E-003   -1.682122901790970E-029
  9.100000000000002E-003   -1.218255590287257E-029
  9.200000000000002E-003   -3.935677246919380E-030
  9.300000000000001E-003    7.357569073073966E-030
  9.400000000000002E-003    2.039908799623386E-029
  9.500000000000001E-003    3.319874316390595E-029
  9.600000000000001E-003    4.326313259104474E-029
  9.700000000000002E-003    4.793238976596117E-029
  9.800000000000001E-003    4.484098675723600E-029
  9.900000000000001E-003    3.244817610399224E-029
  1.000000000000000E-002    1.055558743605303E-029
  1.010000000000000E-002   -1.929036465435954E-029
  1.020000000000000E-002   -5.361921540314840E-029
  1.030000000000000E-002   -8.717461837653815E-029
  1.040000000000000E-002   -1.134289790830061E-028
  1.050000000000000E-002   -1.254774292927061E-028
  1.060000000000000E-002   -1.172424618370785E-028
  1.070000000000000E-002   -8.484312817485492E-029
  1.080000000000000E-002   -2.791246576371368E-029
  1.090000000000000E-002    4.940040131546011E-029
  1.100000000000000E-002    1.380167235699206E-028
  1.110000000000000E-002    2.243364527513255E-028
  1.120000000000000E-002    2.916069682809703E-028
  1.130000000000000E-002    3.222448576494037E-028
  1.140000000000000E-002    3.009210767057010E-028
  1.150000000000000E-002    2.180257190407527E-028
  1.160000000000000E-002    7.295787168343140E-029
  1.170000000000000E-002   -1.234248371628468E-028
  1.180000000000000E-002   -3.478747178225281E-028
  1.190000000000000E-002   -5.659064975548728E-028
  1.200000000000000E-002   -7.353517539081732E-028
  1.210000000000000E-002   -8.122624098250851E-028
  1.220000000000000E-002   -7.586546786734701E-028
  1.230000000000000E-002   -5.511101626197449E-028
  1.240000000000000E-002   -1.888403707150312E-028
  1.250000000000000E-002    3.004304731392112E-028
  1.260000000000000E-002    8.584140740903057E-028
  1.270000000000000E-002    1.399384938875106E-027
  1.280000000000000E-002    1.819199710317194E-027
  1.290000000000000E-002    2.009999474001014E-027
  1.300000000000000E-002    1.879271027060045E-027
  1.310000000000000E-002    1.370801898139265E-027
  1.320000000000000E-002    4.840976828683482E-028
  1.330000000000000E-002   -7.117264996437291E-028
  1.340000000000000E-002   -2.073523724366364E-027
  1.350000000000000E-002   -3.392307629902913E-027
  1.360000000000000E-002   -4.415631500908713E-027
  1.370000000000000E-002   -4.883470452266520E-027
  1.380000000000000E-002   -4.574253587152239E-027
  1.390000000000000E-002   -3.354990746768844E-027
  1.400000000000000E-002   -1.227221969545720E-027
  1.410000000000000E-002    1.640708181445671E-027
  1.420000000000000E-002    4.904299885742807E-027
  1.430000000000000E-002    8.063700040475733E-027
  1.440000000000000E-002    1.051803791756255E-026
  1.450000000000000E-002    1.165129724691167E-026
  1.460000000000000E-002    1.094143087461409E-026
  1.470000000000000E-002    8.078166901746859E-027
  1.480000000000000E-002    3.069933616251845E-027
  1.490000000000000E-002   -3.682301410006019E-027
  1.500000000000000E-002   -1.136560363293710E-026
  1.510000000000000E-002   -1.880638049378991E-026
  1.520000000000000E-002   -2.459958401776672E-026
  1.530000000000000E-002   -2.731033503061044E-026
  1.540000000000000E-002   -2.572795019382903E-026
  1.550000000000000E-002   -1.913811560414522E-026
  1.560000000000000E-002   -7.567718218983380E-027
  1.570000000000000E-002    8.048651985974206E-027
  1.580000000000000E-002    2.582888449286327E-026
  1.590000000000000E-002    4.306653391869466E-026
  1.600000000000000E-002    5.653188205923435E-026
  1.610000000000000E-002    6.293667978415750E-026
  1.620000000000000E-002    5.951534821213992E-026
  1.630000000000000E-002    4.464350079027678E-026
  1.640000000000000E-002    1.839000107492336E-026
  1.650000000000000E-002   -1.711256156963364E-026
  1.660000000000000E-002   -5.758694021718699E-026
  1.670000000000000E-002   -9.689943760973656E-026
  1.680000000000000E-002   -1.277476923377114E-025
  1.690000000000000E-002   -1.427128539435103E-025
  1.700000000000000E-002   -1.355670953852937E-025
  1.710000000000000E-002   -1.026571388171145E-025
  1.720000000000000E-002   -4.413100523742721E-026
  1.730000000000000E-002    3.524765402942887E-026
  1.740000000000000E-002    1.259350680307500E-025
  1.750000000000000E-002    2.142648800908439E-025
  1.760000000000000E-002    2.839892187302971E-025
  1.770000000000000E-002    3.186193271116097E-025
  1.780000000000000E-002    3.043191695685999E-025
  1.790000000000000E-002    2.329531414055988E-025
  1.800000000000000E-002    1.047745014817924E-025
  1.810000000000000E-002   -6.980449200853680E-026
  1.820000000000000E-002   -2.698751641477752E-025
  1.830000000000000E-002   -4.654956882883644E-025
  1.840000000000000E-002   -6.210786545922670E-025
  1.850000000000000E-002   -7.005085678162339E-025
  1.860000000000000E-002   -6.734440502099492E-025
  1.870000000000000E-002   -5.219321796420351E-025