 -4.000000000000000E-002    0.000000000000000E+000
 -3.990000000000000E-002    0.000000000000000E+000
 -3.980000000000000E-002    0.000000000000000E+000
 -3.970000000000000E-002    0.000000000000000E+000
 -3.960000000000000E-002    0.000000000000000E+000
 -3.950000000000000E-002    0.000000000000000E+000
 -3.940000000000000E-002    0.000000000000000E+000
 -3.930000000000000E-002    0.000000000000000E+000
 -3.920000000000000E-002    0.000000000000000E+000
 -3.910000000000000E-002    0.000000000000000E+000
 -3.900000000000000E-002    0.000000000000000E+000
 -3.890000000000000E-002    0.000000000000000E+000
 -3.880000000000000E-002    0.000000000000000E+000
 -3.870000000000000E-002    0.000000000000000E+000
 -3.860000000000000E-002    0.000000000000000E+000
 -3.850000000000000E-002    0.000000000000000E+000
 -3.840000000000000E-002    0.000000000000000E+000
 -3.830000000000000E-002    0.000000000000000E+000
 -3.820000000000000E-002    0.000000000000000E+000
 -3.810000000000000E-002    0.000000000000000E+000
 -3.800000000000000E-002    0.000000000000000E+000
 -3.790000000000000E-002    0.000000000000000E+000
 -3.780000000000000E-002    0.000000000000000E+000
 -3.770000000000000E-002    0.000000000000000E+000
 -3.760000000000000E-002    0.000000000000000E+000
 -3.750000000000000E-002    0.000000000000000E+000
 -3.740000000000000E-002    0.000000000000000E+000
 -3.730000000000000E-002    0.000000000000000E+000
 -3.720000000000000E-002    0.000000000000000E+000
 -3.710000000000000E-002    0.000000000000000E+000
 -3.700000000000000E-002    0.000000000000000E+000
 -3.690000000000000E-002    0.000000000000000E+000
 -3.680000000000000E-002   -6.414635304221270E-048
 -3.670000000000000E-002   -1.282927060844254E-047
 -3.660000000000000E-002   -4.839032350991335E-047
 -3.650000000000000E-002   -6.664546961245475E-047
 -3.640000000000000E-002   -2.008712565819721E-046
 -3.630000000000000E-002   -5.777309501988823E-046
 -3.620000000000000E-002   -2.300893382100804E-046
 -3.610000000000000E-002    9.416911207253085E-046
 -3.600000000000000E-002    4.444886937759232E-045
 -3.590000000000000E-002    1.626460675132698E-044
 -3.580000000000000E-002    4.809754182349386E-044
 -3.570000000000000E-002    1.307007330328400E-043
 -3.560000000000000E-002    3.239992977991056E-043
 -3.550000000000000E-002    7.382599860912446E-043
 -3.540000000000000E-002    1.547124099079875E-042
 -3.530000000000000E-002    2.957735315369086E-042
 -3.520000000000000E-002    5.058714371118785E-042
 -3.510000000000000E-002    7.351884435421653E-042
 -3.500000000000000E-002    7.674368092170928E-042
 -3.490000000000000E-002    1.336287537396633E-044
 -3.480000000000000E-002   -2.933658592205982E-041
 -3.470000000000000E-002   -1.075839928557272E-040
 -3.460000000000000E-002   -2.824740242408313E-040
 -3.450000000000000E-002   -6.271257510384964E-040
 -3.440000000000000E-002   -1.233884041946121E-039
 -3.430000000000000E-002   -2.179324925623982E-039
 -3.420000000000000E-002   -3.429609092220128E-039
 -3.410000000000000E-002   -4.640942913137710E-039
 -3.400000000000000E-002   -4.801741289380680E-039
 -3.390000000000000E-002   -1.677571621350398E-039
 -3.380000000000000E-002    8.914140169575576E-039
 -3.370000000000000E-002    3.381321343255315E-038
 -3.360000000000000E-002    8.272212528784196E-038
 -3.350000000000000E-002    1.669394586368555E-037
 -3.340000000000000E-002    2.950109229411157E-037
 -3.330000000000000E-002    4.630190802467031E-037
 -3.320000000000000E-002    6.368844781163269E-037
 -3.310000000000000E-002    7.246829884677818E-037
 -3.300000000000000E-002    5.396220581705382E-037
 -3.290000000000000E-002   -2.397103958998242E-037
 -3.280000000000000E-002   -2.094564741968681E-036
 -3.270000000000000E-002   -5.643468819664641E-036
 -3.260000000000000E-002   -1.151858034278287E-035
 -3.250000000000000E-002   -2.006823401117011E-035
 -3.240000000000000E-002   -3.080452012451503E-035
 -3.230000000000000E-002   -4.153475049432263E-035
 -3.220000000000000E-002   -4.718871497110866E-035
 -3.210000000000000E-002   -3.850806455362491E-035
 -3.200000000000000E-002   -1.024355004856197E-036
 -3.190000000000000E-002    8.487917416088337E-035
 -3.180000000000000E-002    2.415892469715978E-034
 -3.170000000000000E-002    4.879448468046456E-034
 -3.160000000000000E-002    8.272283533058644E-034
 -3.150000000000000E-002    1.228178476784792E-033
 -3.140000000000000E-002    1.599223319729672E-033
 -3.130000000000000E-002    1.759075401721550E-033
 -3.120000000000000E-002    1.411525306368635E-033
 -3.110000000000000E-002    1.386018325953057E-034
 -3.100000000000000E-002   -2.566659096828456E-033
 -3.090000000000000E-002   -7.200762074409429E-033
 -3.080000000000000E-002   -1.405531187786877E-032
 -3.070000000000000E-002   -2.290755254372806E-032
 -3.060000000000000E-002   -3.259911523276696E-032
 -3.050000000000000E-002   -4.054957525864133E-032
 -3.040000000000000E-002   -4.231750817918001E-032
 -3.030000000000000E-002   -3.140608146077597E-032
 -3.020000000000000E-002    3.997544502711714E-034
 -3.010000000000000E-002    6.181001415629021E-032
 -3.000000000000000E-002    1.595621674140378E-031
 -2.990000000000000E-002    2.944660743473430E-031
 -2.980000000000000E-002    4.560109718961309E-031
 -2.970000000000000E-002    6.161001648807372E-031
 -2.960000000000000E-002    7.232273283401052E-031
 -2.950000000000000E-002    6.993265639647559E-031
 -2.940000000000000E-002    4.424479797260192E-031
 -2.930000000000000E-002   -1.609595272742501E-031
 -2.920000000000000E-002   -1.210462563137032E-030
 -2.910000000000000E-002   -2.750373949688770E-030
 -2.900000000000000E-002   -4.713464935716636E-030
 -2.890000000000000E-002   -6.855426978511702E-030
 -2.880000000000000E-002   -8.692939670068502E-030
 -2.870000000000000E-002   -9.466487151634319E-030
 -2.860000000000000E-002   -8.157037404914506E-030
 -2.850000000000000E-002   -3.590396043392686E-030
 -2.840000000000000E-002    5.338695694881507E-030
 -2.830000000000000E-002    1.930335937037106E-029
 -2.820000000000000E-002    3.804967977324249E-029
 -2.810000000000000E-002    5.982070531974428E-029
 -2.800000000000000E-002    8.080697932070143E-029
 -2.790000000000000E-002    9.479607373297392E-029
 -2.780000000000000E-002    9.325134077049682E-029
 -2.770000000000000E-002    6.608116042565666E-029
 -2.760000000000000E-002    3.337691634426294E-030
 -2.750000000000000E-002   -1.020195743916349E-028
 -2.740000000000000E-002   -2.503647810748085E-028
 -2.730000000000000E-002   -4.310360484546634E-028
 -2.720000000000000E-002   -6.181428528099177E-028
 -2.710000000000000E-002   -7.677771545635199E-028
 -2.700000000000000E-002   -8.182264937144353E-028
 -2.690000000000000E-002   -6.949554605596955E-028
 -2.680000000000000E-002   -3.219229015883342E-028
 -2.670000000000000E-002    3.599324809805810E-028
 -2.660000000000000E-002    1.367582085070851E-027
 -2.650000000000000E-002    2.646746731919041E-027
 -2.640000000000000E-002    4.043775559853648E-027
 -2.630000000000000E-002    5.286287626724865E-027
 -2.620000000000000E-002    5.982416424186738E-027
 -2.610000000000000E-002    5.649294012568753E-027
 -2.600000000000000E-002    3.779924109782902E-027
 -2.590000000000000E-002   -4.698269792795567E-029
 -2.580000000000000E-002   -6.017824915202934E-027
 -2.570000000000000E-002   -1.391089110838873E-026
 -2.560000000000000E-002   -2.292842576733335E-026
 -2.550000000000000E-002   -3.157747202038075E-026
 -2.540000000000000E-002   -3.765383959918927E-026
 -2.530000000000000E-002   -3.838651626961494E-026
 -2.520000000000000E-002   -3.079082500121420E-026
 -2.510000000000000E-002   -1.225274803191876E-026
 -2.500000000000000E-002    1.867670141693834E-026
 -2.490000000000000E-002    6.135884929193529E-026
 -2.480000000000000E-002    1.121686826062172E-025
 -2.470000000000000E-002    1.638413014896070E-025
 -2.460000000000000E-002    2.053342313777552E-025
 -2.450000000000000E-002    2.224861604886448E-025
 -2.440000000000000E-002    1.997009280897307E-025
 -2.430000000000000E-002    1.227568304950877E-025
 -2.420000000000000E-002   -1.737200845769794E-026
 -2.410000000000000E-002   -2.200792380100017E-025
 -2.400000000000000E-002   -4.707957666412926E-025
 -2.390000000000000E-002   -7.377896231972655E-025
 -2.380000000000000E-002   -9.713277748618021E-025
 -2.370000000000000E-002   -1.106447435643832E-024
 -2.360000000000000E-002   -1.070325179077852E-024
 -2.350000000000000E-002   -7.946380000388029E-025
 -2.340000000000000E-002   -2.323556766723512E-025
 -2.330000000000000E-002    6.228191909677893E-025
 -2.320000000000000E-002    1.717510286743457E-024
 -2.310000000000000E-002    2.924604869307147E-024
 -2.300000000000000E-002    4.039221562220801E-024
 -2.290000000000000E-002    4.789817673646773E-024
 -2.280000000000000E-002    4.868344573255532E-024
 -2.270000000000000E-002    3.980787045969833E-024
 -2.260000000000000E-002    1.915534266829180E-024
 -2.250000000000000E-002   -1.377948236468402E-024
 -2.240000000000000E-002   -5.712944026385448E-024
 -2.230000000000000E-002   -1.060924811605521E-023
 -2.220000000000000E-002   -1.527695013028196E-023
 -2.210000000000000E-002   -1.865970367348228E-023
 -2.200000000000000E-002   -1.955172675173887E-023
 -2.190000000000000E-002   -1.679262795056589E-023
 -2.180000000000000E-002   -9.528899799453470E-024
 -2.170000000000000E-002    2.487541577392514E-024
 -2.160000000000000E-002    1.861287474407207E-023
 -2.150000000000000E-002    3.710218405443273E-023
 -2.140000000000000E-002    5.505127129664545E-023
 -2.130000000000000E-002    6.855916937537183E-023
 -2.120000000000000E-002    7.316038998971151E-023
 -2.110000000000000E-002    6.453779317221449E-023
 -2.100000000000000E-002    3.947146135893571E-023
 -2.090000000000000E-002   -3.086424513328058E-024
 -2.080000000000000E-002   -6.098795824397752E-023
 -2.070000000000000E-002   -1.281480975287536E-022
 -2.060000000000000E-002   -1.943418808855881E-022
 -2.050000000000000E-002   -2.457769890118425E-022
 -2.040000000000000E-002   -2.666038307578012E-022
 -2.030000000000000E-002   -2.413886326066157E-022
 -2.020000000000000E-002   -1.583871575269779E-022
 -2.010000000000000E-002   -1.323543881883875E-023
 -2.000000000000000E-002    1.875459198345853E-022
 -1.990000000000000E-002    4.240086617548355E-022
 -1.980000000000000E-002    6.620405304516838E-022
 -1.970000000000000E-002    8.552080179998249E-022
 -1.960000000000000E-002    9.496908993100435E-022
 -1.950000000000000E-002    8.923723717417827E-022
 -1.940000000000000E-002    6.415406515121365E-022
 -1.930000000000000E-002    1.789499352217291E-022
 -1.920000000000000E-002   -4.786928164118249E-022
 -1.910000000000000E-002   -1.271273153893136E-021
 -1.900000000000000E-002   -2.092505056958515E-021
 -1.890000000000000E-002   -2.795254315200170E-021
 -1.880000000000000E-002   -3.206530672397940E-021
 -1.870000000000000E-002   -3.152323043344815E-021
 -1.860000000000000E-002   -2.490601730840455E-021
 -1.850000000000000E-002   -1.148668175224068E-021
 -1.840000000000000E-002    8.409917379386064E-022
 -1.830000000000000E-002    3.313735042133747E-021
 -1.820000000000000E-002    5.962597784986200E-021
 -1.810000000000000E-002    8.352060876807608E-021
 -1.800000000000000E-002    9.960412150154348E-021
 -1.790000000000000E-002    1.025132113285627E-020
 -1.780000000000000E-002    8.769746076033109E-021
 -1.770000000000000E-002    5.251306569787084E-021
 -1.760000000000000E-002   -2.716417129808578E-022
 -1.750000000000000E-002   -7.388197598827676E-021
 -1.740000000000000E-002   -1.527390659448837E-020
 -1.730000000000000E-002   -2.272270564752828E-020
 -1.720000000000000E-002   -2.825915210560411E-020
 -1.710000000000000E-002   -3.033286190987370E-020
 -1.700000000000000E-002   -2.758228173690729E-020
 -1.690000000000000E-002   -1.913809095829360E-020
 -1.680000000000000E-002   -4.920955172041414E-021
 -1.670000000000000E-002    1.412330159363446E-020
 -1.660000000000000E-002    3.591205848493945E-020
 -1.650000000000000E-002    5.729235507973996E-020
 -1.640000000000000E-002    7.432199866458840E-020
 -1.630000000000000E-002    8.277174043350691E-020
 -1.620000000000000E-002    7.881564377170371E-020
 -1.610000000000000E-002    5.983340331878045E-020
 -1.600000000000000E-002    2.520720998833261E-020
 -1.590000000000000E-002   -2.303427439106912E-020
 -1.580000000000000E-002   -7.988291636410148E-020
 -1.570000000000000E-002   -1.374714084374158E-019
 -1.560000000000000E-002   -1.857428558537638E-019
 -1.550000000000000E-002   -2.136907285367983E-019
 -1.540000000000000E-002   -2.110901484924472E-019
 -1.530000000000000E-002   -1.705332301035879E-019
 -1.520000000000000E-002   -8.947707439894381E-020
 -1.510000000000000E-002    2.806219732377661E-020
 -1.500000000000000E-002    1.705642461570106E-019
 -1.490000000000000E-002    3.191662720019097E-019
 -1.480000000000000E-002    4.491780062878117E-019
 -1.470000000000000E-002    5.330147831996219E-019
 -1.460000000000000E-002    5.443725102298859E-019
 -1.450000000000000E-002    4.632027966429758E-019
 -1.440000000000000E-002    2.807968075475295E-019
 -1.430000000000000E-002    4.098527118627237E-021
 -1.420000000000000E-002   -3.417051047159749E-019
 -1.410000000000000E-002   -7.131913381905302E-019
 -1.400000000000000E-002   -1.051922543265432E-018
 -1.390000000000000E-002   -1.291078654014761E-018
 -1.380000000000000E-002   -1.365134905682605E-018
 -1.370000000000000E-002   -1.221599050782523E-018
 -1.360000000000000E-002   -8.332273868046512E-019
 -1.350000000000000E-002   -2.086896549800714E-019
 -1.340000000000000E-002    6.005391709708727E-019
 -1.330000000000000E-002    1.499132819093495E-018
 -1.320000000000000E-002    2.354231361400667E-018
 -1.310000000000000E-002    3.009695341380933E-018
 -1.300000000000000E-002    3.307622633135399E-018
 -1.290000000000000E-002    3.115030483934356E-018
 -1.280000000000000E-002    2.352249257810321E-018
 -1.270000000000000E-002    1.018516130111012E-018
 -1.260000000000000E-002   -7.902606244954508E-019
 -1.250000000000000E-002   -2.876332632505738E-018
 -1.240000000000000E-002   -4.951176483969220E-018
 -1.230000000000000E-002   -6.664432391298456E-018
 -1.220000000000000E-002   -7.649628941052559E-018
 -1.210000000000000E-002   -7.582516266002086E-018
 -1.200000000000000E-002   -6.244778095631137E-018
 -1.190000000000000E-002   -3.583457453025850E-018
 -1.180000000000000E-002    2.448927758983322E-019
 -1.170000000000000E-002    4.855997205887164E-018
 -1.160000000000000E-002    9.654068961743053E-018
 -1.150000000000000E-002    1.388689946220777E-017
 -1.140000000000000E-002    1.673853663264557E-017
 -1.130000000000000E-002    1.745177108169048E-017
 -1.120000000000000E-002    1.546594512053439E-017
 -1.110000000000000E-002    1.055016766327043E-017
 -1.100000000000000E-002    2.908714723260391E-018
 -1.090000000000000E-002   -6.764536841992911E-018
 -1.080000000000000E-002   -1.730193786222145E-017
 -1.070000000000000E-002   -2.715948152549860E-017
 -1.060000000000000E-002   -3.459583473699516E-017
 -1.050000000000000E-002   -3.791934927843366E-017
 -1.040000000000000E-002   -3.577554077276814E-017
 -1.030000000000000E-002   -2.743535285822280E-017
 -1.020000000000000E-002   -1.303677112729012E-017
 -1.010000000000000E-002    6.269031978567123E-018
 -1.000000000000000E-002    2.830960198825626E-017
 -9.899999999999999E-003    5.004876190852216E-017
 -9.800000000000000E-003    6.791575162459180E-017
 -9.699999999999999E-003    7.828449673484086E-017
 -9.599999999999999E-003    7.805283259170744E-017
 -9.500000000000000E-003    6.524583035082894E-017
 -9.399999999999999E-003    3.954908873296162E-017
 -9.299999999999999E-003    2.671786063247166E-018
 -9.200000000000000E-003   -4.155130669938129E-017
 -9.099999999999999E-003   -8.738407910794091E-017
 -8.999999999999999E-003   -1.277632964460317E-016
 -8.900000000000000E-003   -1.551938586696639E-016
 -8.799999999999999E-003   -1.628787436979148E-016
 -8.699999999999999E-003   -1.459432109682671E-016
 -8.600000000000000E-003   -1.025722420798720E-016
 -8.499999999999999E-003   -3.486122063387184E-017
 -8.399999999999999E-003    5.080965223747774E-017
 -8.300000000000000E-003    1.440229954272996E-016
 -8.199999999999999E-003    2.312666867807589E-016
 -8.100000000000000E-003    2.975427573419140E-016
 -8.000000000000000E-003    3.285030098411938E-016
 -7.899999999999999E-003    3.128615214734281E-016
 -7.800000000000000E-003    2.447451376721607E-016
 -7.699999999999999E-003    1.255937397779866E-016
 -7.599999999999999E-003   -3.477346071194696E-017
 -7.499999999999999E-003   -2.182441810418964E-016
 -7.399999999999999E-003   -3.998386752660562E-016
 -7.299999999999999E-003   -5.504802893385873E-016
 -7.199999999999999E-003   -6.409034011906879E-016
 -7.100000000000000E-003   -6.462691764607934E-016
 -6.999999999999999E-003   -5.508774392734052E-016
 -6.899999999999999E-003   -3.522376720863330E-016
 -6.800000000000000E-003   -6.374181355806570E-017
 -6.699999999999999E-003    2.847272306439713E-016
 -6.599999999999999E-003    6.486994973892159E-016
 -6.499999999999999E-003    9.736590436198150E-016
 -6.399999999999999E-003    1.201948068006213E-015
 -6.299999999999999E-003    1.281335801171072E-015
 -6.199999999999999E-003    1.174173874482612E-015
 -6.100000000000000E-003    8.657839682876545E-016
 -5.999999999999999E-003    3.706197413300058E-016
 -5.899999999999999E-003   -2.651436460719692E-016
 -5.800000000000000E-003   -9.655969374755421E-016
 -5.699999999999999E-003   -1.632104036268095E-015
 -5.599999999999999E-003   -2.155049017828987E-015
 -5.499999999999999E-003   -2.429248069468101E-015
 -5.399999999999999E-003   -2.371189551711662E-015
 -5.299999999999999E-003   -1.935678929695327E-015
 -5.199999999999999E-003   -1.129165392807618E-015
 -5.099999999999999E-003   -1.710538002657873E-017
 -4.999999999999999E-003    1.276757993605589E-015
 -4.899999999999999E-003    2.580395496399480E-015
 -4.799999999999999E-003    3.692685408213131E-015
 -4.699999999999999E-003    4.410241169335689E-015
 -4.599999999999999E-003    4.558876092016298E-015
 -4.499999999999999E-003    4.025481077372076E-015
 -4.399999999999999E-003    2.785364853958648E-015
 -4.299999999999999E-003    9.200390654691467E-016
 -4.199999999999999E-003   -1.378856969296459E-015
 -4.099999999999999E-003   -3.822277574500516E-015
 -3.999999999999999E-003   -6.053739539504576E-015
 -3.899999999999999E-003   -7.694513663703583E-015
 -3.799999999999999E-003   -8.399302222031407E-015
 -3.699999999999999E-003   -7.915263955056609E-015
 -3.599999999999999E-003   -6.135644414151950E-015
 -3.499999999999999E-003   -3.138752613252919E-015
 -3.399999999999999E-003    7.960688690819424E-016
 -3.299999999999999E-003    5.201503120560064E-015
 -3.199999999999999E-003    9.466682053656114E-015
 -3.099999999999999E-003    1.291076694627863E-014
 -2.999999999999999E-003    1.487852316616746E-014
 -2.899999999999999E-003    1.484620105081600E-014
 -2.799999999999999E-003    1.252266706656808E-014
 -2.699999999999999E-003    7.929213399090374E-015
 -2.599999999999999E-003    1.442373186139061E-015
 -2.499999999999999E-003   -6.212427785718877E-015
 -2.399999999999999E-003   -1.402263353725688E-014
 -2.299999999999999E-003   -2.080419790184666E-014
 -2.199999999999999E-003   -2.536086610047521E-014
 -2.099999999999999E-003   -2.666846948680206E-014
 -1.999999999999999E-003   -2.405907315883544E-014
 -1.899999999999999E-003   -1.737606976514335E-014
 -1.799999999999999E-003   -7.071781591698169E-015
 -1.699999999999999E-003    5.775940482958204E-015
 -1.599999999999999E-003    1.954232213615440E-014
 -1.499999999999999E-003    3.223067610763372E-014
 -1.399999999999999E-003    4.173022458744975E-014
 -1.299999999999999E-003    4.612798133695619E-014
 -1.199999999999999E-003    4.403369515377239E-014
 -1.099999999999999E-003    3.486878276954741E-014
 -9.999999999999989E-004    1.906913273518528E-014
 -8.999999999999990E-004   -1.841881214616757E-015
 -7.999999999999990E-004   -2.533960749457500E-014
 -6.999999999999989E-004   -4.815209751498647E-014
 -5.999999999999990E-004   -6.666523654891655E-014
 -4.999999999999989E-004   -7.743652868298888E-014
 -3.999999999999989E-004   -7.775228015601042E-014
 -2.999999999999989E-004   -6.614716951389503E-014
 -1.999999999999989E-004   -4.280004497808355E-014
 -9.999999999999892E-005   -9.727674294550971E-015
  1.084202172485504E-018    2.928101218314381E-014
  1.000000000000011E-004    6.901456952952315E-014
  2.000000000000011E-004    1.034560341924239E-013
  3.000000000000011E-004    1.266067780189979E-013
  4.000000000000011E-004    1.334163383500108E-013
  5.000000000000011E-004    1.206875274700864E-013
  6.000000000000011E-004    8.781295673974358E-014
  7.000000000000011E-004    3.720643710413790E-014
  8.000000000000011E-004   -2.567735569920332E-014
  9.000000000000012E-004   -9.279139339738465E-014
  1.000000000000001E-003   -1.544036821360769E-013
  1.100000000000001E-003   -2.003814179203937E-013
  1.200000000000001E-003   -2.217011841837572E-013
  1.300000000000001E-003   -2.119792903571267E-013
  1.400000000000001E-003   -1.687879054758350E-013
  1.500000000000001E-003   -9.452591070466922E-014
  1.600000000000001E-003    3.346552102282893E-015
  1.700000000000001E-003    1.128252259565040E-013
  1.800000000000001E-003    2.186446459647115E-013
  1.900000000000001E-003    3.042224044309566E-013
  2.000000000000001E-003    3.540457303394591E-013
  2.100000000000001E-003    3.561856079674841E-013
  2.200000000000001E-003    3.045648211849290E-013
  2.300000000000001E-003    2.005993209007742E-013
  2.400000000000001E-003    5.388322359365837E-014
  2.500000000000001E-003   -1.183037311421744E-013
  2.600000000000001E-003   -2.927317158442326E-013
  2.700000000000001E-003   -4.430798139387648E-013
  2.800000000000001E-003   -5.436104931776311E-013
  2.900000000000001E-003   -5.731889469250202E-013
  3.000000000000001E-003   -5.190669562268697E-013
  3.100000000000001E-003   -3.798196850674312E-013
  3.200000000000001E-003   -1.668825122395515E-013
  3.300000000000001E-003    9.571279041216820E-014
  3.400000000000001E-003    3.735704958118775E-013
  3.500000000000001E-003    6.260159000946446E-013
  3.600000000000001E-003    8.116161955503945E-013
  3.700000000000001E-003    8.944505086353702E-013
  3.800000000000001E-003    8.502471199638012E-013
  3.900000000000001E-003    6.714276587079827E-013
  4.000000000000001E-003    3.701562748519029E-013
  4.100000000000001E-003   -2.130317651664659E-014
  4.200000000000001E-003   -4.532774776491528E-013
  4.300000000000001E-003   -8.643511472466529E-013
  4.400000000000001E-003   -1.189469683935401E-012
  4.500000000000001E-003   -1.369501383929300E-012
  4.600000000000002E-003   -1.360949147780065E-012
  4.700000000000001E-003   -1.144331632449518E-012
  4.800000000000001E-003   -7.298009731973195E-013
  4.900000000000002E-003   -1.588270048660466E-013
  5.000000000000001E-003    4.987372508562458E-013
  5.100000000000001E-003    1.152259583065582E-012
  5.200000000000001E-003    1.701940621634407E-012
  5.300000000000002E-003    2.053078311232108E-012
  5.400000000000001E-003    2.131078880516639E-012
  5.500000000000001E-003    1.894990242317581E-012
  5.600000000000002E-003    1.347321744833556E-012
  5.700000000000001E-003    5.382489715062256E-013
  5.800000000000001E-003   -4.370293349945057E-013
  5.900000000000002E-003   -1.448100489733544E-012
  6.000000000000001E-003   -2.345553751729880E-012
  6.100000000000001E-003   -2.981783967242606E-012
  6.200000000000002E-003   -3.233669004754736E-012
  6.300000000000002E-003   -3.023840041247577E-012
  6.400000000000001E-003   -2.337141755972177E-012
  6.500000000000001E-003   -1.229266886606056E-012
  6.600000000000002E-003    1.745447060380728E-013
  6.700000000000001E-003    1.691564372229831E-012
  6.800000000000001E-003    3.103608597765448E-012
  6.900000000000002E-003    4.186697186471039E-012
  7.000000000000001E-003    4.744549565838830E-012
  7.100000000000001E-003    4.641180385664156E-012
  7.200000000000002E-003    3.827523871239311E-012
  7.300000000000002E-003    2.357424821315318E-012
  7.400000000000001E-003    3.895138846805604E-013
  7.500000000000001E-003   -1.826705344622357E-012
  7.600000000000002E-003   -3.979958895431722E-012
  7.700000000000001E-003   -5.738528617798176E-012
  7.800000000000001E-003   -6.798667969933030E-012
  7.900000000000001E-003   -6.933396546710335E-012
  8.000000000000002E-003   -6.034270153567695E-012
  8.100000000000001E-003   -4.139081866088086E-012
  8.200000000000001E-003   -1.439944733286047E-012
  8.300000000000002E-003    1.731332116226179E-012
  8.400000000000001E-003    4.940457969873768E-012
  8.500000000000002E-003    7.706930912875209E-012
  8.600000000000002E-003    9.572533177282090E-012
  8.700000000000001E-003    1.017277136143361E-011
  8.800000000000002E-003    9.300658948552169E-012
  8.900000000000002E-003    6.952424444073194E-012
  9.000000000000001E-003    3.346557482823126E-012
  9.100000000000002E-003   -1.089119776800882E-012
  9.200000000000002E-003   -5.763268511522176E-012
  9.300000000000001E-003   -9.995748334561075E-012
  9.400000000000002E-003   -1.311242410336797E-011
  9.500000000000001E-003   -1.454747288158290E-011
  9.600000000000001E-003   -1.393831970995328E-011
  9.700000000000002E-003   -1.119812795424166E-011
  9.800000000000001E-003   -6.552900394320268E-012
  9.900000000000001E-003   -5.344717419017451E-013
  1.000000000000000E-002    6.073360789939041E-012
  1.010000000000000E-002    1.233143267026996E-011
  1.020000000000000E-002    1.727356452020045E-011
  1.030000000000000E-002    2.004990389511291E-011
  1.040000000000000E-002    2.006482310205049E-011
  1.050000000000000E-002    1.708800948417479E-011
  1.060000000000000E-002    1.131968599416265E-011
  1.070000000000000E-002    3.396197984523992E-012
  1.080000000000000E-002   -5.669789364371949E-012
  1.090000000000000E-002   -1.461091000523972E-011
  1.100000000000000E-002   -2.207518099366923E-011
  1.110000000000000E-002   -2.682283854955201E-011
  1.120000000000000E-002   -2.792231314990094E-011
  1.130000000000000E-002   -2.491563351000419E-011
  1.140000000000000E-002   -1.792574594605557E-011
  1.150000000000000E-002   -7.684884017094839E-012
  1.160000000000000E-002    4.526760163736405E-012
  1.170000000000000E-002    1.702990199635061E-011
  1.180000000000000E-002    2.796715241191331E-011
  1.190000000000000E-002    3.556842971331736E-011
  1.200000000000000E-002    3.842430767798011E-011
  1.210000000000000E-002    3.572665919460887E-011
  1.220000000000000E-002    2.743770688313686E-011
  1.230000000000000E-002    1.435639582145173E-011
  1.240000000000000E-002   -1.935924866044406E-012
  1.250000000000000E-002   -1.925174702969633E-011
  1.260000000000000E-002   -3.507841897033269E-011
  1.270000000000000E-002   -4.692976351111024E-011
  1.280000000000000E-002   -5.272077478110647E-011
  1.290000000000000E-002   -5.111086241199169E-011
  1.300000000000000E-002   -4.176163790331083E-011
  1.310000000000000E-002   -2.546404692128350E-011
  1.320000000000000E-002   -4.105923693513387E-012
  1.330000000000000E-002    1.952708269385479E-011
  1.340000000000000E-002    4.209984895230122E-011
  1.350000000000000E-002    6.018422089709723E-011
  1.360000000000000E-002    7.076315108999183E-011
  1.370000000000000E-002    7.171054953192707E-011
  1.380000000000000E-002    6.217324853759177E-011
  1.390000000000000E-002    4.279083646741030E-011
  1.400000000000000E-002    1.570874882246613E-011
  1.410000000000000E-002   -1.563215356337789E-011
  1.420000000000000E-002   -4.691413842188351E-011
  1.430000000000000E-002   -7.352145951912950E-011
  1.440000000000000E-002   -9.120454187853006E-011
  1.450000000000000E-002   -9.673627412464687E-011
  1.460000000000000E-002   -8.846205154211974E-011
  1.470000000000000E-002   -6.665409071364212E-011
  1.480000000000000E-002   -3.360357491227286E-011
  1.490000000000000E-002    6.580893003969320E-012
  1.500000000000000E-002    4.845885732984405E-011
  1.510000000000000E-002    8.597440175569135E-011
  1.520000000000000E-002    1.133123405730924E-010
  1.530000000000000E-002    1.257760517786596E-010
  1.540000000000000E-002    1.205577111883885E-010
  1.550000000000000E-002    9.727908735843434E-011
  1.560000000000000E-002    5.820717683867048E-011
  1.570000000000000E-002    8.091013496969250E-012
  1.580000000000000E-002   -4.638090959280754E-011
  1.590000000000000E-002   -9.744657112933240E-011
  1.600000000000000E-002   -1.373520770661549E-010
  1.610000000000000E-002   -1.595019442564822E-010
  1.620000000000000E-002   -1.595113103073642E-010
  1.630000000000000E-002   -1.359971170654693E-010
  1.640000000000000E-002   -9.097381757916808E-011
  1.650000000000000E-002   -2.976942501687781E-011
  1.660000000000000E-002    3.955624803597095E-011
  1.670000000000000E-002    1.072361566112293E-010
  1.680000000000000E-002    1.631390190262117E-010
  1.690000000000000E-002    1.982510790743236E-010
  1.700000000000000E-002    2.060849179959432E-010
  1.710000000000000E-002    1.838010790010500E-010
  1.720000000000000E-002    1.328577611008992E-010
  1.730000000000000E-002    5.906234109100189E-011
  1.740000000000000E-002   -2.802017707499686E-011
  1.750000000000000E-002   -1.162538769679359E-010
  1.760000000000000E-002   -1.925745697207072E-010
  1.770000000000000E-002   -2.448722151739023E-010
  1.780000000000000E-002   -2.638484090483145E-010
  1.790000000000000E-002   -2.445717432411346E-010
  1.800000000000000E-002   -1.874810914376760E-010
  1.810000000000000E-002   -9.865458764289833E-011
  1.820000000000000E-002    1.074075023356205E-011
  1.830000000000000E-002    1.257872282023426E-010
  1.840000000000000E-002    2.297916484588522E-010
  1.850000000000000E-002    3.066440334700304E-010
  1.860000000000000E-002    3.432330392575510E-010
  1.870000000000000E-002    3.315649512760940E-010