 -4.000000000000000E-002    0.000000000000000E+000
 -3.990000000000000E-002    0.000000000000000E+000
 -3.980000000000000E-002    0.000000000000000E+000
 -3.970000000000000E-002    0.000000000000000E+000
 -3.960000000000000E-002    0.000000000000000E+000
 -3.950000000000000E-002    0.000000000000000E+000
 -3.940000000000000E-002    0.000000000000000E+000
 -3.930000000000000E-002    0.000000000000000E+000
 -3.920000000000000E-002    0.000000000000000E+000
 -3.910000000000000E-002    0.000000000000000E+000
 -3.900000000000000E-002    0.000000000000000E+000
 -3.890000000000000E-002    0.000000000000000E+000
 -3.880000000000000E-002    0.000000000000000E+000
 -3.870000000000000E-002    0.000000000000000E+000
 -3.860000000000000E-002    0.000000000000000E+000
 -3.850000000000000E-002    0.000000000000000E+000
 -3.840000000000000E-002    0.000000000000000E+000
 -3.830000000000000E-002    0.000000000000000E+000
 -3.820000000000000E-002    0.000000000000000E+000
 -3.810000000000000E-002    0.000000000000000E+000
 -3.800000000000000E-002    0.000000000000000E+000
 -3.790000000000000E-002    0.000000000000000E+000
 -3.780000000000000E-002    0.000000000000000E+000
 -3.770000000000000E-002    0.000000000000000E+000
 -3.760000000000000E-002    0.000000000000000E+000
 -3.750000000000000E-002    0.000000000000000E+000
 -3.740000000000000E-002    0.000000000000000E+000
 -3.730000000000000E-002    0.000000000000000E+000
 -3.720000000000000E-002    0.000000000000000E+000
 -3.710000000000000E-002    0.000000000000000E+000
 -3.700000000000000E-002    0.000000000000000E+000
 -3.690000000000000E-002    0.000000000000000E+000
 -3.680000000000000E-002    0.000000000000000E+000
 -3.670000000000000E-002    0.000000000000000E+000
 -3.660000000000000E-002    0.000000000000000E+000
 -3.650000000000000E-002    0.000000000000000E+000
 -3.640000000000000E-002    0.000000000000000E+000
 -3.630000000000000E-002    0.000000000000000E+000
 -3.620000000000000E-002    0.000000000000000E+000
 -3.610000000000000E-002    0.000000000000000E+000
 -3.600000000000000E-002    0.000000000000000E+000
 -3.590000000000000E-002    0.000000000000000E+000
 -3.580000000000000E-002    0.000000000000000E+000
 -3.570000000000000E-002    0.000000000000000E+000
 -3.560000000000000E-002    0.000000000000000E+000
 -3.550000000000000E-002    0.000000000000000E+000
 -3.540000000000000E-002    0.000000000000000E+000
 -3.530000000000000E-002    0.000000000000000E+000
 -3.520000000000000E-002    0.000000000000000E+000
 -3.510000000000000E-002    0.000000000000000E+000
 -3.500000000000000E-002    0.000000000000000E+000
 -3.490000000000000E-002    0.000000000000000E+000
 -3.480000000000000E-002   -6.335780588642965E-047
 -3.470000000000000E-002   -1.857969941231414E-046
 -3.460000000000000E-002   -5.381470764567605E-046
 -3.450000000000000E-002   -1.264296096356183E-045
 -3.440000000000000E-002   -2.618958204427971E-045
 -3.430000000000000E-002   -4.747170896098972E-045
 -3.420000000000000E-002   -7.293096217749985E-045
 -3.410000000000000E-002   -9.919212133982453E-045
 -3.400000000000000E-002   -8.045947923428138E-045
 -3.390000000000000E-002    4.956328961131820E-045
 -3.380000000000000E-002    4.396011618040766E-044
 -3.370000000000000E-002    1.342320432767643E-043
 -3.360000000000000E-002    3.123450630448118E-043
 -3.350000000000000E-002    6.219106232368824E-043
 -3.340000000000000E-002    1.091076990005850E-042
 -3.330000000000000E-002    1.686686769144593E-042
 -3.320000000000000E-002    2.217720472323300E-042
 -3.310000000000000E-002    2.180071677004830E-042
 -3.300000000000000E-002    5.390592090425485E-043
 -3.290000000000000E-002   -4.514506867446516E-042
 -3.280000000000000E-002   -1.571637680421003E-041
 -3.270000000000000E-002   -3.655922446833005E-041
 -3.260000000000000E-002   -7.036755581428021E-041
 -3.250000000000000E-002   -1.180156878407946E-040
 -3.240000000000000E-002   -1.735524047843726E-040
 -3.230000000000000E-002   -2.171102735688191E-040
 -3.220000000000000E-002   -2.051166043479921E-040
 -3.210000000000000E-002   -5.930013075871122E-041
 -3.200000000000000E-002    3.412368068023763E-040
 -3.190000000000000E-002    1.156463597410625E-039
 -3.180000000000000E-002    2.556632565893315E-039
 -3.170000000000000E-002    4.649300301442677E-039
 -3.160000000000000E-002    7.340860468403109E-039
 -3.150000000000000E-002    1.011649956435965E-038
 -3.140000000000000E-002    1.174187774440047E-038
 -3.130000000000000E-002    9.931137918516476E-039
 -3.120000000000000E-002    1.095367428441453E-039
 -3.110000000000000E-002   -1.961616780107553E-038
 -3.100000000000000E-002   -5.765479253847738E-038
 -3.090000000000000E-002   -1.173653399945257E-037
 -3.080000000000000E-002   -1.987864497117641E-037
 -3.070000000000000E-002   -2.926617226144933E-037
 -3.060000000000000E-002   -3.738053134976822E-037
 -3.050000000000000E-002   -3.938132237508263E-037
 -3.040000000000000E-002   -2.754369346440122E-037
 -3.030000000000000E-002    8.732182270004261E-038
 -3.020000000000000E-002    8.174660797767732E-037
 -3.010000000000000E-002    2.024307624648797E-036
 -3.000000000000000E-002    3.746680712335707E-036
 -2.990000000000000E-002    5.866036721601652E-036
 -2.980000000000000E-002    7.993062372952151E-036
 -2.970000000000000E-002    9.345030782524778E-036
 -2.960000000000000E-002    8.650889489637033E-036
 -2.950000000000000E-002    4.145368001702787E-036
 -2.940000000000000E-002   -6.262789691009554E-036
 -2.930000000000000E-002   -2.454919594358095E-035
 -2.920000000000000E-002   -5.176864514850800E-035
 -2.910000000000000E-002   -8.684568707841899E-035
 -2.900000000000000E-002   -1.250270173637836E-034
 -2.890000000000000E-002   -1.562368043224321E-034
 -2.880000000000000E-002   -1.638156929432459E-034
 -2.870000000000000E-002   -1.243984484667796E-034
 -2.860000000000000E-002   -9.928874928881504E-036
 -2.850000000000000E-002    2.070845485113427E-034
 -2.840000000000000E-002    5.441489276939381E-034
 -2.830000000000000E-002    9.949103470302706E-034
 -2.820000000000000E-002    1.511751897301371E-033
 -2.810000000000000E-002    1.987671967771641E-033
 -2.800000000000000E-002    2.242662575318041E-033
 -2.790000000000000E-002    2.022378022987005E-033
 -2.780000000000000E-002    1.018924393879464E-033
 -2.770000000000000E-002   -1.075960762369780E-033
 -2.760000000000000E-002   -4.477517347087135E-033
 -2.750000000000000E-002   -9.173216006758465E-033
 -2.740000000000000E-002   -1.475736522800330E-032
 -2.730000000000000E-002   -2.026282914154769E-032
 -2.720000000000000E-002   -2.403825804511576E-032
 -2.710000000000000E-002   -2.373971967456272E-032
 -2.700000000000000E-002   -1.651955834408734E-032
 -2.690000000000000E-002    5.058432256269358E-034
 -2.680000000000000E-002    2.945394576019751E-032
 -2.670000000000000E-002    7.054430534813784E-032
 -2.660000000000000E-002    1.207408452935656E-031
 -2.650000000000000E-002    1.724058712970959E-031
 -2.640000000000000E-002    2.123567049019984E-031
 -2.630000000000000E-002    2.218555491297379E-031
 -2.620000000000000E-002    1.781414018640223E-031
 -2.610000000000000E-002    5.806765344915487E-032
 -2.600000000000000E-002   -1.558238233766794E-031
 -2.590000000000000E-002   -4.669323441721859E-031
 -2.580000000000000E-002   -8.547951616778890E-031
 -2.570000000000000E-002   -1.265642323278313E-030
 -2.560000000000000E-002   -1.606095797715328E-030
 -2.550000000000000E-002   -1.743631982875946E-030
 -2.540000000000000E-002   -1.517763747959204E-030
 -2.530000000000000E-002   -7.653640463702308E-031
 -2.520000000000000E-002    6.382208671370473E-031
 -2.510000000000000E-002    2.723872426774360E-030
 -2.500000000000000E-002    5.365513321337033E-030
 -2.490000000000000E-002    8.221039966561430E-030
 -2.480000000000000E-002    1.069514488235881E-029
 -2.470000000000000E-002    1.194611433859204E-029
 -2.460000000000000E-002    1.095963119819660E-029
 -2.450000000000000E-002    6.708053893372901E-030
 -2.440000000000000E-002   -1.598226659962795E-030
 -2.430000000000000E-002   -1.418076106922410E-029
 -2.420000000000000E-002   -3.032515061506541E-029
 -2.410000000000000E-002   -4.804770517247714E-029
 -2.400000000000000E-002   -6.389891841171232E-029
 -2.390000000000000E-002   -7.302581018298814E-029
 -2.380000000000000E-002   -6.961422485694948E-029
 -2.370000000000000E-002   -4.780040384187276E-029
 -2.360000000000000E-002   -3.070519290146395E-030
 -2.350000000000000E-002    6.594446252021938E-029
 -2.340000000000000E-002    1.555159803498756E-028
 -2.330000000000000E-002    2.551032849741129E-028
 -2.320000000000000E-002    3.464135065549453E-028
 -2.310000000000000E-002    4.038506949162828E-028
 -2.300000000000000E-002    3.969347900577883E-028
 -2.290000000000000E-002    2.950784835177764E-028
 -2.280000000000000E-002    7.473211537612441E-029
 -2.270000000000000E-002   -2.716578954292193E-028
 -2.260000000000000E-002   -7.261303595502101E-028
 -2.250000000000000E-002   -1.237111825132042E-027
 -2.240000000000000E-002   -1.715321352884423E-027
 -2.230000000000000E-002   -2.036518873941364E-027
 -2.220000000000000E-002   -2.053648748880093E-027
 -2.210000000000000E-002   -1.619902334377855E-027
 -2.200000000000000E-002   -6.223663665435554E-028
 -2.190000000000000E-002    9.766924584561564E-028
 -2.180000000000000E-002    3.096963080643249E-027
 -2.170000000000000E-002    5.504781373834162E-027
 -2.160000000000000E-002    7.796833240152810E-027
 -2.150000000000000E-002    9.415019164174868E-027
 -2.140000000000000E-002    9.702810744662217E-027
 -2.130000000000000E-002    8.008465057761019E-027
 -2.120000000000000E-002    3.832088980299435E-027
 -2.110000000000000E-002   -2.997669498365635E-027
 -2.100000000000000E-002   -1.214432275477832E-026
 -2.090000000000000E-002   -2.262066382834875E-026
 -2.080000000000000E-002   -3.272958937388013E-026
 -2.070000000000000E-002   -4.013685923419098E-026
 -2.060000000000000E-002   -4.211457108056370E-026
 -2.050000000000000E-002   -3.597203300684118E-026
 -2.040000000000000E-002   -1.965591181294053E-026
 -2.030000000000000E-002    7.543365605300857E-027
 -2.020000000000000E-002    4.429091352460421E-026
 -2.010000000000000E-002    8.666808158352406E-026
 -2.000000000000000E-002    1.279766835512538E-025
 -1.990000000000000E-002    1.590659550765254E-025
 -1.980000000000000E-002    1.693175136673780E-025
 -1.970000000000000E-002    1.483331794411915E-025
 -1.960000000000000E-002    8.823499895667500E-026
 -1.950000000000000E-002   -1.368077545236063E-026
 -1.940000000000000E-002   -1.523698250621107E-025
 -1.930000000000000E-002   -3.131279472960996E-025
 -1.920000000000000E-002   -4.710017166354130E-025
 -1.910000000000000E-002   -5.921461855031638E-025
 -1.900000000000000E-002   -6.375719920353502E-025
 -1.890000000000000E-002   -5.693775613384957E-025
 -1.880000000000000E-002   -3.590699130536770E-025
 -1.870000000000000E-002    3.013518504202837E-027
 -1.860000000000000E-002    4.987614907247764E-025
 -1.850000000000000E-002    1.075875750587434E-024
 -1.840000000000000E-002    1.646246516388620E-024
 -1.830000000000000E-002    2.091176255515378E-024
 -1.820000000000000E-002    2.274811194609788E-024
 -1.810000000000000E-002    2.065901091999181E-024
 -1.800000000000000E-002    1.366316214264951E-024
 -1.790000000000000E-002    1.427942532016391E-025
 -1.780000000000000E-002   -1.543506742056333E-024
 -1.770000000000000E-002   -3.516488074836294E-024
 -1.760000000000000E-002   -5.480945154108974E-024
 -1.750000000000000E-002   -7.041205764988609E-024
 -1.740000000000000E-002   -7.746524566654406E-024
 -1.730000000000000E-002   -7.163024143401693E-024
 -1.720000000000000E-002   -4.966487774630202E-024
 -1.710000000000000E-002   -1.044159938664350E-024
 -1.700000000000000E-002    4.412043516740089E-024
 -1.690000000000000E-002    1.084253456398376E-023
 -1.680000000000000E-002    1.730983617710642E-023
 -1.670000000000000E-002    2.256037741458551E-023
 -1.660000000000000E-002    2.516922953159234E-023
 -1.650000000000000E-002    2.376553255130855E-023
 -1.640000000000000E-002    1.731949310773426E-023
 -1.630000000000000E-002    5.453456848268972E-024
 -1.620000000000000E-002   -1.127701621949894E-023
 -1.610000000000000E-002   -3.119707402989899E-023
 -1.600000000000000E-002   -5.148776080120629E-023
 -1.590000000000000E-002   -6.837728247674484E-023
 -1.580000000000000E-002   -7.757714238781923E-023
 -1.570000000000000E-002   -7.495257178149224E-023
 -1.560000000000000E-002   -5.736719848969778E-023
 -1.550000000000000E-002   -2.358975446240800E-023
 -1.540000000000000E-002    2.489509484439660E-023
 -1.530000000000000E-002    8.335782861823856E-023
 -1.520000000000000E-002    1.437630552580596E-022
 -1.510000000000000E-002    1.953256950097091E-022
 -1.500000000000000E-002    2.257574615530548E-022
 -1.490000000000000E-002    2.231637862117079E-022
 -1.480000000000000E-002    1.784145462166554E-022
 -1.470000000000000E-002    8.766928071491273E-023
 -1.460000000000000E-002   -4.538221784037722E-023
 -1.450000000000000E-002   -2.080730099663938E-022
 -1.440000000000000E-002   -3.786051167543188E-022
 -1.430000000000000E-002   -5.275795327436535E-022
 -1.420000000000000E-002   -6.213881325813164E-022
 -1.410000000000000E-002   -6.273387899589006E-022
 -1.400000000000000E-002   -5.200199952559568E-022
 -1.390000000000000E-002   -2.880412658968268E-022
 -1.380000000000000E-002    6.001973177054668E-023
 -1.370000000000000E-002    4.917966161649870E-022
 -1.360000000000000E-002    9.507287798171420E-022
 -1.350000000000000E-002    1.360058122580810E-021
 -1.340000000000000E-002    1.631647645098207E-021
 -1.330000000000000E-002    1.679246712402767E-021
 -1.320000000000000E-002    1.434893096215544E-021
 -1.310000000000000E-002    8.662208210224831E-022
 -1.300000000000000E-002   -8.310699958517876E-024
 -1.290000000000000E-002   -1.109622800745989E-021
 -1.280000000000000E-002   -2.296864712965927E-021
 -1.270000000000000E-002   -3.377316596632470E-021
 -1.260000000000000E-002   -4.128322552642396E-021
 -1.250000000000000E-002   -4.330246918814517E-021
 -1.240000000000000E-002   -3.807163890214816E-021
 -1.230000000000000E-002   -2.469748055929767E-021
 -1.220000000000000E-002   -3.530643697322581E-022
 -1.210000000000000E-002    2.358892031015358E-021
 -1.200000000000000E-002    5.329626107162468E-021
 -1.190000000000000E-002    8.093279114797362E-021
 -1.180000000000000E-002    1.010675031872162E-020
 -1.170000000000000E-002    1.082831584509709E-020
 -1.160000000000000E-002    9.814887035581219E-021
 -1.150000000000000E-002    6.824795474635788E-021
 -1.140000000000000E-002    1.908909566052104E-021
 -1.130000000000000E-002   -4.529000684598226E-021
 -1.120000000000000E-002   -1.172066856609402E-020
 -1.110000000000000E-002   -1.858386470853781E-020
 -1.100000000000000E-002   -2.384037797854763E-020
 -1.090000000000000E-002   -2.619591942896208E-020
 -1.080000000000000E-002   -2.456404376475971E-020
 -1.070000000000000E-002   -1.830441133472268E-020
 -1.060000000000000E-002   -7.436421812401911E-021
 -1.050000000000000E-002    7.214985955717969E-021
 -1.040000000000000E-002    2.398207723697748E-020
 -1.030000000000000E-002    4.045621857509254E-020
 -1.020000000000000E-002    5.374155610912563E-020
 -1.010000000000000E-002    6.084917959050640E-020
 -1.000000000000000E-002    5.919339178099896E-020
 -9.899999999999999E-003    4.712562089178995E-020
 -9.800000000000000E-003    2.442118858170491E-020
 -9.699999999999999E-003   -7.375709750884830E-021
 -9.599999999999999E-003   -4.483833375992634E-020
 -9.500000000000000E-003   -8.284341556619718E-020
 -9.399999999999999E-003   -1.150875504564288E-019
 -9.299999999999999E-003   -1.349133465816441E-019
 -9.200000000000000E-003   -1.363676603335976E-019
 -9.099999999999999E-003   -1.153580057739689E-019
 -8.999999999999999E-003   -7.072942797182405E-020
 -8.900000000000000E-003   -5.061807157891569E-021
 -8.799999999999999E-003    7.500439290054929E-020
 -8.699999999999999E-003    1.590639498972787E-019
 -8.600000000000000E-003    2.339376834236530E-019
 -8.499999999999999E-003    2.853282654069655E-019
 -8.399999999999999E-003    2.999917572685358E-019
 -8.300000000000000E-003    2.681601117582228E-019
 -8.199999999999999E-003    1.858555440400152E-019
 -8.100000000000000E-003    5.668720189578866E-020
 -8.000000000000000E-003   -1.072708373652096E-019
 -7.899999999999999E-003   -2.858426139409443E-019
 -7.800000000000000E-003   -4.525303818480799E-019
 -7.699999999999999E-003   -5.776831810557857E-019
 -7.599999999999999E-003   -6.327898262511549E-019
 -7.499999999999999E-003   -5.953927714986797E-019
 -7.399999999999999E-003   -4.539270110527758E-019
 -7.299999999999999E-003   -2.116683924192259E-019
 -7.199999999999999E-003    1.110229569302973E-019
 -7.100000000000000E-003    4.768469721999553E-019
 -6.999999999999999E-003    8.345105790856750E-019
 -6.899999999999999E-003    1.124503265671881E-018
 -6.800000000000000E-003    1.287269156300066E-018
 -6.699999999999999E-003    1.272874837566555E-018
 -6.599999999999999E-003    1.050865700112195E-018
 -6.499999999999999E-003    6.187398658033429E-019
 -6.399999999999999E-003    7.421309692873666E-021
 -6.299999999999999E-003   -7.176923020847361E-019
 -6.199999999999999E-003   -1.461059234651999E-018
 -6.100000000000000E-003   -2.106945649566262E-018
 -5.999999999999999E-003   -2.534393291647309E-018
 -5.899999999999999E-003   -2.635667530362368E-018
 -5.800000000000000E-003   -2.335836984016594E-018
 -5.699999999999999E-003   -1.610544354261471E-018
 -5.599999999999999E-003   -4.988153209383014E-019
 -5.499999999999999E-003    8.920017186423228E-019
 -5.399999999999999E-003    2.391304086776599E-018
 -5.299999999999999E-003    3.781229213604304E-018
 -5.199999999999999E-003    4.822906898294543E-018
 -5.099999999999999E-003    5.290572864851023E-018
 -4.999999999999999E-003    5.009482119533104E-018
 -4.899999999999999E-003    3.892276861316898E-018
 -4.799999999999999E-003    1.967827937142033E-018
 -4.699999999999999E-003   -6.032918597048272E-019
 -4.599999999999999E-003   -3.531373184696355E-018
 -4.499999999999999E-003   -6.420836049067281E-018
 -4.399999999999999E-003   -8.814027410910438E-018
 -4.299999999999999E-003   -1.025216245806694E-017
 -4.199999999999999E-003   -1.034674192112581E-017
 -4.099999999999999E-003   -8.852066756218378E-018
 -3.999999999999999E-003   -5.727709046668488E-018
 -3.899999999999999E-003   -1.179529344607340E-018
 -3.799999999999999E-003    4.330729618344132E-018
 -3.699999999999999E-003    1.011401021196812E-017
 -3.599999999999999E-003    1.532258861421281E-017
 -3.499999999999999E-003    1.905479662599728E-017
 -3.399999999999999E-003    2.048560893082519E-017
 -3.299999999999999E-003    1.900708349346157E-017
 -3.199999999999999E-003    1.435860461009519E-017
 -3.099999999999999E-003    6.724965844493084E-018
 -2.999999999999999E-003   -3.218086784175454E-018
 -2.899999999999999E-003   -1.432669929023226E-017
 -2.799999999999999E-003   -2.508781441564922E-017
 -2.699999999999999E-003   -3.379140699549864E-017
 -2.599999999999999E-003   -3.876156793910673E-017
 -2.499999999999999E-003   -3.862028610694900E-017
 -2.399999999999999E-003   -3.254866701635398E-017
 -2.299999999999999E-003   -2.050475528814140E-017
 -2.199999999999999E-003   -3.357183669906727E-018
 -2.099999999999999E-003    1.709972983308640E-017
 -1.999999999999999E-003    3.827114469668418E-017
 -1.899999999999999E-003    5.703069048170784E-017
 -1.799999999999999E-003    7.011514115825049E-017
 -1.699999999999999E-003    7.460423872056564E-017
 -1.599999999999999E-003    6.842540819566237E-017
 -1.499999999999999E-003    5.080931522068757E-017
 -1.399999999999999E-003    2.261798187016140E-017
 -1.299999999999999E-003   -1.352582053281123E-017
 -1.199999999999999E-003   -5.335981088393894E-017
 -1.099999999999999E-003   -9.137584852194013E-017
 -9.999999999999989E-004   -1.214684861104393E-016
 -8.999999999999990E-004   -1.377791725287808E-016
 -7.999999999999990E-004   -1.356365160662225E-016
 -6.999999999999989E-004   -1.124627318660060E-016
 -5.999999999999990E-004   -6.850040557123647E-017
 -4.999999999999989E-004   -7.219017685852401E-018
 -3.999999999999989E-004    6.471259574819068E-017
 -2.999999999999989E-004    1.379512744305204E-016
 -1.999999999999989E-004    2.014995230702321E-016
 -9.999999999999892E-005    2.441396040809536E-016
  1.084202172485504E-018    2.561244307602467E-016
  1.000000000000011E-004    2.309035785183108E-016
  2.000000000000011E-004    1.666229820543392E-016
  3.000000000000011E-004    6.713129565286684E-017
  4.000000000000011E-004   -5.773874981688335E-017
  5.000000000000011E-004   -1.927681268200881E-016
  6.000000000000011E-004   -3.188708852458247E-016
  7.000000000000011E-004   -4.154394410551721E-016
  8.000000000000011E-004   -4.632796298628729E-016
  9.000000000000012E-004   -4.477699767358233E-016
  1.000000000000001E-003   -3.617919108789131E-016
  1.100000000000001E-003   -2.079431516785945E-016
  1.200000000000001E-003    4.127008294953748E-019
  1.300000000000001E-003    2.395965170946179E-016
  1.400000000000001E-003    4.777164169915407E-016
  1.500000000000001E-003    6.783412815535149E-016
  1.600000000000001E-003    8.054108472932686E-016
  1.700000000000001E-003    8.288072444220113E-016
  1.800000000000001E-003    7.298268204264843E-016
  1.900000000000001E-003    5.056966649651889E-016
  2.000000000000001E-003    1.723054295508450E-016
  2.100000000000001E-003   -2.355307428492575E-016
  2.200000000000001E-003   -6.666567188231500E-016
  2.300000000000001E-003   -1.059035155935490E-015
  2.400000000000001E-003   -1.347640439441372E-015
  2.500000000000001E-003   -1.473928487998104E-015
  2.600000000000001E-003   -1.395656804512324E-015
  2.700000000000001E-003   -1.095602979136388E-015
  2.800000000000001E-003   -5.876951288898705E-016
  2.900000000000001E-003    8.073248589683464E-017
  3.000000000000001E-003    8.314483607668683E-016
  3.100000000000001E-003    1.562868253550206E-015
  3.200000000000001E-003    2.162181250554441E-015
  3.300000000000001E-003    2.520844810804666E-015
  3.400000000000001E-003    2.551554946720050E-015
  3.500000000000001E-003    2.204331785942087E-015
  3.600000000000001E-003    1.479149714926022E-015
  3.700000000000001E-003    4.327473709778513E-016
  3.800000000000001E-003   -8.221961772317111E-016
  3.900000000000001E-003   -2.126421540905685E-015
  4.000000000000001E-003   -3.291713995653429E-015
  4.100000000000001E-003   -4.125239980888385E-015
  4.200000000000001E-003   -4.457829405868693E-015
  4.300000000000001E-003   -4.172469745547548E-015
  4.400000000000001E-003   -3.228776224586881E-015
  4.500000000000001E-003   -1.679215094231533E-015
  4.600000000000002E-003    3.264137701856038E-016
  4.700000000000001E-003    2.550463451654070E-015
  4.800000000000001E-003    4.691301700638609E-015
  4.900000000000002E-003    6.419863147830759E-015
  5.000000000000001E-003    7.425084640563152E-015
  5.100000000000001E-003    7.462603640900318E-015
  5.200000000000001E-003    6.399905168563924E-015
  5.300000000000002E-003    4.250664630519524E-015
  5.400000000000001E-003    1.191832457143859E-015
  5.500000000000001E-003   -2.441359862652124E-015
  5.600000000000002E-003   -6.184612028486311E-015
  5.700000000000001E-003   -9.496760995877867E-015
  5.800000000000001E-003   -1.183021197429500E-014
  5.900000000000002E-003   -1.271150403933569E-014
  6.000000000000001E-003   -1.182132140872407E-014
  6.100000000000001E-003   -9.062050165415940E-015
  6.200000000000002E-003   -4.601139907493314E-015
  6.300000000000002E-003    1.119256941430171E-015
  6.400000000000001E-003    7.412225153585020E-015
  6.500000000000001E-003    1.341633133976852E-014
  6.600000000000002E-003    1.820097710573447E-014
  6.700000000000001E-003    2.089580362475117E-014
  6.800000000000001E-003    2.082805496565273E-014
  6.900000000000002E-003    1.764855627436724E-014
  7.000000000000001E-003    1.142601665417916E-014
  7.100000000000001E-003    2.691459832340798E-015
  7.200000000000002E-003   -7.580342149293983E-015
  7.300000000000002E-003   -1.805800216240610E-014
  7.400000000000001E-003   -2.720530039382897E-014
  7.500000000000001E-003   -3.348348852595421E-014
  7.600000000000002E-003   -3.558063299358433E-014
  7.700000000000001E-003   -3.263734240616652E-014
  7.800000000000001E-003   -2.443462045336353E-014
  7.900000000000001E-003   -1.151083610704008E-014
  8.000000000000002E-003    4.819279387017788E-015
  8.100000000000001E-003    2.255925959622560E-014
  8.200000000000001E-003    3.924025761072333E-014
  8.300000000000002E-003    5.222886786861202E-014
  8.400000000000001E-003    5.910036591783224E-014
  8.500000000000002E-003    5.802983374335204E-014
  8.600000000000002E-003    4.814496418459866E-014
  8.700000000000001E-003    2.978202135949896E-014
  8.800000000000002E-003    4.593737552697690E-015
  8.900000000000002E-003   -2.452699671461355E-014
  9.000000000000001E-003   -5.372045610818319E-014
  9.100000000000002E-003   -7.861533387709122E-014
  9.200000000000002E-003   -9.492112098429471E-014
  9.300000000000001E-003   -9.908599924055830E-014
  9.400000000000002E-003   -8.892937762854116E-014
  9.500000000000001E-003   -6.414933771857427E-014
  9.600000000000001E-003   -2.661171819336435E-014
  9.700000000000002E-003    1.965201693837851E-014
  9.800000000000001E-003    6.877616828146448E-014
  9.900000000000001E-003    1.137138672977088E-013
  1.000000000000000E-002    1.471547173545345E-013
  1.010000000000000E-002    1.626011420870898E-013
  1.020000000000000E-002    1.554597299715701E-013
  1.030000000000000E-002    1.239827395476628E-013
  1.040000000000000E-002    6.989612722981228E-014
  1.050000000000000E-002   -1.422771624914576E-015
  1.060000000000000E-002   -8.130294929126980E-014
  1.070000000000000E-002   -1.586869977034091E-013
  1.080000000000000E-002   -2.215188773240995E-013
  1.090000000000000E-002   -2.584602530387716E-013
  1.100000000000000E-002   -2.607132580033241E-013
  1.110000000000000E-002   -2.236828446418405E-013
  1.120000000000000E-002   -1.482014815702860E-013
  1.130000000000000E-002   -4.107391019125635E-014
  1.140000000000000E-002    8.522890641391041E-014
  1.150000000000000E-002    2.137849512333469E-013
  1.160000000000000E-002    3.252713846335438E-013
  1.170000000000000E-002    4.006360562023243E-013
  1.180000000000000E-002    4.240548925635188E-013
  1.190000000000000E-002    3.857526578432588E-013
  1.200000000000000E-002    2.842333906378704E-013
  1.210000000000000E-002    1.275038093479212E-013
  1.220000000000000E-002   -6.702183678453330E-014
  1.230000000000000E-002   -2.740805730352762E-013
  1.240000000000000E-002   -4.635175982624351E-013
  1.250000000000000E-002   -6.043499311915605E-013
  1.260000000000000E-002   -6.694388380515879E-013
  1.270000000000000E-002   -6.401170933623604E-013
  1.280000000000000E-002   -5.100500499049230E-013
  1.290000000000000E-002   -2.876382789614145E-013
  1.300000000000000E-002    3.580329166391875E-015
  1.310000000000000E-002    3.268243232916699E-013
  1.320000000000000E-002    6.362305935668322E-013
  1.330000000000000E-002    8.828989647875701E-013
  1.340000000000000E-002    1.022094412967022E-012
  1.350000000000000E-002    1.020619945732543E-012
  1.360000000000000E-002    8.632339953311451E-013
  1.370000000000000E-002    5.570041300296318E-013
  1.380000000000000E-002    1.326888749399111E-013
  1.390000000000000E-002   -3.574006385353997E-013
  1.400000000000000E-002   -8.451177420061628E-013
  1.410000000000000E-002   -1.255283731031392E-012
  1.420000000000000E-002   -1.516546105775354E-012
  1.430000000000000E-002   -1.572829934993372E-012
  1.440000000000000E-002   -1.393659844068587E-012
  1.450000000000000E-002   -9.816273228461968E-013
  1.460000000000000E-002   -3.755306538978504E-013
  1.470000000000000E-002    3.517686584176697E-013
  1.480000000000000E-002    1.101002152564011E-012
  1.490000000000000E-002    1.759062189343790E-012
  1.500000000000000E-002    2.215044230045912E-012
  1.510000000000000E-002    2.377633846279123E-012
  1.520000000000000E-002    2.191275945723473E-012
  1.530000000000000E-002    1.648482339156577E-012
  1.540000000000000E-002    7.959632004915985E-013
  1.550000000000000E-002   -2.670106301198001E-013
  1.560000000000000E-002   -1.398558080556218E-012
  1.570000000000000E-002   -2.431756574117987E-012
  1.580000000000000E-002   -3.197871903539518E-012
  1.590000000000000E-002   -3.552220178295553E-012
  1.600000000000000E-002   -3.398901861569326E-012
  1.610000000000000E-002   -2.710469599874660E-012
  1.620000000000000E-002   -1.538957548693733E-012
  1.630000000000000E-002   -1.572129891039371E-014
  1.640000000000000E-002    1.660998962186200E-012
  1.650000000000000E-002    3.250058191262955E-012
  1.660000000000000E-002    4.500343331822320E-012
  1.670000000000000E-002    5.188428490930345E-012
  1.680000000000000E-002    5.155573030925022E-012
  1.690000000000000E-002    4.338270100509345E-012
  1.700000000000000E-002    2.787014501670734E-012
  1.710000000000000E-002    6.692649565569282E-013
  1.720000000000000E-002   -1.745337447260113E-012
  1.730000000000000E-002   -4.116862192279716E-012
  1.740000000000000E-002   -6.080765790466944E-012
  1.750000000000000E-002   -7.301545284875869E-012
  1.760000000000000E-002   -7.526839577578355E-012
  1.770000000000000E-002   -6.633644777720168E-012
  1.780000000000000E-002   -4.658808065684535E-012
  1.790000000000000E-002   -1.807669619439620E-012
  1.800000000000000E-002    1.562437275329908E-012
  1.810000000000000E-002    4.983523008389652E-012
  1.820000000000000E-002    7.938948081931677E-012
  1.830000000000000E-002    9.938361396232642E-012
  1.840000000000000E-002    1.059514924756805E-011
  1.850000000000000E-002    9.694688184221135E-012
  1.860000000000000E-002    7.242079278042863E-012
  1.870000000000000E-002    3.480245058098507E-012