 -4.000000000000000E-002    0.000000000000000E+000
 -3.990000000000000E-002    0.000000000000000E+000
 -3.980000000000000E-002    0.000000000000000E+000
 -3.970000000000000E-002    0.000000000000000E+000
 -3.960000000000000E-002    0.000000000000000E+000
 -3.950000000000000E-002    0.000000000000000E+000
 -3.940000000000000E-002    0.000000000000000E+000
 -3.930000000000000E-002    0.000000000000000E+000
 -3.920000000000000E-002    0.000000000000000E+000
 -3.910000000000000E-002   -3.798909456181341E-030
 -3.900000000000000E-002   -4.915829678619905E-029
 -3.890000000000000E-002   -2.808371104083562E-028
 -3.880000000000000E-002   -6.670539592586593E-028
 -3.870000000000000E-002    2.345606685346375E-027
 -3.860000000000000E-002    3.283597157138749E-026
 -3.850000000000000E-002    1.965527723122571E-025
 -3.840000000000000E-002    8.550934339841677E-025
 -3.830000000000000E-002    3.036465160684373E-024
 -3.820000000000000E-002    9.246336631370297E-024
 -3.810000000000000E-002    2.479134693784291E-023
 -3.800000000000000E-002    5.943165397535072E-023
 -3.790000000000000E-002    1.284485256829055E-022
 -3.780000000000000E-002    2.508867194504691E-022
 -3.770000000000000E-002    4.408738054812578E-022
 -3.760000000000000E-002    6.860798438479387E-022
 -3.750000000000000E-002    9.068710534981503E-022
 -3.740000000000000E-002    8.927096127104850E-022
 -3.730000000000000E-002    2.216070906678211E-022
 -3.720000000000000E-002   -1.813673282100920E-021
 -3.710000000000000E-002   -6.222183671422493E-021
 -3.700000000000000E-002   -1.419211108195896E-020
 -3.690000000000000E-002   -2.672137267323199E-020
 -3.680000000000000E-002   -4.389318445052488E-020
 -3.670000000000000E-002   -6.373680845064079E-020
 -3.660000000000000E-002   -8.073621568599606E-020
 -3.650000000000000E-002   -8.426066295585377E-020
 -3.640000000000000E-002   -5.748018357064347E-020
 -3.630000000000000E-002    2.235530825921162E-020
 -3.620000000000000E-002    1.811538021403286E-019
 -3.610000000000000E-002    4.416016474972981E-019
 -3.600000000000000E-002    8.124196919412181E-019
 -3.590000000000000E-002    1.273454330574108E-018
 -3.580000000000000E-002    1.758371608859757E-018
 -3.570000000000000E-002    2.138807044227276E-018
 -3.560000000000000E-002    2.216068388833297E-018
 -3.550000000000000E-002    1.728263494982959E-018
 -3.540000000000000E-002    3.811610661343830E-019
 -3.530000000000000E-002   -2.090767205419784E-018
 -3.520000000000000E-002   -5.831626847221862E-018
 -3.510000000000000E-002   -1.074653833307226E-017
 -3.500000000000000E-002   -1.637722128130194E-017
 -3.490000000000000E-002   -2.180095257107656E-017
 -3.480000000000000E-002   -2.559350660453161E-017
 -3.470000000000000E-002   -2.590131935717293E-017
 -3.460000000000000E-002   -2.066267210917719E-017
 -3.450000000000000E-002   -7.998753903385530E-018
 -3.440000000000000E-002    1.323845799546324E-017
 -3.430000000000000E-002    4.282151600657568E-017
 -3.420000000000000E-002    7.851948177172129E-017
 -3.410000000000000E-002    1.156491118497899E-016
 -3.400000000000000E-002    1.469975921174034E-016
 -3.390000000000000E-002    1.633037978126558E-016
 -3.380000000000000E-002    1.544307983963285E-016
 -3.370000000000000E-002    1.112522866988628E-016
 -3.360000000000000E-002    2.811445262479517E-017
 -3.350000000000000E-002   -9.445865012171099E-017
 -3.340000000000000E-002   -2.473390539244517E-016
 -3.330000000000000E-002   -4.113127903674473E-016
 -3.320000000000000E-002   -5.572460972703625E-016
 -3.310000000000000E-002   -6.484953259907879E-016
 -3.300000000000000E-002   -6.458688453336460E-016
 -3.290000000000000E-002   -5.149890500531032E-016
 -3.280000000000000E-002   -2.353128713657937E-016
 -3.270000000000000E-002    1.905578795086354E-016
 -3.260000000000000E-002    7.291801797434823E-016
 -3.250000000000000E-002    1.312383951757821E-015
 -3.240000000000000E-002    1.839301795457305E-015
 -3.230000000000000E-002    2.185836911897630E-015
 -3.220000000000000E-002    2.221999379537893E-015
 -3.210000000000000E-002    1.836021213892738E-015
 -3.200000000000000E-002    9.624048940560935E-016
 -3.190000000000000E-002   -3.906058013735337E-016
 -3.180000000000000E-002   -2.119861951296273E-015
 -3.170000000000000E-002   -4.018546543465775E-015
 -3.160000000000000E-002   -5.785126006072623E-015
 -3.150000000000000E-002   -7.053235942127041E-015
 -3.140000000000000E-002   -7.442426901251329E-015
 -3.130000000000000E-002   -6.625531844378370E-015
 -3.120000000000000E-002   -4.404047204996183E-015
 -3.110000000000000E-002   -7.791520505619944E-016
 -3.100000000000000E-002    3.996274417998405E-015
 -3.090000000000000E-002    9.399194758940226E-015
 -3.080000000000000E-002    1.466314677250495E-014
 -3.070000000000000E-002    1.885598928748738E-014
 -3.060000000000000E-002    2.100615320436392E-014
 -3.050000000000000E-002    2.026529660589736E-014
 -3.040000000000000E-002    1.608582020477082E-014
 -3.030000000000000E-002    8.384342634009307E-015
 -3.020000000000000E-002   -2.341267648465252E-015
 -3.010000000000000E-002   -1.497192101903928E-014
 -3.000000000000000E-002   -2.782725946450396E-014
 -2.990000000000000E-002   -3.883502488767458E-014
 -2.980000000000000E-002   -4.580171986217586E-014
 -2.970000000000000E-002   -4.675723738616919E-014
 -2.960000000000000E-002   -4.032824473154828E-014
 -2.950000000000000E-002   -2.608223685347803E-014
 -2.940000000000000E-002   -4.779337699035629E-015
 -2.930000000000000E-002    2.152602296399052E-014
 -2.920000000000000E-002    4.957544142713406E-014
 -2.910000000000000E-002    7.520579225771287E-014
 -2.900000000000000E-002    9.384234951308208E-014
 -2.890000000000000E-002    1.011377686038626E-013
 -2.880000000000000E-002    9.367852703892845E-014
 -2.870000000000000E-002    6.965977476293278E-014
 -2.860000000000000E-002    2.942149400052144E-014
 -2.850000000000000E-002   -2.425285235587180E-014
 -2.840000000000000E-002   -8.615000627647654E-014
 -2.830000000000000E-002   -1.489899457804962E-013
 -2.820000000000000E-002   -2.041283878791411E-013
 -2.810000000000000E-002   -2.425397236861800E-013
 -2.800000000000000E-002   -2.559768180292710E-013
 -2.790000000000000E-002   -2.381701289728025E-013
 -2.780000000000000E-002   -1.859123363414519E-013
 -2.770000000000000E-002   -9.987626628358979E-014
 -2.760000000000000E-002    1.496340265822892E-014
 -2.750000000000000E-002    1.493949397567302E-013
 -2.740000000000000E-002    2.905604563318932E-013
 -2.730000000000000E-002    4.230514787169137E-013
 -2.720000000000000E-002    5.304307920723525E-013
 -2.710000000000000E-002    5.970465659524389E-013
 -2.700000000000000E-002    6.099615475276058E-013
 -2.690000000000000E-002    5.607907834683422E-013
 -2.680000000000000E-002    4.472293782935730E-013
 -2.670000000000000E-002    2.740581295843593E-013
 -2.660000000000000E-002    5.344188693844675E-014
 -2.650000000000000E-002   -1.956129345955234E-013
 -2.640000000000000E-002   -4.487033779925967E-013
 -2.630000000000000E-002   -6.783476594822972E-013
 -2.620000000000000E-002   -8.570324974428601E-013
 -2.610000000000000E-002   -9.607304561358008E-013
 -2.600000000000000E-002   -9.725103809052752E-013
 -2.590000000000000E-002   -8.857759536907876E-013
 -2.580000000000000E-002   -7.066094579467755E-013
 -2.570000000000000E-002   -4.547183382520501E-013
 -2.560000000000000E-002   -1.625641514223026E-013
 -2.550000000000000E-002    1.275588098435278E-013
 -2.540000000000000E-002    3.684766689767821E-013
 -2.530000000000000E-002    5.147772143593905E-013
 -2.520000000000000E-002    5.304577348675595E-013
 -2.510000000000000E-002    3.965880164688490E-013
 -2.500000000000000E-002    1.177789155644026E-013
 -2.490000000000000E-002   -2.738190003836021E-013
 -2.480000000000000E-002   -7.181357199796837E-013
 -2.470000000000000E-002   -1.131217819568751E-012
 -2.460000000000000E-002   -1.413936110231984E-012
 -2.450000000000000E-002   -1.464910963028728E-012
 -2.440000000000000E-002   -1.196437840062738E-012
 -2.430000000000000E-002   -5.514844251906705E-013
 -2.420000000000000E-002    4.806996450408418E-013
 -2.410000000000000E-002    1.853038982259360E-012
 -2.400000000000000E-002    3.455675732317458E-012
 -2.390000000000000E-002    5.119500921649693E-012
 -2.380000000000000E-002    6.629086614835790E-012
 -2.370000000000000E-002    7.744616739253268E-012
 -2.360000000000000E-002    8.230986095431707E-012
 -2.350000000000000E-002    7.890877751771726E-012
 -2.340000000000000E-002    6.597575675648610E-012
 -2.330000000000000E-002    4.322752866523549E-012
 -2.320000000000000E-002    1.154599409016944E-012
 -2.310000000000000E-002   -2.697495267457010E-012
 -2.300000000000000E-002   -6.913952183226409E-012
 -2.290000000000000E-002   -1.109194768572718E-011
 -2.280000000000000E-002   -1.478624498052298E-011
 -2.270000000000000E-002   -1.755970848249763E-011
 -2.260000000000000E-002   -1.903751780523861E-011
 -2.250000000000000E-002   -1.895807152596853E-011
 -2.240000000000000E-002   -1.721348107370687E-011
 -2.230000000000000E-002   -1.387343466084564E-011
 -2.220000000000000E-002   -9.188109180815552E-012
 -2.210000000000000E-002   -3.568345778956353E-012
 -2.200000000000000E-002    2.455662374252749E-012
 -2.190000000000000E-002    8.293030236681950E-012
 -2.180000000000000E-002    1.336147315572820E-011
 -2.170000000000000E-002    1.715884550155564E-011
 -2.160000000000000E-002    1.932780263479215E-011
 -2.150000000000000E-002    1.970508139500086E-011
 -2.140000000000000E-002    1.834840851999950E-011
 -2.130000000000000E-002    1.553665503918666E-011
 -2.120000000000000E-002    1.174198288918743E-011
 -2.110000000000000E-002    7.576026845298512E-012
 -2.100000000000000E-002    3.715354722366988E-012
 -2.090000000000000E-002    8.140280194567812E-013
 -2.080000000000000E-002   -5.871009495515162E-013
 -2.070000000000000E-002   -1.439413643917676E-013
 -2.060000000000000E-002    2.224799125248158E-012
 -2.050000000000000E-002    6.298018566561337E-012
 -2.040000000000000E-002    1.154610178908208E-011
 -2.030000000000000E-002    1.716234913231358E-011
 -2.020000000000000E-002    2.213259304475486E-011
 -2.010000000000000E-002    2.533973029283348E-011
 -2.000000000000000E-002    2.569586240531553E-011
 -1.990000000000000E-002    2.229061181245290E-011
 -1.980000000000000E-002    1.454078696231467E-011
 -1.970000000000000E-002    2.323697259762869E-012
 -1.960000000000000E-002   -1.392481252277850E-011
 -1.950000000000000E-002   -3.316581215515762E-011
 -1.940000000000000E-002   -5.378158013016238E-011
 -1.930000000000000E-002   -7.367817496962281E-011
 -1.920000000000000E-002   -9.046762505276553E-011
 -1.910000000000000E-002   -1.017206024337465E-010
 -1.900000000000000E-002   -1.052689424900496E-010
 -1.890000000000000E-002   -9.952626703418791E-011
 -1.880000000000000E-002   -8.378616241481463E-011
 -1.870000000000000E-002   -5.845207323185777E-011
 -1.860000000000000E-002   -2.515438562385543E-011
 -1.850000000000000E-002    1.328218589857162E-011
 -1.840000000000000E-002    5.304261243313316E-011
 -1.830000000000000E-002    8.969719133727245E-011
 -1.820000000000000E-002    1.187232791568290E-010
 -1.810000000000000E-002    1.361207682845495E-010
 -1.800000000000000E-002    1.390455978800321E-010
 -1.790000000000000E-002    1.263693449198921E-010
 -1.780000000000000E-002    9.906863241140439E-011
 -1.770000000000000E-002    6.035815244947589E-011
 -1.760000000000000E-002    1.550618591407914E-011
 -1.750000000000000E-002   -2.868875053944133E-011
 -1.740000000000000E-002   -6.473252284807766E-011
 -1.730000000000000E-002   -8.550013577244134E-011
 -1.720000000000000E-002   -8.540158142615320E-011
 -1.710000000000000E-002   -6.148236237077134E-011
 -1.700000000000000E-002   -1.427842887758569E-011
 -1.690000000000000E-002    5.174421919436261E-011
 -1.680000000000000E-002    1.282950601558912E-010
 -1.670000000000000E-002    2.039735242527414E-010
 -1.660000000000000E-002    2.655686713096425E-010
 -1.650000000000000E-002    2.998269654388962E-010
 -1.640000000000000E-002    2.954799999886207E-010
 -1.630000000000000E-002    2.452551432047434E-010
 -1.620000000000000E-002    1.475559533980367E-010
 -1.610000000000000E-002    7.510032437653689E-012
 -1.600000000000000E-002   -1.628604638450727E-010
 -1.590000000000000E-002   -3.454851147920894E-010
 -1.580000000000000E-002   -5.181073246893830E-010
 -1.570000000000000E-002   -6.570032504144597E-010
 -1.560000000000000E-002   -7.402461319572298E-010
 -1.550000000000000E-002   -7.510819159884536E-010
 -1.540000000000000E-002   -6.809137226530801E-010
 -1.530000000000000E-002   -5.313951885276628E-010
 -1.520000000000000E-002   -3.152138115231451E-010
 -1.510000000000000E-002   -5.530281548440631E-011
 -1.500000000000000E-002    2.175651226161342E-010
 -1.490000000000000E-002    4.686010339149296E-010
 -1.480000000000000E-002    6.637971651687907E-010
 -1.470000000000000E-002    7.750561869605859E-010
 -1.460000000000000E-002    7.848928878759787E-010
 -1.450000000000000E-002    6.899372777018556E-010
 -1.440000000000000E-002    5.025777693994618E-010
 -1.430000000000000E-002    2.503103697941203E-010
 -1.420000000000000E-002   -2.732417522235892E-011
 -1.410000000000000E-002   -2.839642000380141E-010
 -1.400000000000000E-002   -4.731961878708510E-010
 -1.390000000000000E-002   -5.559512176668328E-010
 -1.380000000000000E-002   -5.074231121147770E-010
 -1.370000000000000E-002   -3.223735680426164E-010
 -1.360000000000000E-002   -1.783784541956423E-011
 -1.350000000000000E-002    3.674373992686188E-010
 -1.340000000000000E-002    7.770397528490612E-010
 -1.330000000000000E-002    1.144104150098528E-009
 -1.320000000000000E-002    1.400851116175672E-009
 -1.310000000000000E-002    1.489164963472603E-009
 -1.300000000000000E-002    1.370649118749204E-009
 -1.290000000000000E-002    1.034541150930475E-009
 -1.280000000000000E-002    5.020634547255215E-010
 -1.270000000000000E-002   -1.737736910984210E-010
 -1.260000000000000E-002   -9.132741481602829E-010
 -1.250000000000000E-002   -1.619681093964541E-009
 -1.240000000000000E-002   -2.192205677424142E-009
 -1.230000000000000E-002   -2.540717552860975E-009
 -1.220000000000000E-002   -2.599961547200051E-009
 -1.210000000000000E-002   -2.341068907203141E-009
 -1.200000000000000E-002   -1.778388171602890E-009
 -1.190000000000000E-002   -9.702349935838121E-010
 -1.180000000000000E-002   -1.300881367499183E-011
 -1.170000000000000E-002    9.708881903191299E-010
 -1.160000000000000E-002    1.849897318682027E-009
 -1.150000000000000E-002    2.502641530212487E-009
 -1.140000000000000E-002    2.836938970360113E-009
 -1.130000000000000E-002    2.805532475319175E-009
 -1.120000000000000E-002    2.415884035673604E-009
 -1.110000000000000E-002    1.732131729566530E-009
 -1.100000000000000E-002    8.683923628877668E-010
 -1.090000000000000E-002   -2.611719966370129E-011
 -1.080000000000000E-002   -7.883746296426331E-010
 -1.070000000000000E-002   -1.266389443756246E-009
 -1.060000000000000E-002   -1.343989049500533E-009
 -1.050000000000000E-002   -9.617427232517476E-010
 -1.040000000000000E-002   -1.305714330254516E-010
 -1.030000000000000E-002    1.064491021438116E-009
 -1.020000000000000E-002    2.471574624955124E-009
 -1.010000000000000E-002    3.889861522502525E-009
 -1.000000000000000E-002    5.096031024345467E-009
 -9.899999999999999E-003    5.875811904389080E-009
 -9.800000000000000E-003    6.056238225919408E-009
 -9.699999999999999E-003    5.533894853015098E-009
 -9.599999999999999E-003    4.294809959212093E-009
 -9.500000000000000E-003    2.422724326768258E-009
 -9.399999999999999E-003    9.405601949179847E-011
 -9.299999999999999E-003   -2.440176676600164E-009
 -9.200000000000000E-003   -4.883240061400208E-009
 -9.099999999999999E-003   -6.928440803737101E-009
 -8.999999999999999E-003   -8.296588079967642E-009
 -8.900000000000000E-003   -8.769576521575717E-009
 -8.799999999999999E-003   -8.214813899058936E-009
 -8.699999999999999E-003   -6.596453930061332E-009
 -8.600000000000000E-003   -3.971142495324278E-009
 -8.499999999999999E-003   -4.683033397427085E-010
 -8.399999999999999E-003    3.742767966788648E-009
 -8.300000000000000E-003    8.494625981354413E-009
 -8.199999999999999E-003    1.366634844400716E-008
 -8.100000000000000E-003    1.922468320136420E-008
 -8.000000000000000E-003    2.525540180527825E-008
 -7.899999999999999E-003    3.197987947479426E-008
 -7.800000000000000E-003    3.975388484367311E-008
 -7.699999999999999E-003    4.904804649112621E-008
 -7.599999999999999E-003    6.041220539183910E-008
 -7.499999999999999E-003    7.442826346262479E-008
 -7.399999999999999E-003    9.165798214037686E-008
 -7.299999999999999E-003    1.125931546587487E-007
 -7.199999999999999E-003    1.376154310523285E-007
 -7.100000000000000E-003    1.669720651580088E-007
 -6.999999999999999E-003    2.007714367361234E-007
 -6.899999999999999E-003    2.390000332444121E-007
 -6.800000000000000E-003    2.815587153583806E-007
 -6.699999999999999E-003    3.283139785394772E-007
 -6.599999999999999E-003    3.791573266919797E-007
 -6.499999999999999E-003    4.340643881214465E-007
 -6.399999999999999E-003    4.931451111204726E-007
 -6.299999999999999E-003    5.566780847481003E-007
 -6.199999999999999E-003    6.251228383356743E-007
 -6.100000000000000E-003    6.991078393568564E-007
 -5.999999999999999E-003    7.793955484230932E-007
 -5.899999999999999E-003    8.668280304714590E-007
 -5.800000000000000E-003    9.622608133513638E-007
 -5.699999999999999E-003    1.066494017763414E-006
 -5.599999999999999E-003    1.180210609040955E-006
 -5.499999999999999E-003    1.303930402019656E-006
 -5.399999999999999E-003    1.437988149216898E-006
 -5.299999999999999E-003    1.582539508144073E-006
 -5.199999999999999E-003    1.737594481173357E-006
 -5.099999999999999E-003    1.903076085281226E-006
 -4.999999999999999E-003    2.078896313877862E-006
 -4.899999999999999E-003    2.265039275749998E-006
 -4.799999999999999E-003    2.461641804550493E-006
 -4.699999999999999E-003    2.669057922475867E-006
 -4.599999999999999E-003    2.887900209446939E-006
 -4.499999999999999E-003    3.119049889307045E-006
 -4.399999999999999E-003    3.363634606881840E-006
 -4.299999999999999E-003    3.622976128688100E-006
 -4.199999999999999E-003    3.898515471093024E-006
 -4.099999999999999E-003    4.191723167577354E-006
 -3.999999999999999E-003    4.504013736075751E-006
 -3.899999999999999E-003    4.836668493004749E-006
 -3.799999999999999E-003    5.190787199517737E-006
 -3.699999999999999E-003    5.567270968410236E-006
 -3.599999999999999E-003    5.966842596829976E-006
 -3.499999999999999E-003    6.390105599453852E-006
 -3.399999999999999E-003    6.837628858927858E-006
 -3.299999999999999E-003    7.310050579661789E-006
 -3.199999999999999E-003    7.808186610568544E-006
 -3.099999999999999E-003    8.333125372945051E-006
 -2.999999999999999E-003    8.886297987523934E-006
 -2.899999999999999E-003    9.469511282233241E-006
 -2.799999999999999E-003    1.008493789054583E-005
 -2.699999999999999E-003    1.073506517071635E-005
 -2.599999999999999E-003    1.142260594351301E-005
 -2.499999999999999E-003    1.215039411344519E-005
 -2.399999999999999E-003    1.292126362810617E-005
 -2.299999999999999E-003    1.373794993409945E-005
 -2.199999999999999E-003    1.460300874049963E-005
 -2.099999999999999E-003    1.551878186220814E-005
 -1.999999999999999E-003    1.648741397831690E-005
 -1.899999999999999E-003    1.751091241917561E-005
 -1.799999999999999E-003    1.859125241902279E-005
 -1.699999999999999E-003    1.973051156318418E-005
 -1.599999999999999E-003    2.093100792849575E-005
 -1.499999999999999E-003    2.219543484978821E-005
 -1.399999999999999E-003    2.352696097570718E-005
 -1.299999999999999E-003    2.492928667096853E-005
 -1.199999999999999E-003    2.640664728578109E-005
 -1.099999999999999E-003    2.796376217831552E-005
 -9.999999999999989E-004    2.960573233875259E-005
 -8.999999999999990E-004    3.133790985487874E-005
 -7.999999999999990E-004    3.316575324153301E-005
 -6.999999999999989E-004    3.509469386939060E-005
 -5.999999999999990E-004    3.713003585220959E-005
 -4.999999999999989E-004    3.927690391542831E-005
 -3.999999999999989E-004    4.154025565248385E-005
 -2.999999999999989E-004    4.392494671267300E-005
 -1.999999999999989E-004    4.643585570196003E-005
 -9.999999999999892E-005    4.907804551659454E-005
  1.084202172485504E-018    5.185693739902563E-005
  1.000000000000011E-004    5.477848140908448E-005
  2.000000000000011E-004    5.784928706255570E-005
  3.000000000000011E-004    6.107671451230229E-005
  4.000000000000011E-004    6.446887933877864E-005
  5.000000000000011E-004    6.803462263096192E-005
  6.000000000000011E-004    7.178340010448385E-005
  7.000000000000011E-004    7.572513897717528E-005
  8.000000000000011E-004    7.987007825298427E-005
  9.000000000000012E-004    8.422860825726605E-005
  1.000000000000001E-003    8.881115416375091E-005
  1.100000000000001E-003    9.362808585217818E-005
  1.200000000000001E-003    9.868972835659328E-005
  1.300000000000001E-003    1.040064057352166E-004
  1.400000000000001E-003    1.095885672037739E-004
  1.500000000000001E-003    1.154469505644289E-004
  1.600000000000001E-003    1.215927681618613E-004
  1.700000000000001E-003    1.280378880959062E-004
  1.800000000000001E-003    1.347949911407604E-004
  1.900000000000001E-003    1.418777152412186E-004
  2.000000000000001E-003    1.493006573677701E-004
  2.100000000000001E-003    1.570794089324265E-004
  2.200000000000001E-003    1.652304855282778E-004
  2.300000000000001E-003    1.737711875336361E-004
  2.400000000000001E-003    1.827194854965603E-004
  2.500000000000001E-003    1.920938883424706E-004
  2.600000000000001E-003    2.019133053561487E-004
  2.700000000000001E-003    2.121969651494461E-004
  2.800000000000001E-003    2.229644188256946E-004
  2.900000000000001E-003    2.342355184024188E-004
  3.000000000000001E-003    2.460305345109673E-004
  3.100000000000001E-003    2.583702876049777E-004
  3.200000000000001E-003    2.712762396162561E-004
  3.300000000000001E-003    2.847707563158243E-004
  3.400000000000001E-003    2.988771602375700E-004
  3.500000000000001E-003    3.136198587057060E-004
  3.600000000000001E-003    3.290244471246981E-004
  3.700000000000001E-003    3.451177295429405E-004
  3.800000000000001E-003    3.619276465492382E-004
  3.900000000000001E-003    3.794832694128022E-004
  4.000000000000001E-003    3.978146217948623E-004
  4.100000000000001E-003    4.169526903724678E-004
  4.200000000000001E-003    4.369292560189764E-004
  4.300000000000001E-003    4.577767895587865E-004
  4.400000000000001E-003    4.795284988984631E-004
  4.500000000000001E-003    5.022183356126054E-004
  4.600000000000002E-003    5.258809591326900E-004
  4.700000000000001E-003    5.505519509247868E-004
  4.800000000000001E-003    5.762678251127337E-004
  4.900000000000002E-003    6.030662907908102E-004
  5.000000000000001E-003    6.309862638825000E-004
  5.100000000000001E-003    6.600680113833838E-004
  5.200000000000001E-003    6.903532589465186E-004
  5.300000000000002E-003    7.218852621937756E-004
  5.400000000000001E-003    7.547087070018340E-004
  5.500000000000001E-003    7.888697664965370E-004
  5.600000000000002E-003    8.244159703054157E-004
  5.700000000000001E-003    8.613961815546621E-004
  5.800000000000001E-003    8.998602725970686E-004
  5.900000000000002E-003    9.398592639683874E-004
  6.000000000000001E-003    9.814452506041694E-004
  6.100000000000001E-003    1.024671238089907E-003
  6.200000000000002E-003    1.069591208772669E-003
  6.300000000000002E-003    1.116260199171547E-003
  6.400000000000001E-003    1.164734588290557E-003
  6.500000000000001E-003    1.215071802799010E-003
  6.600000000000002E-003    1.267330899319729E-003
  6.700000000000001E-003    1.321572274843382E-003
  6.800000000000001E-003    1.377858303802961E-003
  6.900000000000002E-003    1.436252921293711E-003
  7.000000000000001E-003    1.496821859532521E-003
  7.100000000000001E-003    1.559632635772417E-003
  7.200000000000002E-003    1.624754203850675E-003
  7.300000000000002E-003    1.692257274689006E-003
  7.400000000000001E-003    1.762213731708364E-003
  7.500000000000001E-003    1.834696772756101E-003
  7.600000000000002E-003    1.909780669492349E-003
  7.700000000000001E-003    1.987540651473075E-003
  7.800000000000001E-003    2.068053322594638E-003
  7.900000000000001E-003    2.151395769744289E-003
  8.000000000000002E-003    2.237646564402565E-003
  8.100000000000001E-003    2.326885408831801E-003
  8.200000000000001E-003    2.419193292662663E-003
  8.300000000000002E-003    2.514652643542662E-003
  8.400000000000001E-003    2.613347439159057E-003
  8.500000000000002E-003    2.715363461628546E-003
  8.600000000000002E-003    2.820787596720859E-003
  8.700000000000001E-003    2.929708757453250E-003
  8.800000000000002E-003    3.042216962161968E-003
  8.900000000000002E-003    3.158403484892850E-003
  9.000000000000001E-003    3.278360649695137E-003
  9.100000000000002E-003    3.402181440531004E-003
  9.200000000000002E-003    3.529959810226285E-003
  9.300000000000001E-003    3.661790137414124E-003
  9.400000000000002E-003    3.797767367477336E-003
  9.500000000000001E-003    3.937987091595437E-003
  9.600000000000001E-003    4.082545129927784E-003
  9.700000000000002E-003    4.231538154343382E-003
  9.800000000000001E-003    4.385063847887100E-003
  9.900000000000001E-003    4.543220409472901E-003
  1.000000000000000E-002    4.706106288739183E-003
  1.010000000000000E-002    4.873821150779493E-003
  1.020000000000000E-002    5.046464884704000E-003
  1.030000000000000E-002    5.224138511002586E-003
  1.040000000000000E-002    5.406942190836640E-003
  1.050000000000000E-002    5.594976633086461E-003
  1.060000000000000E-002    5.788342449549042E-003
  1.070000000000000E-002    5.987139020678298E-003
  1.080000000000000E-002    6.191466475199986E-003
  1.090000000000000E-002    6.401422724290491E-003
  1.100000000000000E-002    6.617106473175042E-003
  1.110000000000000E-002    6.838613990804088E-003
  1.120000000000000E-002    7.066042151084600E-003
  1.130000000000000E-002    7.299486279511693E-003
  1.140000000000000E-002    7.539040674013283E-003
  1.150000000000000E-002    7.784798774596185E-003
  1.160000000000000E-002    8.036853695129544E-003
  1.170000000000000E-002    8.295295899671446E-003
  1.180000000000000E-002    8.560216394072217E-003
  1.190000000000000E-002    8.831701741942963E-003
  1.200000000000000E-002    9.109838579106969E-003
  1.210000000000000E-002    9.394710837188760E-003
  1.220000000000000E-002    9.686400032147657E-003
  1.230000000000000E-002    9.984984184712638E-003
  1.240000000000000E-002    1.029053957201552E-002
  1.250000000000000E-002    1.060313908304773E-002
  1.260000000000000E-002    1.092285141148948E-002
  1.270000000000000E-002    1.124974451921234E-002
  1.280000000000000E-002    1.158388112280113E-002
  1.290000000000000E-002    1.192532093201732E-002
  1.300000000000000E-002    1.227412033013032E-002
  1.310000000000000E-002    1.263033249968039E-002
  1.320000000000000E-002    1.299400515845707E-002
  1.330000000000000E-002    1.336518309568157E-002
  1.340000000000000E-002    1.374390556898216E-002
  1.350000000000000E-002    1.413020733893551E-002
  1.360000000000000E-002    1.452411808565110E-002
  1.370000000000000E-002    1.492566243535247E-002
  1.380000000000000E-002    1.533485910576326E-002
  1.390000000000000E-002    1.575172033575556E-002
  1.400000000000000E-002    1.617625382800831E-002
  1.410000000000000E-002    1.660846002703901E-002
  1.420000000000000E-002    1.704833438616219E-002
  1.430000000000000E-002    1.749586252848417E-002
  1.440000000000000E-002    1.795102725920864E-002
  1.450000000000000E-002    1.841380421884226E-002
  1.460000000000000E-002    1.888415859860521E-002
  1.470000000000000E-002    1.936205319891640E-002
  1.480000000000000E-002    1.984744041295941E-002
  1.490000000000000E-002    2.034026451683438E-002
  1.500000000000000E-002    2.084046215437734E-002
  1.510000000000000E-002    2.134796346439074E-002
  1.520000000000000E-002    2.186268696852301E-002
  1.530000000000000E-002    2.238454471486457E-002
  1.540000000000000E-002    2.291343902984023E-002
  1.550000000000000E-002    2.344926254551039E-002
  1.560000000000000E-002    2.399189886730565E-002
  1.570000000000000E-002    2.454122038465872E-002
  1.580000000000000E-002    2.509708978324396E-002
  1.590000000000000E-002    2.565936108579559E-002
  1.600000000000000E-002    2.622787623936999E-002
  1.610000000000000E-002    2.680246681971065E-002
  1.620000000000000E-002    2.738295316030757E-002
  1.630000000000000E-002    2.796914829354921E-002
  1.640000000000000E-002    2.856085181027403E-002
  1.650000000000000E-002    2.915785457038148E-002
  1.660000000000000E-002    2.975993519591370E-002
  1.670000000000000E-002    3.036686033431321E-002
  1.680000000000000E-002    3.097838667529557E-002
  1.690000000000000E-002    3.159425915872822E-002
  1.700000000000000E-002    3.221420981865308E-002
  1.710000000000000E-002    3.283795819677562E-002
  1.720000000000000E-002    3.346521313397714E-002
  1.730000000000000E-002    3.409567207120676E-002
  1.740000000000000E-002    3.472901867323153E-002
  1.750000000000000E-002    3.536492410237929E-002
  1.760000000000000E-002    3.600304751955824E-002
  1.770000000000000E-002    3.664303429229217E-002
  1.780000000000000E-002    3.728452180851685E-002
  1.790000000000000E-002    3.792713307130660E-002
  1.800000000000000E-002    3.857047793689322E-002
  1.810000000000000E-002    3.921415444457960E-002
  1.820000000000000E-002    3.985775417937440E-002
  1.830000000000000E-002    4.050085137434074E-002
  1.840000000000000E-002    4.114301179680456E-002
  1.850000000000000E-002    4.178378775464703E-002
  1.860000000000000E-002    4.242272278355718E-002
  1.870000000000000E-002    4.305934444117503E-002