 -4.000000000000000E-002    0.000000000000000E+000
 -3.990000000000000E-002    0.000000000000000E+000
 -3.980000000000000E-002    0.000000000000000E+000
 -3.970000000000000E-002    0.000000000000000E+000
 -3.960000000000000E-002    0.000000000000000E+000
 -3.950000000000000E-002    0.000000000000000E+000
 -3.940000000000000E-002    0.000000000000000E+000
 -3.930000000000000E-002    0.000000000000000E+000
 -3.920000000000000E-002    0.000000000000000E+000
 -3.910000000000000E-002    0.000000000000000E+000
 -3.900000000000000E-002    0.000000000000000E+000
 -3.890000000000000E-002    0.000000000000000E+000
 -3.880000000000000E-002    0.000000000000000E+000
 -3.870000000000000E-002    0.000000000000000E+000
 -3.860000000000000E-002    0.000000000000000E+000
 -3.850000000000000E-002    0.000000000000000E+000
 -3.840000000000000E-002    0.000000000000000E+000
 -3.830000000000000E-002    0.000000000000000E+000
 -3.820000000000000E-002    0.000000000000000E+000
 -3.810000000000000E-002    0.000000000000000E+000
 -3.800000000000000E-002    0.000000000000000E+000
 -3.790000000000000E-002    0.000000000000000E+000
 -3.780000000000000E-002    0.000000000000000E+000
 -3.770000000000000E-002    0.000000000000000E+000
 -3.760000000000000E-002    0.000000000000000E+000
 -3.750000000000000E-002    0.000000000000000E+000
 -3.740000000000000E-002    0.000000000000000E+000
 -3.730000000000000E-002    0.000000000000000E+000
 -3.720000000000000E-002    0.000000000000000E+000
 -3.710000000000000E-002    0.000000000000000E+000
 -3.700000000000000E-002    0.000000000000000E+000
 -3.690000000000000E-002    0.000000000000000E+000
 -3.680000000000000E-002    0.000000000000000E+000
 -3.670000000000000E-002    0.000000000000000E+000
 -3.660000000000000E-002    0.000000000000000E+000
 -3.650000000000000E-002    0.000000000000000E+000
 -3.640000000000000E-002   -1.924390591266381E-047
 -3.630000000000000E-002   -3.848781182532762E-047
 -3.620000000000000E-002   -2.822439533857359E-047
 -3.610000000000000E-002   -1.282927060844254E-048
 -3.600000000000000E-002    1.426051164080515E-046
 -3.590000000000000E-002    3.737322000143566E-046
 -3.580000000000000E-002    1.896245236940828E-046
 -3.570000000000000E-002   -5.202226353947790E-046
 -3.560000000000000E-002   -7.423534264673528E-046
 -3.550000000000000E-002   -2.352304146625068E-048
 -3.540000000000000E-002    3.475371314790116E-045
 -3.530000000000000E-002    1.630593214452977E-044
 -3.520000000000000E-002    5.282495445956722E-044
 -3.510000000000000E-002    1.435081435323754E-043
 -3.500000000000000E-002    3.393294323612399E-043
 -3.490000000000000E-002    7.267421044221669E-043
 -3.480000000000000E-002    1.409710759741219E-042
 -3.470000000000000E-002    2.457734416578497E-042
 -3.460000000000000E-002    3.726018727853200E-042
 -3.450000000000000E-002    4.453070785361023E-042
 -3.440000000000000E-002    2.465085111841639E-042
 -3.430000000000000E-002   -7.194359899246948E-042
 -3.420000000000000E-002   -3.425681694261658E-041
 -3.410000000000000E-002   -9.553802205422854E-041
 -3.400000000000000E-002   -2.162740067898860E-040
 -3.390000000000000E-002   -4.274516791152750E-040
 -3.380000000000000E-002   -7.531954709579830E-040
 -3.370000000000000E-002   -1.178361229344089E-039
 -3.360000000000000E-002   -1.582547434971373E-039
 -3.350000000000000E-002   -1.625357509206871E-039
 -3.340000000000000E-002   -5.743008107530462E-040
 -3.330000000000000E-002    2.909953906033932E-039
 -3.320000000000000E-002    1.096394748126750E-038
 -3.310000000000000E-002    2.652580804829009E-038
 -3.300000000000000E-002    5.284741287403801E-038
 -3.290000000000000E-002    9.202384118078179E-038
 -3.280000000000000E-002    1.418737251487994E-037
 -3.270000000000000E-002    1.904508206565150E-037
 -3.260000000000000E-002    2.077372757541189E-037
 -3.250000000000000E-002    1.349698836719342E-037
 -3.240000000000000E-002   -1.260405576644088E-037
 -3.230000000000000E-002   -7.179684090131479E-037
 -3.220000000000000E-002   -1.817053177193123E-036
 -3.210000000000000E-002   -3.590149549397019E-036
 -3.200000000000000E-002   -6.098635685704797E-036
 -3.190000000000000E-002   -9.126921610689849E-036
 -3.180000000000000E-002   -1.192135593145484E-035
 -3.170000000000000E-002   -1.284984931029081E-035
 -3.160000000000000E-002   -9.041710804782490E-036
 -3.150000000000000E-002    3.852998040503950E-036
 -3.140000000000000E-002    3.153511884309611E-035
 -3.130000000000000E-002    8.018458015190270E-035
 -3.120000000000000E-002    1.543669526485654E-034
 -3.110000000000000E-002    2.532272121950528E-034
 -3.100000000000000E-002    3.646590543867069E-034
 -3.090000000000000E-002    4.576361937459885E-034
 -3.080000000000000E-002    4.738391240427458E-034
 -3.070000000000000E-002    3.211783379485739E-034
 -3.060000000000000E-002   -1.262589785890768E-034
 -3.050000000000000E-002   -1.015222939736631E-033
 -3.040000000000000E-002   -2.479074925067578E-033
 -3.030000000000000E-002   -4.574117367353940E-033
 -3.020000000000000E-002   -7.181369088033922E-033
 -3.010000000000000E-002   -9.876597795471255E-033
 -3.000000000000000E-002   -1.178568872661562E-032
 -2.990000000000000E-002   -1.146360848316613E-032
 -2.980000000000000E-002   -6.861881400460963E-033
 -2.970000000000000E-002    4.523148769756525E-033
 -2.960000000000000E-002    2.520989146105922E-032
 -2.950000000000000E-002    5.689055757368523E-032
 -2.940000000000000E-002    9.912442774239198E-032
 -2.930000000000000E-002    1.476017019092779E-031
 -2.920000000000000E-002    1.921894176445351E-031
 -2.910000000000000E-002    2.152198917442920E-031
 -2.900000000000000E-002    1.907824138658716E-031
 -2.890000000000000E-002    8.607253661240836E-032
 -2.880000000000000E-002   -1.339623870248630E-031
 -2.870000000000000E-002   -4.975100318168186E-031
 -2.860000000000000E-002   -1.011639235297251E-030
 -2.850000000000000E-002   -1.643321501322062E-030
 -2.840000000000000E-002   -2.297938516491485E-030
 -2.830000000000000E-002   -2.799940475745095E-030
 -2.820000000000000E-002   -2.883166319035090E-030
 -2.810000000000000E-002   -2.200965660247823E-030
 -2.800000000000000E-002   -3.677382961107073E-031
 -2.790000000000000E-002    2.957452459048558E-030
 -2.780000000000000E-002    7.939418802838489E-030
 -2.770000000000000E-002    1.439172177168423E-029
 -2.760000000000000E-002    2.157783597912383E-029
 -2.750000000000000E-002    2.802927333844959E-029
 -2.740000000000000E-002    3.144451660345430E-029
 -2.730000000000000E-002    2.875283350168149E-029
 -2.720000000000000E-002    1.643698494973123E-029
 -2.710000000000000E-002   -8.801777915893678E-030
 -2.700000000000000E-002   -4.899386301963561E-029
 -2.690000000000000E-002   -1.035035831969659E-028
 -2.680000000000000E-002   -1.674408763821069E-028
 -2.670000000000000E-002   -2.301930355947060E-028
 -2.660000000000000E-002   -2.745517641703510E-028
 -2.650000000000000E-002   -2.770471041348106E-028
 -2.640000000000000E-002   -2.101555949927958E-028
 -2.630000000000000E-002   -4.695828268218480E-029
 -2.620000000000000E-002    2.314792679780270E-028
 -2.610000000000000E-002    6.262874833958828E-028
 -2.600000000000000E-002    1.109631719260914E-027
 -2.590000000000000E-002    1.614309673657373E-027
 -2.580000000000000E-002    2.027243133932225E-027
 -2.570000000000000E-002    2.190819880459833E-027
 -2.560000000000000E-002    1.916301822012061E-027
 -2.550000000000000E-002    1.012828241227274E-027
 -2.540000000000000E-002   -6.664242874908130E-028
 -2.530000000000000E-002   -3.162842066696065E-027
 -2.520000000000000E-002   -6.342560531404234E-027
 -2.510000000000000E-002   -9.830924973972252E-027
 -2.500000000000000E-002   -1.296978544514697E-026
 -2.490000000000000E-002   -1.482054620261202E-026
 -2.480000000000000E-002   -1.423686587203225E-026
 -2.470000000000000E-002   -1.002649563174759E-026
 -2.460000000000000E-002   -1.210156001476350E-027
 -2.450000000000000E-002    1.263409178590528E-026
 -2.440000000000000E-002    3.097930123453572E-026
 -2.430000000000000E-002    5.198019148248288E-026
 -2.420000000000000E-002    7.222492520337726E-026
 -2.410000000000000E-002    8.672822953304804E-026
 -2.400000000000000E-002    8.928831648668356E-026
 -2.390000000000000E-002    7.330442263230633E-026
 -2.380000000000000E-002    3.309045486793560E-026
 -2.370000000000000E-002   -3.437948569609144E-026
 -2.360000000000000E-002   -1.274896779690950E-025
 -2.350000000000000E-002   -2.381109692878955E-025
 -2.340000000000000E-002   -3.503214903827621E-025
 -2.330000000000000E-002   -4.402937168722459E-025
 -2.320000000000000E-002   -4.779184388794427E-025
 -2.310000000000000E-002   -4.306007578438443E-025
 -2.300000000000000E-002   -2.693649298857545E-025
 -2.290000000000000E-002    2.306456684860536E-026
 -2.280000000000000E-002    4.431361264432256E-025
 -2.270000000000000E-002    9.578868257237575E-025
 -2.260000000000000E-002    1.499073574531240E-024
 -2.250000000000000E-002    1.962539224963575E-024
 -2.240000000000000E-002    2.215253742420623E-024
 -2.230000000000000E-002    2.111808746628943E-024
 -2.220000000000000E-002    1.520792599653883E-024
 -2.210000000000000E-002    3.594312380518838E-025
 -2.200000000000000E-002   -1.367645074420068E-024
 -2.190000000000000E-002   -3.532334940082265E-024
 -2.180000000000000E-002   -5.858798338794050E-024
 -2.170000000000000E-002   -7.921286625055399E-024
 -2.160000000000000E-002   -9.173749893801408E-024
 -2.150000000000000E-002   -9.017896269600398E-024
 -2.140000000000000E-002   -6.910640908822589E-024
 -2.130000000000000E-002   -2.503591025110856E-024
 -2.120000000000000E-002    4.202788643481628E-024
 -2.110000000000000E-002    1.271792975316761E-023
 -2.100000000000000E-002    2.196870100117243E-023
 -2.090000000000000E-002    3.029525457523149E-023
 -2.080000000000000E-002    3.557129727472745E-023
 -2.070000000000000E-002    3.547204348753085E-023
 -2.060000000000000E-002    2.789041072988379E-023
 -2.050000000000000E-002    1.147020105196957E-023
 -2.040000000000000E-002   -1.381225683964556E-023
 -2.030000000000000E-002   -4.612348538330284E-023
 -2.020000000000000E-002   -8.143882167902108E-023
 -2.010000000000000E-002   -1.135429658207132E-022
 -2.000000000000000E-002   -1.344923833305146E-022
 -1.990000000000000E-002   -1.356170328992170E-022
 -1.980000000000000E-002   -1.090532279275787E-022
 -1.970000000000000E-002   -4.968500192964413E-023
 -1.960000000000000E-002    4.276041729862826E-023
 -1.950000000000000E-002    1.618435590966987E-022
 -1.940000000000000E-002    2.932417703386918E-022
 -1.930000000000000E-002    4.147747867339958E-022
 -1.920000000000000E-002    4.980559386424936E-022
 -1.910000000000000E-002    5.120143050404794E-022
 -1.900000000000000E-002    4.282367170273736E-022
 -1.890000000000000E-002    2.276815365223393E-022
 -1.880000000000000E-002   -9.212004288611383E-023
 -1.870000000000000E-002   -5.106699451632957E-022
 -1.860000000000000E-002   -9.804956331461309E-022
 -1.850000000000000E-002   -1.427167135447462E-021
 -1.840000000000000E-002   -1.754720456804113E-021
 -1.830000000000000E-002   -1.857245198462325E-021
 -1.820000000000000E-002   -1.636406272277832E-021
 -1.810000000000000E-002   -1.023398179937576E-021
 -1.800000000000000E-002   -2.438694957339611E-024
 -1.790000000000000E-002    1.368356110519395E-021
 -1.780000000000000E-002    2.943714282651954E-021
 -1.770000000000000E-002    4.490684722529379E-021
 -1.760000000000000E-002    5.705095469673448E-021
 -1.750000000000000E-002    6.247239696771405E-021
 -1.740000000000000E-002    5.795948642247533E-021
 -1.730000000000000E-002    4.116333414094860E-021
 -1.720000000000000E-002    1.132288509844608E-021
 -1.710000000000000E-002   -3.008873300434006E-021
 -1.700000000000000E-002   -7.894660010229860E-021
 -1.690000000000000E-002   -1.284369787560506E-020
 -1.680000000000000E-002   -1.695249131018298E-020
 -1.670000000000000E-002   -1.919903414544733E-020
 -1.660000000000000E-002   -1.860051397298832E-020
 -1.650000000000000E-002   -1.441108127724112E-020
 -1.640000000000000E-002   -6.333690983729536E-021
 -1.630000000000000E-002    5.290425004824053E-021
 -1.620000000000000E-002    1.935750256757672E-020
 -1.610000000000000E-002    3.398506399274377E-020
 -1.600000000000000E-002    4.663843062264279E-020
 -1.590000000000000E-002    5.441716692054078E-020
 -1.580000000000000E-002    5.449303951131810E-020
 -1.570000000000000E-002    4.465970510890584E-020
 -1.560000000000000E-002    2.392181349413790E-020
 -1.550000000000000E-002   -6.976927267107862E-021
 -1.540000000000000E-002   -4.520357850983234E-020
 -1.530000000000000E-002   -8.577956231924953E-020
 -1.520000000000000E-002   -1.219102436880354E-019
 -1.510000000000000E-002   -1.457452688675839E-019
 -1.500000000000000E-002   -1.495452078125539E-019
 -1.490000000000000E-002   -1.271466361001848E-019
 -1.480000000000000E-002   -7.553257397075603E-020
 -1.470000000000000E-002    3.757051070710351E-021
 -1.460000000000000E-002    1.036813215692520E-019
 -1.450000000000000E-002    2.115215537200389E-019
 -1.440000000000000E-002    3.097087381002323E-019
 -1.430000000000000E-002    3.777676291933610E-019
 -1.420000000000000E-002    3.953105096729862E-019
 -1.410000000000000E-002    3.458012638060528E-019
 -1.400000000000000E-002    2.205940699845458E-019
 -1.390000000000000E-002    2.257233876626447E-020
 -1.380000000000000E-002   -2.313861489476805E-019
 -1.370000000000000E-002   -5.098728889597558E-019
 -1.360000000000000E-002   -7.689315348757475E-019
 -1.350000000000000E-002   -9.568360422588823E-019
 -1.340000000000000E-002   -1.021495884123396E-018
 -1.330000000000000E-002   -9.197943100504732E-019
 -1.320000000000000E-002   -6.276400140163195E-019
 -1.310000000000000E-002   -1.490797187269377E-019
 -1.300000000000000E-002    4.774156847254332E-019
 -1.290000000000000E-002    1.177326133573391E-018
 -1.280000000000000E-002    1.844550872564027E-018
 -1.270000000000000E-002    2.352645589714225E-018
 -1.260000000000000E-002    2.572434410649942E-018
 -1.250000000000000E-002    2.394363087048267E-018
 -1.240000000000000E-002    1.752708052662464E-018
 -1.230000000000000E-002    6.477460054965556E-019
 -1.220000000000000E-002   -8.385645860196200E-019
 -1.210000000000000E-002   -2.537710937851587E-018
 -1.200000000000000E-002   -4.203954475223852E-018
 -1.190000000000000E-002   -5.539490289721315E-018
 -1.180000000000000E-002   -6.234628252395462E-018
 -1.170000000000000E-002   -6.019307549835961E-018
 -1.160000000000000E-002   -4.719435750579423E-018
 -1.150000000000000E-002   -2.309182283007783E-018
 -1.140000000000000E-002    1.050880211289255E-018
 -1.130000000000000E-002    4.999664665360458E-018
 -1.120000000000000E-002    8.993304370746120E-018
 -1.110000000000000E-002    1.235866422192786E-017
 -1.100000000000000E-002    1.438112580344557E-017
 -1.090000000000000E-002    1.441879535279213E-017
 -1.080000000000000E-002    1.202897863737310E-017
 -1.070000000000000E-002    7.087556640390347E-018
 -1.060000000000000E-002   -1.209914734174119E-019
 -1.050000000000000E-002   -8.864775248464596E-018
 -1.040000000000000E-002   -1.799445635884114E-017
 -1.030000000000000E-002   -2.605128389911925E-017
 -1.020000000000000E-002   -3.145091415813168E-017
 -1.010000000000000E-002   -3.272708931731495E-017
 -1.000000000000000E-002   -2.880567231622132E-017
 -9.899999999999999E-003   -1.926820117398843E-017
 -9.800000000000000E-003   -4.557627817156679E-018
 -9.699999999999999E-003    1.392075079573045E-017
 -9.599999999999999E-003    3.384159914275470E-017
 -9.500000000000000E-003    5.216670352392506E-017
 -9.399999999999999E-003    6.551461092632454E-017
 -9.299999999999999E-003    7.066218908021764E-017
 -9.200000000000000E-003    6.511887128390517E-017
 -9.099999999999999E-003    4.769047244501328E-017
 -8.999999999999999E-003    1.893494033421035E-017
 -8.900000000000000E-003   -1.858818878765564E-017
 -8.799999999999999E-003   -6.035678611870440E-017
 -8.699999999999999E-003   -1.002626205081450E-016
 -8.600000000000000E-003   -1.313266791869255E-016
 -8.499999999999999E-003   -1.466976404195314E-016
 -8.399999999999999E-003   -1.408193168473698E-016
 -8.300000000000000E-003   -1.106031643137126E-016
 -8.199999999999999E-003   -5.641015208181864E-017
 -8.100000000000000E-003    1.735813150637771E-017
 -8.000000000000000E-003    1.022309289808486E-016
 -7.899999999999999E-003    1.863116447265001E-016
 -7.800000000000000E-003    2.556098565498872E-016
 -7.699999999999999E-003    2.959672632976982E-016
 -7.599999999999999E-003    2.953661123968851E-016
 -7.499999999999999E-003    2.463064721865474E-016
 -7.399999999999999E-003    1.478706559195350E-016
 -7.299999999999999E-003    7.076505120681448E-018
 -7.199999999999999E-003   -1.608327545349215E-016
 -7.100000000000000E-003   -3.334006950642041E-016
 -6.999999999999999E-003   -4.833376772733116E-016
 -6.899999999999999E-003   -5.821205284930821E-016
 -6.800000000000000E-003   -6.044357224953695E-016
 -6.699999999999999E-003   -5.328856631670938E-016
 -6.599999999999999E-003   -3.622321953112603E-016
 -6.499999999999999E-003   -1.024014288505283E-016
 -6.399999999999999E-003    2.204584641296330E-016
 -6.299999999999999E-003    5.653772961185501E-016
 -6.199999999999999E-003    8.806180869354016E-016
 -6.100000000000000E-003    1.110185622078681E-015
 -5.999999999999999E-003    1.202149494472439E-015
 -5.899999999999999E-003    1.117741121046384E-015
 -5.800000000000000E-003    8.398786082938701E-016
 -5.699999999999999E-003    3.796399952011332E-016
 -5.599999999999999E-003   -2.207101833196665E-016
 -5.499999999999999E-003   -8.892138281201780E-016
 -5.399999999999999E-003   -1.530750196246197E-015
 -5.299999999999999E-003   -2.038395005127149E-015
 -5.199999999999999E-003   -2.308583964418105E-015
 -5.099999999999999E-003   -2.258269166482560E-015
 -4.999999999999999E-003   -1.841639600852732E-015
 -4.899999999999999E-003   -1.063645259053182E-015
 -4.799999999999999E-003    1.237673963067747E-017
 -4.699999999999999E-003    1.265165082778606E-015
 -4.599999999999999E-003    2.525339078161394E-015
 -4.499999999999999E-003    3.594501458374860E-015
 -4.399999999999999E-003    4.272092919597657E-015
 -4.299999999999999E-003    4.386958281450408E-015
 -4.199999999999999E-003    3.829349636703136E-015
 -4.099999999999999E-003    2.578310137925404E-015
 -3.999999999999999E-003    7.193334465485432E-016
 -3.899999999999999E-003   -1.552087340804651E-015
 -3.799999999999999E-003   -3.943840512431181E-015
 -3.699999999999999E-003   -6.098080474345061E-015
 -3.599999999999999E-003   -7.637477953968959E-015
 -3.499999999999999E-003   -8.221909598216605E-015
 -3.399999999999999E-003   -7.608217246217080E-015
 -3.299999999999999E-003   -5.704008222899717E-015
 -3.199999999999999E-003   -2.606003287010354E-015
 -3.099999999999999E-003    1.385594787157669E-015
 -2.999999999999999E-003    5.782752485627136E-015
 -2.899999999999999E-003    9.957469898550311E-015
 -2.799999999999999E-003    1.321929186817860E-014
 -2.699999999999999E-003    1.491473146479649E-014
 -2.599999999999999E-003    1.453623693299851E-014
 -2.499999999999999E-003    1.182484483741655E-014
 -2.399999999999999E-003    6.849268150756725E-015
 -2.299999999999999E-003    4.522613988149618E-017
 -2.199999999999999E-003   -7.797323464625686E-015
 -2.099999999999999E-003   -1.560499286159092E-014
 -1.999999999999999E-003   -2.214741610354286E-014
 -1.899999999999999E-003   -2.620774812748379E-014
 -1.799999999999999E-003   -2.677682023339695E-014
 -1.699999999999999E-003   -2.324370840205882E-014
 -1.599999999999999E-003   -1.555190241428160E-014
 -1.499999999999999E-003   -4.291146877517146E-015
 -1.399999999999999E-003    9.299346403377670E-015
 -1.299999999999999E-003    2.343003322568994E-014
 -1.199999999999999E-003    3.596207134520642E-014
 -1.099999999999999E-003    4.469351987262192E-014
 -9.999999999999989E-004    4.769782758150916E-014
 -8.999999999999990E-004    4.366860045114980E-014
 -7.999999999999990E-004    3.221684700493821E-014
 -6.999999999999989E-004    1.406640217640794E-014
 -5.999999999999990E-004   -8.898392273803735E-015
 -4.999999999999989E-004   -3.376195271894761E-014
 -3.999999999999989E-004   -5.688890535810589E-014
 -2.999999999999989E-004   -7.439473283982655E-014
 -1.999999999999989E-004   -8.272382143944306E-014
 -9.999999999999892E-005   -7.925852784850896E-014
  1.084202172485504E-018   -6.286697788219196E-014
  1.000000000000011E-004   -3.429368172922484E-014
  2.000000000000011E-004    3.691582637058467E-015
  3.000000000000011E-004    4.644473389851723E-014
  4.000000000000011E-004    8.791668739216577E-014
  5.000000000000011E-004    1.214114689606817E-013
  6.000000000000011E-004    1.405532532293666E-013
  7.000000000000011E-004    1.403380085413467E-013
  8.000000000000011E-004    1.181143655304835E-013
  9.000000000000012E-004    7.432797495501451E-014
  1.000000000000001E-003    1.287833675433115E-014
  1.100000000000001E-003   -5.902219181228143E-014
  1.200000000000001E-003   -1.315331028824402E-013
  1.300000000000001E-003   -1.933800074386999E-013
  1.400000000000001E-003   -2.334380104313364E-013
  1.500000000000001E-003   -2.425055622149519E-013
  1.600000000000001E-003   -2.150130313969841E-013
  1.700000000000001E-003   -1.503854804843452E-013
  1.800000000000001E-003   -5.379748875832100E-014
  1.900000000000001E-003    6.388101735845700E-014
  2.000000000000001E-003    1.870463598374942E-013
  2.100000000000001E-003    2.971974362421719E-013
  2.200000000000001E-003    3.754697154387056E-013
  2.300000000000001E-003    4.055563271745598E-013
  2.400000000000001E-003    3.766031947479081E-013
  2.500000000000001E-003    2.856151257143306E-013
  2.600000000000001E-003    1.389291452218138E-013
  2.700000000000001E-003   -4.759849050297968E-014
  2.800000000000001E-003   -2.498846716184968E-013
  2.900000000000001E-003   -4.383735290790975E-013
  3.000000000000001E-003   -5.820001635785011E-013
  3.100000000000001E-003   -6.528865968285061E-013
  3.200000000000001E-003   -6.311180097217135E-013
  3.300000000000001E-003   -5.088514803192235E-013
  3.400000000000001E-003   -2.930241787919181E-013
  3.500000000000001E-003   -6.060453403012289E-015
  3.600000000000001E-003    3.157794136905074E-013
  3.700000000000001E-003    6.264328997419705E-013
  3.800000000000001E-003    8.761010342091906E-013
  3.900000000000001E-003    1.018630425261582E-012
  4.000000000000001E-003    1.019200216301522E-012
  4.100000000000001E-003    8.611330871862403E-013
  4.200000000000001E-003    5.506495892699499E-013
  4.300000000000001E-003    1.185704914077068E-013
  4.400000000000001E-003   -3.816593136171440E-013
  4.500000000000001E-003   -8.797429274616361E-013
  4.600000000000002E-003   -1.297626599789073E-012
  4.700000000000001E-003   -1.560864705988485E-012
  4.800000000000001E-003   -1.610720300368519E-012
  4.900000000000002E-003   -1.415172070449457E-012
  5.000000000000001E-003   -9.769662378343814E-013
  5.100000000000001E-003   -3.371088175278927E-013
  5.200000000000001E-003    4.272672813233710E-013
  5.300000000000002E-003    1.210952913881108E-012
  5.400000000000001E-003    1.894021712204039E-012
  5.500000000000001E-003    2.358978729846879E-012
  5.600000000000002E-003    2.509416500450607E-012
  5.700000000000001E-003    2.287403301549344E-012
  5.800000000000001E-003    1.686733142465268E-012
  5.900000000000002E-003    7.594981351496308E-013
  6.000000000000001E-003   -3.857638696672146E-013
  6.100000000000001E-003   -1.594962529118255E-012
  6.200000000000002E-003   -2.687640780720452E-012
  6.300000000000002E-003   -3.482318407990017E-012
  6.400000000000001E-003   -3.824665398735176E-012
  6.500000000000001E-003   -3.614385191815122E-012
  6.600000000000002E-003   -2.826452571210032E-012
  6.700000000000001E-003   -1.522800034380133E-012
  6.800000000000001E-003    1.483674732216199E-013
  6.900000000000002E-003    1.966785993823687E-012
  7.000000000000001E-003    3.667028824065794E-012
  7.100000000000001E-003    4.975164091144865E-012
  7.200000000000002E-003    5.650425614676189E-012
  7.300000000000002E-003    5.525887215076435E-012
  7.400000000000001E-003    4.541693890771044E-012
  7.500000000000001E-003    2.764919156461542E-012
  7.600000000000002E-003    3.916424208988397E-013
  7.700000000000001E-003   -2.270821688706450E-012
  7.800000000000001E-003   -4.840701868674040E-012
  7.900000000000001E-003   -6.913671872003480E-012
  8.000000000000002E-003   -8.123239810088965E-012
  8.100000000000001E-003   -8.201049958287174E-012
  8.200000000000001E-003   -7.027713289049271E-012
  8.300000000000002E-003   -4.665355187184021E-012
  8.400000000000001E-003   -1.365117678153099E-012
  8.500000000000002E-003    2.453896904327464E-012
  8.600000000000002E-003    6.253632850376233E-012
  8.700000000000001E-003    9.449022792407380E-012
  8.800000000000002E-003    1.149382926470637E-011
  8.900000000000002E-003    1.196834582426850E-011
  9.000000000000001E-003    1.065557451663630E-011
  9.100000000000002E-003    7.593022604083309E-012
  9.200000000000002E-003    3.089935093338841E-012
  9.300000000000001E-003   -2.295805631678617E-012
  9.400000000000002E-003   -7.821131395614232E-012
  9.500000000000001E-003   -1.265536662388208E-011
  9.600000000000001E-003   -1.599988914995875E-011
  9.700000000000002E-003   -1.721334569732885E-011
  9.800000000000001E-003   -1.592362725172427E-011
  9.900000000000001E-003   -1.210820169556145E-011
  1.000000000000000E-002   -6.127722662473242E-012
  1.010000000000000E-002    1.296252932867910E-012
  1.020000000000000E-002    9.160774179453225E-012
  1.030000000000000E-002    1.631083852202616E-011
  1.040000000000000E-002    2.160292196493130E-011
  1.050000000000000E-002    2.408043008164548E-011
  1.060000000000000E-002    2.313516745233846E-011
  1.070000000000000E-002    1.862887478004878E-011
  1.080000000000000E-002    1.095294622647106E-011
  1.090000000000000E-002    1.012103890828550E-012
  1.100000000000000E-002   -9.871678188767118E-012
  1.110000000000000E-002   -2.012674330256452E-011
  1.120000000000000E-002   -2.815095935440547E-011
  1.130000000000000E-002   -3.255317043542327E-011
  1.140000000000000E-002   -3.238175840678872E-011
  1.150000000000000E-002   -2.730436384501370E-011
  1.160000000000000E-002   -1.770743944399163E-011
  1.170000000000000E-002   -4.694105456250958E-012
  1.180000000000000E-002    1.002736767946910E-011
  1.190000000000000E-002    2.435595248981002E-011
  1.200000000000000E-002    3.608665196557559E-011
  1.210000000000000E-002    4.323755620995382E-011
  1.220000000000000E-002    4.436830938675061E-011
  1.230000000000000E-002    3.884081860035079E-011
  1.240000000000000E-002    2.697805657218668E-011
  1.250000000000000E-002    1.008906741886733E-011
  1.260000000000000E-002   -9.653891203699482E-012
  1.270000000000000E-002   -2.947857588227222E-011
  1.280000000000000E-002   -4.638702742960457E-011
  1.290000000000000E-002   -5.759236565907569E-011
  1.300000000000000E-002   -6.095661603282554E-011
  1.310000000000000E-002   -5.536316243620654E-011
  1.320000000000000E-002   -4.096261355797406E-011
  1.330000000000000E-002   -1.924535702593528E-011
  1.340000000000000E-002    7.082888599604969E-012
  1.350000000000000E-002    3.441823610341919E-011
  1.360000000000000E-002    5.873468548861208E-011
  1.370000000000000E-002    7.615867630784842E-011
  1.380000000000000E-002    8.356264868946644E-011
  1.390000000000000E-002    7.908937520957740E-011
  1.400000000000000E-002    6.252301910121764E-011
  1.410000000000000E-002    3.544010983848453E-011
  1.420000000000000E-002    1.102034605220524E-012
  1.430000000000000E-002   -3.591308014494047E-011
  1.440000000000000E-002   -7.030203937088348E-011
  1.450000000000000E-002   -9.677845726998804E-011
  1.460000000000000E-002   -1.108639451984615E-010
  1.470000000000000E-002   -1.096130245964384E-010
  1.480000000000000E-002   -9.215844729464318E-011
  1.490000000000000E-002   -5.998281037717036E-011
  1.500000000000000E-002   -1.685699351376221E-011
  1.510000000000000E-002    3.156782679009919E-011
  1.520000000000000E-002    7.847684338955398E-011
  1.530000000000000E-002    1.168301330902343E-010
  1.540000000000000E-002    1.403972609816979E-010
  1.550000000000000E-002    1.447392813647193E-010
  1.560000000000000E-002    1.279876061064760E-010
  1.570000000000000E-002    9.128964425174045E-011
  1.580000000000000E-002    3.883284945842905E-011
  1.590000000000000E-002   -2.258401543576299E-011
  1.600000000000000E-002   -8.439743787676669E-011
  1.610000000000000E-002   -1.374437654574629E-010
  1.620000000000000E-002   -1.732880166384124E-010
  1.630000000000000E-002   -1.855283910963045E-010
  1.640000000000000E-002   -1.708797517046329E-010
  1.650000000000000E-002   -1.298598526535691E-010
  1.660000000000000E-002   -6.695042687815496E-011
  1.670000000000000E-002    9.823979833639640E-012
  1.680000000000000E-002    8.987302853106973E-011
  1.690000000000000E-002    1.614619552806386E-010
  1.700000000000000E-002    2.133925705176145E-010
  1.710000000000000E-002    2.367081536046033E-010
  1.720000000000000E-002    2.261689452028790E-010
  1.730000000000000E-002    1.812632466057903E-010
  1.740000000000000E-002    1.065741923007833E-010
  1.750000000000000E-002    1.140783502406603E-011
  1.760000000000000E-002   -9.130710923329782E-011
  1.770000000000000E-002   -1.867279164220045E-010
  1.780000000000000E-002   -2.601964854767826E-010
  1.790000000000000E-002   -2.994378923079186E-010
  1.800000000000000E-002   -2.965364332617290E-010
  1.810000000000000E-002   -2.493804417711559E-010
  1.820000000000000E-002   -1.623280401613817E-010
  1.830000000000000E-002   -4.594749022456927E-011
  1.840000000000000E-002    8.418450588947108E-011
  1.850000000000000E-002    2.095035150693820E-010
  1.860000000000000E-002    3.110445448911499E-010
  1.870000000000000E-002    3.722434341737630E-010