 -4.000000000000000E-002    0.000000000000000E+000
 -3.990000000000000E-002    0.000000000000000E+000
 -3.980000000000000E-002    0.000000000000000E+000
 -3.970000000000000E-002    0.000000000000000E+000
 -3.960000000000000E-002    0.000000000000000E+000
 -3.950000000000000E-002    0.000000000000000E+000
 -3.940000000000000E-002    0.000000000000000E+000
 -3.930000000000000E-002    0.000000000000000E+000
 -3.920000000000000E-002    0.000000000000000E+000
 -3.910000000000000E-002    0.000000000000000E+000
 -3.900000000000000E-002    0.000000000000000E+000
 -3.890000000000000E-002    0.000000000000000E+000
 -3.880000000000000E-002    0.000000000000000E+000
 -3.870000000000000E-002    0.000000000000000E+000
 -3.860000000000000E-002    0.000000000000000E+000
 -3.850000000000000E-002    0.000000000000000E+000
 -3.840000000000000E-002    0.000000000000000E+000
 -3.830000000000000E-002    0.000000000000000E+000
 -3.820000000000000E-002    0.000000000000000E+000
 -3.810000000000000E-002    0.000000000000000E+000
 -3.800000000000000E-002    0.000000000000000E+000
 -3.790000000000000E-002    0.000000000000000E+000
 -3.780000000000000E-002    0.000000000000000E+000
 -3.770000000000000E-002    0.000000000000000E+000
 -3.760000000000000E-002    0.000000000000000E+000
 -3.750000000000000E-002    0.000000000000000E+000
 -3.740000000000000E-002    0.000000000000000E+000
 -3.730000000000000E-002    0.000000000000000E+000
 -3.720000000000000E-002    0.000000000000000E+000
 -3.710000000000000E-002    0.000000000000000E+000
 -3.700000000000000E-002    0.000000000000000E+000
 -3.690000000000000E-002    0.000000000000000E+000
 -3.680000000000000E-002    0.000000000000000E+000
 -3.670000000000000E-002    0.000000000000000E+000
 -3.660000000000000E-002    0.000000000000000E+000
 -3.650000000000000E-002    0.000000000000000E+000
 -3.640000000000000E-002    0.000000000000000E+000
 -3.630000000000000E-002    0.000000000000000E+000
 -3.620000000000000E-002    0.000000000000000E+000
 -3.610000000000000E-002    0.000000000000000E+000
 -3.600000000000000E-002    0.000000000000000E+000
 -3.590000000000000E-002    0.000000000000000E+000
 -3.580000000000000E-002    0.000000000000000E+000
 -3.570000000000000E-002    0.000000000000000E+000
 -3.560000000000000E-002    0.000000000000000E+000
 -3.550000000000000E-002    0.000000000000000E+000
 -3.540000000000000E-002    0.000000000000000E+000
 -3.530000000000000E-002    0.000000000000000E+000
 -3.520000000000000E-002    0.000000000000000E+000
 -3.510000000000000E-002    0.000000000000000E+000
 -3.500000000000000E-002    0.000000000000000E+000
 -3.490000000000000E-002    0.000000000000000E+000
 -3.480000000000000E-002    0.000000000000000E+000
 -3.470000000000000E-002    0.000000000000000E+000
 -3.460000000000000E-002    0.000000000000000E+000
 -3.450000000000000E-002    0.000000000000000E+000
 -3.440000000000000E-002    0.000000000000000E+000
 -3.430000000000000E-002    0.000000000000000E+000
 -3.420000000000000E-002    0.000000000000000E+000
 -3.410000000000000E-002    0.000000000000000E+000
 -3.400000000000000E-002    0.000000000000000E+000
 -3.390000000000000E-002    0.000000000000000E+000
 -3.380000000000000E-002    0.000000000000000E+000
 -3.370000000000000E-002    0.000000000000000E+000
 -3.360000000000000E-002    0.000000000000000E+000
 -3.350000000000000E-002    0.000000000000000E+000
 -3.340000000000000E-002    0.000000000000000E+000
 -3.330000000000000E-002    0.000000000000000E+000
 -3.320000000000000E-002    0.000000000000000E+000
 -3.310000000000000E-002    0.000000000000000E+000
 -3.300000000000000E-002    0.000000000000000E+000
 -3.290000000000000E-002    0.000000000000000E+000
 -3.280000000000000E-002    0.000000000000000E+000
 -3.270000000000000E-002    0.000000000000000E+000
 -3.260000000000000E-002    0.000000000000000E+000
 -3.250000000000000E-002    0.000000000000000E+000
 -3.240000000000000E-002    0.000000000000000E+000
 -3.230000000000000E-002    0.000000000000000E+000
 -3.220000000000000E-002    0.000000000000000E+000
 -3.210000000000000E-002    0.000000000000000E+000
 -3.200000000000000E-002    0.000000000000000E+000
 -3.190000000000000E-002    0.000000000000000E+000
 -3.180000000000000E-002    0.000000000000000E+000
 -3.170000000000000E-002    0.000000000000000E+000
 -3.160000000000000E-002    0.000000000000000E+000
 -3.150000000000000E-002    0.000000000000000E+000
 -3.140000000000000E-002    0.000000000000000E+000
 -3.130000000000000E-002    0.000000000000000E+000
 -3.120000000000000E-002    0.000000000000000E+000
 -3.110000000000000E-002    0.000000000000000E+000
 -3.100000000000000E-002    0.000000000000000E+000
 -3.090000000000000E-002    0.000000000000000E+000
 -3.080000000000000E-002    0.000000000000000E+000
 -3.070000000000000E-002    0.000000000000000E+000
 -3.060000000000000E-002    0.000000000000000E+000
 -3.050000000000000E-002    0.000000000000000E+000
 -3.040000000000000E-002    0.000000000000000E+000
 -3.030000000000000E-002    0.000000000000000E+000
 -3.020000000000000E-002    0.000000000000000E+000
 -3.010000000000000E-002    0.000000000000000E+000
 -3.000000000000000E-002    0.000000000000000E+000
 -2.990000000000000E-002    0.000000000000000E+000
 -2.980000000000000E-002    0.000000000000000E+000
 -2.970000000000000E-002    0.000000000000000E+000
 -2.960000000000000E-002    0.000000000000000E+000
 -2.950000000000000E-002    0.000000000000000E+000
 -2.940000000000000E-002    0.000000000000000E+000
 -2.930000000000000E-002    0.000000000000000E+000
 -2.920000000000000E-002    0.000000000000000E+000
 -2.910000000000000E-002    0.000000000000000E+000
 -2.900000000000000E-002    0.000000000000000E+000
 -2.890000000000000E-002    0.000000000000000E+000
 -2.880000000000000E-002    0.000000000000000E+000
 -2.870000000000000E-002    0.000000000000000E+000
 -2.860000000000000E-002    0.000000000000000E+000
 -2.850000000000000E-002    0.000000000000000E+000
 -2.840000000000000E-002    0.000000000000000E+000
 -2.830000000000000E-002    0.000000000000000E+000
 -2.820000000000000E-002    0.000000000000000E+000
 -2.810000000000000E-002    0.000000000000000E+000
 -2.800000000000000E-002    0.000000000000000E+000
 -2.790000000000000E-002    0.000000000000000E+000
 -2.780000000000000E-002    0.000000000000000E+000
 -2.770000000000000E-002    0.000000000000000E+000
 -2.760000000000000E-002    0.000000000000000E+000
 -2.750000000000000E-002    0.000000000000000E+000
 -2.740000000000000E-002    0.000000000000000E+000
 -2.730000000000000E-002    0.000000000000000E+000
 -2.720000000000000E-002    0.000000000000000E+000
 -2.710000000000000E-002    0.000000000000000E+000
 -2.700000000000000E-002    0.000000000000000E+000
 -2.690000000000000E-002    0.000000000000000E+000
 -2.680000000000000E-002    0.000000000000000E+000
 -2.670000000000000E-002    0.000000000000000E+000
 -2.660000000000000E-002    0.000000000000000E+000
 -2.650000000000000E-002    0.000000000000000E+000
 -2.640000000000000E-002    0.000000000000000E+000
 -2.630000000000000E-002    0.000000000000000E+000
 -2.620000000000000E-002    0.000000000000000E+000
 -2.610000000000000E-002    0.000000000000000E+000
 -2.600000000000000E-002    0.000000000000000E+000
 -2.590000000000000E-002    0.000000000000000E+000
 -2.580000000000000E-002    0.000000000000000E+000
 -2.570000000000000E-002    0.000000000000000E+000
 -2.560000000000000E-002    0.000000000000000E+000
 -2.550000000000000E-002    0.000000000000000E+000
 -2.540000000000000E-002    0.000000000000000E+000
 -2.530000000000000E-002    0.000000000000000E+000
 -2.520000000000000E-002    0.000000000000000E+000
 -2.510000000000000E-002    0.000000000000000E+000
 -2.500000000000000E-002    0.000000000000000E+000
 -2.490000000000000E-002    0.000000000000000E+000
 -2.480000000000000E-002    0.000000000000000E+000
 -2.470000000000000E-002    0.000000000000000E+000
 -2.460000000000000E-002    0.000000000000000E+000
 -2.450000000000000E-002    0.000000000000000E+000
 -2.440000000000000E-002    0.000000000000000E+000
 -2.430000000000000E-002    0.000000000000000E+000
 -2.420000000000000E-002    0.000000000000000E+000
 -2.410000000000000E-002    0.000000000000000E+000
 -2.400000000000000E-002    0.000000000000000E+000
 -2.390000000000000E-002    0.000000000000000E+000
 -2.380000000000000E-002    0.000000000000000E+000
 -2.370000000000000E-002    0.000000000000000E+000
 -2.360000000000000E-002    0.000000000000000E+000
 -2.350000000000000E-002    0.000000000000000E+000
 -2.340000000000000E-002    0.000000000000000E+000
 -2.330000000000000E-002    0.000000000000000E+000
 -2.320000000000000E-002    0.000000000000000E+000
 -2.310000000000000E-002    0.000000000000000E+000
 -2.300000000000000E-002    0.000000000000000E+000
 -2.290000000000000E-002    0.000000000000000E+000
 -2.280000000000000E-002    0.000000000000000E+000
 -2.270000000000000E-002    0.000000000000000E+000
 -2.260000000000000E-002    0.000000000000000E+000
 -2.250000000000000E-002    0.000000000000000E+000
 -2.240000000000000E-002    0.000000000000000E+000
 -2.230000000000000E-002    0.000000000000000E+000
 -2.220000000000000E-002    0.000000000000000E+000
 -2.210000000000000E-002    0.000000000000000E+000
 -2.200000000000000E-002    6.414635304221270E-048
 -2.190000000000000E-002    6.763422942257716E-047
 -2.180000000000000E-002    1.309920353090068E-046
 -2.170000000000000E-002    1.943498411954365E-046
 -2.160000000000000E-002    2.577076470818661E-046
 -2.150000000000000E-002    3.082361823598532E-046
 -2.140000000000000E-002    2.761630058387469E-046
 -2.130000000000000E-002    3.671050485942216E-047
 -2.120000000000000E-002   -3.821243549388227E-046
 -2.110000000000000E-002   -1.198933548709790E-045
 -2.100000000000000E-002   -2.237234264608261E-045
 -2.090000000000000E-002   -3.174050272691927E-045
 -2.080000000000000E-002   -3.973620302310193E-045
 -2.070000000000000E-002   -4.051117528005629E-045
 -2.060000000000000E-002   -2.727500326327879E-045
 -2.050000000000000E-002   -1.054226411202530E-045
 -2.040000000000000E-002    2.994837896197042E-045
 -2.030000000000000E-002    9.487287304786905E-045
 -2.020000000000000E-002    1.794556648231548E-044
 -2.010000000000000E-002    2.677414442775749E-044
 -2.000000000000000E-002    3.475065525721214E-044
 -1.990000000000000E-002    3.902282999512681E-044
 -1.980000000000000E-002    3.561891155741237E-044
 -1.970000000000000E-002    2.157430888089305E-044
 -1.960000000000000E-002   -9.573685473559181E-045
 -1.950000000000000E-002   -5.988243853257169E-044
 -1.940000000000000E-002   -1.290792748297547E-043
 -1.930000000000000E-002   -2.096348603007574E-043
 -1.920000000000000E-002   -2.875253699197042E-043
 -1.910000000000000E-002   -3.384629055327027E-043
 -1.900000000000000E-002   -3.306284047591251E-043
 -1.890000000000000E-002   -2.247656742082476E-043
 -1.880000000000000E-002    1.328854276538382E-044
 -1.870000000000000E-002    4.080372623759528E-043
 -1.860000000000000E-002    9.528102356759419E-043
 -1.850000000000000E-002    1.596814938060794E-042
 -1.840000000000000E-002    2.229192016116991E-042
 -1.830000000000000E-002    2.669752028856760E-042
 -1.820000000000000E-002    2.674066991274250E-042
 -1.810000000000000E-002    1.962542453437028E-042
 -1.800000000000000E-002    2.675433349935935E-043
 -1.790000000000000E-002   -2.579000320358917E-042
 -1.780000000000000E-002   -6.541528233429665E-042
 -1.770000000000000E-002   -1.126193956891123E-041
 -1.760000000000000E-002   -1.595798260748392E-041
 -1.750000000000000E-002   -1.936836760681379E-041
 -1.740000000000000E-002   -1.979735898802281E-041
 -1.730000000000000E-002   -1.530527050436381E-041
 -1.720000000000000E-002   -4.068791152366815E-042
 -1.710000000000000E-002    1.505945796960462E-041
 -1.700000000000000E-002    4.184945036100168E-041
 -1.690000000000000E-002    7.392999111121102E-041
 -1.680000000000000E-002    1.061410373803214E-040
 -1.670000000000000E-002    1.302415303148015E-040
 -1.660000000000000E-002    1.352459597935628E-040
 -1.650000000000000E-002    1.086794672913664E-040
 -1.640000000000000E-002    3.893722124644217E-041
 -1.630000000000000E-002   -8.121434047332931E-041
 -1.620000000000000E-002   -2.502761484324292E-040
 -1.610000000000000E-002   -4.534249486184434E-040
 -1.600000000000000E-002   -6.587453203806614E-040
 -1.590000000000000E-002   -8.157308759275560E-040
 -1.580000000000000E-002   -8.576884851986415E-040
 -1.570000000000000E-002   -7.096089908690939E-040
 -1.560000000000000E-002   -3.025013853967450E-040
 -1.550000000000000E-002    4.059040250809208E-040
 -1.540000000000000E-002    1.405870720412883E-039
 -1.530000000000000E-002    2.609697237479557E-039
 -1.520000000000000E-002    3.831279376548907E-039
 -1.510000000000000E-002    4.779305251244289E-039
 -1.500000000000000E-002    5.073086500674692E-039
 -1.490000000000000E-002    4.289110776998942E-039
 -1.480000000000000E-002    2.042938865044736E-039
 -1.470000000000000E-002   -1.895332249569187E-039
 -1.460000000000000E-002   -7.463140517380672E-039
 -1.450000000000000E-002   -1.416754925237404E-038
 -1.440000000000000E-002   -2.098146351664638E-038
 -1.430000000000000E-002   -2.631718621056949E-038
 -1.420000000000000E-002   -2.812358699080079E-038
 -1.410000000000000E-002   -2.414621208474815E-038
 -1.400000000000000E-002   -1.236960792912852E-038
 -1.390000000000000E-002    8.373918489745703E-039
 -1.380000000000000E-002    3.769353409134112E-038
 -1.370000000000000E-002    7.294871207132379E-038
 -1.360000000000000E-002    1.087550083361614E-037
 -1.350000000000000E-002    1.369043093052101E-037
 -1.340000000000000E-002    1.469235958390200E-037
 -1.330000000000000E-002    1.274521149453996E-037
 -1.320000000000000E-002    6.850687458521166E-038
 -1.310000000000000E-002   -3.547328852458517E-038
 -1.300000000000000E-002   -1.821552886429052E-037
 -1.290000000000000E-002   -3.580325244828629E-037
 -1.280000000000000E-002   -5.362124867516181E-037
 -1.270000000000000E-002   -6.763074383981513E-037
 -1.260000000000000E-002   -7.274563394336561E-037
 -1.250000000000000E-002   -6.352488347057811E-037
 -1.240000000000000E-002   -3.527595902264981E-037
 -1.230000000000000E-002    1.449721466397128E-037
 -1.220000000000000E-002    8.448083179784016E-037
 -1.210000000000000E-002    1.680733777001224E-036
 -1.200000000000000E-002    2.524521221425533E-036
 -1.190000000000000E-002    3.186530842102185E-036
 -1.180000000000000E-002    3.431118139221430E-036
 -1.170000000000000E-002    3.009754374242127E-036
 -1.160000000000000E-002    1.712247958712259E-036
 -1.150000000000000E-002   -5.675777337197905E-037
 -1.140000000000000E-002   -3.760389882600339E-036
 -1.130000000000000E-002   -7.557897588570998E-036
 -1.120000000000000E-002   -1.137564604053544E-035
 -1.110000000000000E-002   -1.436229124540078E-035
 -1.100000000000000E-002   -1.547385330540664E-035
 -1.090000000000000E-002   -1.362469592944262E-035
 -1.080000000000000E-002   -7.914537312550993E-036
 -1.070000000000000E-002    2.086872719125947E-036
 -1.060000000000000E-002    1.603694018126412E-035
 -1.050000000000000E-002    3.256005720569992E-035
 -1.040000000000000E-002    4.910736186147789E-035
 -1.030000000000000E-002    6.201975085271457E-035
 -1.020000000000000E-002    6.686704739423701E-035
 -1.010000000000000E-002    5.910487994739896E-035
 -1.000000000000000E-002    3.503688992157241E-035
 -9.899999999999999E-003   -7.004170762557216E-036
 -9.800000000000000E-003   -6.542822155488675E-035
 -9.699999999999999E-003   -1.343669137976752E-034
 -9.599999999999999E-003   -2.031738468329542E-034
 -9.500000000000000E-003   -2.567738457085097E-034
 -9.399999999999999E-003   -2.771353845386492E-034
 -9.299999999999999E-003   -2.460032047947879E-034
 -9.200000000000000E-003   -1.488049197445961E-034
 -9.099999999999999E-003    2.065072249198270E-035
 -8.999999999999999E-003    2.553956053693001E-034
 -8.900000000000000E-003    5.314621897565075E-034
 -8.799999999999999E-003    8.062023884274515E-034
 -8.699999999999999E-003    1.020001851357520E-033
 -8.600000000000000E-003    1.102373903953536E-033
 -8.499999999999999E-003    9.828492000265654E-034
 -8.399999999999999E-003    6.061935327187995E-034
 -8.300000000000000E-003   -4.964384992817499E-035
 -8.199999999999999E-003   -9.556722698499880E-034
 -8.100000000000000E-003   -2.017994258392303E-033
 -8.000000000000000E-003   -3.072492039725523E-033
 -7.899999999999999E-003   -3.892535576167028E-033
 -7.800000000000000E-003   -4.213093924595649E-033
 -7.699999999999999E-003   -3.772385028106295E-033
 -7.599999999999999E-003   -2.368854951891444E-033
 -7.499999999999999E-003    7.286958339215685E-035
 -7.399999999999999E-003    3.437753259295128E-033
 -7.299999999999999E-003    7.372227385230115E-033
 -7.199999999999999E-003    1.126851916980206E-032
 -7.100000000000000E-003    1.429697458596060E-032
 -6.999999999999999E-003    1.549748493292575E-032
 -6.899999999999999E-003    1.393266285997228E-032
 -6.800000000000000E-003    8.893251865528450E-033
 -6.699999999999999E-003    1.316392406702150E-034
 -6.599999999999999E-003   -1.191549508304226E-032
 -6.499999999999999E-003   -2.596633919386727E-032
 -6.399999999999999E-003   -3.985136384361412E-032
 -6.299999999999999E-003   -5.064104661729879E-032
 -6.199999999999999E-003   -5.497883874956907E-032
 -6.100000000000000E-003   -4.962371892999498E-032
 -5.999999999999999E-003   -3.216428672993421E-032
 -5.899999999999999E-003   -1.816635344640692E-033
 -5.800000000000000E-003    3.983047263173533E-032
 -5.699999999999999E-003    8.829711508304943E-032
 -5.599999999999999E-003    1.361083146866007E-031
 -5.499999999999999E-003    1.732727685522616E-031
 -5.399999999999999E-003    1.884494201181494E-031
 -5.299999999999999E-003    1.708011923150099E-031
 -5.199999999999999E-003    1.123921861078735E-031
 -5.099999999999999E-003    1.082234717583216E-032
 -4.999999999999999E-003   -1.283611554472216E-031
 -4.899999999999999E-003   -2.900489362350007E-031
 -4.799999999999999E-003   -4.493556188435555E-031
 -4.699999999999999E-003   -5.733299265770788E-031
 -4.599999999999999E-003   -6.248931922327863E-031
 -4.499999999999999E-003   -5.689558655043230E-031
 -4.399999999999999E-003   -3.801985958862313E-031
 -4.299999999999999E-003   -5.149050290484155E-032
 -4.199999999999999E-003    3.985560835007883E-031
 -4.099999999999999E-003    9.207186015273899E-031
 -3.999999999999999E-003    1.434867316246153E-030
 -3.899999999999999E-003    1.835811041717385E-030
 -3.799999999999999E-003    2.006127461687688E-030
 -3.699999999999999E-003    1.835679462548128E-030
 -3.599999999999999E-003    1.246062455636280E-030
 -3.499999999999999E-003    2.166628469915783E-031
 -3.399999999999999E-003   -1.192399942227667E-030
 -3.299999999999999E-003   -2.826064671142528E-030
 -3.199999999999999E-003   -4.434524712065410E-030
 -3.099999999999999E-003   -5.692408870574419E-030
 -2.999999999999999E-003   -6.239174999801650E-030
 -2.899999999999999E-003   -5.739396654283419E-030
 -2.799999999999999E-003   -3.957205120494276E-030
 -2.699999999999999E-003   -8.345165244755014E-031
 -2.599999999999999E-003    3.441352559899884E-030
 -2.499999999999999E-003    8.397452699272011E-030
 -2.399999999999999E-003    1.327891013687133E-029
 -2.299999999999999E-003    1.710950370201509E-029
 -2.199999999999999E-003    1.881474101930928E-029
 -2.099999999999999E-003    1.740237301733158E-029
 -1.999999999999999E-003    1.218232508129796E-029
 -1.899999999999999E-003    2.994733704562856E-030
 -1.799999999999999E-003   -9.596422689333881E-030
 -1.699999999999999E-003   -2.419267731055019E-029
 -1.599999999999999E-003   -3.858031358061183E-029
 -1.499999999999999E-003   -4.991489642646378E-029
 -1.399999999999999E-003   -5.508466404509907E-029
 -1.299999999999999E-003   -5.123507666184786E-029
 -1.199999999999999E-003   -3.640002723581078E-029
 -1.099999999999999E-003   -1.014806880311688E-029
 -9.999999999999989E-004    2.587807431421750E-029
 -8.999999999999990E-004    6.766531149457530E-029
 -7.999999999999990E-004    1.089065973093159E-028
 -6.999999999999989E-004    1.415441473455006E-028
 -5.999999999999990E-004    1.568101440603344E-028
 -4.999999999999989E-004    1.467076783950815E-028
 -3.999999999999989E-004    1.057724742287430E-028
 -2.999999999999989E-004    3.285539634487694E-029
 -1.999999999999989E-004   -6.741279610344505E-029
 -9.999999999999892E-005   -1.838482167258150E-028
  1.084202172485504E-018   -2.989784394486078E-028
  1.000000000000011E-004   -3.905893144339516E-028
  2.000000000000011E-004   -4.346189212991539E-028
  3.000000000000011E-004   -4.092232244578934E-028
  4.000000000000011E-004   -2.995620573746744E-028
  5.000000000000011E-004   -1.025903094104755E-028
  6.000000000000011E-004    1.690619499974197E-028
  7.000000000000011E-004    4.851154833093469E-028
  8.000000000000011E-004    7.984785363284677E-028
  9.000000000000012E-004    1.049509995262213E-027
  1.000000000000001E-003    1.173838746946450E-027
  1.100000000000001E-003    1.113224205666185E-027
  1.200000000000001E-003    8.282230848855022E-028
  1.300000000000001E-003    3.107488761759383E-028
  1.400000000000001E-003   -4.058873398591797E-028
  1.500000000000001E-003   -1.242035582698857E-027
  1.600000000000001E-003   -2.074171004571677E-027
  1.700000000000001E-003   -2.746278762195015E-027
  1.800000000000001E-003   -3.090390269459954E-027
  1.900000000000001E-003   -2.954830370943078E-027
  2.000000000000001E-003   -2.236898266437780E-027
  2.100000000000001E-003   -9.150001251332753E-028
  2.200000000000001E-003    9.259429784254886E-028
  2.300000000000001E-003    3.082340956889119E-027
  2.400000000000001E-003    5.238770729249025E-027
  2.500000000000001E-003    6.997452470466949E-027
  2.600000000000001E-003    7.930709742869211E-027
  2.700000000000001E-003    7.652540305199669E-027
  2.800000000000001E-003    5.900849927009516E-027
  2.900000000000001E-003    2.617749107166705E-027
  3.000000000000001E-003   -1.987529319579032E-027
  3.100000000000001E-003   -7.409201289957258E-027
  3.200000000000001E-003   -1.286293415476207E-026
  3.300000000000001E-003   -1.735988835752626E-026
  3.400000000000001E-003   -1.983713200042772E-026
  3.500000000000001E-003   -1.933439435738796E-026
  3.600000000000001E-003   -1.519600883452257E-026
  3.700000000000001E-003   -7.266992851779269E-027
  3.800000000000001E-003    3.954381313182609E-027
  3.900000000000001E-003    1.724632214314706E-026
  4.000000000000001E-003    3.070873118814269E-026
  4.100000000000001E-003    4.194380176057998E-026
  4.200000000000001E-003    4.837173791753579E-026
  4.300000000000001E-003    4.765649269690866E-026
  4.400000000000001E-003    3.819002634563402E-026
  4.500000000000001E-003    1.956048725628657E-026
  4.600000000000002E-003   -7.085138742447640E-027
  4.700000000000001E-003   -3.887548843843379E-026
  4.800000000000001E-003   -7.132335066382875E-026
  4.900000000000002E-003   -9.875374736785947E-026
  5.000000000000001E-003   -1.150487103694121E-025
  5.100000000000001E-003   -1.146480633140427E-025
  5.200000000000001E-003   -9.368419887927180E-026
  5.300000000000002E-003   -5.107604236797400E-026
  5.400000000000001E-003    1.062565521805418E-026
  5.500000000000001E-003    8.485245623867883E-026
  5.600000000000002E-003    1.612679227535001E-025
  5.700000000000001E-003    2.267537644526799E-025
  5.800000000000001E-003    2.671231264871571E-025
  5.900000000000002E-003    2.694181109390550E-025
  6.000000000000001E-003    2.245099623002383E-025
  6.100000000000001E-003    1.296026526921426E-025
  6.200000000000002E-003   -9.832516402538724E-027
  6.300000000000002E-003   -1.791668270678125E-025
  6.400000000000001E-003   -3.551624509258284E-025
  6.500000000000001E-003   -5.081818582568311E-025
  6.600000000000002E-003   -6.060324390192702E-025
  6.700000000000001E-003   -6.191199217526942E-025
  6.800000000000001E-003   -5.262796005192706E-025
  6.900000000000002E-003   -3.203918372765807E-025
  7.000000000000001E-003   -1.273385576886598E-026
  7.100000000000001E-003    3.649838167010023E-025
  7.200000000000002E-003    7.617622773744017E-025
  7.300000000000002E-003    1.112126783131451E-024
  7.400000000000001E-003    1.344542633825521E-024
  7.500000000000001E-003    1.392716863355258E-024
  7.600000000000002E-003    1.208400765485704E-024
  7.700000000000001E-003    7.737466501774686E-025
  7.800000000000001E-003    1.109373538152603E-025
  7.900000000000001E-003   -7.131869635016642E-025
  8.000000000000002E-003   -1.589383387765008E-024
  8.100000000000001E-003   -2.376184018895577E-024
  8.200000000000001E-003   -2.917870857972083E-024
  8.300000000000002E-003   -3.068706022286803E-024
  8.400000000000001E-003   -2.720465754826345E-024
  8.500000000000002E-003   -1.829123281913447E-024
  8.600000000000002E-003   -4.358312247617829E-025
  8.700000000000001E-003    1.322649860187145E-024
  8.800000000000002E-003    3.218053231711862E-024
  8.900000000000002E-003    4.951494651028570E-024
  9.000000000000001E-003    6.190899475841055E-024
  9.100000000000002E-003    6.621799364451333E-024
  9.200000000000002E-003    6.005333985150450E-024
  9.300000000000001E-003    4.234820912893761E-024
  9.400000000000002E-003    1.380762596606313E-024
  9.500000000000001E-003   -2.285820507303799E-024
  9.600000000000001E-003   -6.300080773457480E-024
  9.700000000000002E-003   -1.004484957337095E-023
  9.800000000000001E-003   -1.282659609065042E-023
  9.900000000000001E-003   -1.397952164623697E-023
  1.000000000000000E-002   -1.298525449255212E-023
  1.010000000000000E-002   -9.590568701249469E-024
  1.020000000000000E-002   -3.902436377585911E-024
  1.030000000000000E-002    3.560303430497505E-024
  1.040000000000000E-002    1.187592410422621E-023
  1.050000000000000E-002    1.979950345690701E-023
  1.060000000000000E-002    2.591314715159435E-023
  1.070000000000000E-002    2.883443571840955E-023
  1.080000000000000E-002    2.745841065065932E-023
  1.090000000000000E-002    2.119803279998046E-023
  1.100000000000000E-002    1.018175616707285E-023
  1.110000000000000E-002   -4.633537279970615E-024
  1.120000000000000E-002   -2.146933164854736E-023
  1.130000000000000E-002   -3.787303816821217E-023
  1.140000000000000E-002   -5.100733836127701E-023
  1.150000000000000E-002   -5.805820398460781E-023
  1.160000000000000E-002   -5.671418346484893E-023
  1.170000000000000E-002   -4.564867163009459E-023
  1.180000000000000E-002   -2.492393962378367E-023
  1.190000000000000E-002    3.765633375521138E-024
  1.200000000000000E-002    3.708137670088483E-023
  1.210000000000000E-002    7.030304086371087E-023
  1.220000000000000E-002    9.787128160990604E-023
  1.230000000000000E-002    1.141686276871354E-022
  1.240000000000000E-002    1.144500702972351E-022
  1.250000000000000E-002    9.579302356284338E-023
  1.260000000000000E-002    5.791053911212113E-023
  1.270000000000000E-002    3.667195644659043E-024
  1.280000000000000E-002   -6.084164831039557E-023
  1.290000000000000E-002   -1.267361985726253E-022
  1.300000000000000E-002   -1.833423306318824E-022
  1.310000000000000E-002   -2.196533797634593E-022
  1.320000000000000E-002   -2.261020623058783E-022
  1.330000000000000E-002   -1.963997616256019E-022
  1.340000000000000E-002   -1.291485442251199E-022
  1.350000000000000E-002   -2.891784734268813E-023
  1.360000000000000E-002    9.348427003228740E-023
  1.370000000000000E-002    2.217283871160840E-022
  1.380000000000000E-002    3.357178113051968E-022
  1.390000000000000E-002    4.142643685269840E-022
  1.400000000000000E-002    4.383981798167058E-022
  1.410000000000000E-002    3.948697353770766E-022
  1.420000000000000E-002    2.792975339824696E-022
  1.430000000000000E-002    9.838243616347252E-023
  1.440000000000000E-002   -1.293332178508118E-022
  1.450000000000000E-002   -3.745269380482585E-022
  1.460000000000000E-002   -6.001052621721365E-022
  1.470000000000000E-002   -7.659874220547950E-022
  1.480000000000000E-002   -8.351675527529590E-022
  1.490000000000000E-002   -7.802703558150512E-022
  1.500000000000000E-002   -5.896067108557038E-022
  1.510000000000000E-002   -2.716537182131875E-022
  1.520000000000000E-002    1.430266985684420E-022
  1.530000000000000E-002    6.031625326012989E-022
  1.540000000000000E-002    1.041740166693269E-021
  1.550000000000000E-002    1.384337686324493E-021
  1.560000000000000E-002    1.560003235383332E-021
  1.570000000000000E-002    1.513309149562049E-021
  1.580000000000000E-002    1.215813241906759E-021
  1.590000000000000E-002    6.749680113508254E-022
  1.600000000000000E-002   -6.136907067447857E-023
  1.610000000000000E-002   -9.062511214008370E-022
  1.620000000000000E-002   -1.741478420252146E-021
  1.630000000000000E-002   -2.431712629402065E-021
  1.640000000000000E-002   -2.843563389015589E-021
  1.650000000000000E-002   -2.867330722479598E-021
  1.660000000000000E-002   -2.438314264377560E-021
  1.670000000000000E-002   -1.554178650007904E-021
  1.680000000000000E-002   -2.849763186627720E-022
  1.690000000000000E-002    1.226911695017645E-021
  1.700000000000000E-002    2.778452891148967E-021
  1.710000000000000E-002    4.129135061392133E-021
  1.720000000000000E-002    5.033674161769713E-021
  1.730000000000000E-002    5.280439615542085E-021
  1.740000000000000E-002    4.730305563716630E-021
  1.750000000000000E-002    3.349759952600093E-021
  1.760000000000000E-002    1.232131383636999E-021
  1.770000000000000E-002   -1.398263355641077E-021
  1.780000000000000E-002   -4.202232361995729E-021
  1.790000000000000E-002   -6.762518222786642E-021
  1.800000000000000E-002   -8.638495715716460E-021
  1.810000000000000E-002   -9.432672283069197E-021
  1.820000000000000E-002   -8.860098964111945E-021
  1.830000000000000E-002   -6.810083930265692E-021
  1.840000000000000E-002   -3.389269349367350E-021
  1.850000000000000E-002    1.063545181679348E-021
  1.860000000000000E-002    5.997227745934738E-021
  1.870000000000000E-002    1.070471689525227E-020