 -4.000000000000000E-002    0.000000000000000E+000
 -3.990000000000000E-002    0.000000000000000E+000
 -3.980000000000000E-002    0.000000000000000E+000
 -3.970000000000000E-002    0.000000000000000E+000
 -3.960000000000000E-002    0.000000000000000E+000
 -3.950000000000000E-002    0.000000000000000E+000
 -3.940000000000000E-002    0.000000000000000E+000
 -3.930000000000000E-002    0.000000000000000E+000
 -3.920000000000000E-002    0.000000000000000E+000
 -3.910000000000000E-002    0.000000000000000E+000
 -3.900000000000000E-002    0.000000000000000E+000
 -3.890000000000000E-002    0.000000000000000E+000
 -3.880000000000000E-002    0.000000000000000E+000
 -3.870000000000000E-002    0.000000000000000E+000
 -3.860000000000000E-002    0.000000000000000E+000
 -3.850000000000000E-002    0.000000000000000E+000
 -3.840000000000000E-002    0.000000000000000E+000
 -3.830000000000000E-002    0.000000000000000E+000
 -3.820000000000000E-002    0.000000000000000E+000
 -3.810000000000000E-002    0.000000000000000E+000
 -3.800000000000000E-002    0.000000000000000E+000
 -3.790000000000000E-002    0.000000000000000E+000
 -3.780000000000000E-002    0.000000000000000E+000
 -3.770000000000000E-002    0.000000000000000E+000
 -3.760000000000000E-002    0.000000000000000E+000
 -3.750000000000000E-002    0.000000000000000E+000
 -3.740000000000000E-002    0.000000000000000E+000
 -3.730000000000000E-002    0.000000000000000E+000
 -3.720000000000000E-002    0.000000000000000E+000
 -3.710000000000000E-002    0.000000000000000E+000
 -3.700000000000000E-002    0.000000000000000E+000
 -3.690000000000000E-002    0.000000000000000E+000
 -3.680000000000000E-002    0.000000000000000E+000
 -3.670000000000000E-002    0.000000000000000E+000
 -3.660000000000000E-002    0.000000000000000E+000
 -3.650000000000000E-002    0.000000000000000E+000
 -3.640000000000000E-002    0.000000000000000E+000
 -3.630000000000000E-002    0.000000000000000E+000
 -3.620000000000000E-002    0.000000000000000E+000
 -3.610000000000000E-002    0.000000000000000E+000
 -3.600000000000000E-002    0.000000000000000E+000
 -3.590000000000000E-002    0.000000000000000E+000
 -3.580000000000000E-002    0.000000000000000E+000
 -3.570000000000000E-002    0.000000000000000E+000
 -3.560000000000000E-002    0.000000000000000E+000
 -3.550000000000000E-002    0.000000000000000E+000
 -3.540000000000000E-002    0.000000000000000E+000
 -3.530000000000000E-002    0.000000000000000E+000
 -3.520000000000000E-002    0.000000000000000E+000
 -3.510000000000000E-002    0.000000000000000E+000
 -3.500000000000000E-002    0.000000000000000E+000
 -3.490000000000000E-002    0.000000000000000E+000
 -3.480000000000000E-002    0.000000000000000E+000
 -3.470000000000000E-002    0.000000000000000E+000
 -3.460000000000000E-002    0.000000000000000E+000
 -3.450000000000000E-002    0.000000000000000E+000
 -3.440000000000000E-002    0.000000000000000E+000
 -3.430000000000000E-002    0.000000000000000E+000
 -3.420000000000000E-002    0.000000000000000E+000
 -3.410000000000000E-002    0.000000000000000E+000
 -3.400000000000000E-002    0.000000000000000E+000
 -3.390000000000000E-002    0.000000000000000E+000
 -3.380000000000000E-002    0.000000000000000E+000
 -3.370000000000000E-002    0.000000000000000E+000
 -3.360000000000000E-002    0.000000000000000E+000
 -3.350000000000000E-002    0.000000000000000E+000
 -3.340000000000000E-002    0.000000000000000E+000
 -3.330000000000000E-002    0.000000000000000E+000
 -3.320000000000000E-002    0.000000000000000E+000
 -3.310000000000000E-002    0.000000000000000E+000
 -3.300000000000000E-002    0.000000000000000E+000
 -3.290000000000000E-002    0.000000000000000E+000
 -3.280000000000000E-002    0.000000000000000E+000
 -3.270000000000000E-002    0.000000000000000E+000
 -3.260000000000000E-002    0.000000000000000E+000
 -3.250000000000000E-002    0.000000000000000E+000
 -3.240000000000000E-002    0.000000000000000E+000
 -3.230000000000000E-002    0.000000000000000E+000
 -3.220000000000000E-002    0.000000000000000E+000
 -3.210000000000000E-002    0.000000000000000E+000
 -3.200000000000000E-002    0.000000000000000E+000
 -3.190000000000000E-002    0.000000000000000E+000
 -3.180000000000000E-002    0.000000000000000E+000
 -3.170000000000000E-002    0.000000000000000E+000
 -3.160000000000000E-002    0.000000000000000E+000
 -3.150000000000000E-002    0.000000000000000E+000
 -3.140000000000000E-002    0.000000000000000E+000
 -3.130000000000000E-002    0.000000000000000E+000
 -3.120000000000000E-002    0.000000000000000E+000
 -3.110000000000000E-002    0.000000000000000E+000
 -3.100000000000000E-002    0.000000000000000E+000
 -3.090000000000000E-002    0.000000000000000E+000
 -3.080000000000000E-002    0.000000000000000E+000
 -3.070000000000000E-002    0.000000000000000E+000
 -3.060000000000000E-002    0.000000000000000E+000
 -3.050000000000000E-002    0.000000000000000E+000
 -3.040000000000000E-002    0.000000000000000E+000
 -3.030000000000000E-002    0.000000000000000E+000
 -3.020000000000000E-002    0.000000000000000E+000
 -3.010000000000000E-002    0.000000000000000E+000
 -3.000000000000000E-002    0.000000000000000E+000
 -2.990000000000000E-002    0.000000000000000E+000
 -2.980000000000000E-002    0.000000000000000E+000
 -2.970000000000000E-002    0.000000000000000E+000
 -2.960000000000000E-002    0.000000000000000E+000
 -2.950000000000000E-002    0.000000000000000E+000
 -2.940000000000000E-002    0.000000000000000E+000
 -2.930000000000000E-002    0.000000000000000E+000
 -2.920000000000000E-002    0.000000000000000E+000
 -2.910000000000000E-002    0.000000000000000E+000
 -2.900000000000000E-002    0.000000000000000E+000
 -2.890000000000000E-002    0.000000000000000E+000
 -2.880000000000000E-002    0.000000000000000E+000
 -2.870000000000000E-002    0.000000000000000E+000
 -2.860000000000000E-002    0.000000000000000E+000
 -2.850000000000000E-002    0.000000000000000E+000
 -2.840000000000000E-002    0.000000000000000E+000
 -2.830000000000000E-002    0.000000000000000E+000
 -2.820000000000000E-002    0.000000000000000E+000
 -2.810000000000000E-002    0.000000000000000E+000
 -2.800000000000000E-002    0.000000000000000E+000
 -2.790000000000000E-002    0.000000000000000E+000
 -2.780000000000000E-002    0.000000000000000E+000
 -2.770000000000000E-002    0.000000000000000E+000
 -2.760000000000000E-002    0.000000000000000E+000
 -2.750000000000000E-002    0.000000000000000E+000
 -2.740000000000000E-002    0.000000000000000E+000
 -2.730000000000000E-002    0.000000000000000E+000
 -2.720000000000000E-002    0.000000000000000E+000
 -2.710000000000000E-002    0.000000000000000E+000
 -2.700000000000000E-002    0.000000000000000E+000
 -2.690000000000000E-002    0.000000000000000E+000
 -2.680000000000000E-002    0.000000000000000E+000
 -2.670000000000000E-002    0.000000000000000E+000
 -2.660000000000000E-002    0.000000000000000E+000
 -2.650000000000000E-002    0.000000000000000E+000
 -2.640000000000000E-002    0.000000000000000E+000
 -2.630000000000000E-002    0.000000000000000E+000
 -2.620000000000000E-002    0.000000000000000E+000
 -2.610000000000000E-002    0.000000000000000E+000
 -2.600000000000000E-002    0.000000000000000E+000
 -2.590000000000000E-002    0.000000000000000E+000
 -2.580000000000000E-002    0.000000000000000E+000
 -2.570000000000000E-002    0.000000000000000E+000
 -2.560000000000000E-002    0.000000000000000E+000
 -2.550000000000000E-002    0.000000000000000E+000
 -2.540000000000000E-002    0.000000000000000E+000
 -2.530000000000000E-002    0.000000000000000E+000
 -2.520000000000000E-002    0.000000000000000E+000
 -2.510000000000000E-002    0.000000000000000E+000
 -2.500000000000000E-002    0.000000000000000E+000
 -2.490000000000000E-002    0.000000000000000E+000
 -2.480000000000000E-002    0.000000000000000E+000
 -2.470000000000000E-002    6.414635304221270E-048
 -2.460000000000000E-002    6.977244119065092E-047
 -2.450000000000000E-002    1.331302470770806E-046
 -2.440000000000000E-002    1.964880529635102E-046
 -2.430000000000000E-002    2.534312235457186E-046
 -2.420000000000000E-002    2.406019529372761E-046
 -2.410000000000000E-002    1.494473940658876E-046
 -2.400000000000000E-002   -1.490864892637193E-046
 -2.390000000000000E-002   -6.248645196441725E-046
 -2.380000000000000E-002   -1.475163292099983E-045
 -2.370000000000000E-002   -2.374346773065550E-045
 -2.360000000000000E-002   -3.303759386034872E-045
 -2.350000000000000E-002   -4.014379806101270E-045
 -2.340000000000000E-002   -3.987959939868321E-045
 -2.330000000000000E-002   -3.287985102892002E-045
 -2.320000000000000E-002   -7.220758172081993E-046
 -2.310000000000000E-002    4.936458698371324E-045
 -2.300000000000000E-002    1.337816816007475E-044
 -2.290000000000000E-002    2.420944653415401E-044
 -2.280000000000000E-002    3.656201580550136E-044
 -2.270000000000000E-002    4.658278200006663E-044
 -2.260000000000000E-002    5.141687918869988E-044
 -2.250000000000000E-002    4.447309770807373E-044
 -2.240000000000000E-002    1.838995809455592E-044
 -2.230000000000000E-002   -3.354506084547475E-044
 -2.220000000000000E-002   -1.157335754757614E-043
 -2.210000000000000E-002   -2.265219142821491E-043
 -2.200000000000000E-002   -3.551181952151041E-043
 -2.190000000000000E-002   -4.742424351924419E-043
 -2.180000000000000E-002   -5.428071715759612E-043
 -2.170000000000000E-002   -5.021244935086448E-043
 -2.160000000000000E-002   -2.832902857599009E-043
 -2.150000000000000E-002    1.817823898464409E-043
 -2.140000000000000E-002    9.382342339682406E-043
 -2.130000000000000E-002    1.976364231441582E-042
 -2.120000000000000E-002    3.197648489245652E-042
 -2.110000000000000E-002    4.379141300161583E-042
 -2.100000000000000E-002    5.152624532000355E-042
 -2.090000000000000E-002    5.004654851818779E-042
 -2.080000000000000E-002    3.330027043406575E-042
 -2.070000000000000E-002   -4.631513063614599E-043
 -2.060000000000000E-002   -6.770416476502107E-042
 -2.050000000000000E-002   -1.554577370998383E-041
 -2.040000000000000E-002   -2.601144888222120E-041
 -2.030000000000000E-002   -3.638449632268144E-041
 -2.020000000000000E-002   -4.370712339422298E-041
 -2.010000000000000E-002   -4.389267735822434E-041
 -2.000000000000000E-002   -3.212593838170935E-041
 -1.990000000000000E-002   -3.723625151504685E-042
 -1.980000000000000E-002    4.447401491266422E-041
 -1.970000000000000E-002    1.122396740593581E-040
 -1.960000000000000E-002    1.938321877375752E-040
 -1.950000000000000E-002    2.760337462830040E-040
 -1.940000000000000E-002    3.369969991688245E-040
 -1.930000000000000E-002    3.467353303390618E-040
 -1.920000000000000E-002    2.701400034099601E-040
 -1.910000000000000E-002    7.327802343096576E-041
 -1.900000000000000E-002   -2.667257537635416E-040
 -1.890000000000000E-002   -7.487030732199683E-040
 -1.880000000000000E-002   -1.332975492425027E-039
 -1.870000000000000E-002   -1.928409886584970E-039
 -1.860000000000000E-002   -2.385407414656169E-039
 -1.850000000000000E-002   -2.500233821088846E-039
 -1.840000000000000E-002   -2.036326318011327E-039
 -1.830000000000000E-002   -7.669389535907743E-040
 -1.820000000000000E-002    1.459601371125118E-039
 -1.810000000000000E-002    4.636036983452452E-039
 -1.800000000000000E-002    8.504985117337044E-039
 -1.790000000000000E-002    1.248008810306063E-038
 -1.780000000000000E-002    1.560723803644186E-038
 -1.770000000000000E-002    1.659891089530355E-038
 -1.760000000000000E-002    1.397423861469337E-038
 -1.750000000000000E-002    6.328310931827295E-039
 -1.740000000000000E-002   -7.266215730154987E-039
 -1.730000000000000E-002   -2.675462954312836E-038
 -1.720000000000000E-002   -5.056513719279281E-038
 -1.710000000000000E-002   -7.516326857746946E-038
 -1.700000000000000E-002   -9.485852770691547E-038
 -1.690000000000000E-002   -1.020502398761100E-037
 -1.680000000000000E-002   -8.808898730080679E-038
 -1.670000000000000E-002   -4.486828984639304E-038
 -1.660000000000000E-002    3.286209903523740E-038
 -1.650000000000000E-002    1.446572081593469E-037
 -1.640000000000000E-002    2.814442932018793E-037
 -1.630000000000000E-002    4.231799369943237E-037
 -1.620000000000000E-002    5.379910965061356E-037
 -1.610000000000000E-002    5.837892180236236E-037
 -1.600000000000000E-002    5.132438626564988E-037
 -1.590000000000000E-002    2.826243297234807E-037
 -1.580000000000000E-002   -1.356795525949836E-037
 -1.570000000000000E-002   -7.381525273486106E-037
 -1.560000000000000E-002   -1.475080446506203E-036
 -1.550000000000000E-002   -2.239059210112074E-036
 -1.540000000000000E-002   -2.861696616795506E-036
 -1.530000000000000E-002   -3.123418097288430E-036
 -1.520000000000000E-002   -2.780531451252787E-036
 -1.510000000000000E-002   -1.611566383179871E-036
 -1.500000000000000E-002    5.187883197041774E-037
 -1.490000000000000E-002    3.584908947055493E-036
 -1.480000000000000E-002    7.327297627780059E-036
 -1.470000000000000E-002    1.119986721529548E-035
 -1.460000000000000E-002    1.435985016295381E-035
 -1.450000000000000E-002    1.572327604050234E-035
 -1.440000000000000E-002    1.410423664617422E-035
 -1.430000000000000E-002    8.444836112957296E-036
 -1.420000000000000E-002   -1.875630339586556E-036
 -1.410000000000000E-002   -1.668795008124433E-035
 -1.400000000000000E-002   -3.469945146013923E-035
 -1.390000000000000E-002   -5.326713749893719E-035
 -1.380000000000000E-002   -6.838048588235332E-035
 -1.370000000000000E-002   -7.495511400708828E-035
 -1.360000000000000E-002   -6.751208786604462E-035
 -1.350000000000000E-002   -4.126149327058496E-035
 -1.340000000000000E-002    6.477201669743079E-036
 -1.330000000000000E-002    7.469462390168489E-035
 -1.320000000000000E-002    1.572445832652050E-034
 -1.310000000000000E-002    2.419256819982537E-034
 -1.300000000000000E-002    3.105401744636370E-034
 -1.290000000000000E-002    3.403534088308616E-034
 -1.280000000000000E-002    3.072406850553946E-034
 -1.270000000000000E-002    1.905471494231964E-034
 -1.260000000000000E-002   -2.069647327212683E-035
 -1.250000000000000E-002   -3.210266449579366E-034
 -1.240000000000000E-002   -6.825730562462352E-034
 -1.230000000000000E-002   -1.051551161225093E-033
 -1.220000000000000E-002   -1.349084268627237E-033
 -1.210000000000000E-002   -1.478031672743515E-033
 -1.200000000000000E-002   -1.336856332246925E-033
 -1.190000000000000E-002   -8.404086533496353E-034
 -1.180000000000000E-002    5.410932205278677E-035
 -1.170000000000000E-002    1.319636524539990E-033
 -1.160000000000000E-002    2.835711291756245E-033
 -1.150000000000000E-002    4.375819374339466E-033
 -1.140000000000000E-002    5.612993952323522E-033
 -1.130000000000000E-002    6.149996447761042E-033
 -1.120000000000000E-002    5.577537031386301E-033
 -1.110000000000000E-002    3.559164164742466E-033
 -1.100000000000000E-002   -6.503188076147106E-035
 -1.090000000000000E-002   -5.171120844316693E-033
 -1.080000000000000E-002   -1.126261992631957E-032
 -1.070000000000000E-002   -1.742737939059698E-032
 -1.060000000000000E-002   -2.236787070727784E-032
 -1.050000000000000E-002   -2.452762797057250E-032
 -1.040000000000000E-002   -2.232454847495160E-032
 -1.030000000000000E-002   -1.448255664104988E-032
 -1.020000000000000E-002   -4.282811714049175E-034
 -1.010000000000000E-002    1.930786787049895E-032
 -1.000000000000000E-002    4.277151243416920E-032
 -9.899999999999999E-003    6.644583126678556E-032
 -9.800000000000000E-003    8.539525281413622E-032
 -9.699999999999999E-003    9.376933938529372E-032
 -9.599999999999999E-003    8.569692782425257E-032
 -9.500000000000000E-003    5.652790014013050E-032
 -9.399999999999999E-003    4.288719369094445E-033
 -9.299999999999999E-003   -6.887871303909758E-032
 -9.200000000000000E-003   -1.556086265195508E-031
 -9.099999999999999E-003   -2.428942894372288E-031
 -8.999999999999999E-003   -3.127099629125430E-031
 -8.900000000000000E-003   -3.439273500534734E-031
 -8.799999999999999E-003   -3.156005432349941E-031
 -8.699999999999999E-003   -2.114297603070438E-031
 -8.600000000000000E-003   -2.489369030515519E-032
 -8.499999999999999E-003    2.357875519163862E-031
 -8.399999999999999E-003    5.439669034063967E-031
 -8.300000000000000E-003    8.534020145905254E-031
 -8.199999999999999E-003    1.100760338430373E-030
 -8.100000000000000E-003    1.212595785007897E-030
 -8.000000000000000E-003    1.116941675979339E-030
 -7.899999999999999E-003    7.587457383507814E-031
 -7.800000000000000E-003    1.172940779886459E-031
 -7.699999999999999E-003   -7.773014604220606E-031
 -7.599999999999999E-003   -1.832310885635807E-030
 -7.499999999999999E-003   -2.889387411878207E-030
 -7.399999999999999E-003   -3.734059481872255E-030
 -7.299999999999999E-003   -4.120101303906557E-030
 -7.199999999999999E-003   -3.808904551524151E-030
 -7.100000000000000E-003   -2.620913224958701E-030
 -6.999999999999999E-003   -4.926733920276957E-031
 -6.899999999999999E-003    2.470307998938639E-030
 -6.800000000000000E-003    5.957181687951502E-030
 -6.699999999999999E-003    9.444908076864015E-030
 -6.599999999999999E-003    1.223233161377167E-029
 -6.499999999999999E-003    1.352200484698612E-029
 -6.399999999999999E-003    1.254907516660137E-029
 -6.299999999999999E-003    8.746706946786572E-030
 -6.199999999999999E-003    1.926536700043390E-030
 -6.100000000000000E-003   -7.557516425856316E-030
 -5.999999999999999E-003   -1.870078873604180E-029
 -5.899999999999999E-003   -2.983493705292640E-029
 -5.800000000000000E-003   -3.874435354770861E-029
 -5.699999999999999E-003   -4.293065216594790E-029
 -5.599999999999999E-003   -4.001987873264732E-029
 -5.499999999999999E-003   -2.827667137681762E-029
 -5.399999999999999E-003   -7.156408616671713E-030
 -5.299999999999999E-003    2.220327433901135E-029
 -5.199999999999999E-003    5.666949941842091E-029
 -5.099999999999999E-003    9.109899042347085E-029
 -4.999999999999999E-003    1.187181707755487E-028
 -4.899999999999999E-003    1.319472557467733E-028
 -4.799999999999999E-003    1.236434355398632E-028
 -4.699999999999999E-003    8.864714392405358E-029
 -4.599999999999999E-003    2.541827312948242E-029
 -4.499999999999999E-003   -6.253416166718338E-029
 -4.399999999999999E-003   -1.657759271425394E-028
 -4.299999999999999E-003   -2.689688006811753E-028
 -4.199999999999999E-003   -3.520596618321753E-028
 -4.099999999999999E-003   -3.927593031704969E-028
 -3.999999999999999E-003   -3.702143651670613E-028
 -3.899999999999999E-003   -2.695112125947018E-028
 -3.799999999999999E-003   -8.637771918217403E-029
 -3.699999999999999E-003    1.687804039775626E-028
 -3.599999999999999E-003    4.684978146366255E-028
 -3.499999999999999E-003    7.684815230856707E-028
 -3.399999999999999E-003    1.011185794231690E-027
 -3.299999999999999E-003    1.133019855128160E-027
 -3.199999999999999E-003    1.074852032451561E-027
 -3.099999999999999E-003    7.947320247337138E-028
 -2.999999999999999E-003    2.810057691447103E-028
 -2.899999999999999E-003   -4.366085699561192E-028
 -2.799999999999999E-003   -1.280720033675418E-027
 -2.699999999999999E-003   -2.127335671319627E-027
 -2.599999999999999E-003   -2.816211476418838E-027
 -2.499999999999999E-003   -3.171137991406863E-027
 -2.399999999999999E-003   -3.029078231504012E-027
 -2.299999999999999E-003   -2.275055194067193E-027
 -2.199999999999999E-003   -8.777070043562133E-028
 -2.099999999999999E-003    1.081135803727801E-027
 -1.999999999999999E-003    3.390194931584001E-027
 -1.899999999999999E-003    5.712647194895514E-027
 -1.799999999999999E-003    7.615035270421337E-027
 -1.699999999999999E-003    8.622590252012698E-027
 -1.599999999999999E-003    8.297684420457152E-027
 -1.499999999999999E-003    6.332815056380364E-027
 -1.399999999999999E-003    2.644391154991790E-027
 -1.299999999999999E-003   -2.550287952887510E-027
 -1.199999999999999E-003   -8.692044059793155E-027
 -1.099999999999999E-003   -1.489230227580283E-026
 -9.999999999999989E-004   -2.001109753744219E-026
 -8.999999999999990E-004   -2.280338347023285E-026
 -7.999999999999990E-004   -2.212425880770194E-026
 -6.999999999999989E-004   -1.717003265663890E-026
 -5.999999999999990E-004   -7.719198895567607E-027
 -4.999999999999989E-004    5.672053996415782E-027
 -3.999999999999989E-004    2.156853201219110E-026
 -2.999999999999989E-004    3.769253369920484E-026
 -1.999999999999989E-004    5.112727394024912E-026
 -9.999999999999892E-005    5.869244213435707E-026
  1.084202172485504E-018    5.746610965997725E-026
  1.000000000000011E-004    4.539318273793903E-026
  2.000000000000011E-004    2.188903913938992E-026
  3.000000000000011E-004   -1.167539430288738E-026
  4.000000000000011E-004   -5.172756194358139E-026
  5.000000000000011E-004   -9.259251402005426E-026
  6.000000000000011E-004   -1.270061061577438E-025
  7.000000000000011E-004   -1.470510596891784E-025
  8.000000000000011E-004   -1.454481773114669E-025
  9.000000000000012E-004   -1.170524582035252E-025
  1.000000000000001E-003   -6.032838317299530E-026
  1.100000000000001E-003    2.147309682461327E-026
  1.200000000000001E-003    1.197261307624778E-025
  1.300000000000001E-003    2.206831866361725E-025
  1.400000000000001E-003    3.067283424922449E-025
  1.500000000000001E-003    3.586440018729129E-025
  1.600000000000001E-003    3.587205949547709E-025
  1.700000000000001E-003    2.943426524634222E-025
  1.800000000000001E-003    1.615090332377966E-025
  1.900000000000001E-003   -3.237188885004379E-026
  2.000000000000001E-003   -2.670950100534651E-025
  2.100000000000001E-003   -5.102672535782915E-025
  2.200000000000001E-003   -7.202724045327135E-025
  2.300000000000001E-003   -8.516076270103810E-025
  2.400000000000001E-003   -8.621776137513198E-025
  2.500000000000001E-003   -7.216785135276623E-025
  2.600000000000001E-003   -4.198052831649161E-025
  2.700000000000001E-003    2.724523440229030E-026
  2.800000000000001E-003    5.735469350724119E-025
  2.900000000000001E-003    1.144825072661033E-024
  3.000000000000001E-003    1.645253752561042E-024
  3.100000000000001E-003    1.969676171042146E-024
  3.200000000000001E-003    2.020278895920627E-024
  3.300000000000001E-003    1.725724959256683E-024
  3.400000000000001E-003    1.059863083091152E-024
  3.500000000000001E-003    5.655796184033188E-026
  3.600000000000001E-003   -1.182882216683158E-024
  3.700000000000001E-003   -2.492658231491442E-024
  3.800000000000001E-003   -3.657582863407284E-024
  3.900000000000001E-003   -4.440315150847183E-024
  4.000000000000001E-003   -4.618527522598520E-024
  4.100000000000001E-003   -4.027559318714181E-024
  4.200000000000001E-003   -2.602146635778941E-024
  4.300000000000001E-003   -4.096153225182987E-025
  4.400000000000001E-003    2.333217511226483E-024
  4.500000000000001E-003    5.265928044249698E-024
  4.600000000000002E-003    7.917003571704938E-024
  4.700000000000001E-003    9.762927814670009E-024
  4.800000000000001E-003    1.030901570406839E-023
  4.900000000000002E-003    9.182345563153040E-024
  5.000000000000001E-003    6.222913900599637E-024
  5.100000000000001E-003    1.556592235316215E-024
  5.200000000000001E-003   -4.366778125375724E-024
  5.300000000000002E-003   -1.078411468367766E-023
  5.400000000000001E-003   -1.668690468078232E-023
  5.500000000000001E-003   -2.094598151099100E-023
  5.600000000000002E-003   -2.248312696943117E-023
  5.700000000000001E-003   -2.046907039743178E-023
  5.800000000000001E-003   -1.451864017182469E-023
  5.900000000000002E-003   -4.848401389832586E-024
  6.000000000000001E-003    7.638328937580054E-024
  6.100000000000001E-003    2.136853418798494E-023
  6.200000000000002E-003    3.423619053615675E-023
  6.300000000000002E-003    4.385879240339055E-023
  6.400000000000001E-003    4.793292235791091E-023
  6.500000000000001E-003    4.464701113253741E-023
  6.600000000000002E-003    3.309098513057741E-023
  6.700000000000001E-003    1.359132626320659E-023
  6.800000000000001E-003   -1.210105468179826E-023
  6.900000000000002E-003   -4.083124555610837E-023
  7.000000000000001E-003   -6.830608783032527E-023
  7.100000000000001E-003   -8.960703873071752E-023
  7.200000000000002E-003   -9.990953547703385E-023
  7.300000000000002E-003   -9.532494859944315E-023
  7.400000000000001E-003   -7.374410516351831E-023
  7.500000000000001E-003   -3.553799368138532E-023
  7.600000000000002E-003    1.603144584352615E-023
  7.700000000000001E-003    7.481526532954599E-023
  7.800000000000001E-003    1.322742611425494E-022
  7.900000000000001E-003    1.784752026285626E-022
  8.000000000000002E-003    2.035111303662447E-022
  8.100000000000001E-003    1.991819034245914E-022
  8.200000000000001E-003    1.606982438329962E-022
  8.300000000000002E-003    8.812364103985523E-023
  8.400000000000001E-003   -1.273822542490091E-023
  8.500000000000002E-003   -1.302627374197580E-022
  8.600000000000002E-003   -2.478901290220956E-022
  8.700000000000001E-003   -3.460050786917768E-022
  8.800000000000002E-003   -4.046709933007140E-022
  8.900000000000002E-003   -4.069126912170762E-022
  9.000000000000001E-003   -3.420928911561009E-022
  9.100000000000002E-003   -2.088308690225270E-022
  9.200000000000002E-003   -1.689201249203918E-023
  9.300000000000001E-003    2.124515054120961E-022
  9.400000000000002E-003    4.479192978916332E-022
  9.500000000000001E-003    6.516568783323036E-022
  9.600000000000001E-003    7.843687783117235E-022
  9.700000000000002E-003    8.115912289038424E-022
  9.800000000000001E-003    7.102541778310562E-022
  9.900000000000001E-003    4.744901413528062E-022
  1.000000000000000E-002    1.195923822538503E-022
  1.010000000000000E-002   -3.168533419082851E-022
  1.020000000000000E-002   -7.773353323242836E-022
  1.030000000000000E-002   -1.190484868997726E-021
  1.040000000000000E-002   -1.480467758699829E-021
  1.050000000000000E-002   -1.578709996884969E-021
  1.060000000000000E-002   -1.436407526353885E-021
  1.070000000000000E-002   -1.035888319595476E-021
  1.080000000000000E-002   -3.987575633941361E-022
  1.090000000000000E-002    4.110494798524265E-022
  1.100000000000000E-002    1.290661572075200E-021
  1.110000000000000E-002    2.108613888276637E-021
  1.120000000000000E-002    2.721589773841892E-021
  1.130000000000000E-002    2.995866966646818E-021
  1.140000000000000E-002    2.830717634054489E-021
  1.150000000000000E-002    2.180252463555009E-021
  1.160000000000000E-002    1.069878325689029E-021
  1.170000000000000E-002   -3.961865326440878E-022
  1.180000000000000E-002   -2.039024645502740E-021
  1.190000000000000E-002   -3.621949339251037E-021
  1.200000000000000E-002   -4.879553012969840E-021
  1.210000000000000E-002   -5.556093404274322E-021
  1.220000000000000E-002   -5.448457848212165E-021
  1.230000000000000E-002   -4.447450939401823E-021
  1.240000000000000E-002   -2.570449149227324E-021
  1.250000000000000E-002    2.124496905571454E-023
  1.260000000000000E-002    3.025552833238198E-021
  1.270000000000000E-002    6.026013427747331E-021
  1.280000000000000E-002    8.540779813937168E-021
  1.290000000000000E-002    1.008980710994849E-020
  1.300000000000000E-002    1.027227933360952E-020
  1.310000000000000E-002    8.843342060585280E-021
  1.320000000000000E-002    5.777713662567271E-021
  1.330000000000000E-002    1.307885460695609E-021
  1.340000000000000E-002   -4.073090922239216E-021
  1.350000000000000E-002   -9.650149806842469E-021
  1.360000000000000E-002   -1.456620014293371E-020
  1.370000000000000E-002   -1.793705360270613E-020
  1.380000000000000E-002   -1.898822755935389E-020
  1.390000000000000E-002   -1.719505180163005E-020
  1.400000000000000E-002   -1.240419642642346E-020
  1.410000000000000E-002   -4.914431296057108E-021
  1.420000000000000E-002    4.502389239066524E-021
  1.430000000000000E-002    1.465234928846048E-020
  1.440000000000000E-002    2.404522045138422E-020
  1.450000000000000E-002    3.108595724327682E-020
  1.460000000000000E-002    3.431130293515476E-020
  1.470000000000000E-002    3.264062519964441E-020
  1.480000000000000E-002    2.560324711923476E-020
  1.490000000000000E-002    1.350288754088363E-020
  1.500000000000000E-002   -2.516122428561351E-021
  1.510000000000000E-002   -2.052552643213433E-020
  1.520000000000000E-002   -3.800175137502433E-020
  1.530000000000000E-002   -5.213572190463544E-020
  1.540000000000000E-002   -6.023238518272245E-020
  1.550000000000000E-002   -6.014994261605755E-020
  1.560000000000000E-002   -5.071527277497075E-020
  1.570000000000000E-002   -3.204669693664639E-020
  1.580000000000000E-002   -5.719991773269253E-021
  1.590000000000000E-002    2.527042597948464E-020
  1.600000000000000E-002    5.677811135189482E-020
  1.610000000000000E-002    8.398929614626768E-020
  1.620000000000000E-002    1.020800011485197E-019
  1.630000000000000E-002    1.069667184730213E-019
  1.640000000000000E-002    9.604595362532751E-020
  1.650000000000000E-002    6.880527569498026E-020
  1.660000000000000E-002    2.719256660416760E-020
  1.670000000000000E-002   -2.434802856599210E-020
  1.680000000000000E-002   -7.922404801858419E-020
  1.690000000000000E-002   -1.294249043706102E-019
  1.700000000000000E-002   -1.665725040695499E-019
  1.710000000000000E-002   -1.831712460769863E-019
  1.720000000000000E-002   -1.738893347693306E-019
  1.730000000000000E-002   -1.366760613336392E-019
  1.740000000000000E-002   -7.351874757779905E-020
  1.750000000000000E-002    9.326466748447792E-021
  1.760000000000000E-002    1.017351948928210E-019
  1.770000000000000E-002    1.907690204005900E-019
  1.780000000000000E-002    2.623035526794791E-019
  1.790000000000000E-002    3.030542538277643E-019
  1.800000000000000E-002    3.027360993377704E-019
  1.810000000000000E-002    2.560395172900214E-019
  1.820000000000000E-002    1.640942582012290E-019
  1.830000000000000E-002    3.512549322001803E-020
  1.840000000000000E-002   -1.158995874006506E-019
  1.850000000000000E-002   -2.687099008392493E-019
  1.860000000000000E-002   -4.001678951787516E-019
  1.870000000000000E-002   -4.874558180763747E-019