 -4.000000000000000E-002    0.000000000000000E+000
 -3.990000000000000E-002    0.000000000000000E+000
 -3.980000000000000E-002    0.000000000000000E+000
 -3.970000000000000E-002    0.000000000000000E+000
 -3.960000000000000E-002    0.000000000000000E+000
 -3.950000000000000E-002    0.000000000000000E+000
 -3.940000000000000E-002    0.000000000000000E+000
 -3.930000000000000E-002    0.000000000000000E+000
 -3.920000000000000E-002    0.000000000000000E+000
 -3.910000000000000E-002    0.000000000000000E+000
 -3.900000000000000E-002    0.000000000000000E+000
 -3.890000000000000E-002    0.000000000000000E+000
 -3.880000000000000E-002    0.000000000000000E+000
 -3.870000000000000E-002    8.326235102512309E-040
 -3.860000000000000E-002    2.153459264703710E-038
 -3.850000000000000E-002    2.852748240900837E-037
 -3.840000000000000E-002    2.575332642679230E-036
 -3.830000000000000E-002    1.778615780791168E-035
 -3.820000000000000E-002    1.000264348301346E-034
 -3.810000000000000E-002    4.761045577629375E-034
 -3.800000000000000E-002    1.968129200176582E-033
 -3.790000000000000E-002    7.194233878744543E-033
 -3.780000000000000E-002    2.355150097709286E-032
 -3.770000000000000E-002    6.965608529932978E-032
 -3.760000000000000E-002    1.871302536741946E-031
 -3.750000000000000E-002    4.575472019778036E-031
 -3.740000000000000E-002    1.015945293022278E-030
 -3.730000000000000E-002    2.030690601549156E-030
 -3.720000000000000E-002    3.575728092578894E-030
 -3.710000000000000E-002    5.249570284742037E-030
 -3.700000000000000E-002    5.305207214385720E-030
 -3.690000000000000E-002   -1.006755876946668E-030
 -3.680000000000000E-002   -2.409889376792383E-029
 -3.670000000000000E-002   -8.349751114325989E-029
 -3.660000000000000E-002   -2.107860229928760E-028
 -3.650000000000000E-002   -4.486921366824203E-028
 -3.640000000000000E-002   -8.398150504824616E-028
 -3.630000000000000E-002   -1.394657974857656E-027
 -3.620000000000000E-002   -2.025641194545454E-027
 -3.610000000000000E-002   -2.434809302524494E-027
 -3.600000000000000E-002   -1.953156115513793E-027
 -3.590000000000000E-002    6.444781856931384E-028
 -3.580000000000000E-002    7.276920033766198E-027
 -3.570000000000000E-002    2.050264520102440E-026
 -3.560000000000000E-002    4.304323575310731E-026
 -3.550000000000000E-002    7.657808559027146E-026
 -3.540000000000000E-002    1.194925100483024E-025
 -3.530000000000000E-002    1.633913968484285E-025
 -3.520000000000000E-002    1.885570602524361E-025
 -3.510000000000000E-002    1.592171460631634E-025
 -3.500000000000000E-002    2.052146393751417E-026
 -3.490000000000000E-002   -2.995973238151561E-025
 -3.480000000000000E-002   -8.792921315119907E-025
 -3.470000000000000E-002   -1.777432500106564E-024
 -3.460000000000000E-002   -2.989917748999611E-024
 -3.450000000000000E-002   -4.386927519004728E-024
 -3.440000000000000E-002   -5.637032803144039E-024
 -3.430000000000000E-002   -6.134431750009908E-024
 -3.420000000000000E-002   -4.958824668030366E-024
 -3.410000000000000E-002   -9.111223787613031E-025
 -3.400000000000000E-002    7.322326830183535E-024
 -3.390000000000000E-002    2.082571282663468E-023
 -3.380000000000000E-002    3.989896768690650E-023
 -3.370000000000000E-002    6.330782866579306E-023
 -3.360000000000000E-002    8.743111951693984E-023
 -3.350000000000000E-002    1.055008579814462E-022
 -3.340000000000000E-002    1.072455044961354E-022
 -3.330000000000000E-002    7.934392916711085E-023
 -3.320000000000000E-002    7.134011462986579E-024
 -3.310000000000000E-002   -1.220571783162826E-022
 -3.300000000000000E-002   -3.138360011735215E-022
 -3.290000000000000E-002   -5.602311841873111E-022
 -3.280000000000000E-002   -8.326911662999810E-022
 -3.270000000000000E-002   -1.076282437173777E-021
 -3.260000000000000E-002   -1.207503600113877E-021
 -3.250000000000000E-002   -1.118598242483340E-021
 -3.240000000000000E-002   -6.911726396949826E-022
 -3.230000000000000E-002    1.789896657009775E-022
 -3.220000000000000E-002    1.546004711050951E-021
 -3.210000000000000E-002    3.370031083745476E-021
 -3.200000000000000E-002    5.472611138632161E-021
 -3.190000000000000E-002    7.502552546256287E-021
 -3.180000000000000E-002    8.927136109518651E-021
 -3.170000000000000E-002    9.064785191568249E-021
 -3.160000000000000E-002    7.173123098517369E-021
 -3.150000000000000E-002    2.599307342190772E-021
 -3.140000000000000E-002   -5.012888476257947E-021
 -3.130000000000000E-002   -1.548207336116019E-020
 -3.120000000000000E-002   -2.785717558027848E-020
 -3.110000000000000E-002   -4.025619522439465E-020
 -3.100000000000000E-002   -4.985021109357934E-020
 -3.090000000000000E-002   -5.306696473905862E-020
 -3.080000000000000E-002   -4.606979436843973E-020
 -3.070000000000000E-002   -2.552660955177032E-020
 -3.060000000000000E-002    1.037983923066385E-020
 -3.050000000000000E-002    6.082932168513462E-020
 -3.040000000000000E-002    1.213428657408366E-019
 -3.030000000000000E-002    1.831473755125770E-019
 -3.020000000000000E-002    2.332439499496885E-019
 -3.010000000000000E-002    2.554705384285171E-019
 -3.000000000000000E-002    2.327413313294868E-019
 -2.990000000000000E-002    1.504505215526222E-019
 -2.980000000000000E-002    7.545875570631088E-022
 -2.970000000000000E-002   -2.128702697686512E-019
 -2.960000000000000E-002   -4.717060613812945E-019
 -2.950000000000000E-002   -7.396367488130472E-019
 -2.940000000000000E-002   -9.639385064277109E-019
 -2.930000000000000E-002   -1.079999559203064E-018
 -2.920000000000000E-002   -1.020458080855163E-018
 -2.910000000000000E-002   -7.284586914488694E-019
 -2.900000000000000E-002   -1.737102861934558E-019
 -2.890000000000000E-002    6.310693438446868E-019
 -2.880000000000000E-002    1.616708092224873E-018
 -2.870000000000000E-002    2.651091990066578E-018
 -2.860000000000000E-002    3.543518914531267E-018
 -2.850000000000000E-002    4.062826674783287E-018
 -2.840000000000000E-002    3.970329768133962E-018
 -2.830000000000000E-002    3.065822535901432E-018
 -2.820000000000000E-002    1.241570046422384E-018
 -2.810000000000000E-002   -1.464166869911008E-018
 -2.800000000000000E-002   -4.825234185983200E-018
 -2.790000000000000E-002   -8.409717977779999E-018
 -2.780000000000000E-002   -1.159758469920770E-017
 -2.770000000000000E-002   -1.364168777227147E-017
 -2.760000000000000E-002   -1.377363465042525E-017
 -2.750000000000000E-002   -1.134739356428229E-017
 -2.740000000000000E-002   -6.003693883509088E-018
 -2.730000000000000E-002    2.171036508210329E-018
 -2.720000000000000E-002    1.252422671087214E-017
 -2.710000000000000E-002    2.379036591943879E-017
 -2.700000000000000E-002    3.414870828874658E-017
 -2.690000000000000E-002    4.140461238184345E-017
 -2.680000000000000E-002    4.329487230906052E-017
 -2.670000000000000E-002    3.789333574439056E-017
 -2.660000000000000E-002    2.406697471412410E-017
 -2.650000000000000E-002    1.909255548253326E-018
 -2.640000000000000E-002   -2.693773195657070E-017
 -2.630000000000000E-002   -5.916319013769467E-017
 -2.620000000000000E-002   -8.994570779333020E-017
 -2.610000000000000E-002   -1.134324310017013E-016
 -2.600000000000000E-002   -1.235326144767720E-016
 -2.590000000000000E-002   -1.149577540538798E-016
 -2.580000000000000E-002   -8.437751335527758E-017
 -2.570000000000000E-002   -3.150678063833863E-017
 -2.560000000000000E-002    4.009249895352956E-017
 -2.550000000000000E-002    1.227101726134179E-016
 -2.540000000000000E-002    2.048607424209012E-016
 -2.530000000000000E-002    2.724203192211456E-016
 -2.520000000000000E-002    3.104979462311278E-016
 -2.510000000000000E-002    3.058709050132061E-016
 -2.500000000000000E-002    2.496731359138532E-016
 -2.490000000000000E-002    1.399112183628169E-016
 -2.480000000000000E-002   -1.667866041335419E-017
 -2.470000000000000E-002   -2.039055244212675E-016
 -2.460000000000000E-002   -3.968995212278656E-016
 -2.450000000000000E-002   -5.645679919703535E-016
 -2.440000000000000E-002   -6.736483437032474E-016
 -2.430000000000000E-002   -6.939743393865232E-016
 -2.420000000000000E-002   -6.042807909592762E-016
 -2.410000000000000E-002   -3.976438491976188E-016
 -2.400000000000000E-002   -8.554002496448864E-017
 -2.390000000000000E-002    3.004486155385287E-016
 -2.380000000000000E-002    7.100317459374282E-016
 -2.370000000000000E-002    1.079067146866704E-015
 -2.360000000000000E-002    1.337699366372627E-015
 -2.350000000000000E-002    1.421013091620633E-015
 -2.340000000000000E-002    1.280865690933779E-015
 -2.330000000000000E-002    8.971223944655693E-016
 -2.320000000000000E-002    2.863056172314498E-016
 -2.310000000000000E-002   -4.942435508596273E-016
 -2.300000000000000E-002   -1.348174267837298E-015
 -2.290000000000000E-002   -2.148652427400530E-015
 -2.280000000000000E-002   -2.753367647247685E-015
 -2.270000000000000E-002   -3.024690901565989E-015
 -2.260000000000000E-002   -2.852603966019787E-015
 -2.250000000000000E-002   -2.177183287171108E-015
 -2.240000000000000E-002   -1.006996955624509E-015
 -2.230000000000000E-002    5.701431296066365E-016
 -2.220000000000000E-002    2.386987584714199E-015
 -2.210000000000000E-002    4.208893398404695E-015
 -2.200000000000000E-002    5.758162518621444E-015
 -2.190000000000000E-002    6.748827525785503E-015
 -2.180000000000000E-002    6.928199815462463E-015
 -2.170000000000000E-002    6.119943611012636E-015
 -2.160000000000000E-002    4.262482513925009E-015
 -2.150000000000000E-002    1.436386646271814E-015
 -2.140000000000000E-002   -2.124846597707002E-015
 -2.130000000000000E-002   -6.044551745217340E-015
 -2.120000000000000E-002   -9.834632999772940E-015
 -2.110000000000000E-002   -1.294782204465492E-014
 -2.100000000000000E-002   -1.484582757411003E-014
 -2.090000000000000E-002   -1.507594951916923E-014
 -2.080000000000000E-002   -1.334656608773420E-014
 -2.070000000000000E-002   -9.590832354878212E-015
 -2.060000000000000E-002   -4.008176144583017E-015
 -2.050000000000000E-002    2.925125961651730E-015
 -2.040000000000000E-002    1.048191713866615E-014
 -2.030000000000000E-002    1.774811119572559E-014
 -2.020000000000000E-002    2.372106665128372E-014
 -2.010000000000000E-002    2.743378083655069E-014
 -2.000000000000000E-002    2.809159108422552E-014
 -1.990000000000000E-002    2.520457086192900E-014
 -1.980000000000000E-002    1.869702872919401E-014
 -1.970000000000000E-002    8.975926489509729E-015
 -1.960000000000000E-002   -3.057129735214875E-015
 -1.950000000000000E-002   -1.606027611359840E-014
 -1.940000000000000E-002   -2.837457765642260E-014
 -1.930000000000000E-002   -3.820951657066585E-014
 -1.920000000000000E-002   -4.387457988221757E-014
 -1.910000000000000E-002   -4.403183617441316E-014
 -1.900000000000000E-002   -3.793741408173499E-014
 -1.890000000000000E-002   -2.563607027206309E-014
 -1.880000000000000E-002   -8.073643534902805E-015
 -1.870000000000000E-002    1.290188796322544E-014
 -1.860000000000000E-002    3.466904493194981E-014
 -1.850000000000000E-002    5.409403620031517E-014
 -1.840000000000000E-002    6.790830720117500E-014
 -1.830000000000000E-002    7.316665563052116E-014
 -1.820000000000000E-002    6.773221807259489E-014
 -1.810000000000000E-002    5.072118977779301E-014
 -1.800000000000000E-002    2.283497411250392E-014
 -1.790000000000000E-002   -1.348810582820851E-014
 -1.780000000000000E-002   -5.415391785858962E-014
 -1.770000000000000E-002   -9.375279703507633E-014
 -1.760000000000000E-002   -1.261501298742127E-013
 -1.750000000000000E-002   -1.452797768800068E-013
 -1.740000000000000E-002   -1.460536487989771E-013
 -1.730000000000000E-002   -1.252700585056877E-013
 -1.720000000000000E-002   -8.238364304279943E-014
 -1.710000000000000E-002   -2.000032142165105E-014
 -1.700000000000000E-002    5.601989778647250E-014
 -1.690000000000000E-002    1.369273422893791E-013
 -1.680000000000000E-002    2.119293189997551E-013
 -1.670000000000000E-002    2.694642641378739E-013
 -1.660000000000000E-002    2.987746405596985E-013
 -1.650000000000000E-002    2.915866645950699E-013
 -1.640000000000000E-002    2.436616972074645E-013
 -1.630000000000000E-002    1.559705417681066E-013
 -1.620000000000000E-002    3.526516130783497E-014
 -1.610000000000000E-002   -1.061172913415042E-013
 -1.600000000000000E-002   -2.512895923633821E-013
 -1.590000000000000E-002   -3.806443056234832E-013
 -1.580000000000000E-002   -4.743101703701068E-013
 -1.570000000000000E-002   -5.149518816838050E-013
 -1.560000000000000E-002   -4.905473687319875E-013
 -1.550000000000000E-002   -3.967369328317384E-013
 -1.540000000000000E-002   -2.383529880743475E-013
 -1.530000000000000E-002   -2.981897292476670E-014
 -1.520000000000000E-002    2.057663255762557E-013
 -1.510000000000000E-002    4.388712229021248E-013
 -1.500000000000000E-002    6.369236259704135E-013
 -1.490000000000000E-002    7.684945158553661E-013
 -1.480000000000000E-002    8.077666955585256E-013
 -1.470000000000000E-002    7.386958039794816E-013
 -1.460000000000000E-002    5.582561497806892E-013
 -1.450000000000000E-002    2.782409106927014E-013
 -1.440000000000000E-002   -7.476465236939236E-014
 -1.430000000000000E-002   -4.614030651726115E-013
 -1.420000000000000E-002   -8.334628708978070E-013
 -1.410000000000000E-002   -1.139347402561818E-012
 -1.400000000000000E-002   -1.330510993448131E-012
 -1.390000000000000E-002   -1.368106745789472E-012
 -1.380000000000000E-002   -1.229010561139034E-012
 -1.370000000000000E-002   -9.103994176947087E-013
 -1.360000000000000E-002   -4.321856968673644E-013
 -1.350000000000000E-002    1.631846169247439E-013
 -1.340000000000000E-002    8.137653879042689E-013
 -1.330000000000000E-002    1.443855298363465E-012
 -1.320000000000000E-002    1.972002773693432E-012
 -1.310000000000000E-002    2.320508025086859E-012
 -1.300000000000000E-002    2.425441021129640E-012
 -1.290000000000000E-002    2.246021614765175E-012
 -1.280000000000000E-002    1.772206395701092E-012
 -1.270000000000000E-002    1.029382058344983E-012
 -1.260000000000000E-002    7.928786346651262E-014
 -1.250000000000000E-002   -9.833749314857116E-013
 -1.240000000000000E-002   -2.038781798601483E-012
 -1.230000000000000E-002   -2.953902887214080E-012
 -1.220000000000000E-002   -3.597607558570252E-012
 -1.210000000000000E-002   -3.857553905891025E-012
 -1.200000000000000E-002   -3.657043593093943E-012
 -1.190000000000000E-002   -2.969702475431126E-012
 -1.180000000000000E-002   -1.829801884061608E-012
 -1.170000000000000E-002   -3.361722669230121E-013
 -1.160000000000000E-002    1.351834665226099E-012
 -1.150000000000000E-002    3.027131164885642E-012
 -1.140000000000000E-002    4.456166573803220E-012
 -1.130000000000000E-002    5.407248073285981E-012
 -1.120000000000000E-002    5.683153578126196E-012
 -1.110000000000000E-002    5.154248442582178E-012
 -1.100000000000000E-002    3.787437279213355E-012
 -1.090000000000000E-002    1.666071691817768E-012
 -1.080000000000000E-002   -1.003673312769236E-012
 -1.070000000000000E-002   -3.903273061604535E-012
 -1.060000000000000E-002   -6.630602652904626E-012
 -1.050000000000000E-002   -8.745875138844553E-012
 -1.040000000000000E-002   -9.830892665213664E-012
 -1.030000000000000E-002   -9.554994137898110E-012
 -1.020000000000000E-002   -7.738870869401494E-012
 -1.010000000000000E-002   -4.406167624059295E-012
 -1.000000000000000E-002    1.870888921950092E-013
 -9.899999999999999E-003    5.553506155921504E-012
 -9.800000000000000E-003    1.101069037345405E-011
 -9.699999999999999E-003    1.575329696962369E-011
 -9.599999999999999E-003    1.895542615280839E-011
 -9.500000000000000E-003    1.989250884760554E-011
 -9.399999999999999E-003    1.806697044723879E-011
 -9.299999999999999E-003    1.331872076210376E-011
 -9.200000000000000E-003    5.901017748596457E-012
 -9.099999999999999E-003   -3.495503194922154E-012
 -8.999999999999999E-003   -1.378228145594506E-011
 -8.900000000000000E-003   -2.357927340023019E-011
 -8.799999999999999E-003   -3.138183995663968E-011
 -8.699999999999999E-003   -3.577099179446831E-011
 -8.600000000000000E-003   -3.564064577277187E-011
 -8.499999999999999E-003   -3.040892245734788E-011
 -8.399999999999999E-003   -2.017832869321579E-011
 -8.300000000000000E-003   -5.812686143786341E-012
 -8.199999999999999E-003    1.109266695545931E-011
 -8.100000000000000E-003    2.835731761833301E-011
 -8.000000000000000E-003    4.347175523378525E-011
 -7.899999999999999E-003    5.393757854637191E-011
 -7.800000000000000E-003    5.764989230980139E-011
 -7.699999999999999E-003    5.326769949545194E-011
 -7.599999999999999E-003    4.051301523598605E-011
 -7.499999999999999E-003    2.034295472947403E-011
 -7.399999999999999E-003   -5.047965090089759E-012
 -7.299999999999999E-003   -3.241665000439381E-011
 -7.199999999999999E-003   -5.784519178968773E-011
 -7.100000000000000E-003   -7.726356586900274E-011
 -6.999999999999999E-003   -8.705740980176019E-011
 -6.899999999999999E-003   -8.467590568045658E-011
 -6.800000000000000E-003   -6.914476176282853E-011
 -6.699999999999999E-003   -4.139322521497239E-011
 -6.599999999999999E-003   -4.322649515674593E-012
 -6.499999999999999E-003    3.742315092256035E-011
 -6.399999999999999E-003    7.798338129817861E-011
 -6.299999999999999E-003    1.110521107689265E-010
 -6.199999999999999E-003    1.308028125954489E-010
 -6.100000000000000E-003    1.328374306324339E-010
 -5.999999999999999E-003    1.150146028823814E-010
 -5.899999999999999E-003    7.801436073604460E-011
 -5.800000000000000E-003    2.552354606418916E-011
 -5.699999999999999E-003   -3.602660266178789E-011
 -5.599999999999999E-003   -9.817576568394317E-011
 -5.499999999999999E-003   -1.515372595685112E-010
 -5.399999999999999E-003   -1.871548409918841E-010
 -5.299999999999999E-003   -1.979272780622131E-010
 -5.199999999999999E-003   -1.798844252510001E-010
 -5.099999999999999E-003   -1.331013041491819E-010
 -4.999999999999999E-003   -6.207185709977298E-011
 -4.899999999999999E-003    2.456790297657286E-011
 -4.799999999999999E-003    1.149863375360885E-010
 -4.699999999999999E-003    1.956879797314813E-010
 -4.599999999999999E-003    2.534465272256712E-010
 -4.499999999999999E-003    2.773747422922936E-010
 -4.399999999999999E-003    2.608211210268369E-010
 -4.299999999999999E-003    2.027817429002967E-010
 -4.199999999999999E-003    1.085632623183996E-010
 -4.099999999999999E-003   -1.047387140549317E-011
 -3.999999999999999E-003   -1.381339161088553E-010
 -3.899999999999999E-003   -2.554619920042619E-010
 -3.799999999999999E-003   -3.434301177672339E-010
 -3.699999999999999E-003   -3.858693607158719E-010
 -3.599999999999999E-003   -3.722140478421914E-010
 -3.499999999999999E-003   -2.996161211238355E-010
 -3.399999999999999E-003   -1.740489247562838E-010
 -3.299999999999999E-003   -1.014409778809918E-011
 -3.199999999999999E-003    1.703187123702640E-010
 -3.099999999999999E-003    3.411473025359249E-010
 -2.999999999999999E-003    4.753762579553919E-010
 -2.899999999999999E-003    5.493225516665176E-010
 -2.799999999999999E-003    5.464663871107331E-010
 -2.699999999999999E-003    4.605481769029317E-010
 -2.599999999999999E-003    2.973441455622613E-010
 -2.499999999999999E-003    7.474694185151899E-011
 -2.399999999999999E-003   -1.789906987021239E-010
 -2.299999999999999E-003   -4.287193298904707E-010
 -2.199999999999999E-003   -6.371620018583115E-010
 -2.099999999999999E-003   -7.703566636063517E-010
 -1.999999999999999E-003   -8.029934288129626E-010
 -1.899999999999999E-003   -7.228263887794860E-010
 -1.799999999999999E-003   -5.334241814196222E-010
 -1.699999999999999E-003   -2.547274003847042E-010
 -1.599999999999999E-003    7.882239095153247E-011
 -1.499999999999999E-003    4.224610966881891E-010
 -1.399999999999999E-003    7.271091721288698E-010
 -1.299999999999999E-003    9.464164391803389E-010
 -1.199999999999999E-003    1.043845489176250E-009
 -1.099999999999999E-003    9.987254696734045E-010
 -9.999999999999989E-004    8.102936449629814E-010
 -8.999999999999990E-004    4.989895440415680E-010
 -7.999999999999990E-004    1.046358898591056E-010
 -6.999999999999989E-004   -3.184080642367740E-010
 -5.999999999999990E-004   -7.085721605847805E-010
 -4.999999999999989E-004   -1.005920675528348E-009
 -3.999999999999989E-004   -1.161270521294758E-009
 -2.999999999999989E-004   -1.144222159656824E-009
 -1.999999999999989E-004   -9.488240144593186E-010
 -9.999999999999892E-005   -5.958782492203318E-010
  1.084202172485504E-018   -1.313426280627824E-010
  1.000000000000011E-004    3.791565552153016E-010
  2.000000000000011E-004    8.590982558556501E-010
  3.000000000000011E-004    1.231995569369245E-009
  4.000000000000011E-004    1.432959190587254E-009
  5.000000000000011E-004    1.419193558224294E-009
  6.000000000000011E-004    1.177791049379959E-009
  7.000000000000011E-004    7.295030472861111E-010
  8.000000000000011E-004    1.276985182674141E-010
  9.000000000000012E-004   -5.476016533093252E-010
  1.000000000000001E-003   -1.199995337483155E-009
  1.100000000000001E-003   -1.729979625153403E-009
  1.200000000000001E-003   -2.049426917856478E-009
  1.300000000000001E-003   -2.095169184841245E-009
  1.400000000000001E-003   -1.839626359093118E-009
  1.500000000000001E-003   -1.296748925196138E-009
  1.600000000000001E-003   -5.221513838404888E-010
  1.700000000000001E-003    3.928787881369983E-010
  1.800000000000001E-003    1.332918819637288E-009
  1.900000000000001E-003    2.174064394451392E-009
  2.000000000000001E-003    2.801584532812577E-009
  2.100000000000001E-003    3.127062404042360E-009
  2.200000000000001E-003    3.102456181496054E-009
  2.300000000000001E-003    2.728841611213153E-009
  2.400000000000001E-003    2.058281696158992E-009
  2.500000000000001E-003    1.188203087925481E-009
  2.600000000000001E-003    2.487440251642203E-010
  2.700000000000001E-003   -6.153989243064525E-010
  2.800000000000001E-003   -1.266204389712987E-009
  2.900000000000001E-003   -1.593643042306034E-009
  3.000000000000001E-003   -1.533914964541756E-009
  3.100000000000001E-003   -1.081736669786384E-009
  3.200000000000001E-003   -2.945390470611468E-010
  3.300000000000001E-003    7.124854392174005E-010
  3.400000000000001E-003    1.780257995155539E-009
  3.500000000000001E-003    2.727068618013356E-009
  3.600000000000001E-003    3.374519212825881E-009
  3.700000000000001E-003    3.574642488984546E-009
  3.800000000000001E-003    3.234362435107601E-009
  3.900000000000001E-003    2.333661802489790E-009
  4.000000000000001E-003    9.345790207752681E-010
  4.100000000000001E-003   -8.206273302338665E-010
  4.200000000000001E-003   -2.722310044598868E-009
  4.300000000000001E-003   -4.515817244736153E-009
  4.400000000000001E-003   -5.930523883121360E-009
  4.500000000000001E-003   -6.711512762329824E-009
  4.600000000000002E-003   -6.649322143633361E-009
  4.700000000000001E-003   -5.603302978694813E-009
  4.800000000000001E-003   -3.514828692533506E-009
  4.900000000000002E-003   -4.079520328681348E-010
  5.000000000000001E-003    3.623148002800982E-009
  5.100000000000001E-003    8.438674884166120E-009
  5.200000000000001E-003    1.388663050212599E-008
  5.300000000000002E-003    1.984056526010134E-008
  5.400000000000001E-003    2.623637244891131E-008
  5.500000000000001E-003    3.310258123118474E-008
  5.600000000000002E-003    4.057951099024197E-008
  5.700000000000001E-003    4.892385941704783E-008
  5.800000000000001E-003    5.849753237474050E-008
  5.900000000000002E-003    6.974156309761703E-008
  6.000000000000001E-003    8.313843902881298E-008
  6.100000000000001E-003    9.916772734995459E-008
  6.200000000000002E-003    1.182613435091723E-007
  6.300000000000002E-003    1.407649649042437E-007
  6.400000000000001E-003    1.669114950769084E-007
  6.500000000000001E-003    1.968109906023130E-007
  6.600000000000002E-003    2.304590891376671E-007
  6.700000000000001E-003    2.677636386753458E-007
  6.800000000000001E-003    3.085858775502968E-007
  6.900000000000002E-003    3.527913063917451E-007
  7.000000000000001E-003    4.003024272719547E-007
  7.100000000000001E-003    4.511462645534078E-007
  7.200000000000002E-003    5.054891914674893E-007
  7.300000000000002E-003    5.636535054357362E-007
  7.400000000000001E-003    6.261129243579265E-007
  7.500000000000001E-003    6.934665544206747E-007
  7.600000000000002E-003    7.663950515336411E-007
  7.700000000000001E-003    8.456046536692105E-007
  7.800000000000001E-003    9.317668041498543E-007
  7.900000000000001E-003    1.025462968270472E-006
  8.000000000000002E-003    1.127142439751999E-006
  8.100000000000001E-003    1.237100609742326E-006
  8.200000000000001E-003    1.355481455641517E-006
  8.300000000000002E-003    1.482305443405232E-006
  8.400000000000001E-003    1.617519077853770E-006
  8.500000000000002E-003    1.761060333530092E-006
  8.600000000000002E-003    1.912931299978096E-006
  8.700000000000001E-003    2.073267486705240E-006
  8.800000000000002E-003    2.242393510234448E-006
  8.900000000000002E-003    2.420857560907062E-006
  9.000000000000001E-003    2.609438803062316E-006
  9.100000000000002E-003    2.809126361259328E-006
  9.200000000000002E-003    3.021071289743684E-006
  9.300000000000001E-003    3.246520028439707E-006
  9.400000000000002E-003    3.486737146922411E-006
  9.500000000000001E-003    3.742929653624264E-006
  9.600000000000001E-003    4.016182694549647E-006
  9.700000000000002E-003    4.307419673134971E-006
  9.800000000000001E-003    4.617390544997561E-006
  9.900000000000001E-003    4.946691394521494E-006
  1.000000000000000E-002    5.295815441395963E-006
  1.010000000000000E-002    5.665226370379351E-006
  1.020000000000000E-002    6.055446888207113E-006
  1.030000000000000E-002    6.467148288697606E-006
  1.040000000000000E-002    6.901228517824531E-006
  1.050000000000000E-002    7.358867269518408E-006
  1.060000000000000E-002    7.841553669193485E-006
  1.070000000000000E-002    8.351075364106147E-006
  1.080000000000000E-002    8.889475925877378E-006
  1.090000000000000E-002    9.458987572354758E-006
  1.100000000000000E-002    1.006194088757997E-005
  1.110000000000000E-002    1.070067406356633E-005
  1.120000000000000E-002    1.137744955218240E-005
  1.130000000000000E-002    1.209439721942634E-005
  1.140000000000000E-002    1.285348225756551E-005
  1.150000000000000E-002    1.365651667099483E-005
  1.160000000000000E-002    1.450520256631089E-005
  1.170000000000000E-002    1.540121388499789E-005
  1.180000000000000E-002    1.634629278551089E-005
  1.190000000000000E-002    1.734235906441316E-005
  1.200000000000000E-002    1.839161350396175E-005
  1.210000000000000E-002    1.949661591914140E-005
  1.220000000000000E-002    2.066033901449224E-005
  1.230000000000000E-002    2.188617709935186E-005
  1.240000000000000E-002    2.317791872667366E-005
  1.250000000000000E-002    2.453967872191244E-005
  1.260000000000000E-002    2.597581479305207E-005
  1.270000000000000E-002    2.749081935201116E-005
  1.280000000000000E-002    2.908921953716315E-005
  1.290000000000000E-002    3.077550150269677E-005
  1.300000000000000E-002    3.255405357379931E-005
  1.310000000000000E-002    3.442916867027620E-005
  1.320000000000000E-002    3.640505893051889E-005
  1.330000000000000E-002    3.848595285269550E-005
  1.340000000000000E-002    4.067618594884893E-005
  1.350000000000000E-002    4.298032773347326E-005
  1.360000000000000E-002    4.540330470228905E-005
  1.370000000000000E-002    4.795051016422497E-005
  1.380000000000000E-002    5.062788517363115E-005
  1.390000000000000E-002    5.344195630178398E-005
  1.400000000000000E-002    5.639982405858571E-005
  1.410000000000000E-002    5.950911844937791E-005
  1.420000000000000E-002    6.277790830280053E-005
  1.430000000000000E-002    6.621459327134478E-005
  1.440000000000000E-002    6.982778208894784E-005
  1.450000000000000E-002    7.362619902134234E-005
  1.460000000000000E-002    7.761859581593225E-005
  1.470000000000000E-002    8.181374418468115E-005
  1.480000000000000E-002    8.622042155165502E-005
  1.490000000000000E-002    9.084748136595291E-005
  1.500000000000000E-002    9.570396641892935E-005
  1.510000000000000E-002    1.007992441352225E-004
  1.520000000000000E-002    1.061431364573489E-004
  1.530000000000000E-002    1.117460930808440E-004
  1.540000000000000E-002    1.176192806806526E-004
  1.550000000000000E-002    1.237746611009195E-004
  1.560000000000000E-002    1.302250406339420E-004
  1.570000000000000E-002    1.369840118371204E-004
  1.580000000000000E-002    1.440659178996210E-004
  1.590000000000000E-002    1.514857398584152E-004
  1.600000000000000E-002    1.592589371576848E-004
  1.610000000000000E-002    1.674013870970619E-004
  1.620000000000000E-002    1.759292016196599E-004
  1.630000000000000E-002    1.848587480919918E-004
  1.640000000000000E-002    1.942065643140747E-004
  1.650000000000000E-002    2.039894549264882E-004
  1.660000000000000E-002    2.142245374726225E-004
  1.670000000000000E-002    2.249293916684060E-004
  1.680000000000000E-002    2.361222521427013E-004
  1.690000000000000E-002    2.478220936551932E-004
  1.700000000000000E-002    2.600488147462784E-004
  1.710000000000000E-002    2.728233692796150E-004
  1.720000000000000E-002    2.861678035342889E-004
  1.730000000000000E-002    3.001052583512599E-004
  1.740000000000000E-002    3.146599255639664E-004
  1.750000000000000E-002    3.298569341321811E-004
  1.760000000000000E-002    3.457222528119070E-004
  1.770000000000000E-002    3.622826540730849E-004
  1.780000000000000E-002    3.795654619177071E-004
  1.790000000000000E-002    3.975984984123990E-004
  1.800000000000000E-002    4.164101354466922E-004
  1.810000000000000E-002    4.360292755627636E-004
  1.820000000000000E-002    4.564853837028199E-004
  1.830000000000000E-002    4.778086221006653E-004
  1.840000000000000E-002    5.000300537271872E-004
  1.850000000000000E-002    5.231817569124665E-004
  1.860000000000000E-002    5.472969726506467E-004
  1.870000000000000E-002    5.724102193978295E-004