 -4.000000000000000E-002    0.000000000000000E+000
 -3.990000000000000E-002   -7.592945709307352E-007
 -3.980000000000000E-002   -2.250909344901317E-006
 -3.970000000000000E-002   -4.398933344927851E-006
 -3.960000000000000E-002   -7.094973514926377E-006
 -3.950000000000000E-002   -1.021912227123186E-005
 -3.940000000000000E-002   -1.366188196281447E-005
 -3.930000000000000E-002   -1.734342599646843E-005
 -3.920000000000000E-002   -2.122709542594266E-005
 -3.910000000000000E-002   -2.532507002888557E-005
 -3.900000000000000E-002   -2.969549651097439E-005
 -3.890000000000000E-002   -3.443182620832015E-005
 -3.880000000000000E-002   -3.964641241553050E-005
 -3.870000000000000E-002   -4.545134409240582E-005
 -3.860000000000000E-002   -5.193991702392893E-005
 -3.850000000000000E-002   -5.917194598774323E-005
 -3.840000000000000E-002   -6.716540804015361E-005
 -3.830000000000000E-002   -7.589581262747852E-005
 -3.820000000000000E-002   -8.530325158578417E-005
 -3.810000000000000E-002   -9.530584112888228E-005
 -3.800000000000000E-002   -1.058171682620295E-004
 -3.790000000000000E-002   -1.167646708673963E-004
 -3.780000000000000E-002   -1.281057935447324E-004
 -3.770000000000000E-002   -1.398392363008322E-004
 -3.760000000000000E-002   -1.520094171066012E-004
 -3.750000000000000E-002   -1.647035609267134E-004
 -3.740000000000000E-002   -1.780420103001817E-004
 -3.730000000000000E-002   -1.921635920241168E-004
 -3.720000000000000E-002   -2.072086184545618E-004
 -3.710000000000000E-002   -2.233025206570583E-004
 -3.700000000000000E-002   -2.405429030910134E-004
 -3.690000000000000E-002   -2.589921929143183E-004
 -3.680000000000000E-002   -2.786770241728512E-004
 -3.670000000000000E-002   -2.995944027301825E-004
 -3.660000000000000E-002   -3.217234085674170E-004
 -3.650000000000000E-002   -3.450404836914310E-004
 -3.640000000000000E-002   -3.695355213018074E-004
 -3.630000000000000E-002   -3.952260336721437E-004
 -3.620000000000000E-002   -4.221671664885784E-004
 -3.610000000000000E-002   -4.504558073845344E-004
 -3.600000000000000E-002   -4.802283231957820E-004
 -3.590000000000000E-002   -5.116525518476979E-004
 -3.580000000000000E-002   -5.449153304149505E-004
 -3.570000000000000E-002   -5.802080560982707E-004
 -3.560000000000000E-002   -6.177125330764471E-004
 -3.550000000000000E-002   -6.575899095684375E-004
 -3.540000000000000E-002   -6.999741137559884E-004
 -3.530000000000000E-002   -7.449711540188337E-004
 -3.520000000000000E-002   -7.926640860606017E-004
 -3.510000000000000E-002   -8.431231132960095E-004
 -3.500000000000000E-002   -8.964184619113690E-004
 -3.490000000000000E-002   -9.526343293087173E-004
 -3.480000000000000E-002   -1.011881418734356E-003
 -3.470000000000000E-002   -1.074306019250111E-003
 -3.460000000000000E-002   -1.140094144239901E-003
 -3.450000000000000E-002   -1.209470515238467E-003
 -3.440000000000000E-002   -1.282692462261992E-003
 -3.430000000000000E-002   -1.360039958794901E-003
 -3.420000000000000E-002   -1.441803712744644E-003
 -3.410000000000000E-002   -1.528273668612322E-003
 -3.400000000000000E-002   -1.619729213706584E-003
 -3.390000000000000E-002   -1.716433705695986E-003
 -3.380000000000000E-002   -1.818633369525923E-003
 -3.370000000000000E-002   -1.926561375037791E-003
 -3.360000000000000E-002   -2.040445992213653E-003
 -3.350000000000000E-002   -2.160521285052057E-003
 -3.340000000000000E-002   -2.287039190680136E-003
 -3.330000000000000E-002   -2.420280858869848E-003
 -3.320000000000000E-002   -2.560564496094379E-003
 -3.310000000000000E-002   -2.708250595228529E-003
 -3.300000000000000E-002   -2.863741084369688E-003
 -3.290000000000000E-002   -3.027475913786444E-003
 -3.280000000000000E-002   -3.199924805367430E-003
 -3.270000000000000E-002   -3.381578408331149E-003
 -3.260000000000000E-002   -3.572937982693051E-003
 -3.250000000000000E-002   -3.774507800569026E-003
 -3.240000000000000E-002   -3.986789690982168E-003
 -3.230000000000000E-002   -4.210282623839997E-003
 -3.220000000000000E-002   -4.445484202014903E-003
 -3.210000000000000E-002   -4.692898620733128E-003
 -3.200000000000000E-002   -4.953045261218619E-003
 -3.190000000000000E-002   -5.226469546647660E-003
 -3.180000000000000E-002   -5.513751631991342E-003
 -3.170000000000000E-002   -5.815516220628691E-003
 -3.160000000000000E-002   -6.132436042293403E-003
 -3.150000000000000E-002   -6.465233240278320E-003
 -3.140000000000000E-002   -6.814678048959362E-003
 -3.130000000000000E-002   -7.181581890498658E-003
 -3.120000000000000E-002   -7.566791610681531E-003
 -3.110000000000000E-002   -7.971179765517297E-003
 -3.100000000000000E-002   -8.395639212941074E-003
 -3.090000000000000E-002   -8.841079205866822E-003
 -3.080000000000000E-002   -9.308421874190126E-003
 -3.070000000000000E-002   -9.798607336244349E-003
 -3.060000000000000E-002   -1.031259749563546E-002
 -3.050000000000000E-002   -1.085138335206470E-002
 -3.040000000000000E-002   -1.141599575111476E-002
 -3.030000000000000E-002   -1.200751289294789E-002
 -3.020000000000000E-002   -1.262706877098875E-002
 -3.010000000000000E-002   -1.327585788583391E-002
 -3.000000000000000E-002   -1.395513760287693E-002
 -2.990000000000000E-002   -1.466622803966379E-002
 -2.980000000000000E-002   -1.541050680492991E-002
 -2.970000000000000E-002   -1.618940391457083E-002
 -2.960000000000000E-002   -1.700439665661696E-002
 -2.950000000000000E-002   -1.785700176021011E-002
 -2.940000000000000E-002   -1.874877518849144E-002
 -2.930000000000000E-002   -1.968130652526296E-002
 -2.920000000000000E-002   -2.065622741244618E-002
 -2.910000000000000E-002   -2.167520748393853E-002
 -2.900000000000000E-002   -2.273996724399306E-002
 -2.890000000000000E-002   -2.385228389441758E-002
 -2.880000000000000E-002   -2.501400062174735E-002
 -2.870000000000000E-002   -2.622703386830719E-002
 -2.860000000000000E-002   -2.749337419281219E-002
 -2.850000000000000E-002   -2.881509350841395E-002
 -2.840000000000000E-002   -3.019434400279102E-002
 -2.830000000000000E-002   -3.163335687969825E-002
 -2.820000000000000E-002   -3.313443070588620E-002
 -2.810000000000000E-002   -3.469993843849394E-002
 -2.800000000000000E-002   -3.633231595815310E-002
 -2.790000000000000E-002   -3.803405631741804E-002
 -2.780000000000000E-002   -3.980771681298014E-002
 -2.770000000000000E-002   -4.165591276483115E-002
 -2.760000000000000E-002   -4.358132496807388E-002
 -2.750000000000000E-002   -4.558670675394966E-002
 -2.740000000000000E-002   -4.767488169707557E-002
 -2.730000000000000E-002   -4.984876279692600E-002
 -2.720000000000000E-002   -5.211134908741123E-002
 -2.710000000000000E-002   -5.446573644738487E-002
 -2.700000000000000E-002   -5.691511144973344E-002
 -2.690000000000000E-002   -5.946275704784947E-002
 -2.680000000000000E-002   -6.211205655882554E-002
 -2.670000000000000E-002   -6.486647250777669E-002
 -2.660000000000000E-002   -6.772956799281954E-002
 -2.650000000000000E-002   -7.070497637202205E-002
 -2.640000000000000E-002   -7.379641788910002E-002
 -2.630000000000000E-002   -7.700769221090524E-002
 -2.620000000000000E-002   -8.034267120954576E-002
 -2.610000000000000E-002   -8.380531716810911E-002
 -2.600000000000000E-002   -8.739967587258018E-002
 -2.590000000000000E-002   -9.112987497844476E-002
 -2.580000000000000E-002   -9.500014180835883E-002
 -2.570000000000000E-002   -9.901480349606963E-002
 -2.560000000000000E-002   -0.103178283934039     
 -2.550000000000000E-002   -0.107495112685749     
 -2.540000000000000E-002   -0.111969913042525     
 -2.530000000000000E-002   -0.116607413693820     
 -2.520000000000000E-002   -0.121412438986939     
 -2.510000000000000E-002   -0.126389897829915     
 -2.500000000000000E-002   -0.131544798703709     
 -2.490000000000000E-002   -0.136882220070973     
 -2.480000000000000E-002   -0.142407330470511     
 -2.470000000000000E-002   -0.148125386223084     
 -2.460000000000000E-002   -0.154041703583533     
 -2.450000000000000E-002   -0.160161697689912     
 -2.440000000000000E-002   -0.166490860951739     
 -2.430000000000000E-002   -0.173034761663175     
 -2.420000000000000E-002   -0.179799066317684     
 -2.410000000000000E-002   -0.186789516701028     
 -2.400000000000000E-002   -0.194011936632990     
 -2.390000000000000E-002   -0.201472245933528     
 -2.380000000000000E-002   -0.209176420777401     
 -2.370000000000000E-002   -0.217130528177092     
 -2.360000000000000E-002   -0.225340682793562     
 -2.350000000000000E-002   -0.233813074654984     
 -2.340000000000000E-002   -0.242553944362362     
 -2.330000000000000E-002   -0.251569569751298     
 -2.320000000000000E-002   -0.260866308779701     
 -2.310000000000000E-002   -0.270450550910151     
 -2.300000000000000E-002   -0.280328687600538     
 -2.290000000000000E-002   -0.290507202217485     
 -2.280000000000000E-002   -0.300992592957054     
 -2.270000000000000E-002   -0.311791388578402     
 -2.260000000000000E-002   -0.322910146522624     
 -2.250000000000000E-002   -0.334355409321187     
 -2.240000000000000E-002   -0.346133801637527     
 -2.230000000000000E-002   -0.358251924387929     
 -2.220000000000000E-002   -0.370716378236054     
 -2.210000000000000E-002   -0.383533749425867     
 -2.200000000000000E-002   -0.396710637151251     
 -2.190000000000000E-002   -0.410253615119059     
 -2.180000000000000E-002   -0.424169213845006     
 -2.170000000000000E-002   -0.438463915337858     
 -2.160000000000000E-002   -0.453144173845337     
 -2.150000000000000E-002   -0.468216405220522     
 -2.140000000000000E-002   -0.483686930138371     
 -2.130000000000000E-002   -0.499561999860589     
 -2.120000000000000E-002   -0.515847835349050     
 -2.110000000000000E-002   -0.532550485301126     
 -2.100000000000000E-002   -0.549676003271128     
 -2.090000000000000E-002   -0.567230275970650     
 -2.080000000000000E-002   -0.585219045876298     
 -2.070000000000000E-002   -0.603648042824227     
 -2.060000000000000E-002   -0.622522746264202     
 -2.050000000000000E-002   -0.641848501115269     
 -2.040000000000000E-002   -0.661630554832654     
 -2.030000000000000E-002   -0.681873935500927     
 -2.020000000000000E-002   -0.702583505468290     
 -2.010000000000000E-002   -0.723763908223087     
 -2.000000000000000E-002   -0.745419609257578     
 -1.990000000000000E-002   -0.767554811878920     
 -1.980000000000000E-002   -0.790173522501110     
 -1.970000000000000E-002   -0.813279479900109     
 -1.960000000000000E-002   -0.836876117462314     
 -1.950000000000000E-002   -0.860966670028635     
 -1.940000000000000E-002   -0.885554070302001     
 -1.930000000000000E-002   -0.910640933981063     
 -1.920000000000000E-002   -0.936229569716260     
 -1.910000000000000E-002   -0.962322014558408     
 -1.900000000000000E-002   -0.988919857779913     
 -1.890000000000000E-002    -1.01602441496290     
 -1.880000000000000E-002    -1.04363660685573     
 -1.870000000000000E-002    -1.07175696964682     
 -1.860000000000000E-002    -1.10038573067234     
 -1.850000000000000E-002    -1.12952245975595     
 -1.840000000000000E-002    -1.15916659682130     
 -1.830000000000000E-002    -1.18931693431527     
 -1.820000000000000E-002    -1.21997184363561     
 -1.810000000000000E-002    -1.25112937621417     
 -1.800000000000000E-002    -1.28278685354656     
 -1.790000000000000E-002    -1.31494122741102     
 -1.780000000000000E-002    -1.34758899956907     
 -1.770000000000000E-002    -1.38072605473531     
 -1.760000000000000E-002    -1.41434776689675     
 -1.750000000000000E-002    -1.44844892455549     
 -1.740000000000000E-002    -1.48302377985396     
 -1.730000000000000E-002    -1.51806599852511     
 -1.720000000000000E-002    -1.55356876074030     
 -1.710000000000000E-002    -1.58952441411281     
 -1.700000000000000E-002    -1.62592488256255     
 -1.690000000000000E-002    -1.66276143354232     
 -1.680000000000000E-002    -1.70002450061455     
 -1.670000000000000E-002    -1.73770414836641     
 -1.660000000000000E-002    -1.77578956203028     
 -1.650000000000000E-002    -1.81426922078429     
 -1.640000000000000E-002    -1.85313102587582     
 -1.630000000000000E-002    -1.89236219553892     
 -1.620000000000000E-002    -1.93194919544926     
 -1.610000000000000E-002    -1.97187793335923     
 -1.600000000000000E-002    -2.01213320333759     
 -1.590000000000000E-002    -2.05269946702528     
 -1.580000000000000E-002    -2.09356033306065     
 -1.570000000000000E-002    -2.13469878643390     
 -1.560000000000000E-002    -2.17609676210472     
 -1.550000000000000E-002    -2.21773568367015     
 -1.540000000000000E-002    -2.25959585164654     
 -1.530000000000000E-002    -2.30165744730765     
 -1.520000000000000E-002    -2.34389914319107     
 -1.510000000000000E-002    -2.38629956743401     
 -1.500000000000000E-002    -2.42883595501368     
 -1.490000000000000E-002    -2.47148525387675     
 -1.480000000000000E-002    -2.51422333417652     
 -1.470000000000000E-002    -2.55702556142442     
 -1.460000000000000E-002    -2.59986628911492     
 -1.450000000000000E-002    -2.64271938658539     
 -1.440000000000000E-002    -2.68555771860901     
 -1.430000000000000E-002    -2.72835351176782     
 -1.420000000000000E-002    -2.77107815075231     
 -1.410000000000000E-002    -2.81370250622304     
 -1.400000000000000E-002    -2.85619663921119     
 -1.390000000000000E-002    -2.89852982745997     
 -1.380000000000000E-002    -2.94067061159742     
 -1.370000000000000E-002    -2.98258703394554     
 -1.360000000000000E-002    -3.02424618405504     
 -1.350000000000000E-002    -3.06561488208401     
 -1.340000000000000E-002    -3.10665870856734     
 -1.330000000000000E-002    -3.14734321134321     
 -1.320000000000000E-002    -3.18763325569718     
 -1.310000000000000E-002    -3.22749272905521     
 -1.300000000000000E-002    -3.26688530478892     
 -1.290000000000000E-002    -3.30577411367054     
 -1.280000000000000E-002    -3.34412140420111     
 -1.270000000000000E-002    -3.38188938264648     
 -1.260000000000000E-002    -3.41903949395117     
 -1.250000000000000E-002    -3.45553285249209     
 -1.240000000000000E-002    -3.49132991704495     
 -1.230000000000000E-002    -3.52639120279112     
 -1.220000000000000E-002    -3.56067635717276     
 -1.210000000000000E-002    -3.59414508127401     
 -1.200000000000000E-002    -3.62675668759355     
 -1.190000000000000E-002    -3.65847003868995     
 -1.180000000000000E-002    -3.68924399673277     
 -1.170000000000000E-002    -3.71903730444927     
 -1.160000000000000E-002    -3.74780828111728     
 -1.150000000000000E-002    -3.77551511781242     
 -1.140000000000000E-002    -3.80211625664113     
 -1.130000000000000E-002    -3.82756981746338     
 -1.120000000000000E-002    -3.85183389750804     
 -1.110000000000000E-002    -3.87486711065042     
 -1.100000000000000E-002    -3.89662743077269     
 -1.090000000000000E-002    -3.91707361515523     
 -1.080000000000000E-002    -3.93616376779923     
 -1.070000000000000E-002    -3.95385728050338     
 -1.060000000000000E-002    -3.97011303877951     
 -1.050000000000000E-002    -3.98489042856042     
 -1.040000000000000E-002    -3.99814928907644     
 -1.030000000000000E-002    -4.00984963080881     
 -1.020000000000000E-002    -4.01995242842353     
 -1.010000000000000E-002    -4.02841859895668     
 -1.000000000000000E-002    -4.03520998922625     
 -9.899999999999999E-003    -4.04028868998333     
 -9.800000000000000E-003    -4.04361814507101     
 -9.699999999999999E-003    -4.04516153829807     
 -9.599999999999999E-003    -4.04488334600882     
 -9.500000000000000E-003    -4.04274860064458     
 -9.399999999999999E-003    -4.03872358330399     
 -9.299999999999999E-003    -4.03277513579364     
 -9.200000000000000E-003    -4.02487112745980     
 -9.099999999999999E-003    -4.01498067691259     
 -8.999999999999999E-003    -4.00307347115460     
 -8.900000000000000E-003    -3.98912085909352     
 -8.799999999999999E-003    -3.97309456556474     
 -8.699999999999999E-003    -3.95496835605002     
 -8.600000000000000E-003    -3.93471663986337     
 -8.499999999999999E-003    -3.91231548424554     
 -8.399999999999999E-003    -3.88774208069497     
 -8.300000000000000E-003    -3.86097501250746     
 -8.199999999999999E-003    -3.83199417898622     
 -8.100000000000000E-003    -3.80078123036071     
 -8.000000000000000E-003    -3.76731914069262     
 -7.899999999999999E-003    -3.73159271943133     
 -7.800000000000000E-003    -3.69358800495763     
 -7.699999999999999E-003    -3.65329280708052     
 -7.599999999999999E-003    -3.61069671474934     
 -7.499999999999999E-003    -3.56579083288786     
 -7.399999999999999E-003    -3.51856823675703     
 -7.299999999999999E-003    -3.46902364630417     
 -7.199999999999999E-003    -3.41715361534538     
 -7.100000000000000E-003    -3.36295653582984     
 -6.999999999999999E-003    -3.30643259539015     
 -6.899999999999999E-003    -3.24758419675896     
 -6.800000000000000E-003    -3.18641532584853     
 -6.699999999999999E-003    -3.12293197460409     
 -6.599999999999999E-003    -3.05714233526901     
 -6.499999999999999E-003    -2.98905633529671     
 -6.399999999999999E-003    -2.91868585686082     
 -6.299999999999999E-003    -2.84604517101271     
 -6.199999999999999E-003    -2.77115032386504     
 -6.100000000000000E-003    -2.69401952969698     
 -5.999999999999999E-003    -2.61467286705640     
 -5.899999999999999E-003    -2.53313261579992     
 -5.800000000000000E-003    -2.44942312316713     
 -5.699999999999999E-003    -2.36357079576441     
 -5.599999999999999E-003    -2.27560423976522     
 -5.499999999999999E-003    -2.18555382400925     
 -5.399999999999999E-003    -2.09345224494943     
 -5.299999999999999E-003    -1.99933415871057     
 -5.199999999999999E-003    -1.90323640266238     
 -5.099999999999999E-003    -1.80519748837067     
 -4.999999999999999E-003    -1.70525830702150     
 -4.899999999999999E-003    -1.60346164935660     
 -4.799999999999999E-003    -1.49985230988723     
 -4.699999999999999E-003    -1.39447690613671     
 -4.599999999999999E-003    -1.28738403968441     
 -4.499999999999999E-003    -1.17862427680393     
 -4.399999999999999E-003    -1.06825005503670     
 -4.299999999999999E-003   -0.956315540792136     
 -4.199999999999999E-003   -0.842876731886456     
 -4.099999999999999E-003   -0.727991467560786     
 -3.999999999999999E-003   -0.611719262829153     
 -3.899999999999999E-003   -0.494121349634005     
 -3.799999999999999E-003   -0.375260504066299     
 -3.699999999999999E-003   -0.255201213533434     
 -3.599999999999999E-003   -0.134009427013196     
 -3.499999999999999E-003   -1.175258272713502E-002
 -3.399999999999999E-003    0.111500435924113     
 -3.299999999999999E-003    0.235679357759220     
 -3.199999999999999E-003    0.360712587134695     
 -3.099999999999999E-003    0.486527329293918     
 -2.999999999999999E-003    0.613049545018222     
 -2.899999999999999E-003    0.740204094963606     
 -2.799999999999999E-003    0.867914816887876     
 -2.699999999999999E-003    0.996104489670620     
 -2.599999999999999E-003     1.12469498163494     
 -2.499999999999999E-003     1.25360739590567     
 -2.399999999999999E-003     1.38276185166845     
 -2.299999999999999E-003     1.51207790154777     
 -2.199999999999999E-003     1.64147448466945     
 -2.099999999999999E-003     1.77086997370485     
 -1.999999999999999E-003     1.90018216298439     
 -1.899999999999999E-003     2.02932863026106     
 -1.799999999999999E-003     2.15822650529175     
 -1.699999999999999E-003     2.28679248941053     
 -1.599999999999999E-003     2.41494360573066     
 -1.499999999999999E-003     2.54259644511458     
 -1.399999999999999E-003     2.66966781510421     
 -1.299999999999999E-003     2.79607433067903     
 -1.199999999999999E-003     2.92173320532051     
 -1.099999999999999E-003     3.04656135253488     
 -9.999999999999989E-004     3.17047650909769     
 -8.999999999999990E-004     3.29339670097654     
 -7.999999999999990E-004     3.41524043724591     
 -6.999999999999989E-004     3.53592666455673     
 -5.999999999999990E-004     3.65537533150489     
 -4.999999999999989E-004     3.77350673645718     
 -3.999999999999989E-004     3.89024240042172     
 -2.999999999999989E-004     4.00550426057040     
 -1.999999999999989E-004     4.11921574982445     
 -9.999999999999892E-005     4.23130136152101     
  1.084202172485504E-018     4.34168631681856     
  1.000000000000011E-004     4.45029777594124     
  2.000000000000011E-004     4.55706326993750     
  3.000000000000011E-004     4.66191235004905     
  4.000000000000011E-004     4.76477622713745     
  5.000000000000011E-004     4.86558696383800     
  6.000000000000011E-004     4.96427837221200     
  7.000000000000011E-004     5.06078605948155     
  8.000000000000011E-004     5.15504765418257     
  9.000000000000012E-004     5.24700175902458     
  1.000000000000001E-003     5.33658978596556     
  1.100000000000001E-003     5.42375461859990     
  1.200000000000001E-003     5.50844133682285     
  1.300000000000001E-003     5.59059634734323     
  1.400000000000001E-003     5.67016905516324     
  1.500000000000001E-003     5.74710990645584     
  1.600000000000001E-003     5.82137266422253     
  1.700000000000001E-003     5.89291226347087     
  1.800000000000001E-003     5.96168717827551     
  1.900000000000001E-003     6.02765691715363     
  2.000000000000001E-003     6.09078391095308     
  2.100000000000001E-003     6.15103245852670     
  2.200000000000001E-003     6.20837039140095     
  2.300000000000001E-003     6.26276709084065     
  2.400000000000001E-003     6.31419434117431     
  2.500000000000001E-003     6.36262661338604     
  2.600000000000001E-003     6.40804110234379     
  2.700000000000001E-003     6.45041727565320     
  2.800000000000001E-003     6.48973722776398     
  2.900000000000001E-003     6.52598523626084     
  3.000000000000001E-003     6.55914876808693     
  3.100000000000001E-003     6.58921714223894     
  3.200000000000001E-003     6.61618313056008     
  3.300000000000001E-003     6.64004086318670     
  3.400000000000001E-003     6.66078827247518     
  3.500000000000001E-003     6.67842470707701     
  3.600000000000001E-003     6.69295278461426     
  3.700000000000001E-003     6.70437720759859     
  3.800000000000001E-003     6.71270574846449     
  3.900000000000001E-003     6.71794836618790     
  4.000000000000001E-003     6.72011761895506     
  4.100000000000001E-003     6.71922818811682     
  4.200000000000001E-003     6.71529675752138     
  4.300000000000001E-003     6.70834343688040     
  4.400000000000001E-003     6.69839007131299     
  4.500000000000001E-003     6.68546108204295     
  4.600000000000002E-003     6.66958298444021     
  4.700000000000001E-003     6.65078453418675     
  4.800000000000001E-003     6.62909695539958     
  4.900000000000002E-003     6.60455278885114     
  5.000000000000001E-003     6.57718787869462     
  5.100000000000001E-003     6.54703926114671     
  5.200000000000001E-003     6.51414643814921     
  5.300000000000002E-003     6.47855047970842     
  5.400000000000001E-003     6.44029499797805     
  5.500000000000001E-003     6.39942443058020     
  5.600000000000002E-003     6.35598584216772     
  5.700000000000001E-003     6.31002786563814     
  5.800000000000001E-003     6.26160071204549     
  5.900000000000002E-003     6.21075612934894     
  6.000000000000001E-003     6.15754702497560     
  6.100000000000001E-003     6.10202853643653     
  6.200000000000002E-003     6.04425676524991     
  6.300000000000002E-003     5.98428867183241     
  6.400000000000001E-003     5.92218369199949     
  6.500000000000001E-003     5.85800128196481     
  6.600000000000002E-003     5.79180260867236     
  6.700000000000001E-003     5.72365023836687     
  6.800000000000001E-003     5.65360708820446     
  6.900000000000002E-003     5.58173713639519     
  7.000000000000001E-003     5.50810485441688     
  7.100000000000001E-003     5.43277613086618     
  7.200000000000002E-003     5.35581731157380     
  7.300000000000002E-003     5.27729539486073     
  7.400000000000001E-003     5.19727746276454     
  7.500000000000001E-003     5.11583188399662     
  7.600000000000002E-003     5.03302661316007     
  7.700000000000001E-003     4.94893050408165     
  7.800000000000001E-003     4.86361222982188     
  7.900000000000001E-003     4.77714085172645     
  8.000000000000002E-003     4.68958530257815     
  8.100000000000001E-003     4.60101500497469     
  8.200000000000001E-003     4.51149951699775     
  8.300000000000002E-003     4.42110772537620     
  8.400000000000001E-003     4.32990807077854     
  8.500000000000002E-003     4.23796982707411     
  8.600000000000002E-003     4.14536109872863     
  8.700000000000001E-003     4.05215016434989     
  8.800000000000002E-003     3.95840436484334     
  8.900000000000002E-003     3.86419098131173     
  9.000000000000001E-003     3.76957639085556     
  9.100000000000002E-003     3.67462675771130     
  9.200000000000002E-003     3.57940729795639     
  9.300000000000001E-003     3.48398237135577     
  9.400000000000002E-003     3.38841595512513     
  9.500000000000001E-003     3.29277111987741     
  9.600000000000001E-003     3.19710987338840     
  9.700000000000002E-003     3.10149359245830     
  9.800000000000001E-003     3.00598238061989     
  9.900000000000001E-003     2.91063535685214     
  1.000000000000000E-002     2.81551089740668     
  1.010000000000000E-002     2.72066596851996     
  1.020000000000000E-002     2.62615650950184     
  1.030000000000000E-002     2.53203724814361     
  1.040000000000000E-002     2.43836172840805     
  1.050000000000000E-002     2.34518222338517     
  1.060000000000000E-002     2.25254965799901     
  1.070000000000000E-002     2.16051371566311     
  1.080000000000000E-002     2.06912278241668     
  1.090000000000000E-002     1.97842362877915     
  1.100000000000000E-002     1.88846214507102     
  1.110000000000000E-002     1.79928238816023     
  1.120000000000000E-002     1.71092738427531     
  1.130000000000000E-002     1.62343841422278     
  1.140000000000000E-002     1.53685533876800     
  1.150000000000000E-002     1.45121665737177     
  1.160000000000000E-002     1.36655920850983     
  1.170000000000000E-002     1.28291853457782     
  1.180000000000000E-002     1.20032856922637     
  1.190000000000000E-002     1.11882177501912     
  1.200000000000000E-002     1.03842912148759     
  1.210000000000000E-002    0.959179929357745     
  1.220000000000000E-002    0.881102065643492     
  1.230000000000000E-002    0.804222007453017     
  1.240000000000000E-002    0.728564603492858     
  1.250000000000000E-002    0.654153348696302     
  1.260000000000000E-002    0.581010101503932     
  1.270000000000000E-002    0.509155329397600     
  1.280000000000000E-002    0.438608038549405     
  1.290000000000000E-002    0.369385655961965     
  1.300000000000000E-002    0.301504219860056     
  1.310000000000000E-002    0.234978388501633     
  1.320000000000000E-002    0.169821336185402     
  1.330000000000000E-002    0.106044819699175     
  1.340000000000000E-002    4.365920735307541E-002
  1.350000000000000E-002   -1.732646033151147E-002
  1.360000000000000E-002   -7.690457316522775E-002
  1.370000000000000E-002   -0.135068768603472     
  1.380000000000000E-002   -0.191814025155199     
  1.390000000000000E-002   -0.247136575165739     
  1.400000000000000E-002   -0.301033866936519     
  1.410000000000000E-002   -0.353504585292577     
  1.420000000000000E-002   -0.404548657098232     
  1.430000000000000E-002   -0.454167119263522     
  1.440000000000000E-002   -0.502362161128851     
  1.450000000000000E-002   -0.549137136043415     
  1.460000000000000E-002   -0.594496431439882     
  1.470000000000000E-002   -0.638445531710039     
  1.480000000000000E-002   -0.680990964430993     
  1.490000000000000E-002   -0.722140217250276     
  1.500000000000000E-002   -0.761901739636830     
  1.510000000000000E-002   -0.800284936159802     
  1.520000000000000E-002   -0.837300102600979     
  1.530000000000000E-002   -0.872958393352232     
  1.540000000000000E-002   -0.907271774112237     
  1.550000000000000E-002   -0.940253020487742     
  1.560000000000000E-002   -0.971915619599599     
  1.570000000000000E-002    -1.00227391699348     
  1.580000000000000E-002    -1.03134282938334     
  1.590000000000000E-002    -1.05913798668660     
  1.600000000000000E-002    -1.08567570322200     
  1.610000000000000E-002    -1.11097284636254     
  1.620000000000000E-002    -1.13504685537111     
  1.630000000000000E-002    -1.15791570915583     
  1.640000000000000E-002    -1.17959794263348     
  1.650000000000000E-002    -1.20011247738678     
  1.660000000000000E-002    -1.21947878230997     
  1.670000000000000E-002    -1.23771658930097     
  1.680000000000000E-002    -1.25484621438589     
  1.690000000000000E-002    -1.27088810866110     
  1.700000000000000E-002    -1.28586319081591     
  1.710000000000000E-002    -1.29979248086105     
  1.720000000000000E-002    -1.31269748201777     
  1.730000000000000E-002    -1.32459979609864     
  1.740000000000000E-002    -1.33552123078416     
  1.750000000000000E-002    -1.34548383338111     
  1.760000000000000E-002    -1.35450968172110     
  1.770000000000000E-002    -1.36262112922169     
  1.780000000000000E-002    -1.36984049199314     
  1.790000000000000E-002    -1.37619024507726     
  1.800000000000000E-002    -1.38169290375914     
  1.810000000000000E-002    -1.38637092931963     
  1.820000000000000E-002    -1.39024685645726     
  1.830000000000000E-002    -1.39334318943884     
  1.840000000000000E-002    -1.39568242882184     
  1.850000000000000E-002    -1.39728690770789     
  1.860000000000000E-002    -1.39817885816829     
  1.870000000000000E-002    -1.39838052756498     