 -4.000000000000000E-002    0.000000000000000E+000
 -3.990000000000000E-002    0.000000000000000E+000
 -3.980000000000000E-002    0.000000000000000E+000
 -3.970000000000000E-002    0.000000000000000E+000
 -3.960000000000000E-002    0.000000000000000E+000
 -3.950000000000000E-002    0.000000000000000E+000
 -3.940000000000000E-002    0.000000000000000E+000
 -3.930000000000000E-002    0.000000000000000E+000
 -3.920000000000000E-002    0.000000000000000E+000
 -3.910000000000000E-002    1.139672836854402E-029
 -3.900000000000000E-002    1.419608937861406E-028
 -3.890000000000000E-002    7.408308105974118E-028
 -3.880000000000000E-002    1.034962256366235E-027
 -3.870000000000000E-002   -1.332141605855256E-026
 -3.860000000000000E-002   -1.298601218168620E-025
 -3.850000000000000E-002   -7.170292036173442E-025
 -3.840000000000000E-002   -3.001797543117394E-024
 -3.830000000000000E-002   -1.039817336318401E-023
 -3.820000000000000E-002   -3.105159235593740E-023
 -3.810000000000000E-002   -8.178610679162681E-023
 -3.800000000000000E-002   -1.925016851048433E-022
 -3.790000000000000E-002   -4.074460120149660E-022
 -3.780000000000000E-002   -7.752751470464532E-022
 -3.770000000000000E-002   -1.313902116327955E-021
 -3.760000000000000E-002   -1.931108836888019E-021
 -3.750000000000000E-002   -2.282745040235493E-021
 -3.740000000000000E-002   -1.564880711527892E-021
 -3.730000000000000E-002    1.726273465963390E-021
 -3.720000000000000E-002    9.965794675189100E-021
 -3.710000000000000E-002    2.630772034631986E-020
 -3.700000000000000E-002    5.403257674078678E-020
 -3.690000000000000E-002    9.497525732811436E-020
 -3.680000000000000E-002    1.467210720693616E-019
 -3.670000000000000E-002    1.985055868465723E-019
 -3.660000000000000E-002    2.262827626530155E-019
 -3.650000000000000E-002    1.882647950519953E-019
 -3.640000000000000E-002    2.330237910411072E-020
 -3.630000000000000E-002   -3.444826669136206E-019
 -3.620000000000000E-002   -9.908224750197037E-019
 -3.610000000000000E-002   -1.962695089278791E-018
 -3.600000000000000E-002   -3.234726709510395E-018
 -3.590000000000000E-002   -4.653813018926763E-018
 -3.580000000000000E-002   -5.881887269277994E-018
 -3.570000000000000E-002   -6.354959445546280E-018
 -3.560000000000000E-002   -5.284394517427533E-018
 -3.550000000000000E-002   -1.730964268164891E-018
 -3.540000000000000E-002    5.220217821237351E-018
 -3.530000000000000E-002    1.616889182049978E-017
 -3.520000000000000E-002    3.100431077424965E-017
 -3.510000000000000E-002    4.845593115658389E-017
 -3.500000000000000E-002    6.568837150769056E-017
 -3.490000000000000E-002    7.808518967151845E-017
 -3.480000000000000E-002    7.939627776822745E-017
 -3.470000000000000E-002    6.241994033627847E-017
 -3.460000000000000E-002    2.033542937627001E-017
 -3.450000000000000E-002   -5.131623998063515E-017
 -3.440000000000000E-002   -1.521850183672469E-016
 -3.430000000000000E-002   -2.746021132480825E-016
 -3.420000000000000E-002   -4.016353732763407E-016
 -3.410000000000000E-002   -5.065016340189149E-016
 -3.400000000000000E-002   -5.541598333032602E-016
 -3.390000000000000E-002   -5.057370551056775E-016
 -3.380000000000000E-002   -3.260175833522362E-016
 -3.370000000000000E-002    6.449989578346377E-018
 -3.360000000000000E-002    4.879351912597750E-016
 -3.350000000000000E-002    1.079014453193083E-015
 -3.340000000000000E-002    1.697924266619972E-015
 -3.330000000000000E-002    2.221052017470060E-015
 -3.320000000000000E-002    2.493473074364497E-015
 -3.310000000000000E-002    2.351212046281493E-015
 -3.300000000000000E-002    1.654773019012591E-015
 -3.290000000000000E-002    3.306177488878638E-016
 -3.280000000000000E-002   -1.585908069486791E-015
 -3.270000000000000E-002   -3.915545303476824E-015
 -3.260000000000000E-002   -6.319033539962778E-015
 -3.250000000000000E-002   -8.310748028628642E-015
 -3.240000000000000E-002   -9.309970697515185E-015
 -3.230000000000000E-002   -8.731986206276523E-015
 -3.220000000000000E-002   -6.112950515670657E-015
 -3.210000000000000E-002   -1.252791124155762E-015
 -3.200000000000000E-002    5.649037301518735E-015
 -3.190000000000000E-002    1.389701480763850E-014
 -3.180000000000000E-002    2.227633361737572E-014
 -3.170000000000000E-002    2.913216730050953E-014
 -3.160000000000000E-002    3.256770507883472E-014
 -3.150000000000000E-002    3.075668873107618E-014
 -3.140000000000000E-002    2.234027927323869E-014
 -3.130000000000000E-002    6.850813140726034E-015
 -3.120000000000000E-002   -1.491800918070388E-014
 -3.110000000000000E-002   -4.068752412946169E-014
 -3.100000000000000E-002   -6.670655012502123E-014
 -3.090000000000000E-002   -8.806575153372857E-014
 -3.080000000000000E-002   -9.933581176732594E-014
 -3.070000000000000E-002   -9.549061134994545E-014
 -3.060000000000000E-002   -7.300743496485176E-014
 -3.050000000000000E-002   -3.097090937784198E-014
 -3.040000000000000E-002    2.803935174001255E-014
 -3.030000000000000E-002    9.751137545937286E-014
 -3.020000000000000E-002    1.672175878351006E-013
 -3.010000000000000E-002    2.242105686843982E-013
 -3.000000000000000E-002    2.545991255895646E-013
 -2.990000000000000E-002    2.459522667500649E-013
 -2.980000000000000E-002    1.900184430018012E-013
 -2.970000000000000E-002    8.531169725546788E-014
 -2.960000000000000E-002   -6.096253087226599E-014
 -2.950000000000000E-002   -2.321628474837594E-013
 -2.940000000000000E-002   -4.030600088259447E-013
 -2.930000000000000E-002   -5.424766181393508E-013
 -2.920000000000000E-002   -6.176201400302224E-013
 -2.910000000000000E-002   -5.996711032693553E-013
 -2.900000000000000E-002   -4.698601765219737E-013
 -2.890000000000000E-002   -2.250197993792208E-013
 -2.880000000000000E-002    1.185116347883275E-013
 -2.870000000000000E-002    5.236726971276754E-013
 -2.860000000000000E-002    9.348978930865155E-013
 -2.850000000000000E-002    1.284036262226807E-012
 -2.840000000000000E-002    1.499612215745579E-012
 -2.830000000000000E-002    1.518404498699315E-012
 -2.820000000000000E-002    1.297719567186573E-012
 -2.810000000000000E-002    8.263323883692145E-013
 -2.800000000000000E-002    1.319586715195108E-013
 -2.790000000000000E-002   -7.166200674503610E-013
 -2.780000000000000E-002   -1.614022338598694E-012
 -2.770000000000000E-002   -2.429614651038171E-012
 -2.760000000000000E-002   -3.024880918776949E-012
 -2.750000000000000E-002   -3.274784065981163E-012
 -2.740000000000000E-002   -3.090104127397279E-012
 -2.730000000000000E-002   -2.437134119191774E-012
 -2.720000000000000E-002   -1.351056837986966E-012
 -2.710000000000000E-002    6.011483668072718E-014
 -2.700000000000000E-002    1.622983377208489E-012
 -2.690000000000000E-002    3.117899429477502E-012
 -2.680000000000000E-002    4.308183873975693E-012
 -2.670000000000000E-002    4.975967696921164E-012
 -2.660000000000000E-002    4.959670473833070E-012
 -2.650000000000000E-002    4.187259584444990E-012
 -2.640000000000000E-002    2.699414153122874E-012
 -2.630000000000000E-002    6.576484050767582E-013
 -2.620000000000000E-002   -1.665743946357681E-012
 -2.610000000000000E-002   -3.916557591206286E-012
 -2.600000000000000E-002   -5.704144396989675E-012
 -2.590000000000000E-002   -6.658463252112139E-012
 -2.580000000000000E-002   -6.491392537377359E-012
 -2.570000000000000E-002   -5.053537217039147E-012
 -2.560000000000000E-002   -2.377478832511802E-012
 -2.550000000000000E-002    1.300584750208387E-012
 -2.540000000000000E-002    5.546627873580309E-012
 -2.530000000000000E-002    9.764580192835771E-012
 -2.520000000000000E-002    1.326074242063337E-011
 -2.510000000000000E-002    1.533136954536155E-011
 -2.500000000000000E-002    1.536416795095953E-011
 -2.490000000000000E-002    1.294146678244550E-011
 -2.480000000000000E-002    7.931122480319923E-012
 -2.470000000000000E-002    5.510585041427970E-013
 -2.460000000000000E-002   -8.605035685592091E-012
 -2.450000000000000E-002   -1.858995609235944E-011
 -2.440000000000000E-002   -2.817730466633782E-011
 -2.430000000000000E-002   -3.598578953325515E-011
 -2.420000000000000E-002   -4.064450930736155E-011
 -2.410000000000000E-002   -4.098329881222988E-011
 -2.400000000000000E-002   -3.622624222468655E-011
 -2.390000000000000E-002   -2.616219279580100E-011
 -2.380000000000000E-002   -1.126472653296820E-011
 -2.370000000000000E-002    7.264039663589211E-012
 -2.360000000000000E-002    2.754523072025989E-011
 -2.350000000000000E-002    4.718000881502094E-011
 -2.340000000000000E-002    6.350722875448100E-011
 -2.330000000000000E-002    7.394210240802809E-011
 -2.320000000000000E-002    7.636005662694042E-011
 -2.310000000000000E-002    6.947623916281535E-011
 -2.300000000000000E-002    5.316231571473191E-011
 -2.290000000000000E-002    2.864084898702129E-011
 -2.280000000000000E-002   -1.494561847010936E-012
 -2.270000000000000E-002   -3.346721079514227E-011
 -2.260000000000000E-002   -6.272017908568607E-011
 -2.250000000000000E-002   -8.450754262458388E-011
 -2.240000000000000E-002   -9.461179054392339E-011
 -2.230000000000000E-002   -9.009333089725319E-011
 -2.220000000000000E-002   -6.995577773540329E-011
 -2.210000000000000E-002   -3.560406279419473E-011
 -2.200000000000000E-002    9.014742742931579E-012
 -2.190000000000000E-002    5.766408700118561E-011
 -2.180000000000000E-002    1.024873079171284E-010
 -2.170000000000000E-002    1.350508658242964E-010
 -2.160000000000000E-002    1.476484118611480E-010
 -2.150000000000000E-002    1.346899692739977E-010
 -2.140000000000000E-002    9.395768840879864E-011
 -2.130000000000000E-002    2.749702529634880E-011
 -2.120000000000000E-002   -5.806223906175958E-011
 -2.110000000000000E-002   -1.518962985937931E-010
 -2.100000000000000E-002   -2.401308957716929E-010
 -2.090000000000000E-002   -3.076587644369706E-010
 -2.080000000000000E-002   -3.404254762241188E-010
 -2.070000000000000E-002   -3.278686325876508E-010
 -2.060000000000000E-002   -2.651244561616437E-010
 -2.050000000000000E-002   -1.546002836314578E-010
 -2.040000000000000E-002   -6.563356267179518E-012
 -2.030000000000000E-002    1.614849649131821E-010
 -2.020000000000000E-002    3.267059925093880E-010
 -2.010000000000000E-002    4.639403890877958E-010
 -2.000000000000000E-002    5.494846713873357E-010
 -1.990000000000000E-002    5.650937099777484E-010
 -1.980000000000000E-002    5.015693559837087E-010
 -1.970000000000000E-002    3.612871846632618E-010
 -1.960000000000000E-002    1.591134756039855E-010
 -1.950000000000000E-002   -7.862979422305862E-011
 -1.940000000000000E-002   -3.172051568386118E-010
 -1.930000000000000E-002   -5.182275545742355E-010
 -1.920000000000000E-002   -6.455598400179590E-010
 -1.910000000000000E-002   -6.714804232289870E-010
 -1.900000000000000E-002   -5.821269395254448E-010
 -1.890000000000000E-002   -3.812341522502678E-010
 -1.880000000000000E-002   -9.136517895748529E-011
 -1.870000000000000E-002    2.478290972340545E-010
 -1.860000000000000E-002    5.843396472185501E-010
 -1.850000000000000E-002    8.610382118931878E-010
 -1.840000000000000E-002    1.024480685215221E-009
 -1.830000000000000E-002    1.033977578418627E-009
 -1.820000000000000E-002    8.694662209579039E-010
 -1.810000000000000E-002    5.367798447839623E-010
 -1.800000000000000E-002    6.920940117866992E-011
 -1.790000000000000E-002   -4.752330767189769E-010
 -1.780000000000000E-002   -1.020785491911141E-009
 -1.770000000000000E-002   -1.484374708045684E-009
 -1.760000000000000E-002   -1.788122432383578E-009
 -1.750000000000000E-002   -1.872062200508614E-009
 -1.740000000000000E-002   -1.705026383874081E-009
 -1.730000000000000E-002   -1.291798382328772E-009
 -1.720000000000000E-002   -6.750871262291493E-010
 -1.710000000000000E-002    6.838435148542268E-011
 -1.700000000000000E-002    8.374811133187072E-010
 -1.690000000000000E-002    1.520814525041878E-009
 -1.680000000000000E-002    2.013502833274658E-009
 -1.670000000000000E-002    2.234023058300234E-009
 -1.660000000000000E-002    2.138459135784662E-009
 -1.650000000000000E-002    1.729692845732678E-009
 -1.640000000000000E-002    1.059742094856938E-009
 -1.630000000000000E-002    2.244388710043187E-010
 -1.620000000000000E-002   -6.491745365529001E-010
 -1.610000000000000E-002   -1.421163009650024E-009
 -1.600000000000000E-002   -1.960151509680138E-009
 -1.590000000000000E-002   -2.164680818951982E-009
 -1.580000000000000E-002   -1.981069014613937E-009
 -1.570000000000000E-002   -1.414744236244518E-009
 -1.560000000000000E-002   -5.328912334037317E-010
 -1.550000000000000E-002    5.424835147029048E-010
 -1.540000000000000E-002    1.650491984936863E-009
 -1.530000000000000E-002    2.614281522253320E-009
 -1.520000000000000E-002    3.267696620042890E-009
 -1.510000000000000E-002    3.481709902583551E-009
 -1.500000000000000E-002    3.186489187248764E-009
 -1.490000000000000E-002    2.385457959587130E-009
 -1.480000000000000E-002    1.158788733868113E-009
 -1.470000000000000E-002   -3.447039699808979E-010
 -1.460000000000000E-002   -1.926551839366965E-009
 -1.450000000000000E-002   -3.366073137492809E-009
 -1.440000000000000E-002   -4.452433139093656E-009
 -1.430000000000000E-002   -5.016631818643863E-009
 -1.420000000000000E-002   -4.958551595651257E-009
 -1.410000000000000E-002   -4.264764960656971E-009
 -1.400000000000000E-002   -3.014045523594573E-009
 -1.390000000000000E-002   -1.369278341772872E-009
 -1.380000000000000E-002    4.435318636212615E-010
 -1.370000000000000E-002    2.166486937909239E-009
 -1.360000000000000E-002    3.546962395854408E-009
 -1.350000000000000E-002    4.375392143126008E-009
 -1.340000000000000E-002    4.518070722222513E-009
 -1.330000000000000E-002    3.939937600030557E-009
 -1.320000000000000E-002    2.713616869069008E-009
 -1.310000000000000E-002    1.012895561650596E-009
 -1.300000000000000E-002   -9.089531249414712E-010
 -1.290000000000000E-002   -2.753364017567961E-009
 -1.280000000000000E-002   -4.218646536156718E-009
 -1.270000000000000E-002   -5.044276629328012E-009
 -1.260000000000000E-002   -5.050971649169901E-009
 -1.250000000000000E-002   -4.170615851260874E-009
 -1.240000000000000E-002   -2.461366694406418E-009
 -1.230000000000000E-002   -1.052513048250322E-010
 -1.220000000000000E-002    2.612028097521357E-009
 -1.210000000000000E-002    5.336835326290831E-009
 -1.200000000000000E-002    7.694364423695260E-009
 -1.190000000000000E-002    9.340185059553125E-009
 -1.180000000000000E-002    1.000946031729021E-008
 -1.170000000000000E-002    9.556800821543724E-009
 -1.160000000000000E-002    7.980828225488319E-009
 -1.150000000000000E-002    5.429473743393823E-009
 -1.140000000000000E-002    2.184632109821914E-009
 -1.130000000000000E-002   -1.372319428788297E-009
 -1.120000000000000E-002   -4.809850098005629E-009
 -1.110000000000000E-002   -7.703878370576211E-009
 -1.100000000000000E-002   -9.695625711101794E-009
 -1.090000000000000E-002   -1.054132872920347E-008
 -1.080000000000000E-002   -1.014622170162239E-008
 -1.070000000000000E-002   -8.577129029309765E-009
 -1.060000000000000E-002   -6.050827605593346E-009
 -1.050000000000000E-002   -2.898706157269895E-009
 -1.040000000000000E-002    4.883007877933320E-010
 -1.030000000000000E-002    3.727473145243464E-009
 -1.020000000000000E-002    6.515535593352516E-009
 -1.010000000000000E-002    8.693179103713991E-009
 -1.000000000000000E-002    1.029314524119727E-008
 -9.899999999999999E-003    1.156406682804262E-008
 -9.800000000000000E-003    1.296541990241387E-008
 -9.699999999999999E-003    1.513290042925709E-008
 -9.599999999999999E-003    1.881795247177939E-008
 -9.500000000000000E-003    2.480904123152238E-008
 -9.399999999999999E-003    3.384551036209871E-008
 -9.299999999999999E-003    4.653633816543239E-008
 -9.200000000000000E-003    6.329611252560232E-008
 -9.099999999999999E-003    8.430857571620889E-008
 -8.999999999999999E-003    1.095243592377628E-007
 -8.900000000000000E-003    1.386949100821431E-007
 -8.799999999999999E-003    1.714390211301803E-007
 -8.699999999999999E-003    2.073336581640656E-007
 -8.600000000000000E-003    2.460161390811199E-007
 -8.499999999999999E-003    2.872831737120998E-007
 -8.399999999999999E-003    3.311712686966300E-007
 -8.300000000000000E-003    3.780056662839742E-007
 -8.199999999999999E-003    4.284090790423403E-007
 -8.100000000000000E-003    4.832670024007933E-007
 -8.000000000000000E-003    5.436532094896800E-007
 -7.899999999999999E-003    6.107249179125988E-007
 -7.800000000000000E-003    6.856023678838666E-007
 -7.699999999999999E-003    7.692505495981193E-007
 -7.599999999999999E-003    8.623813057476165E-007
 -7.499999999999999E-003    9.653910993538032E-007
 -7.399999999999999E-003    1.078345698592877E-006
 -7.299999999999999E-003    1.201015654401594E-006
 -7.199999999999999E-003    1.332959736243545E-006
 -7.100000000000000E-003    1.473644360135480E-006
 -6.999999999999999E-003    1.622584305564888E-006
 -6.899999999999999E-003    1.779481628420030E-006
 -6.800000000000000E-003    1.944344718752330E-006
 -6.699999999999999E-003    2.117568271324393E-006
 -6.599999999999999E-003    2.299960990170503E-006
 -6.499999999999999E-003    2.492715568078993E-006
 -6.399999999999999E-003    2.697327479488619E-006
 -6.299999999999999E-003    2.915468908275883E-006
 -6.199999999999999E-003    3.148841430808181E-006
 -6.100000000000000E-003    3.399026379307263E-006
 -5.999999999999999E-003    3.667356867906929E-006
 -5.899999999999999E-003    3.954831383961927E-006
 -5.800000000000000E-003    4.262083473235046E-006
 -5.699999999999999E-003    4.589411861358801E-006
 -5.599999999999999E-003    4.936869980421550E-006
 -5.499999999999999E-003    5.304400890390329E-006
 -5.399999999999999E-003    5.691999518205053E-006
 -5.299999999999999E-003    6.099876475611041E-006
 -5.199999999999999E-003    6.528603507229491E-006
 -5.099999999999999E-003    6.979213822726688E-006
 -4.999999999999999E-003    7.453248505474256E-006
 -4.899999999999999E-003    7.952735691909790E-006
 -4.799999999999999E-003    8.480111674603880E-006
 -4.699999999999999E-003    9.038091272812774E-006
 -4.599999999999999E-003    9.629511542587405E-006
 -4.499999999999999E-003    1.025716756111893E-005
 -4.399999999999999E-003    1.092367110083452E-005
 -4.299999999999999E-003    1.163134481796145E-005
 -4.199999999999999E-003    1.238217932863313E-005
 -4.099999999999999E-003    1.317785158496006E-005
 -3.999999999999999E-003    1.401980039117823E-005
 -3.899999999999999E-003    1.490936311099248E-005
 -3.799999999999999E-003    1.584793155707731E-005
 -3.699999999999999E-003    1.683712557392103E-005
 -3.599999999999999E-003    1.787894606241683E-005
 -3.499999999999999E-003    1.897589294890159E-005
 -3.399999999999999E-003    2.013102380759294E-005
 -3.299999999999999E-003    2.134796142317665E-005
 -3.199999999999999E-003    2.263083203096742E-005
 -3.099999999999999E-003    2.398415310495468E-005
 -2.999999999999999E-003    2.541269710891508E-005
 -2.899999999999999E-003    2.692133751617916E-005
 -2.799999999999999E-003    2.851490027737297E-005
 -2.699999999999999E-003    3.019807139056560E-005
 -2.599999999999999E-003    3.197533281593322E-005
 -2.499999999999999E-003    3.385096111814104E-005
 -2.399999999999999E-003    3.582909661920286E-005
 -2.299999999999999E-003    3.791385186476052E-005
 -2.199999999999999E-003    4.010946529414844E-005
 -2.099999999999999E-003    4.242046192980365E-005
 -1.999999999999999E-003    4.485180918559807E-005
 -1.899999999999999E-003    4.740904811291075E-005
 -1.799999999999999E-003    5.009837294034745E-005
 -1.699999999999999E-003    5.292665780259735E-005
 -1.599999999999999E-003    5.590142940354463E-005
 -1.499999999999999E-003    5.903078606868453E-005
 -1.399999999999999E-003    6.232328106134296E-005
 -1.299999999999999E-003    6.578777695508267E-005
 -1.199999999999999E-003    6.943332482555057E-005
 -1.099999999999999E-003    7.326902833539991E-005
 -9.999999999999989E-004    7.730399797664314E-005
 -8.999999999999990E-004    8.154731505083156E-005
 -7.999999999999990E-004    8.600808490523209E-005
 -6.999999999999989E-004    9.069552746546306E-005
 -5.999999999999990E-004    9.561910109949887E-005
 -4.999999999999989E-004    1.007886835370556E-004
 -3.999999999999989E-004    1.062147211868021E-004
 -2.999999999999989E-004    1.119083723416926E-004
 -1.999999999999989E-004    1.178816280263033E-004
 -9.999999999999892E-005    1.241473543929183E-004
  1.084202172485504E-018    1.307193250575523E-004
  1.000000000000011E-004    1.376121294455816E-004
  2.000000000000011E-004    1.448410996256195E-004
  3.000000000000011E-004    1.524221825302355E-004
  4.000000000000011E-004    1.603717840604108E-004
  5.000000000000011E-004    1.687066577687895E-004
  6.000000000000011E-004    1.774438206587444E-004
  7.000000000000011E-004    1.866005044534277E-004
  8.000000000000011E-004    1.961941595136913E-004
  9.000000000000012E-004    2.062425956263861E-004
  1.000000000000001E-003    2.167640294360777E-004
  1.100000000000001E-003    2.277772924694843E-004
  1.200000000000001E-003    2.393019754285280E-004
  1.300000000000001E-003    2.513586579064857E-004
  1.400000000000001E-003    2.639689989078225E-004
  1.500000000000001E-003    2.771558401179063E-004
  1.600000000000001E-003    2.909432319725787E-004
  1.700000000000001E-003    3.053564661725753E-004
  1.800000000000001E-003    3.204219336840096E-004
  1.900000000000001E-003    3.361670613092420E-004
  2.000000000000001E-003    3.526200856587188E-004
  2.100000000000001E-003    3.698100435658673E-004
  2.200000000000001E-003    3.877665579049947E-004
  2.300000000000001E-003    4.065198608235927E-004
  2.400000000000001E-003    4.261006766208985E-004
  2.500000000000001E-003    4.465403608768083E-004
  2.600000000000001E-003    4.678709481803044E-004
  2.700000000000001E-003    4.901253027813422E-004
  2.800000000000001E-003    5.133372899219408E-004
  2.900000000000001E-003    5.375419512141556E-004
  3.000000000000001E-003    5.627756014510425E-004
  3.100000000000001E-003    5.890760329234050E-004
  3.200000000000001E-003    6.164825131680405E-004
  3.300000000000001E-003    6.450357451643196E-004
  3.400000000000001E-003    6.747779337777081E-004
  3.500000000000001E-003    7.057526189456077E-004
  3.600000000000001E-003    7.380046166499125E-004
  3.700000000000001E-003    7.715798874177676E-004
  3.800000000000001E-003    8.065255271003460E-004
  3.900000000000001E-003    8.428894447056697E-004
  4.000000000000001E-003    8.807208206975472E-004
  4.100000000000001E-003    9.200696695467891E-004
  4.200000000000001E-003    9.609872392601793E-004
  4.300000000000001E-003    1.003525940994232E-003
  4.400000000000001E-003    1.047739477780654E-003
  4.500000000000001E-003    1.093683038090776E-003
  4.600000000000002E-003    1.141413475428209E-003
  4.700000000000001E-003    1.190989029830623E-003
  4.800000000000001E-003    1.242469871591570E-003
  4.900000000000002E-003    1.295917522850897E-003
  5.000000000000001E-003    1.351395221455635E-003
  5.100000000000001E-003    1.408967702918637E-003
  5.200000000000001E-003    1.468701153315804E-003
  5.300000000000002E-003    1.530662905092844E-003
  5.400000000000001E-003    1.594921771230231E-003
  5.500000000000001E-003    1.661547542547999E-003
  5.600000000000002E-003    1.730611275695628E-003
  5.700000000000001E-003    1.802185505129963E-003
  5.800000000000001E-003    1.876343994995864E-003
  5.900000000000002E-003    1.953161969810883E-003
  6.000000000000001E-003    2.032716000963568E-003
  6.100000000000001E-003    2.115084399306281E-003
  6.200000000000002E-003    2.200347018542131E-003
  6.300000000000002E-003    2.288585437316381E-003
  6.400000000000001E-003    2.379882750603653E-003
  6.500000000000001E-003    2.474323388455051E-003
  6.600000000000002E-003    2.571993400008504E-003
  6.700000000000001E-003    2.672980097851277E-003
  6.800000000000001E-003    2.777371582058880E-003
  6.900000000000002E-003    2.885257078000840E-003
  7.000000000000001E-003    2.996727003632784E-003
  7.100000000000001E-003    3.111872444252309E-003
  7.200000000000002E-003    3.230785345617857E-003
  7.300000000000002E-003    3.353558572877764E-003
  7.400000000000001E-003    3.480286119339622E-003
  7.500000000000001E-003    3.611062964724247E-003
  7.600000000000002E-003    3.745984579317890E-003
  7.700000000000001E-003    3.885148334835306E-003
  7.800000000000001E-003    4.028651660008598E-003
  7.900000000000001E-003    4.176593812242561E-003
  8.000000000000002E-003    4.329074349771837E-003
  8.100000000000001E-003    4.486193702880913E-003
  8.200000000000001E-003    4.648052860976977E-003
  8.300000000000002E-003    4.814753458715943E-003
  8.400000000000001E-003    4.986397103090640E-003
  8.500000000000002E-003    5.163085364545678E-003
  8.600000000000002E-003    5.344919764172689E-003
  8.700000000000001E-003    5.532002327920418E-003
  8.800000000000002E-003    5.724434424072776E-003
  8.900000000000002E-003    5.922316922093870E-003
  9.000000000000001E-003    6.125751145727262E-003
  9.100000000000002E-003    6.334837692097625E-003
  9.200000000000002E-003    6.549677392336711E-003
  9.300000000000001E-003    6.770370110367213E-003
  9.400000000000002E-003    6.997015988228381E-003
  9.500000000000001E-003    7.229713923201236E-003
  9.600000000000001E-003    7.468561542542801E-003
  9.700000000000002E-003    7.713656849691802E-003
  9.800000000000001E-003    7.965095446820987E-003
  9.900000000000001E-003    8.222971689790144E-003
  1.000000000000000E-002    8.487379237063964E-003
  1.010000000000000E-002    8.758408972085924E-003
  1.020000000000000E-002    9.036149488995076E-003
  1.030000000000000E-002    9.320687500999847E-003
  1.040000000000000E-002    9.612108223600252E-003
  1.050000000000000E-002    9.910493581725686E-003
  1.060000000000000E-002    1.021592349220727E-002
  1.070000000000000E-002    1.052847458322267E-002
  1.080000000000000E-002    1.084822152957883E-002
  1.090000000000000E-002    1.117523652099256E-002
  1.100000000000000E-002    1.150958821218948E-002
  1.110000000000000E-002    1.185134159899533E-002
  1.120000000000000E-002    1.220055844582267E-002
  1.130000000000000E-002    1.255729680989324E-002
  1.140000000000000E-002    1.292161151937313E-002
  1.150000000000000E-002    1.329355167996518E-002
  1.160000000000000E-002    1.367316202120896E-002
  1.170000000000000E-002    1.406048406307666E-002
  1.180000000000000E-002    1.445555207297612E-002
  1.190000000000000E-002    1.485839582225631E-002
  1.200000000000000E-002    1.526904220710444E-002
  1.210000000000000E-002    1.568750854248683E-002
  1.220000000000000E-002    1.611380821347519E-002
  1.230000000000000E-002    1.654794700229162E-002
  1.240000000000000E-002    1.698992804028085E-002
  1.250000000000000E-002    1.743974412407243E-002
  1.260000000000000E-002    1.789738531564505E-002
  1.270000000000000E-002    1.836283164842819E-002
  1.280000000000000E-002    1.883605790134028E-002
  1.290000000000000E-002    1.931703052567354E-002
  1.300000000000000E-002    1.980570785533863E-002
  1.310000000000000E-002    2.030204302348158E-002
  1.320000000000000E-002    2.080597811242635E-002
  1.330000000000000E-002    2.131744800709140E-002
  1.340000000000000E-002    2.183637808909190E-002
  1.350000000000000E-002    2.236268443111693E-002
  1.360000000000000E-002    2.289627290116778E-002
  1.370000000000000E-002    2.343704059753427E-002
  1.380000000000000E-002    2.398487410777821E-002
  1.390000000000000E-002    2.453965239507783E-002
  1.400000000000000E-002    2.510124311098489E-002
  1.410000000000000E-002    2.566950426466800E-002
  1.420000000000000E-002    2.624428256552381E-002
  1.430000000000000E-002    2.682541747240181E-002
  1.440000000000000E-002    2.741273443975051E-002
  1.450000000000000E-002    2.800605132040488E-002
  1.460000000000000E-002    2.860517520871188E-002
  1.470000000000000E-002    2.920990084724046E-002
  1.480000000000000E-002    2.982001103171180E-002
  1.490000000000000E-002    3.043527610131101E-002
  1.500000000000000E-002    3.105545599731029E-002
  1.510000000000000E-002    3.168029896458437E-002
  1.520000000000000E-002    3.230953936237279E-002
  1.530000000000000E-002    3.294290154499638E-002
  1.540000000000000E-002    3.358009530012222E-002
  1.550000000000000E-002    3.422081981143198E-002
  1.560000000000000E-002    3.486476293165436E-002
  1.570000000000000E-002    3.551159790035377E-002
  1.580000000000000E-002    3.616099202731812E-002
  1.590000000000000E-002    3.681259495001148E-002
  1.600000000000000E-002    3.746604779902727E-002
  1.610000000000000E-002    3.812098133130584E-002
  1.620000000000000E-002    3.877701330112390E-002
  1.630000000000000E-002    3.943374542559886E-002
  1.640000000000000E-002    4.009077193027123E-002
  1.650000000000000E-002    4.074767185275956E-002
  1.660000000000000E-002    4.140401186512689E-002
  1.670000000000000E-002    4.205934621998579E-002
  1.680000000000000E-002    4.271322243200752E-002
  1.690000000000000E-002    4.336516648923525E-002
  1.700000000000000E-002    4.401469840090752E-002
  1.710000000000000E-002    4.466133178163478E-002
  1.720000000000000E-002    4.530456291697468E-002
  1.730000000000000E-002    4.594387736026222E-002
  1.740000000000000E-002    4.657875796233656E-002
  1.750000000000000E-002    4.720866954072862E-002
  1.760000000000000E-002    4.783307199201509E-002
  1.770000000000000E-002    4.845141904126209E-002
  1.780000000000000E-002    4.906314722747751E-002
  1.790000000000000E-002    4.966768875494594E-002
  1.800000000000000E-002    5.026446110193938E-002
  1.810000000000000E-002    5.085288208154468E-002
  1.820000000000000E-002    5.143235662408603E-002
  1.830000000000000E-002    5.200227735322384E-002
  1.840000000000000E-002    5.256203164043044E-002
  1.850000000000000E-002    5.311100118505679E-002
  1.860000000000000E-002    5.364856347257255E-002
  1.870000000000000E-002    5.417409063835918E-002