 -4.000000000000000E-002    0.000000000000000E+000
 -3.990000000000000E-002    0.000000000000000E+000
 -3.980000000000000E-002    0.000000000000000E+000
 -3.970000000000000E-002    0.000000000000000E+000
 -3.960000000000000E-002    0.000000000000000E+000
 -3.950000000000000E-002    0.000000000000000E+000
 -3.940000000000000E-002    1.622097541963852E-023
 -3.930000000000000E-002    1.702688623790135E-022
 -3.920000000000000E-002    9.117710479346929E-022
 -3.910000000000000E-002    3.240797452441814E-021
 -3.900000000000000E-002    8.233431756919922E-021
 -3.890000000000000E-002    1.431872868862811E-020
 -3.880000000000000E-002    1.027041309894961E-020
 -3.870000000000000E-002   -3.681215617600067E-020
 -3.860000000000000E-002   -1.942642370303267E-019
 -3.850000000000000E-002   -5.631153454230649E-019
 -3.840000000000000E-002   -1.235670426531006E-018
 -3.830000000000000E-002   -2.170613301332056E-018
 -3.820000000000000E-002   -2.944012875860391E-018
 -3.810000000000000E-002   -2.360314833694831E-018
 -3.800000000000000E-002    2.025901619282531E-018
 -3.790000000000000E-002    1.431284472082786E-017
 -3.780000000000000E-002    4.026447085650384E-017
 -3.770000000000000E-002    8.647354894778809E-017
 -3.760000000000000E-002    1.581402150104574E-016
 -3.750000000000000E-002    2.550249168679512E-016
 -3.740000000000000E-002    3.654874040103659E-016
 -3.730000000000000E-002    4.591982737918196E-016
 -3.720000000000000E-002    4.800875638233916E-016
 -3.710000000000000E-002    3.422390916089285E-016
 -3.700000000000000E-002   -6.754570493441220E-017
 -3.690000000000000E-002   -8.763101799417795E-016
 -3.680000000000000E-002   -2.196988127617377E-015
 -3.670000000000000E-002   -4.084323455944230E-015
 -3.660000000000000E-002   -6.476781285221102E-015
 -3.650000000000000E-002   -9.131848248076452E-015
 -3.640000000000000E-002   -1.156823228023913E-014
 -3.630000000000000E-002   -1.303416553961142E-014
 -3.620000000000000E-002   -1.252445593253119E-014
 -3.610000000000000E-002   -8.868306980041295E-015
 -3.600000000000000E-002   -9.031580944984973E-016
 -3.590000000000000E-002    1.226363094576613E-014
 -3.580000000000000E-002    3.092348158214454E-014
 -3.570000000000000E-002    5.440826407639537E-014
 -3.560000000000000E-002    8.077174546858002E-014
 -3.550000000000000E-002    1.065965590804986E-013
 -3.540000000000000E-002    1.270189787231575E-013
 -3.530000000000000E-002    1.360521012103840E-013
 -3.520000000000000E-002    1.272547024232039E-013
 -3.510000000000000E-002    9.473715534720179E-014
 -3.500000000000000E-002    3.442337127938816E-014
 -3.490000000000000E-002   -5.459240701223055E-014
 -3.480000000000000E-002   -1.688260045644251E-013
 -3.470000000000000E-002   -2.995986321454082E-013
 -3.460000000000000E-002   -4.329267379455528E-013
 -3.450000000000000E-002   -5.503317693058663E-013
 -3.440000000000000E-002   -6.306798896063156E-013
 -3.430000000000000E-002   -6.529923904543713E-013
 -3.420000000000000E-002   -5.999645588043969E-013
 -3.410000000000000E-002   -4.617267660298031E-013
 -3.400000000000000E-002   -2.392144650077381E-013
 -3.390000000000000E-002    5.356882828670197E-014
 -3.380000000000000E-002    3.890785360868783E-013
 -3.370000000000000E-002    7.280553514779558E-013
 -3.360000000000000E-002    1.023850643312651E-012
 -3.350000000000000E-002    1.229029838805738E-012
 -3.340000000000000E-002    1.303562835858792E-012
 -3.330000000000000E-002    1.223458271798552E-012
 -3.320000000000000E-002    9.883713267239233E-013
 -3.310000000000000E-002    6.265718809230907E-013
 -3.300000000000000E-002    1.957947350727928E-013
 -3.290000000000000E-002   -2.210923163915131E-013
 -3.280000000000000E-002   -5.259698077172630E-013
 -3.270000000000000E-002   -6.203718668457222E-013
 -3.260000000000000E-002   -4.239141122507399E-013
 -3.250000000000000E-002    1.061625555115060E-013
 -3.240000000000000E-002    9.574097403242102E-013
 -3.230000000000000E-002    2.049908367661783E-012
 -3.220000000000000E-002    3.232468605373605E-012
 -3.210000000000000E-002    4.289671901289819E-012
 -3.200000000000000E-002    4.960888287700928E-012
 -3.190000000000000E-002    4.970726180232329E-012
 -3.180000000000000E-002    4.068571023818316E-012
 -3.170000000000000E-002    2.073063168812958E-012
 -3.160000000000000E-002   -1.084061295396408E-012
 -3.150000000000000E-002   -5.321208007750737E-012
 -3.140000000000000E-002   -1.038375360084958E-011
 -3.130000000000000E-002   -1.584017176671889E-011
 -3.120000000000000E-002   -2.110141583162308E-011
 -3.110000000000000E-002   -2.546502780811352E-011
 -3.100000000000000E-002   -2.818238491664167E-011
 -3.090000000000000E-002   -2.854415373901898E-011
 -3.080000000000000E-002   -2.597593235843906E-011
 -3.070000000000000E-002   -2.013344335453858E-011
 -3.060000000000000E-002   -1.098506743965191E-011
 -3.050000000000000E-002    1.130772636220806E-012
 -3.040000000000000E-002    1.548465554336744E-011
 -3.030000000000000E-002    3.098000691583312E-011
 -3.020000000000000E-002    4.622573203210962E-011
 -3.010000000000000E-002    5.965601186240797E-011
 -3.000000000000000E-002    6.968932094011107E-011
 -2.990000000000000E-002    7.491234364544026E-011
 -2.980000000000000E-002    7.426894223266365E-011
 -2.970000000000000E-002    6.723036248969282E-011
 -2.960000000000000E-002    5.392164866358795E-011
 -2.950000000000000E-002    3.518096739817230E-011
 -2.940000000000000E-002    1.253392841491458E-011
 -2.930000000000000E-002   -1.192604790657906E-011
 -2.920000000000000E-002   -3.574879682459155E-011
 -2.910000000000000E-002   -5.641377529093674E-011
 -2.900000000000000E-002   -7.166239481578992E-011
 -2.890000000000000E-002   -7.983539313055229E-011
 -2.880000000000000E-002   -8.016713404084192E-011
 -2.870000000000000E-002   -7.298715318872304E-011
 -2.860000000000000E-002   -5.978521642318595E-011
 -2.850000000000000E-002   -4.310966755052710E-011
 -2.840000000000000E-002   -2.628916628947311E-011
 -2.830000000000000E-002   -1.299340439613135E-011
 -2.820000000000000E-002   -6.675428337949616E-012
 -2.810000000000000E-002   -9.963320115851497E-012
 -2.800000000000000E-002   -2.408746820652430E-011
 -2.790000000000000E-002   -4.843774785400063E-011
 -2.780000000000000E-002   -8.033972517760522E-011
 -2.770000000000000E-002   -1.151189276679262E-010
 -2.760000000000000E-002   -1.464884803317455E-010
 -2.750000000000000E-002   -1.672511065532851E-010
 -2.740000000000000E-002   -1.702568320994823E-010
 -2.730000000000000E-002   -1.495102118249149E-010
 -2.720000000000000E-002   -1.012827407554994E-010
 -2.710000000000000E-002   -2.506459334928175E-011
 -2.700000000000000E-002    7.580869034871814E-011
 -2.690000000000000E-002    1.939929091880740E-010
 -2.680000000000000E-002    3.185227634232444E-010
 -2.670000000000000E-002    4.357677395274991E-010
 -2.660000000000000E-002    5.308915834221920E-010
 -2.650000000000000E-002    5.896691002659834E-010
 -2.640000000000000E-002    6.004444234274828E-010
 -2.630000000000000E-002    5.559689617410510E-010
 -2.620000000000000E-002    4.548457475615804E-010
 -2.610000000000000E-002    3.023332989040965E-010
 -2.600000000000000E-002    1.103296583652056E-010
 -2.590000000000000E-002   -1.035452857564533E-010
 -2.580000000000000E-002   -3.177280806922058E-010
 -2.570000000000000E-002   -5.091833629097496E-010
 -2.560000000000000E-002   -6.562860837062534E-010
 -2.550000000000000E-002   -7.417473211986919E-010
 -2.540000000000000E-002   -7.551759911727864E-010
 -2.530000000000000E-002   -6.948864184349915E-010
 -2.520000000000000E-002   -5.686338170996668E-010
 -2.510000000000000E-002   -3.930863698079998E-010
 -2.500000000000000E-002   -1.920076600027493E-010
 -2.490000000000000E-002    6.694838653515509E-012
 -2.480000000000000E-002    1.747228140599641E-010
 -2.470000000000000E-002    2.874668627286044E-010
 -2.460000000000000E-002    3.278495571073001E-010
 -2.450000000000000E-002    2.893556134181718E-010
 -2.440000000000000E-002    1.777410269644791E-010
 -2.430000000000000E-002    1.106008312050630E-011
 -2.420000000000000E-002   -1.821385297547059E-010
 -2.410000000000000E-002   -3.663418256492660E-010
 -2.400000000000000E-002   -5.039629925045297E-010
 -2.390000000000000E-002   -5.609963931082955E-010
 -2.380000000000000E-002   -5.126723808561002E-010
 -2.370000000000000E-002   -3.482754186653872E-010
 -2.360000000000000E-002   -7.433303101272306E-011
 -2.350000000000000E-002    2.844574579808040E-010
 -2.340000000000000E-002    6.869285975058038E-010
 -2.330000000000000E-002    1.079784482707084E-009
 -2.320000000000000E-002    1.404213465208317E-009
 -2.310000000000000E-002    1.604037729790729E-009
 -2.300000000000000E-002    1.634360917407631E-009
 -2.290000000000000E-002    1.469502572610173E-009
 -2.280000000000000E-002    1.108991048455798E-009
 -2.270000000000000E-002    5.805440598432239E-010
 -2.260000000000000E-002   -6.069575691775396E-011
 -2.250000000000000E-002   -7.369306775718675E-010
 -2.240000000000000E-002   -1.356181072962261E-009
 -2.230000000000000E-002   -1.823591845258239E-009
 -2.220000000000000E-002   -2.054201491620989E-009
 -2.210000000000000E-002   -1.985461816082184E-009
 -2.200000000000000E-002   -1.587672987694951E-009
 -2.190000000000000E-002   -8.706445413365454E-010
 -2.180000000000000E-002    1.147104937885970E-010
 -2.170000000000000E-002    1.280493673487460E-009
 -2.160000000000000E-002    2.511509530760294E-009
 -2.150000000000000E-002    3.679534688507875E-009
 -2.140000000000000E-002    4.660407926739723E-009
 -2.130000000000000E-002    5.351610921274891E-009
 -2.120000000000000E-002    5.687735612153217E-009
 -2.110000000000000E-002    5.651341833890513E-009
 -2.100000000000000E-002    5.277205791515039E-009
 -2.090000000000000E-002    4.648801771938134E-009
 -2.080000000000000E-002    3.886959336579185E-009
 -2.070000000000000E-002    3.131840735388327E-009
 -2.060000000000000E-002    2.520508566384546E-009
 -2.050000000000000E-002    2.163236530560230E-009
 -2.040000000000000E-002    2.122186247147682E-009
 -2.030000000000000E-002    2.396026120297885E-009
 -2.020000000000000E-002    2.913494485028945E-009
 -2.010000000000000E-002    3.537805297517963E-009
 -2.000000000000000E-002    4.082358004121950E-009
 -1.990000000000000E-002    4.336561394905516E-009
 -1.980000000000000E-002    4.099026589133032E-009
 -1.970000000000000E-002    3.214112810572662E-009
 -1.960000000000000E-002    1.607051810536698E-009
 -1.950000000000000E-002   -6.872082944949625E-010
 -1.940000000000000E-002   -3.505678116977386E-009
 -1.930000000000000E-002   -6.552459938763779E-009
 -1.920000000000000E-002   -9.408473630132239E-009
 -1.910000000000000E-002   -1.155490907916693E-008
 -1.900000000000000E-002   -1.240748516379741E-008
 -1.890000000000000E-002   -1.135681033060237E-008
 -1.880000000000000E-002   -7.809248056274705E-009
 -1.870000000000000E-002   -1.222266649923253E-009
 -1.860000000000000E-002    8.871179653356413E-009
 -1.850000000000000E-002    2.285308830736440E-008
 -1.840000000000000E-002    4.102782078842650E-008
 -1.830000000000000E-002    6.364596952679522E-008
 -1.820000000000000E-002    9.094173032825358E-008
 -1.810000000000000E-002    1.231789490327636E-007
 -1.800000000000000E-002    1.606994603749350E-007
 -1.790000000000000E-002    2.039666921246965E-007
 -1.780000000000000E-002    2.535982739917900E-007
 -1.770000000000000E-002    3.103823023716562E-007
 -1.760000000000000E-002    3.752744160827173E-007
 -1.750000000000000E-002    4.493756508576490E-007
 -1.740000000000000E-002    5.338927262616993E-007
 -1.730000000000000E-002    6.300863970345025E-007
 -1.720000000000000E-002    7.392139773002659E-007
 -1.710000000000000E-002    8.624740581232332E-007
 -1.700000000000000E-002    1.000959750991817E-006
 -1.690000000000000E-002    1.155628219954458E-006
 -1.680000000000000E-002    1.327289497596176E-006
 -1.670000000000000E-002    1.516615917069577E-006
 -1.660000000000000E-002    1.724173163940853E-006
 -1.650000000000000E-002    1.950465929741246E-006
 -1.640000000000000E-002    2.195993652295416E-006
 -1.630000000000000E-002    2.461310112732564E-006
 -1.620000000000000E-002    2.747077567599959E-006
 -1.610000000000000E-002    3.054108864667086E-006
 -1.600000000000000E-002    3.383393914562738E-006
 -1.590000000000000E-002    3.736105500020760E-006
 -1.580000000000000E-002    4.113587530394000E-006
 -1.570000000000000E-002    4.517325588133524E-006
 -1.560000000000000E-002    4.948907123513026E-006
 -1.550000000000000E-002    5.409977588093799E-006
 -1.540000000000000E-002    5.902199118583252E-006
 -1.530000000000000E-002    6.427220435110752E-006
 -1.520000000000000E-002    6.986661207452072E-006
 -1.510000000000000E-002    7.582116077061107E-006
 -1.500000000000000E-002    8.215179531323386E-006
 -1.490000000000000E-002    8.887483852597231E-006
 -1.480000000000000E-002    9.600753822085341E-006
 -1.470000000000000E-002    1.035686367196841E-005
 -1.460000000000000E-002    1.115788866596600E-005
 -1.450000000000000E-002    1.200614919017240E-005
 -1.440000000000000E-002    1.290423962969491E-005
 -1.430000000000000E-002    1.385502791530473E-005
 -1.420000000000000E-002    1.486164131012090E-005
 -1.410000000000000E-002    1.592742939511614E-005
 -1.400000000000000E-002    1.705591215999289E-005
 -1.390000000000000E-002    1.825072951097309E-005
 -1.380000000000000E-002    1.951558844670972E-005
 -1.370000000000000E-002    2.085423019683129E-005
 -1.360000000000000E-002    2.227041690784949E-005
 -1.350000000000000E-002    2.376794640740225E-005
 -1.340000000000000E-002    2.535070250629511E-005
 -1.330000000000000E-002    2.702271804283964E-005
 -1.320000000000000E-002    2.878827141823522E-005
 -1.310000000000000E-002    3.065197778411029E-005
 -1.300000000000000E-002    3.261888021884556E-005
 -1.290000000000000E-002    3.469452011457981E-005
 -1.280000000000000E-002    3.688498317459841E-005
 -1.270000000000000E-002    3.919689819239979E-005
 -1.260000000000000E-002    4.163740432278815E-005
 -1.250000000000000E-002    4.421408640392917E-005
 -1.240000000000000E-002    4.693487802266216E-005
 -1.230000000000000E-002    4.980794791951934E-005
 -1.220000000000000E-002    5.284161224302548E-005
 -1.210000000000000E-002    5.604425483523245E-005
 -1.200000000000000E-002    5.942429320094335E-005
 -1.190000000000000E-002    6.299018967211984E-005
 -1.180000000000000E-002    6.675052576637274E-005
 -1.170000000000000E-002    7.071413398261316E-005
 -1.160000000000000E-002    7.489024377826049E-005
 -1.150000000000000E-002    7.928867676151922E-005
 -1.140000000000000E-002    8.392005075558159E-005
 -1.130000000000000E-002    8.879593034233239E-005
 -1.120000000000000E-002    9.392895920790206E-005
 -1.110000000000000E-002    9.933292740429986E-005
 -1.100000000000000E-002    1.050227785138783E-004
 -1.090000000000000E-002    1.110145233966507E-004
 -1.080000000000000E-002    1.173251396943205E-004
 -1.070000000000000E-002    1.239723874059020E-004
 -1.060000000000000E-002    1.309746312851744E-004
 -1.050000000000000E-002    1.383506639298397E-004
 -1.040000000000000E-002    1.461195501343817E-004
 -1.030000000000000E-002    1.543005405660294E-004
 -1.020000000000000E-002    1.629130605165525E-004
 -1.010000000000000E-002    1.719767542415638E-004
 -1.000000000000000E-002    1.815115849935085E-004
 -9.899999999999999E-003    1.915380495896085E-004
 -9.800000000000000E-003    2.020773870067739E-004
 -9.699999999999999E-003    2.131517953237474E-004
 -9.599999999999999E-003    2.247846529119535E-004
 -9.500000000000000E-003    2.370007302733776E-004
 -9.399999999999999E-003    2.498263352531857E-004
 -9.299999999999999E-003    2.632893901760266E-004
 -9.200000000000000E-003    2.774194595410719E-004
 -9.099999999999999E-003    2.922477501773918E-004
 -8.999999999999999E-003    3.078070328622438E-004
 -8.900000000000000E-003    3.241315061759034E-004
 -8.799999999999999E-003    3.412567796633358E-004
 -8.699999999999999E-003    3.592197607992920E-004
 -8.600000000000000E-003    3.780585348458408E-004
 -8.499999999999999E-003    3.978124410259874E-004
 -8.399999999999999E-003    4.185219282587925E-004
 -8.300000000000000E-003    4.402287756515069E-004
 -8.199999999999999E-003    4.629760615520430E-004
 -8.100000000000000E-003    4.868082445052445E-004
 -8.000000000000000E-003    5.117713662161737E-004
 -7.899999999999999E-003    5.379130470470504E-004
 -7.800000000000000E-003    5.652827068051407E-004
 -7.699999999999999E-003    5.939315219724152E-004
 -7.599999999999999E-003    6.239126206523797E-004
 -7.499999999999999E-003    6.552809009377106E-004
 -7.399999999999999E-003    6.880933951748314E-004
 -7.299999999999999E-003    7.224089640993032E-004
 -7.199999999999999E-003    7.582886175651651E-004
 -7.100000000000000E-003    7.957952069118177E-004
 -6.999999999999999E-003    8.349937551558607E-004
 -6.899999999999999E-003    8.759513967636111E-004
 -6.800000000000000E-003    9.187374689078279E-004
 -6.699999999999999E-003    9.634235016899530E-004
 -6.599999999999999E-003    1.010083575882527E-003
 -6.499999999999999E-003    1.058794161029130E-003
 -6.399999999999999E-003    1.109634351100105E-003
 -6.299999999999999E-003    1.162685856062517E-003
 -6.199999999999999E-003    1.218033331967922E-003
 -6.100000000000000E-003    1.275764007373112E-003
 -5.999999999999999E-003    1.335967940075278E-003
 -5.899999999999999E-003    1.398737941528085E-003
 -5.800000000000000E-003    1.464169465801425E-003
 -5.699999999999999E-003    1.532360852367790E-003
 -5.599999999999999E-003    1.603412929736896E-003
 -5.499999999999999E-003    1.677429235049489E-003
 -5.399999999999999E-003    1.754515771058721E-003
 -5.299999999999999E-003    1.834781418819251E-003
 -5.199999999999999E-003    1.918337913034350E-003
 -5.099999999999999E-003    2.005299562602041E-003
 -4.999999999999999E-003    2.095783886842650E-003
 -4.899999999999999E-003    2.189911813436970E-003
 -4.799999999999999E-003    2.287807132500180E-003
 -4.699999999999999E-003    2.389597569143456E-003
 -4.599999999999999E-003    2.495414029926173E-003
 -4.499999999999999E-003    2.605391253219884E-003
 -4.399999999999999E-003    2.719667612843742E-003
 -4.299999999999999E-003    2.838384764112168E-003
 -4.199999999999999E-003    2.961687841809201E-003
 -4.099999999999999E-003    3.089725400745465E-003
 -3.999999999999999E-003    3.222649159159245E-003
 -3.899999999999999E-003    3.360613849591030E-003
 -3.799999999999999E-003    3.503777348721057E-003
 -3.699999999999999E-003    3.652300722609227E-003
 -3.599999999999999E-003    3.806347654929868E-003
 -3.499999999999999E-003    3.966085786940307E-003
 -3.399999999999999E-003    4.131685262436706E-003
 -3.299999999999999E-003    4.303319906429142E-003
 -3.199999999999999E-003    4.481166528368527E-003
 -3.099999999999999E-003    4.665406426915425E-003
 -2.999999999999999E-003    4.856224278780601E-003
 -2.899999999999999E-003    5.053807210922599E-003
 -2.799999999999999E-003    5.258347283948460E-003
 -2.699999999999999E-003    5.470038553946097E-003
 -2.599999999999999E-003    5.689078833845168E-003
 -2.499999999999999E-003    5.915668672080983E-003
 -2.399999999999999E-003    6.150011255381678E-003
 -2.299999999999999E-003    6.392312341649858E-003
 -2.199999999999999E-003    6.642780289618122E-003
 -2.099999999999999E-003    6.901624814843955E-003
 -1.999999999999999E-003    7.169058442848136E-003
 -1.899999999999999E-003    7.445296192502817E-003
 -1.799999999999999E-003    7.730554606788295E-003
 -1.699999999999999E-003    8.025052933519938E-003
 -1.599999999999999E-003    8.329012205486678E-003
 -1.499999999999999E-003    8.642655224819280E-003
 -1.399999999999999E-003    8.966208467294647E-003
 -1.299999999999999E-003    9.299899046640600E-003
 -1.199999999999999E-003    9.643956212954571E-003
 -1.099999999999999E-003    9.998609862276383E-003
 -9.999999999999989E-004    1.036409268741336E-002
 -8.999999999999990E-004    1.074063750510584E-002
 -7.999999999999990E-004    1.112847758465151E-002
 -6.999999999999989E-004    1.152784751702724E-002
 -5.999999999999990E-004    1.193898029508481E-002
 -4.999999999999989E-004    1.236211085242163E-002
 -3.999999999999989E-004    1.279747268093807E-002
 -2.999999999999989E-004    1.324529718958216E-002
 -1.999999999999989E-004    1.370581594500481E-002
 -9.999999999999892E-005    1.417925859246050E-002
  1.084202172485504E-018    1.466585341814612E-002
  1.000000000000011E-004    1.516582642854012E-002
  2.000000000000011E-004    1.567940098512360E-002
  3.000000000000011E-004    1.620679745195470E-002
  4.000000000000011E-004    1.674823436944268E-002
  5.000000000000011E-004    1.730392530671810E-002
  6.000000000000011E-004    1.787408207254331E-002
  7.000000000000011E-004    1.845891279869168E-002
  8.000000000000011E-004    1.905862050525956E-002
  9.000000000000012E-004    1.967340408278421E-002
  1.000000000000001E-003    2.030345630189909E-002
  1.100000000000001E-003    2.094896812316577E-002
  1.200000000000001E-003    2.161012097844243E-002
  1.300000000000001E-003    2.228709275729865E-002
  1.400000000000001E-003    2.298005165052462E-002
  1.500000000000001E-003    2.368916096306335E-002
  1.600000000000001E-003    2.441457388279667E-002
  1.700000000000001E-003    2.515643711576868E-002
  1.800000000000001E-003    2.591488606817114E-002
  1.900000000000001E-003    2.669004823055459E-002
  2.000000000000001E-003    2.748203706969202E-002
  2.100000000000001E-003    2.829095729554699E-002
  2.200000000000001E-003    2.911690163655319E-002
  2.300000000000001E-003    2.995995020316351E-002
  2.400000000000001E-003    3.082017118289697E-002
  2.500000000000001E-003    3.169761882428927E-002
  2.600000000000001E-003    3.259233359349134E-002
  2.700000000000001E-003    3.350434093325202E-002
  2.800000000000001E-003    3.443365441771596E-002
  2.900000000000001E-003    3.538026736590173E-002
  3.000000000000001E-003    3.634415910870498E-002
  3.100000000000001E-003    3.732529398877885E-002
  3.200000000000001E-003    3.832361503800133E-002
  3.300000000000001E-003    3.933905187931017E-002
  3.400000000000001E-003    4.037151612896966E-002
  3.500000000000001E-003    4.142089754599468E-002
  3.600000000000001E-003    4.248706042304075E-002
  3.700000000000001E-003    4.356985799553178E-002
  3.800000000000001E-003    4.466912306847552E-002
  3.900000000000001E-003    4.578465549865629E-002
  4.000000000000001E-003    4.691624180663360E-002
  4.100000000000001E-003    4.806364011623183E-002
  4.200000000000001E-003    4.922658672876706E-002
  4.300000000000001E-003    5.040478943307170E-002
  4.400000000000001E-003    5.159793078854898E-002
  4.500000000000001E-003    5.280566904494063E-002
  4.600000000000002E-003    5.402763519626221E-002
  4.700000000000001E-003    5.526343171572304E-002
  4.800000000000001E-003    5.651263547040393E-002
  4.900000000000002E-003    5.777479330864629E-002
  5.000000000000001E-003    5.904942138946369E-002
  5.100000000000001E-003    6.033601256823001E-002
  5.200000000000001E-003    6.163402331275630E-002
  5.300000000000002E-003    6.294288406501869E-002
  5.400000000000001E-003    6.426199234907558E-002
  5.500000000000001E-003    6.559071111959074E-002
  5.600000000000002E-003    6.692837401047079E-002
  5.700000000000001E-003    6.827428107768845E-002
  5.800000000000001E-003    6.962769274145954E-002
  5.900000000000002E-003    7.098784065687785E-002
  6.000000000000001E-003    7.235392734758328E-002
  6.100000000000001E-003    7.372511176593155E-002
  6.200000000000002E-003    7.510052200370802E-002
  6.300000000000002E-003    7.647925048497814E-002
  6.400000000000001E-003    7.786035561652627E-002
  6.500000000000001E-003    7.924285649418414E-002
  6.600000000000002E-003    8.062575206486114E-002
  6.700000000000001E-003    8.200798922824547E-002
  6.800000000000001E-003    8.338848142752024E-002
  6.900000000000002E-003    8.476610904680215E-002
  7.000000000000001E-003    8.613972406800099E-002
  7.100000000000001E-003    8.750812740419864E-002
  7.200000000000002E-003    8.887009368030631E-002
  7.300000000000002E-003    9.022436398734797E-002
  7.400000000000001E-003    9.156962992190934E-002
  7.500000000000001E-003    9.290455534948336E-002
  7.600000000000002E-003    9.422777162224782E-002
  7.700000000000001E-003    9.553786373317258E-002
  7.800000000000001E-003    9.683339219061038E-002
  7.900000000000001E-003    9.811287381250519E-002
  8.000000000000002E-003    9.937480265982351E-002
  8.100000000000001E-003    0.100617624642289     
  8.200000000000001E-003    0.101839757431531     
  8.300000000000002E-003    0.103039590758614     
  8.400000000000001E-003    0.104215480538359     
  8.500000000000002E-003    0.105365752298658     
  8.600000000000002E-003    0.106488690378804     
  8.700000000000001E-003    0.107582562744438     
  8.800000000000002E-003    0.108645600131530     
  8.900000000000002E-003    0.109676007846846     
  9.000000000000001E-003    0.110671957103231     
  9.100000000000002E-003    0.111631607443873     
  9.200000000000002E-003    0.112553084471102     
  9.300000000000001E-003    0.113434491797176     
  9.400000000000002E-003    0.114273909245007     
  9.500000000000001E-003    0.115069392601625     
  9.600000000000001E-003    0.115818989967122     
  9.700000000000002E-003    0.116520717900213     
  9.800000000000001E-003    0.117172578256489     
  9.900000000000001E-003    0.117772558684432     
  1.000000000000000E-002    0.118318632335627     
  1.010000000000000E-002    0.118808759567902     
  1.020000000000000E-002    0.119240891314690     
  1.030000000000000E-002    0.119612958946275     
  1.040000000000000E-002    0.119922902290693     
  1.050000000000000E-002    0.120168640415234     
  1.060000000000000E-002    0.120348102699006     
  1.070000000000000E-002    0.120459206177931     
  1.080000000000000E-002    0.120499872611181     
  1.090000000000000E-002    0.120468027346504     
  1.100000000000000E-002    0.120361604194552     
  1.110000000000000E-002    0.120178533121611     
  1.120000000000000E-002    0.119916758911352     
  1.130000000000000E-002    0.119574234813278     
  1.140000000000000E-002    0.119148931776459     
  1.150000000000000E-002    0.118638840338477     
  1.160000000000000E-002    0.118041951283263     
  1.170000000000000E-002    0.117356294068116     
  1.180000000000000E-002    0.116579917485325     
  1.190000000000000E-002    0.115710883463110     
  1.200000000000000E-002    0.114747298787048     
  1.210000000000000E-002    0.113687297610773     
  1.220000000000000E-002    0.112529043251114     
  1.230000000000000E-002    0.111270740108600     
  1.240000000000000E-002    0.109910627640869     
  1.250000000000000E-002    0.108446985739758     
  1.260000000000000E-002    0.106878132378845     
  1.270000000000000E-002    0.105202448279258     
  1.280000000000000E-002    0.103418339865508     
  1.290000000000000E-002    0.101524279916514     
  1.300000000000000E-002    9.951878965000309E-002
  1.310000000000000E-002    9.740045281703744E-002
  1.320000000000000E-002    9.516790178731810E-002
  1.330000000000000E-002    9.281983874909072E-002
  1.340000000000000E-002    9.035502316545535E-002
  1.350000000000000E-002    8.777229054377050E-002
  1.360000000000000E-002    8.507054630731326E-002
  1.370000000000000E-002    8.224875651587453E-002
  1.380000000000000E-002    7.930597144206865E-002
  1.390000000000000E-002    7.624131148271636E-002
  1.400000000000000E-002    7.305397819700928E-002
  1.410000000000000E-002    6.974325789182229E-002
  1.420000000000000E-002    6.630851448678583E-002
  1.430000000000000E-002    6.274919563442397E-002
  1.440000000000000E-002    5.906484743194775E-002
  1.450000000000000E-002    5.525509398635239E-002
  1.460000000000000E-002    5.131965597129082E-002
  1.470000000000000E-002    4.725834958367363E-002
  1.480000000000000E-002    4.307108974757331E-002
  1.490000000000000E-002    3.875788626438188E-002
  1.500000000000000E-002    3.431885087547652E-002
  1.510000000000000E-002    2.975419048137803E-002
  1.520000000000000E-002    2.506422032125586E-002
  1.530000000000000E-002    2.024936066565595E-002
  1.540000000000000E-002    1.531012643206292E-002
  1.550000000000000E-002    1.024715363968508E-002
  1.560000000000000E-002    5.061173701872131E-003
  1.570000000000000E-002   -2.469681355895393E-004
  1.580000000000000E-002   -5.676314964555847E-003
  1.590000000000000E-002   -1.122580391477337E-002
  1.600000000000000E-002   -1.689425677381688E-002
  1.610000000000000E-002   -2.268038176165419E-002
  1.620000000000000E-002   -2.858277949050824E-002
  1.630000000000000E-002   -3.459993209532748E-002
  1.640000000000000E-002   -4.073021244556050E-002
  1.650000000000000E-002   -4.697187809946135E-002
  1.660000000000000E-002   -5.332307707458116E-002
  1.670000000000000E-002   -5.978183726117137E-002
  1.680000000000000E-002   -6.634608344514963E-002
  1.690000000000000E-002   -7.301362535502896E-002
  1.700000000000000E-002   -7.978215700141365E-002
  1.710000000000000E-002   -8.664927050395702E-002
  1.720000000000000E-002   -9.361243948214047E-002
  1.730000000000000E-002   -0.100669034302382     
  1.740000000000000E-002   -0.107816314180184     
  1.750000000000000E-002   -0.115051424360220     
  1.760000000000000E-002   -0.122371416971838     
  1.770000000000000E-002   -0.129773227173805     
  1.780000000000000E-002   -0.137253695458538     
  1.790000000000000E-002   -0.144809550804049     
  1.800000000000000E-002   -0.152437440061632     
  1.810000000000000E-002   -0.160133906885493     
  1.820000000000000E-002   -0.167895388154495     
  1.830000000000000E-002   -0.175718231122148     
  1.840000000000000E-002   -0.183598703719609     
  1.850000000000000E-002   -0.191532992195647     
  1.860000000000000E-002   -0.199517181489903     
  1.870000000000000E-002   -0.207547294261841     