 -4.000000000000000E-002    0.000000000000000E+000
 -3.990000000000000E-002    0.000000000000000E+000
 -3.980000000000000E-002    0.000000000000000E+000
 -3.970000000000000E-002    0.000000000000000E+000
 -3.960000000000000E-002    0.000000000000000E+000
 -3.950000000000000E-002    0.000000000000000E+000
 -3.940000000000000E-002    0.000000000000000E+000
 -3.930000000000000E-002    0.000000000000000E+000
 -3.920000000000000E-002    0.000000000000000E+000
 -3.910000000000000E-002    0.000000000000000E+000
 -3.900000000000000E-002    0.000000000000000E+000
 -3.890000000000000E-002    0.000000000000000E+000
 -3.880000000000000E-002    0.000000000000000E+000
 -3.870000000000000E-002    0.000000000000000E+000
 -3.860000000000000E-002    0.000000000000000E+000
 -3.850000000000000E-002    0.000000000000000E+000
 -3.840000000000000E-002    0.000000000000000E+000
 -3.830000000000000E-002    0.000000000000000E+000
 -3.820000000000000E-002    0.000000000000000E+000
 -3.810000000000000E-002    0.000000000000000E+000
 -3.800000000000000E-002    0.000000000000000E+000
 -3.790000000000000E-002    0.000000000000000E+000
 -3.780000000000000E-002    0.000000000000000E+000
 -3.770000000000000E-002    0.000000000000000E+000
 -3.760000000000000E-002    0.000000000000000E+000
 -3.750000000000000E-002    0.000000000000000E+000
 -3.740000000000000E-002    0.000000000000000E+000
 -3.730000000000000E-002    0.000000000000000E+000
 -3.720000000000000E-002    0.000000000000000E+000
 -3.710000000000000E-002    0.000000000000000E+000
 -3.700000000000000E-002    0.000000000000000E+000
 -3.690000000000000E-002    0.000000000000000E+000
 -3.680000000000000E-002    0.000000000000000E+000
 -3.670000000000000E-002    0.000000000000000E+000
 -3.660000000000000E-002    0.000000000000000E+000
 -3.650000000000000E-002    0.000000000000000E+000
 -3.640000000000000E-002    0.000000000000000E+000
 -3.630000000000000E-002    0.000000000000000E+000
 -3.620000000000000E-002    0.000000000000000E+000
 -3.610000000000000E-002    0.000000000000000E+000
 -3.600000000000000E-002    0.000000000000000E+000
 -3.590000000000000E-002    0.000000000000000E+000
 -3.580000000000000E-002    0.000000000000000E+000
 -3.570000000000000E-002    0.000000000000000E+000
 -3.560000000000000E-002    0.000000000000000E+000
 -3.550000000000000E-002    0.000000000000000E+000
 -3.540000000000000E-002    0.000000000000000E+000
 -3.530000000000000E-002    0.000000000000000E+000
 -3.520000000000000E-002    0.000000000000000E+000
 -3.510000000000000E-002    0.000000000000000E+000
 -3.500000000000000E-002    0.000000000000000E+000
 -3.490000000000000E-002    0.000000000000000E+000
 -3.480000000000000E-002    0.000000000000000E+000
 -3.470000000000000E-002    0.000000000000000E+000
 -3.460000000000000E-002    0.000000000000000E+000
 -3.450000000000000E-002    0.000000000000000E+000
 -3.440000000000000E-002    0.000000000000000E+000
 -3.430000000000000E-002    0.000000000000000E+000
 -3.420000000000000E-002    0.000000000000000E+000
 -3.410000000000000E-002    0.000000000000000E+000
 -3.400000000000000E-002    0.000000000000000E+000
 -3.390000000000000E-002    0.000000000000000E+000
 -3.380000000000000E-002    0.000000000000000E+000
 -3.370000000000000E-002    0.000000000000000E+000
 -3.360000000000000E-002    0.000000000000000E+000
 -3.350000000000000E-002    0.000000000000000E+000
 -3.340000000000000E-002    0.000000000000000E+000
 -3.330000000000000E-002    0.000000000000000E+000
 -3.320000000000000E-002    0.000000000000000E+000
 -3.310000000000000E-002    0.000000000000000E+000
 -3.300000000000000E-002    0.000000000000000E+000
 -3.290000000000000E-002    0.000000000000000E+000
 -3.280000000000000E-002    0.000000000000000E+000
 -3.270000000000000E-002    0.000000000000000E+000
 -3.260000000000000E-002    0.000000000000000E+000
 -3.250000000000000E-002    0.000000000000000E+000
 -3.240000000000000E-002    0.000000000000000E+000
 -3.230000000000000E-002    0.000000000000000E+000
 -3.220000000000000E-002    0.000000000000000E+000
 -3.210000000000000E-002    0.000000000000000E+000
 -3.200000000000000E-002    0.000000000000000E+000
 -3.190000000000000E-002    0.000000000000000E+000
 -3.180000000000000E-002    0.000000000000000E+000
 -3.170000000000000E-002    0.000000000000000E+000
 -3.160000000000000E-002    0.000000000000000E+000
 -3.150000000000000E-002    0.000000000000000E+000
 -3.140000000000000E-002    0.000000000000000E+000
 -3.130000000000000E-002    0.000000000000000E+000
 -3.120000000000000E-002    0.000000000000000E+000
 -3.110000000000000E-002    0.000000000000000E+000
 -3.100000000000000E-002    0.000000000000000E+000
 -3.090000000000000E-002    0.000000000000000E+000
 -3.080000000000000E-002    0.000000000000000E+000
 -3.070000000000000E-002    0.000000000000000E+000
 -3.060000000000000E-002    0.000000000000000E+000
 -3.050000000000000E-002    0.000000000000000E+000
 -3.040000000000000E-002    0.000000000000000E+000
 -3.030000000000000E-002    0.000000000000000E+000
 -3.020000000000000E-002    0.000000000000000E+000
 -3.010000000000000E-002    0.000000000000000E+000
 -3.000000000000000E-002    0.000000000000000E+000
 -2.990000000000000E-002    0.000000000000000E+000
 -2.980000000000000E-002    0.000000000000000E+000
 -2.970000000000000E-002    0.000000000000000E+000
 -2.960000000000000E-002    0.000000000000000E+000
 -2.950000000000000E-002    0.000000000000000E+000
 -2.940000000000000E-002    0.000000000000000E+000
 -2.930000000000000E-002    0.000000000000000E+000
 -2.920000000000000E-002    0.000000000000000E+000
 -2.910000000000000E-002    0.000000000000000E+000
 -2.900000000000000E-002    0.000000000000000E+000
 -2.890000000000000E-002    0.000000000000000E+000
 -2.880000000000000E-002    0.000000000000000E+000
 -2.870000000000000E-002    0.000000000000000E+000
 -2.860000000000000E-002    0.000000000000000E+000
 -2.850000000000000E-002    0.000000000000000E+000
 -2.840000000000000E-002    0.000000000000000E+000
 -2.830000000000000E-002    0.000000000000000E+000
 -2.820000000000000E-002    0.000000000000000E+000
 -2.810000000000000E-002    0.000000000000000E+000
 -2.800000000000000E-002    0.000000000000000E+000
 -2.790000000000000E-002    0.000000000000000E+000
 -2.780000000000000E-002    0.000000000000000E+000
 -2.770000000000000E-002    0.000000000000000E+000
 -2.760000000000000E-002    0.000000000000000E+000
 -2.750000000000000E-002    0.000000000000000E+000
 -2.740000000000000E-002    0.000000000000000E+000
 -2.730000000000000E-002    0.000000000000000E+000
 -2.720000000000000E-002    0.000000000000000E+000
 -2.710000000000000E-002    0.000000000000000E+000
 -2.700000000000000E-002    0.000000000000000E+000
 -2.690000000000000E-002    0.000000000000000E+000
 -2.680000000000000E-002    0.000000000000000E+000
 -2.670000000000000E-002    0.000000000000000E+000
 -2.660000000000000E-002    0.000000000000000E+000
 -2.650000000000000E-002    0.000000000000000E+000
 -2.640000000000000E-002    0.000000000000000E+000
 -2.630000000000000E-002    0.000000000000000E+000
 -2.620000000000000E-002    0.000000000000000E+000
 -2.610000000000000E-002    0.000000000000000E+000
 -2.600000000000000E-002    0.000000000000000E+000
 -2.590000000000000E-002    0.000000000000000E+000
 -2.580000000000000E-002    0.000000000000000E+000
 -2.570000000000000E-002    0.000000000000000E+000
 -2.560000000000000E-002    0.000000000000000E+000
 -2.550000000000000E-002    0.000000000000000E+000
 -2.540000000000000E-002    0.000000000000000E+000
 -2.530000000000000E-002    0.000000000000000E+000
 -2.520000000000000E-002    0.000000000000000E+000
 -2.510000000000000E-002    0.000000000000000E+000
 -2.500000000000000E-002    0.000000000000000E+000
 -2.490000000000000E-002    0.000000000000000E+000
 -2.480000000000000E-002    0.000000000000000E+000
 -2.470000000000000E-002    0.000000000000000E+000
 -2.460000000000000E-002    0.000000000000000E+000
 -2.450000000000000E-002    0.000000000000000E+000
 -2.440000000000000E-002    0.000000000000000E+000
 -2.430000000000000E-002    0.000000000000000E+000
 -2.420000000000000E-002    0.000000000000000E+000
 -2.410000000000000E-002    0.000000000000000E+000
 -2.400000000000000E-002    0.000000000000000E+000
 -2.390000000000000E-002    0.000000000000000E+000
 -2.380000000000000E-002    0.000000000000000E+000
 -2.370000000000000E-002    0.000000000000000E+000
 -2.360000000000000E-002    0.000000000000000E+000
 -2.350000000000000E-002    0.000000000000000E+000
 -2.340000000000000E-002    0.000000000000000E+000
 -2.330000000000000E-002    0.000000000000000E+000
 -2.320000000000000E-002    0.000000000000000E+000
 -2.310000000000000E-002    0.000000000000000E+000
 -2.300000000000000E-002    0.000000000000000E+000
 -2.290000000000000E-002    0.000000000000000E+000
 -2.280000000000000E-002    0.000000000000000E+000
 -2.270000000000000E-002    0.000000000000000E+000
 -2.260000000000000E-002    0.000000000000000E+000
 -2.250000000000000E-002    0.000000000000000E+000
 -2.240000000000000E-002    0.000000000000000E+000
 -2.230000000000000E-002    0.000000000000000E+000
 -2.220000000000000E-002    0.000000000000000E+000
 -2.210000000000000E-002    0.000000000000000E+000
 -2.200000000000000E-002    0.000000000000000E+000
 -2.190000000000000E-002    0.000000000000000E+000
 -2.180000000000000E-002    0.000000000000000E+000
 -2.170000000000000E-002    0.000000000000000E+000
 -2.160000000000000E-002    0.000000000000000E+000
 -2.150000000000000E-002    0.000000000000000E+000
 -2.140000000000000E-002    0.000000000000000E+000
 -2.130000000000000E-002    0.000000000000000E+000
 -2.120000000000000E-002    0.000000000000000E+000
 -2.110000000000000E-002    0.000000000000000E+000
 -2.100000000000000E-002    0.000000000000000E+000
 -2.090000000000000E-002    0.000000000000000E+000
 -2.080000000000000E-002    1.924390591266381E-047
 -2.070000000000000E-002    3.848781182532762E-047
 -2.060000000000000E-002    5.773171773799143E-047
 -2.050000000000000E-002    5.773171773799143E-047
 -2.040000000000000E-002    3.848781182532762E-047
 -2.030000000000000E-002   -1.924390591266381E-047
 -2.020000000000000E-002   -6.671220716390120E-047
 -2.010000000000000E-002    1.174655620193765E-047
 -2.000000000000000E-002    2.002126543393647E-049
 -1.990000000000000E-002   -1.134613089325892E-047
 -1.980000000000000E-002    1.312589855147926E-046
 -1.970000000000000E-002   -8.291653360859395E-046
 -1.960000000000000E-002   -1.263844214579522E-045
 -1.950000000000000E-002   -1.517430164839724E-045
 -1.940000000000000E-002   -1.929216568892449E-045
 -1.930000000000000E-002   -2.366300609359891E-045
 -1.920000000000000E-002   -2.358214930242504E-045
 -1.910000000000000E-002   -9.680827462437376E-046
 -1.900000000000000E-002    2.245216668384364E-045
 -1.890000000000000E-002    6.936469681311523E-045
 -1.880000000000000E-002    1.275283130317992E-044
 -1.870000000000000E-002    1.967883125067710E-044
 -1.860000000000000E-002    2.438599099818043E-044
 -1.850000000000000E-002    2.592649790776764E-044
 -1.840000000000000E-002    2.141449908782035E-044
 -1.830000000000000E-002    6.780834534870611E-045
 -1.820000000000000E-002   -2.002410971682613E-044
 -1.810000000000000E-002   -5.995773377060939E-044
 -1.800000000000000E-002   -1.119356300655685E-043
 -1.790000000000000E-002   -1.683499181217552E-043
 -1.780000000000000E-002   -2.174340042255217E-043
 -1.770000000000000E-002   -2.394982266268143E-043
 -1.760000000000000E-002   -2.116434548022890E-043
 -1.750000000000000E-002   -1.075833838272599E-043
 -1.740000000000000E-002    9.597526580313665E-044
 -1.730000000000000E-002    4.096763091620633E-043
 -1.720000000000000E-002    8.204610754597986E-043
 -1.710000000000000E-002    1.282391365793411E-042
 -1.700000000000000E-002    1.704658418101021E-042
 -1.690000000000000E-002    1.949018366067723E-042
 -1.680000000000000E-002    1.834983648532415E-042
 -1.670000000000000E-002    1.162535793199000E-042
 -1.660000000000000E-002   -2.481230427972956E-043
 -1.650000000000000E-002   -2.491188240756481E-042
 -1.640000000000000E-002   -5.503802466708466E-042
 -1.630000000000000E-002   -8.977471122266118E-042
 -1.620000000000000E-002   -1.229230362266831E-041
 -1.610000000000000E-002   -1.448250217279805E-041
 -1.600000000000000E-002   -1.428440575021062E-041
 -1.590000000000000E-002   -1.027963967200140E-041
 -1.580000000000000E-002   -1.176349526365025E-042
 -1.570000000000000E-002    1.378315042921963E-041
 -1.560000000000000E-002    3.429744226615138E-041
 -1.550000000000000E-002    5.845180215142532E-041
 -1.540000000000000E-002    8.225199234608101E-041
 -1.530000000000000E-002    9.942049159328114E-041
 -1.520000000000000E-002    1.016590185399395E-040
 -1.510000000000000E-002    7.958890782581146E-041
 -1.500000000000000E-002    2.451646280813277E-041
 -1.490000000000000E-002   -6.895235797108235E-041
 -1.480000000000000E-002   -1.996371546099975E-040
 -1.470000000000000E-002   -3.562956758583281E-040
 -1.460000000000000E-002   -5.146989294126433E-040
 -1.450000000000000E-002   -6.363377587756125E-040
 -1.440000000000000E-002   -6.699959355042175E-040
 -1.430000000000000E-002   -5.574102340804158E-040
 -1.420000000000000E-002   -2.438752420922596E-040
 -1.410000000000000E-002    3.061397876989463E-040
 -1.400000000000000E-002    1.089495617336705E-039
 -1.390000000000000E-002    2.043755539433828E-039
 -1.380000000000000E-002    3.029952241387297E-039
 -1.370000000000000E-002    3.824892770076834E-039
 -1.360000000000000E-002    4.130084497338323E-039
 -1.350000000000000E-002    3.604034707143432E-039
 -1.340000000000000E-002    1.922533644164304E-039
 -1.330000000000000E-002   -1.132982054962246E-039
 -1.320000000000000E-002   -5.565730035327724E-039
 -1.310000000000000E-002   -1.104811010422972E-038
 -1.300000000000000E-002   -1.682562658112684E-038
 -1.290000000000000E-002   -2.167380216567359E-038
 -1.280000000000000E-002   -2.394618246354438E-038
 -1.270000000000000E-002   -2.174917642830081E-038
 -1.260000000000000E-002   -1.326696479005460E-038
 -1.250000000000000E-002    2.764526878038318E-039
 -1.240000000000000E-002    2.647241693787254E-038
 -1.230000000000000E-002    5.623399089483874E-038
 -1.220000000000000E-002    8.816892508343539E-038
 -1.210000000000000E-002    1.159108222244370E-037
 -1.200000000000000E-002    1.308529669521126E-037
 -1.190000000000000E-002    1.230468902487289E-037
 -1.180000000000000E-002    8.286586767668960E-038
 -1.170000000000000E-002    3.418822978938927E-039
 -1.160000000000000E-002   -1.164847904317875E-037
 -1.150000000000000E-002   -2.692465346430673E-037
 -1.140000000000000E-002   -4.359318662153312E-037
 -1.130000000000000E-002   -5.851246240546261E-037
 -1.120000000000000E-002   -6.741282524229403E-037
 -1.110000000000000E-002   -6.533647729109398E-037
 -1.100000000000000E-002   -4.744818690300652E-037
 -1.090000000000000E-002   -1.020507999947881E-037
 -1.080000000000000E-002    4.721431980564066E-037
 -1.070000000000000E-002    1.214302660496823E-036
 -1.060000000000000E-002    2.036483698845341E-036
 -1.050000000000000E-002    2.791170494198721E-036
 -1.040000000000000E-002    3.276930799417980E-036
 -1.030000000000000E-002    3.259005058472095E-036
 -1.020000000000000E-002    2.507019490930378E-036
 -1.010000000000000E-002    8.490834095505811E-037
 -1.000000000000000E-002   -1.762550894167349E-036
 -9.899999999999999E-003   -5.183932492983564E-036
 -9.800000000000000E-003   -9.024446990628237E-036
 -9.699999999999999E-003   -1.262258616106887E-035
 -9.599999999999999E-003   -1.507178671346426E-035
 -9.500000000000000E-003   -1.531293134292854E-035
 -9.399999999999999E-003   -1.230239632198870E-035
 -9.299999999999999E-003   -5.251449200036373E-036
 -9.200000000000000E-003    6.085273090182745E-036
 -9.099999999999999E-003    2.111524139576491E-035
 -8.999999999999999E-003    3.817074525395837E-035
 -8.900000000000000E-003    5.440690307351992E-035
 -8.799999999999999E-003    6.591660425603204E-035
 -8.699999999999999E-003    6.813077029012303E-035
 -8.600000000000000E-003    5.653810461146362E-035
 -8.499999999999999E-003    2.770187322138218E-035
 -8.399999999999999E-003   -1.952449335239707E-035
 -8.300000000000000E-003   -8.276719161090977E-035
 -8.199999999999999E-003   -1.551529135966246E-034
 -8.100000000000000E-003   -2.249027446654034E-034
 -8.000000000000000E-003   -2.758301140592635E-034
 -7.899999999999999E-003   -2.890129717260780E-034
 -7.800000000000000E-003   -2.457634441182320E-034
 -7.699999999999999E-003   -1.317844789165110E-034
 -7.599999999999999E-003    5.790319734534839E-035
 -7.499999999999999E-003    3.140230841313286E-034
 -7.399999999999999E-003    6.091657642350234E-034
 -7.299999999999999E-003    8.962523676191226E-034
 -7.199999999999999E-003    1.110628955387101E-033
 -7.100000000000000E-003    1.176813172337103E-033
 -6.999999999999999E-003    1.020317779972511E-033
 -6.899999999999999E-003    5.840401095481163E-034
 -6.800000000000000E-003   -1.524881512981928E-034
 -6.699999999999999E-003   -1.153998066559015E-033
 -6.599999999999999E-003   -2.314702481002987E-033
 -6.499999999999999E-003   -3.452734819569965E-033
 -6.399999999999999E-003   -4.318655903642558E-033
 -6.299999999999999E-003   -4.621750392760359E-033
 -6.199999999999999E-003   -4.075483844728062E-033
 -6.100000000000000E-003   -2.459899693684954E-033
 -5.999999999999999E-003    3.057516120001616E-034
 -5.899999999999999E-003    4.091658394424646E-033
 -5.800000000000000E-003    8.503039471904909E-033
 -5.699999999999999E-003    1.286078258870701E-032
 -5.599999999999999E-003    1.623471045214178E-032
 -5.499999999999999E-003    1.754256222909522E-032
 -5.399999999999999E-003    1.571880657212494E-032
 -5.299999999999999E-003    9.944201757129787E-033
 -5.199999999999999E-003   -8.935598888234462E-035
 -5.099999999999999E-003   -1.392113564394543E-032
 -4.999999999999999E-003   -3.012789441424365E-032
 -4.899999999999999E-003   -4.625883091533363E-032
 -4.799999999999999E-003   -5.896072459416957E-032
 -4.699999999999999E-003   -6.433769023348777E-032
 -4.599999999999999E-003   -5.855722687989958E-032
 -4.499999999999999E-003   -3.866667113305823E-032
 -4.399999999999999E-003   -3.527280082608075E-033
 -4.299999999999999E-003    4.528533110945758E-032
 -4.199999999999999E-003    1.028139695540404E-031
 -4.099999999999999E-003    1.605087500609699E-031
 -3.999999999999999E-003    2.066807540815703E-031
 -3.899999999999999E-003    2.277661741977628E-031
 -3.799999999999999E-003    2.104302008620769E-031
 -3.699999999999999E-003    1.443773169586746E-031
 -3.599999999999999E-003    2.553982684543357E-032
 -3.499999999999999E-003   -1.408768787035466E-031
 -3.399999999999999E-003   -3.381686226527627E-031
 -3.299999999999999E-003   -5.374724328581125E-031
 -3.199999999999999E-003   -6.993553013514925E-031
 -3.099999999999999E-003   -7.781138032930750E-031
 -2.999999999999999E-003   -7.288496823342262E-031
 -2.899999999999999E-003   -5.168378018213576E-031
 -2.799999999999999E-003   -1.280715798912645E-031
 -2.699999999999999E-003    4.207582512184051E-031
 -2.599999999999999E-003    1.075074253726719E-030
 -2.499999999999999E-003    1.740426836561578E-030
 -2.399999999999999E-003    2.287887687651290E-030
 -2.299999999999999E-003    2.568233350922797E-030
 -2.199999999999999E-003    2.435020657883849E-030
 -2.099999999999999E-003    1.774885033385481E-030
 -1.999999999999999E-003    5.413697794941260E-031
 -1.899999999999999E-003   -1.213354617271521E-030
 -1.799999999999999E-003   -3.315976972506505E-030
 -1.699999999999999E-003   -5.466316102331027E-030
 -1.599999999999999E-003   -7.255096530050033E-030
 -1.499999999999999E-003   -8.209393764707162E-030
 -1.399999999999999E-003   -7.865749003605036E-030
 -1.299999999999999E-003   -5.865356894819087E-030
 -1.199999999999999E-003   -2.059505469212052E-030
 -1.099999999999999E-003    3.392486191004340E-030
 -9.999999999999989E-004    9.954789866243022E-030
 -8.999999999999990E-004    1.669923702787060E-029
 -7.999999999999990E-004    2.236221000120506E-029
 -6.999999999999989E-004    2.548626003758516E-029
 -5.999999999999990E-004    2.464546147274759E-029
 -4.999999999999989E-004    1.873631752651477E-029
 -3.999999999999989E-004    7.297500244174061E-030
 -2.999999999999989E-004   -9.195873040544608E-030
 -1.999999999999989E-004   -2.912961665550563E-029
 -9.999999999999892E-005   -4.970836879999005E-029
  1.084202172485504E-018   -6.713254648394611E-029
  1.000000000000011E-004   -7.702788045362384E-029
  2.000000000000011E-004   -7.512147901160709E-029
  3.000000000000011E-004   -5.810786156285568E-029
  4.000000000000011E-004   -2.459345093987752E-029
  5.000000000000011E-004    2.404166533323378E-029
  6.000000000000011E-004    8.305913968080680E-029
  7.000000000000011E-004    1.442541061233156E-028
  8.000000000000011E-004    1.964897470560866E-028
  9.000000000000012E-004    2.269654577677392E-028
  1.000000000000001E-003    2.231929997420573E-028
  1.100000000000001E-003    1.755094011681485E-028
  1.200000000000001E-003    7.979798176360356E-029
  1.300000000000001E-003   -6.004920718862814E-029
  1.400000000000001E-003   -2.304834130813339E-028
  1.500000000000001E-003   -4.080284524223783E-028
  1.600000000000001E-003   -5.608478519795629E-028
  1.700000000000001E-003   -6.523905586385873E-028
  1.800000000000001E-003   -6.470220288688649E-028
  1.900000000000001E-003   -5.171353229891657E-028
  2.000000000000001E-003   -2.508024610924973E-028
  2.100000000000001E-003    1.413515956435833E-028
  2.200000000000001E-003    6.216037837956481E-028
  2.300000000000001E-003    1.124465717314030E-027
  2.400000000000001E-003    1.561144447803176E-027
  2.500000000000001E-003    1.829748287015675E-027
  2.600000000000001E-003    1.830933009401135E-027
  2.700000000000001E-003    1.487540157870118E-027
  2.800000000000001E-003    7.656122951443297E-028
  2.900000000000001E-003   -3.068482949509431E-028
  3.000000000000001E-003   -1.627595135633286E-027
  3.100000000000001E-003   -3.018501653631494E-027
  3.200000000000001E-003   -4.237879635491620E-027
  3.300000000000001E-003   -5.008318611070928E-027
  3.400000000000001E-003   -5.059085290324112E-027
  3.500000000000001E-003   -4.179082234980185E-027
  3.600000000000001E-003   -2.273245935548451E-027
  3.700000000000001E-003    5.873630717533244E-028
  3.800000000000001E-003    4.133000893791936E-027
  3.900000000000001E-003    7.891188547937077E-027
  4.000000000000001E-003    1.121974129325600E-026
  4.100000000000001E-003    1.338075467332654E-026
  4.200000000000001E-003    1.365274376169265E-026
  4.300000000000001E-003    1.147012644017483E-026
  4.400000000000001E-003    6.571201990385644E-027
  4.500000000000001E-003   -8.709253197728799E-028
  4.600000000000002E-003   -1.016364209704961E-026
  4.700000000000001E-003   -2.008459878809737E-026
  4.800000000000001E-003   -2.896771153848573E-026
  4.900000000000002E-003   -3.489486609054694E-026
  5.000000000000001E-003   -3.598542336802275E-026
  5.100000000000001E-003   -3.075523359543796E-026
  5.200000000000001E-003   -1.849638036892139E-026
  5.300000000000002E-003    3.876999203692317E-028
  5.400000000000001E-003    2.416586590160038E-026
  5.500000000000001E-003    4.975283838341508E-026
  5.600000000000002E-003    7.292688736927034E-026
  5.700000000000001E-003    8.881426851639764E-026
  5.800000000000001E-003    9.261932891725305E-026
  5.900000000000002E-003    8.052780227380913E-026
  6.000000000000001E-003    5.066049382209101E-026
  6.100000000000001E-003    3.913546718903180E-027
  6.200000000000002E-003   -5.549881005467529E-026
  6.300000000000002E-003   -1.199746860888191E-025
  6.400000000000001E-003   -1.790605158654216E-025
  6.500000000000001E-003   -2.206461876823078E-025
  6.600000000000002E-003   -2.327643418578630E-025
  6.700000000000001E-003   -2.058140887590802E-025
  6.800000000000001E-003   -1.349058579654399E-025
  6.900000000000002E-003   -2.192658780338425E-026
  7.000000000000001E-003    1.231225361481743E-025
  7.100000000000001E-003    2.819411881209226E-025
  7.200000000000002E-003    4.292148677303008E-025
  7.300000000000002E-003    5.354947570308891E-025
  7.400000000000001E-003    5.715363552478527E-025
  7.500000000000001E-003    5.136583786124802E-025
  7.600000000000002E-003    3.493923610206965E-025
  7.700000000000001E-003    8.246255103071985E-026
  7.800000000000001E-003   -2.639731110688181E-025
  7.900000000000001E-003   -6.468284617518317E-025
  8.000000000000002E-003   -1.006089898289936E-024
  8.100000000000001E-003   -1.271601861219397E-024
  8.200000000000001E-003   -1.373306076639421E-024
  8.300000000000002E-003   -1.253897793476469E-024
  8.400000000000001E-003   -8.821766578146729E-025
  8.500000000000002E-003   -2.648378805672682E-025
  8.600000000000002E-003    5.457952684598265E-025
  8.700000000000001E-003    1.450448348761051E-024
  8.800000000000002E-003    2.309716673857798E-024
  8.900000000000002E-003    2.959697751045262E-024
  9.000000000000001E-003    3.235664492213002E-024
  9.100000000000002E-003    3.001373145614251E-024
  9.200000000000002E-003    2.180032753777228E-024
  9.300000000000001E-003    7.817530534711459E-025
  9.400000000000002E-003   -1.078269232227383E-024
  9.500000000000001E-003   -3.176207721424068E-024
  9.600000000000001E-003   -5.194673717288183E-024
  9.700000000000002E-003   -6.757928411952363E-024
  9.800000000000001E-003   -7.485492671562278E-024
  9.900000000000001E-003   -7.058720218601935E-024
  1.000000000000000E-002   -5.291360968862308E-024
  1.010000000000000E-002   -2.192413992525703E-024
  1.020000000000000E-002    1.991664264689709E-024
  1.030000000000000E-002    6.767513096191020E-024
  1.040000000000000E-002    1.142713658653212E-023
  1.050000000000000E-002    1.512539346771333E-023
  1.060000000000000E-002    1.699889974519385E-023
  1.070000000000000E-002    1.631438237139175E-023
  1.080000000000000E-002    1.262658457231498E-023
  1.090000000000000E-002    5.919874133199799E-024
  1.100000000000000E-002   -3.295079098746006E-024
  1.110000000000000E-002   -1.395641405327200E-023
  1.120000000000000E-002   -2.451789839680408E-023
  1.130000000000000E-002   -3.311543952132510E-023
  1.140000000000000E-002   -3.782537308439989E-023
  1.150000000000000E-002   -3.698864221693256E-023
  1.160000000000000E-002   -2.955788180859688E-023
  1.170000000000000E-002   -1.541124131969083E-023
  1.180000000000000E-002    4.429309447398426E-024
  1.190000000000000E-002    2.773370224755535E-023
  1.200000000000000E-002    5.119727485204444E-023
  1.210000000000000E-002    7.079019179206767E-023
  1.220000000000000E-002    8.230692238225175E-023
  1.230000000000000E-002    8.206109617819586E-023
  1.240000000000000E-002    6.763481397376014E-023
  1.250000000000000E-002    3.856249988276069E-023
  1.260000000000000E-002   -3.183516392039606E-024
  1.270000000000000E-002   -5.303131152317200E-023
  1.280000000000000E-002   -1.040663271557886E-022
  1.290000000000000E-002   -1.477478736019000E-022
  1.300000000000000E-002   -1.750545740800041E-022
  1.310000000000000E-002   -1.779464637598386E-022
  1.320000000000000E-002   -1.509541944925015E-022
  1.330000000000000E-002   -9.264495066209225E-023
  1.340000000000000E-002   -6.685856694599574E-024
  1.350000000000000E-002    9.776064747535935E-023
  1.360000000000000E-002    2.065116529905330E-022
  1.370000000000000E-002    3.018008368377867E-022
  1.380000000000000E-002    3.646208646512585E-022
  1.390000000000000E-002    3.777460155680433E-022
  1.400000000000000E-002    3.290473845024050E-022
  1.410000000000000E-002    2.145865878287989E-022
  1.420000000000000E-002    4.090987649269503E-023
  1.430000000000000E-002   -1.740093206173830E-022
  1.440000000000000E-002   -4.016072244362358E-022
  1.450000000000000E-002   -6.055493859837794E-022
  1.460000000000000E-002   -7.464339659678163E-022
  1.470000000000000E-002   -7.879375506803179E-022
  1.480000000000000E-002   -7.036252254382224E-022
  1.490000000000000E-002   -4.833860860301700E-022
  1.500000000000000E-002   -1.383174409017358E-022
  1.510000000000000E-002    2.970782990841416E-022
  1.520000000000000E-002    7.662748399728368E-022
  1.530000000000000E-002    1.196128651665977E-021
  1.540000000000000E-002    1.506155231475307E-021
  1.550000000000000E-002    1.620824006004873E-021
  1.560000000000000E-002    1.483346398268300E-021
  1.570000000000000E-002    1.068885123467653E-021
  1.580000000000000E-002    3.948249185342669E-022
  1.590000000000000E-002   -4.741985291138849E-022
  1.600000000000000E-002   -1.428351720770489E-021
  1.610000000000000E-002   -2.322712944862080E-021
  1.620000000000000E-002   -2.995223608678605E-021
  1.630000000000000E-002   -3.290892820218463E-021
  1.640000000000000E-002   -3.089306524367415E-021
  1.650000000000000E-002   -2.331387797423178E-021
  1.660000000000000E-002   -1.040739611624799E-021
  1.670000000000000E-002    6.650474305907207E-022
  1.680000000000000E-002    2.576871137634202E-021
  1.690000000000000E-002    4.412483390733105E-021
  1.700000000000000E-002    5.850545474550931E-021
  1.710000000000000E-002    6.577476005861451E-021
  1.720000000000000E-002    6.341514930487089E-021
  1.730000000000000E-002    5.006197736018359E-021
  1.740000000000000E-002    2.594125208647519E-021
  1.750000000000000E-002   -6.880824659991320E-022
  1.760000000000000E-002   -4.451221638677358E-021
  1.770000000000000E-002   -8.155809450289861E-021
  1.780000000000000E-002   -1.117535067947455E-020
  1.790000000000000E-002   -1.288544089742881E-020
  1.800000000000000E-002   -1.276837085577146E-020
  1.810000000000000E-002   -1.051841893827826E-020
  1.820000000000000E-002   -6.130336980661522E-021
  1.830000000000000E-002    4.676064909745813E-023
  1.840000000000000E-002    7.305177029524479E-021
  1.850000000000000E-002    1.463350227190423E-020
  1.860000000000000E-002    2.083170058380190E-020
  1.870000000000000E-002    2.467770002945661E-020