 -4.000000000000000E-002    0.000000000000000E+000
 -3.990000000000000E-002    0.000000000000000E+000
 -3.980000000000000E-002    0.000000000000000E+000
 -3.970000000000000E-002    0.000000000000000E+000
 -3.960000000000000E-002    0.000000000000000E+000
 -3.950000000000000E-002    0.000000000000000E+000
 -3.940000000000000E-002    0.000000000000000E+000
 -3.930000000000000E-002    0.000000000000000E+000
 -3.920000000000000E-002    0.000000000000000E+000
 -3.910000000000000E-002    0.000000000000000E+000
 -3.900000000000000E-002    0.000000000000000E+000
 -3.890000000000000E-002    0.000000000000000E+000
 -3.880000000000000E-002    0.000000000000000E+000
 -3.870000000000000E-002    0.000000000000000E+000
 -3.860000000000000E-002    0.000000000000000E+000
 -3.850000000000000E-002    0.000000000000000E+000
 -3.840000000000000E-002    1.924390591266381E-047
 -3.830000000000000E-002    2.071763900993854E-045
 -3.820000000000000E-002    2.622523705177756E-044
 -3.810000000000000E-002    2.157492685406701E-043
 -3.800000000000000E-002    1.293689564289446E-042
 -3.790000000000000E-002    5.568525224136296E-042
 -3.780000000000000E-002    1.482548444870517E-041
 -3.770000000000000E-002   -5.759832460370511E-042
 -3.760000000000000E-002   -3.546628737143961E-040
 -3.750000000000000E-002   -2.633134810423267E-039
 -3.740000000000000E-002   -1.364821547293271E-038
 -3.730000000000000E-002   -5.800748068205000E-038
 -3.720000000000000E-002   -2.137877454874143E-037
 -3.710000000000000E-002   -7.019626220194851E-037
 -3.700000000000000E-002   -2.084587313328727E-036
 -3.690000000000000E-002   -5.647072238128689E-036
 -3.680000000000000E-002   -1.401123908489037E-035
 -3.670000000000000E-002   -3.183499209164419E-035
 -3.660000000000000E-002   -6.587588443164047E-035
 -3.650000000000000E-002   -1.223693962570321E-034
 -3.640000000000000E-002   -1.971759449712459E-034
 -3.630000000000000E-002   -2.503026114734133E-034
 -3.620000000000000E-002   -1.519885850908761E-034
 -3.610000000000000E-002    4.143882015363937E-034
 -3.600000000000000E-002    2.099584210605522E-033
 -3.590000000000000E-002    6.062374672218628E-033
 -3.580000000000000E-002    1.407368051632425E-032
 -3.570000000000000E-002    2.831811665611008E-032
 -3.560000000000000E-002    5.044951085909668E-032
 -3.550000000000000E-002    7.919880006148768E-032
 -3.540000000000000E-002    1.056324894538450E-031
 -3.530000000000000E-002    1.052534964992821E-031
 -3.520000000000000E-002    2.693208760375271E-032
 -3.510000000000000E-002   -2.192739470771537E-031
 -3.500000000000000E-002   -7.693884642413670E-031
 -3.490000000000000E-002   -1.795659203657803E-030
 -3.480000000000000E-002   -3.459433439427088E-030
 -3.470000000000000E-002   -5.799164302328356E-030
 -3.460000000000000E-002   -8.523743773313285E-030
 -3.450000000000000E-002   -1.069252240178247E-029
 -3.440000000000000E-002   -1.029901480655166E-029
 -3.430000000000000E-002   -3.847360921922759E-030
 -3.420000000000000E-002    1.387322783937516E-029
 -3.410000000000000E-002    4.945572385528383E-029
 -3.400000000000000E-002    1.094600502013146E-028
 -3.390000000000000E-002    1.972860030311284E-028
 -3.380000000000000E-002    3.077720276941052E-028
 -3.370000000000000E-002    4.193529067644415E-028
 -3.360000000000000E-002    4.845037534573136E-028
 -3.350000000000000E-002    4.207182236387617E-028
 -3.340000000000000E-002    1.063994925930484E-028
 -3.330000000000000E-002   -6.115065680531110E-028
 -3.320000000000000E-002   -1.889232550097341E-027
 -3.310000000000000E-002   -3.827868951680757E-027
 -3.300000000000000E-002   -6.378365138349566E-027
 -3.290000000000000E-002   -9.211133385300666E-027
 -3.280000000000000E-002   -1.156619737697505E-026
 -3.270000000000000E-002   -1.212162266558201E-026
 -3.260000000000000E-002   -8.944929598341348E-027
 -3.250000000000000E-002    3.812336271664380E-028
 -3.240000000000000E-002    1.835167551282667E-026
 -3.230000000000000E-002    4.675053321840787E-026
 -3.220000000000000E-002    8.543371208381325E-026
 -3.210000000000000E-002    1.307407947623317E-025
 -3.200000000000000E-002    1.737680874028690E-025
 -3.190000000000000E-002    1.989636401891747E-025
 -3.180000000000000E-002    1.837564475308874E-025
 -3.170000000000000E-002    1.001377194780335E-025
 -3.160000000000000E-002   -8.082787459357313E-026
 -3.150000000000000E-002   -3.807950251038540E-025
 -3.140000000000000E-002   -8.020773819559407E-025
 -3.130000000000000E-002   -1.312666641105238E-024
 -3.120000000000000E-002   -1.830824297749617E-024
 -3.110000000000000E-002   -2.213604643260362E-024
 -3.100000000000000E-002   -2.255462067594086E-024
 -3.090000000000000E-002   -1.704228146672236E-024
 -3.080000000000000E-002   -3.014332117905524E-025
 -3.070000000000000E-002    2.148647090292588E-024
 -3.060000000000000E-002    5.682386426686253E-024
 -3.050000000000000E-002    1.006253252699776E-023
 -3.040000000000000E-002    1.466745778041369E-023
 -3.030000000000000E-002    1.841730202473861E-023
 -3.020000000000000E-002    1.978044199777845E-023
 -3.010000000000000E-002    1.690750718472822E-023
 -3.000000000000000E-002    7.932942070721831E-024
 -2.990000000000000E-002   -8.538521960318553E-024
 -2.980000000000000E-002   -3.278372392266260E-023
 -2.970000000000000E-002   -6.323182650204609E-023
 -2.960000000000000E-002   -9.580243882494996E-023
 -2.950000000000000E-002   -1.235249336393147E-022
 -2.940000000000000E-002   -1.366967814256645E-022
 -2.930000000000000E-002   -1.238374575588866E-022
 -2.920000000000000E-002   -7.362448187767295E-023
 -2.910000000000000E-002    2.215873878646003E-023
 -2.900000000000000E-002    1.648810405155168E-022
 -2.890000000000000E-002    3.450649259792619E-022
 -2.880000000000000E-002    5.390139093269996E-022
 -2.870000000000000E-002    7.072417877816531E-022
 -2.860000000000000E-002    7.960201311519518E-022
 -2.850000000000000E-002    7.432343838893559E-022
 -2.840000000000000E-002    4.892485773373559E-022
 -2.830000000000000E-002   -7.426911934977198E-024
 -2.820000000000000E-002   -7.511654268814227E-022
 -2.810000000000000E-002   -1.689991105306873E-021
 -2.800000000000000E-002   -2.700637826204042E-021
 -2.790000000000000E-002   -3.583556942448161E-021
 -2.780000000000000E-002   -4.073755586577343E-021
 -2.770000000000000E-002   -3.872234609748174E-021
 -2.760000000000000E-002   -2.700024704494085E-021
 -2.750000000000000E-002   -3.723001108701697E-022
 -2.740000000000000E-002    3.115862032298501E-021
 -2.730000000000000E-002    7.507031212721408E-021
 -2.720000000000000E-002    1.222303915894193E-020
 -2.710000000000000E-002    1.635481406807825E-020
 -2.700000000000000E-002    1.872373207110870E-020
 -2.690000000000000E-002    1.803109850199074E-020
 -2.680000000000000E-002    1.309895551542887E-020
 -2.670000000000000E-002    3.185690219146020E-021
 -2.660000000000000E-002   -1.166415618074697E-020
 -2.650000000000000E-002   -3.030101915119212E-020
 -2.640000000000000E-002   -5.026703011561161E-020
 -2.630000000000000E-002   -6.780094473075704E-020
 -2.620000000000000E-002   -7.813391579930908E-020
 -2.610000000000000E-002   -7.612610047320786E-020
 -2.600000000000000E-002   -5.723732816991545E-020
 -2.590000000000000E-002   -1.874790348346370E-020
 -2.580000000000000E-002    3.894231384093760E-020
 -2.570000000000000E-002    1.111913625790671E-019
 -2.560000000000000E-002    1.884814030012762E-019
 -2.550000000000000E-002    2.565956995720613E-019
 -2.540000000000000E-002    2.978703874525480E-019
 -2.530000000000000E-002    2.936481167429368E-019
 -2.520000000000000E-002    2.278457206602687E-019
 -2.510000000000000E-002    9.127549558022533E-020
 -2.500000000000000E-002   -1.139320329910388E-019
 -2.490000000000000E-002   -3.707089393836033E-019
 -2.480000000000000E-002   -6.452857476598431E-019
 -2.470000000000000E-002   -8.883040118960497E-019
 -2.460000000000000E-002   -1.039568212221419E-018
 -2.450000000000000E-002   -1.036689385642045E-018
 -2.440000000000000E-002   -8.271358213308914E-019
 -2.430000000000000E-002   -3.823255685221998E-019
 -2.420000000000000E-002    2.884885621670189E-019
 -2.410000000000000E-002    1.127489999665525E-018
 -2.400000000000000E-002    2.023982322282507E-018
 -2.390000000000000E-002    2.819464955235468E-018
 -2.380000000000000E-002    3.324092043886277E-018
 -2.370000000000000E-002    3.344783787316398E-018
 -2.360000000000000E-002    2.722943862363672E-018
 -2.350000000000000E-002    1.377114423317676E-018
 -2.340000000000000E-002   -6.565651232765786E-019
 -2.330000000000000E-002   -3.194985498608469E-018
 -2.320000000000000E-002   -5.899132124862325E-018
 -2.310000000000000E-002   -8.293623760680635E-018
 -2.300000000000000E-002   -9.819398845305827E-018
 -2.290000000000000E-002   -9.918923884183726E-018
 -2.280000000000000E-002   -8.146530608649534E-018
 -2.270000000000000E-002   -4.289261949877364E-018
 -2.260000000000000E-002    1.522780851677486E-018
 -2.250000000000000E-002    8.741581938626146E-018
 -2.240000000000000E-002    1.638694146248279E-017
 -2.230000000000000E-002    2.311297088387616E-017
 -2.220000000000000E-002    2.736520659878408E-017
 -2.210000000000000E-002    2.762299098422791E-017
 -2.200000000000000E-002    2.270343089701753E-017
 -2.190000000000000E-002    1.208454222917574E-017
 -2.180000000000000E-002   -3.810217467546266E-018
 -2.170000000000000E-002   -2.343200456228222E-017
 -2.160000000000000E-002   -4.409460372607309E-017
 -2.150000000000000E-002   -6.217797070919828E-017
 -2.140000000000000E-002   -7.356571024373353E-017
 -2.130000000000000E-002   -7.429426048364236E-017
 -2.120000000000000E-002   -6.134490812803934E-017
 -2.110000000000000E-002   -3.346425134236410E-017
 -2.100000000000000E-002    8.136181615718629E-018
 -2.090000000000000E-002    5.936546258774253E-017
 -2.080000000000000E-002    1.132753485605053E-016
 -2.070000000000000E-002    1.606251173574178E-016
 -2.060000000000000E-002    1.910187512219012E-016
 -2.050000000000000E-002    1.945425807357313E-016
 -2.040000000000000E-002    1.637195692042953E-016
 -2.030000000000000E-002    9.549175954714917E-017
 -2.020000000000000E-002   -7.132272687264241E-018
 -2.010000000000000E-002   -1.341521972986062E-016
 -2.000000000000000E-002   -2.687166645351572E-016
 -1.990000000000000E-002   -3.885558005482362E-016
 -1.980000000000000E-002   -4.687434271967242E-016
 -1.970000000000000E-002   -4.855889903721704E-016
 -1.960000000000000E-002   -4.212044145756070E-016
 -1.950000000000000E-002   -2.680632524479950E-016
 -1.940000000000000E-002   -3.271751076487137E-017
 -1.930000000000000E-002    2.621940020061936E-016
 -1.920000000000000E-002    5.783903279458733E-016
 -1.910000000000000E-002    8.653054020921726E-016
 -1.900000000000000E-002    1.066385537487910E-015
 -1.890000000000000E-002    1.127827467971808E-015
 -1.880000000000000E-002    1.008706541019534E-015
 -1.870000000000000E-002    6.909712358489288E-016
 -1.860000000000000E-002    1.874844402135309E-016
 -1.850000000000000E-002   -4.537352542541612E-016
 -1.840000000000000E-002   -1.150617366501506E-015
 -1.830000000000000E-002   -1.794391744484696E-015
 -1.820000000000000E-002   -2.263157071610685E-015
 -1.810000000000000E-002   -2.440519829578528E-015
 -1.800000000000000E-002   -2.237024428823355E-015
 -1.790000000000000E-002   -1.611147813429370E-015
 -1.780000000000000E-002   -5.860761690365446E-016
 -1.770000000000000E-002    7.415128774328582E-016
 -1.760000000000000E-002    2.203758270929070E-015
 -1.750000000000000E-002    3.576753626774495E-015
 -1.740000000000000E-002    4.608334476671080E-015
 -1.730000000000000E-002    5.056085738980590E-015
 -1.720000000000000E-002    4.730898544256787E-015
 -1.710000000000000E-002    3.539568336523704E-015
 -1.700000000000000E-002    1.518892952825375E-015
 -1.690000000000000E-002   -1.146183652694814E-015
 -1.680000000000000E-002   -4.126436159322158E-015
 -1.670000000000000E-002   -6.977580752092650E-015
 -1.660000000000000E-002   -9.194451672431072E-015
 -1.650000000000000E-002   -1.028537029820807E-014
 -1.640000000000000E-002   -9.857654073700286E-015
 -1.630000000000000E-002   -7.701721116155159E-015
 -1.620000000000000E-002   -3.859296664076876E-015
 -1.610000000000000E-002    1.338579001930983E-015
 -1.600000000000000E-002    7.275406064095902E-015
 -1.590000000000000E-002    1.310152209156223E-014
 -1.580000000000000E-002    1.783440581241866E-014
 -1.570000000000000E-002    2.049842246874498E-014
 -1.560000000000000E-002    2.028740925000851E-014
 -1.550000000000000E-002    1.672695643113100E-014
 -1.540000000000000E-002    9.809431316433471E-015
 -1.530000000000000E-002    7.490983482816864E-017
 -1.520000000000000E-002   -1.138426833647991E-014
 -1.510000000000000E-002   -2.300864669818726E-014
 -1.500000000000000E-002   -3.294722139000451E-014
 -1.490000000000000E-002   -3.930947424385259E-014
 -1.480000000000000E-002   -4.046516271391887E-014
 -1.470000000000000E-002   -3.535084835007217E-014
 -1.460000000000000E-002   -2.373454621045984E-014
 -1.450000000000000E-002   -6.389008260562984E-015
 -1.440000000000000E-002    1.486883902690682E-014
 -1.430000000000000E-002    3.729982061522456E-014
 -1.420000000000000E-002    5.753169746821668E-014
 -1.410000000000000E-002    7.199556211780172E-014
 -1.400000000000000E-002    7.746275591331039E-014
 -1.390000000000000E-002    7.161237481626028E-014
 -1.380000000000000E-002    5.354381354239040E-014
 -1.370000000000000E-002    2.414434466152796E-014
 -1.360000000000000E-002   -1.376897537951983E-014
 -1.350000000000000E-002   -5.559051165618484E-014
 -1.340000000000000E-002   -9.537174733839797E-014
 -1.330000000000000E-002   -1.265481297135743E-013
 -1.320000000000000E-002   -1.428758259047086E-013
 -1.310000000000000E-002   -1.394632603337665E-013
 -1.300000000000000E-002   -1.137498103690570E-013
 -1.290000000000000E-002   -6.626980099001244E-014
 -1.280000000000000E-002   -1.048779694923558E-015
 -1.270000000000000E-002    7.448658171981364E-014
 -1.260000000000000E-002    1.501456881828532E-013
 -1.250000000000000E-002    2.141427598908052E-013
 -1.240000000000000E-002    2.546957314462609E-013
 -1.230000000000000E-002    2.618711676092537E-013
 -1.220000000000000E-002    2.294241369992858E-013
 -1.210000000000000E-002    1.563438818225466E-013
 -1.200000000000000E-002    4.781771612038982E-014
 -1.190000000000000E-002   -8.462812465681671E-014
 -1.180000000000000E-002   -2.239599426485194E-013
 -1.170000000000000E-002   -3.494606100308206E-013
 -1.160000000000000E-002   -4.394134353337328E-013
 -1.150000000000000E-002   -4.743573233163204E-013
 -1.140000000000000E-002   -4.404896995652810E-013
 -1.130000000000000E-002   -3.327043945611473E-013
 -1.120000000000000E-002   -1.567285914148380E-013
 -1.110000000000000E-002    7.011833633611863E-014
 -1.100000000000000E-002    3.198781546820363E-013
 -1.090000000000000E-002    5.567349349329377E-013
 -1.080000000000000E-002    7.414671068664554E-013
 -1.070000000000000E-002    8.371248514554724E-013
 -1.060000000000000E-002    8.152211030614742E-013
 -1.050000000000000E-002    6.615324558913991E-013
 -1.040000000000000E-002    3.805261766319263E-013
 -1.030000000000000E-002   -2.504433692831535E-015
 -1.020000000000000E-002   -4.422907797279406E-013
 -1.010000000000000E-002   -8.777505601885949E-013
 -1.000000000000000E-002   -1.239304462783227E-012
 -9.899999999999999E-003   -1.458661547577139E-012
 -9.800000000000000E-003   -1.479883478386617E-012
 -9.699999999999999E-003   -1.270148993567224E-012
 -9.599999999999999E-003   -8.284454918645166E-013
 -9.500000000000000E-003   -1.904765891333171E-013
 -9.399999999999999E-003    5.715750363413892E-013
 -9.299999999999999E-003    1.355165900053854E-012
 -9.200000000000000E-003    2.039287507152205E-012
 -9.099999999999999E-003    2.501084297131711E-012
 -8.999999999999999E-003    2.635216693342955E-012
 -8.900000000000000E-003    2.373247064772809E-012
 -8.799999999999999E-003    1.699925150321325E-012
 -8.699999999999999E-003    6.632835926657287E-013
 -8.600000000000000E-003   -6.239867899365735E-013
 -8.499999999999999E-003   -1.993368300922497E-012
 -8.399999999999999E-003   -3.239594070814149E-012
 -8.300000000000000E-003   -4.148348072724329E-012
 -8.199999999999999E-003   -4.529327353426389E-012
 -8.100000000000000E-003   -4.250066264250784E-012
 -8.000000000000000E-003   -3.265146486367930E-012
 -7.899999999999999E-003   -1.635411529956131E-012
 -7.800000000000000E-003    4.673161391802872E-013
 -7.699999999999999E-003    2.772776397053346E-012
 -7.599999999999999E-003    4.942397133815611E-012
 -7.499999999999999E-003    6.614499636730464E-012
 -7.399999999999999E-003    7.459279779648475E-012
 -7.299999999999999E-003    7.235943528988585E-012
 -7.199999999999999E-003    5.843001436102575E-012
 -7.100000000000000E-003    3.352651044437232E-012
 -6.999999999999999E-003    2.157359546110224E-014
 -6.899999999999999E-003   -3.726678867388973E-012
 -6.800000000000000E-003   -7.348513678315356E-012
 -6.699999999999999E-003   -1.025248249570291E-011
 -6.599999999999999E-003   -1.188831918225065E-011
 -6.499999999999999E-003   -1.184049228156969E-011
 -6.399999999999999E-003   -9.911640011525915E-012
 -6.299999999999999E-003   -6.181066757113324E-012
 -6.199999999999999E-003   -1.025724114897878E-012
 -6.100000000000000E-003    4.904334771593432E-012
 -5.999999999999999E-003    1.075758347962688E-011
 -5.899999999999999E-003    1.559378196821546E-011
 -5.800000000000000E-003    1.852449937569305E-011
 -5.699999999999999E-003    1.886188828410754E-011
 -5.599999999999999E-003    1.625254741973432E-011
 -5.499999999999999E-003    1.077301253759376E-011
 -5.399999999999999E-003    2.966930508350417E-012
 -5.299999999999999E-003   -6.188831311048137E-012
 -5.199999999999999E-003   -1.539177109403023E-011
 -5.099999999999999E-003   -2.318598202711935E-011
 -4.999999999999999E-003   -2.817839467404098E-011
 -4.899999999999999E-003   -2.926896783027418E-011
 -4.799999999999999E-003   -2.585911423273120E-011
 -4.699999999999999E-003   -1.800228187323451E-011
 -4.599999999999999E-003   -6.466017855707923E-012
 -4.499999999999999E-003    7.314054981361394E-012
 -4.399999999999999E-003    2.139254319113165E-011
 -4.299999999999999E-003    3.357126490916488E-011
 -4.199999999999999E-003    4.172387922318202E-011
 -4.099999999999999E-003    4.414292024004654E-011
 -3.999999999999999E-003    3.985566559540133E-011
 -3.899999999999999E-003    2.885476696128461E-011
 -3.799999999999999E-003    1.219783105064461E-011
 -3.699999999999999E-003   -8.053344579300294E-012
 -3.599999999999999E-003   -2.906025353333290E-011
 -3.499999999999999E-003   -4.758195501818912E-011
 -3.399999999999999E-003   -6.045063750454947E-011
 -3.299999999999999E-003   -6.508215987750642E-011
 -3.199999999999999E-003   -5.994318024509857E-011
 -3.099999999999999E-003   -4.489594414457368E-011
 -2.999999999999999E-003   -2.135386870437546E-011
 -2.899999999999999E-003    7.794851725257348E-012
 -2.799999999999999E-003    3.850522921542466E-011
 -2.699999999999999E-003    6.610685012480202E-011
 -2.599999999999999E-003    8.598363246325020E-011
 -2.499999999999999E-003    9.430736061363208E-011
 -2.399999999999999E-003    8.871312975594507E-011
 -2.299999999999999E-003    6.880420418553403E-011
 -2.199999999999999E-003    3.639083402702308E-011
 -2.099999999999999E-003   -4.598268341063302E-012
 -1.999999999999999E-003   -4.854647109393445E-011
 -1.899999999999999E-003   -8.888325953561787E-011
 -1.799999999999999E-003   -1.190317321469755E-010
 -1.699999999999999E-003   -1.334379973168979E-010
 -1.599999999999999E-003   -1.285268633779271E-010
 -1.499999999999999E-003   -1.034269104312285E-010
 -1.399999999999999E-003   -6.033156753269106E-011
 -1.299999999999999E-003   -4.409498603640800E-012
 -1.199999999999999E-003    5.675829614450586E-011
 -1.099999999999999E-003    1.141642531480482E-010
 -9.999999999999989E-004    1.586620037946407E-010
 -8.999999999999990E-004    1.823778328997439E-010
 -7.999999999999990E-004    1.800344898263544E-010
 -6.999999999999989E-004    1.499730939886392E-010
 -5.999999999999990E-004    9.469006917166837E-011
 -4.999999999999989E-004    2.076813725431722E-011
 -3.999999999999989E-004   -6.183379601936721E-011
 -2.999999999999989E-004   -1.410691431396182E-010
 -1.999999999999989E-004   -2.045126740814568E-010
 -9.999999999999892E-005   -2.412550312058633E-010
  1.084202172485504E-018   -2.437012767552169E-010
  1.000000000000011E-004   -2.089868639517564E-010
  2.000000000000011E-004   -1.397634088204047E-010
  3.000000000000011E-004   -4.418707534677163E-011
  4.000000000000011E-004    6.494528482694857E-011
  5.000000000000011E-004    1.718385784035118E-010
  6.000000000000011E-004    2.599207385521486E-010
  7.000000000000011E-004    3.143396420222906E-010
  8.000000000000011E-004    3.243686058725654E-010
  9.000000000000012E-004    2.853430469191382E-010
  1.000000000000001E-003    1.997973782078800E-010
  1.100000000000001E-003    7.757263675349184E-011
  1.200000000000001E-003   -6.519100635007127E-011
  1.300000000000001E-003   -2.080967332662022E-010
  1.400000000000001E-003   -3.293237084856738E-010
  1.500000000000001E-003   -4.088673245328312E-010
  1.600000000000001E-003   -4.317172890438513E-010
  1.700000000000001E-003   -3.904823881233601E-010
  1.800000000000001E-003   -2.870246501427001E-010
  1.900000000000001E-003   -1.327889160712917E-010
  2.000000000000001E-003    5.230640069408664E-011
  2.100000000000001E-003    2.423401054589154E-010
  2.200000000000001E-003    4.089306237294670E-010
  2.300000000000001E-003    5.253786871809513E-010
  2.400000000000001E-003    5.708179663352313E-010
  2.500000000000001E-003    5.337437290192959E-010
  2.600000000000001E-003    4.143454870458731E-010
  2.700000000000001E-003    2.252160111979488E-010
  2.800000000000001E-003   -9.770287488894509E-012
  2.900000000000001E-003   -2.583517538125728E-010
  3.000000000000001E-003   -4.842167570481922E-010
  3.100000000000001E-003   -6.522155838311250E-010
  3.200000000000001E-003   -7.337131377610083E-010
  3.300000000000001E-003   -7.112831745207356E-010
  3.400000000000001E-003   -5.819977932020905E-010
  3.500000000000001E-003   -3.587331606490492E-010
  3.600000000000001E-003   -6.917855890779355E-011
  3.700000000000001E-003    2.474369114438181E-010
  3.800000000000001E-003    5.455412590851106E-010
  3.900000000000001E-003    7.796708152291725E-010
  4.000000000000001E-003    9.112791940793963E-010
  4.100000000000001E-003    9.149035395093098E-010
  4.200000000000001E-003    7.827247150974290E-010
  4.300000000000001E-003    5.267470676838314E-010
  4.400000000000001E-003    1.781345026481226E-010
  4.500000000000001E-003   -2.163583781016680E-010
  4.600000000000002E-003   -6.004897841517043E-010
  4.700000000000001E-003   -9.163977430419699E-010
  4.800000000000001E-003   -1.113151284910601E-009
  4.900000000000002E-003   -1.154745088949625E-009
  5.000000000000001E-003   -1.026309271199030E-009
  5.100000000000001E-003   -7.375072866526934E-010
  5.200000000000001E-003   -3.224566453924178E-010
  5.300000000000002E-003    1.640067001408959E-010
  5.400000000000001E-003    6.533636256838595E-010
  5.500000000000001E-003    1.072876169729249E-009
  5.600000000000002E-003    1.356199455435982E-009
  5.700000000000001E-003    1.453618124207440E-009
  5.800000000000001E-003    1.340357755048416E-009
  5.900000000000002E-003    1.021626028082719E-009
  6.000000000000001E-003    5.334542718878886E-010
  6.100000000000001E-003   -6.101084457461732E-011
  6.200000000000002E-003   -6.794552518800512E-010
  6.300000000000002E-003   -1.231623201783303E-009
  6.400000000000001E-003   -1.632318455380927E-009
  6.500000000000001E-003   -1.814333706201711E-009
  6.600000000000002E-003   -1.739373967748092E-009
  6.700000000000001E-003   -1.405238810619757E-009
  6.800000000000001E-003   -8.479973223432289E-010
  6.900000000000002E-003   -1.385725812908419E-010
  7.000000000000001E-003    6.260411640140766E-010
  7.100000000000001E-003    1.335891153625820E-009
  7.200000000000002E-003    1.883770146349233E-009
  7.300000000000002E-003    2.181296930108850E-009
  7.400000000000001E-003    2.172989631431292E-009
  7.500000000000001E-003    1.846128555506120E-009
  7.600000000000002E-003    1.234724456941351E-009
  7.700000000000001E-003    4.167062481911713E-010
  7.800000000000001E-003   -4.955865453333896E-010
  7.900000000000001E-003   -1.370514325490983E-009
  8.000000000000002E-003   -2.075867133557918E-009
  8.100000000000001E-003   -2.498588764698768E-009
  8.200000000000001E-003   -2.562595000122622E-009
  8.300000000000002E-003   -2.241929656021513E-009
  8.400000000000001E-003   -1.567065033486762E-009
  8.500000000000002E-003   -6.230779889197809E-010
  8.600000000000002E-003    4.604177430316039E-010
  8.700000000000001E-003    1.526470474486827E-009
  8.800000000000002E-003    2.412891461559181E-009
  8.900000000000002E-003    2.976193157658429E-009
  9.000000000000001E-003    3.113878643975924E-009
  9.100000000000002E-003    2.781688779183419E-009
  9.200000000000002E-003    2.003003931070392E-009
  9.300000000000001E-003    8.686452282048402E-010
  9.400000000000002E-003   -4.733276451333480E-010
  9.500000000000001E-003   -1.836754724269671E-009
  9.600000000000001E-003   -3.023003021022611E-009
  9.700000000000002E-003   -3.849563642360885E-009
  9.800000000000001E-003   -4.177511155923505E-009
  9.900000000000001E-003   -3.933707944588552E-009
  1.000000000000000E-002   -3.124251701122287E-009
  1.010000000000000E-002   -1.836819305537801E-009
  1.020000000000000E-002   -2.311132102858738E-010
  1.030000000000000E-002    1.481644048392228E-009
  1.040000000000000E-002    3.067560948037710E-009
  1.050000000000000E-002    4.303325213460120E-009
  1.060000000000000E-002    5.009095705119165E-009
  1.070000000000000E-002    5.076156114963006E-009
  1.080000000000000E-002    4.485045031069513E-009
  1.090000000000000E-002    3.311129563646719E-009
  1.100000000000000E-002    1.716340606888906E-009
  1.110000000000000E-002   -7.219520845940463E-011
  1.120000000000000E-002   -1.793925376749350E-009
  1.130000000000000E-002   -3.192693471976861E-009
  1.140000000000000E-002   -4.055206405864454E-009
  1.150000000000000E-002   -4.244447554150805E-009
  1.160000000000000E-002   -3.722876200579442E-009
  1.170000000000000E-002   -2.561583538425955E-009
  1.180000000000000E-002   -9.335147783683734E-010
  1.190000000000000E-002    9.088458283765750E-010
  1.200000000000000E-002    2.668626160770770E-009
  1.210000000000000E-002    4.047863037318444E-009
  1.220000000000000E-002    4.792902014896023E-009
  1.230000000000000E-002    4.735342960766096E-009
  1.240000000000000E-002    3.822422409283011E-009
  1.250000000000000E-002    2.132073354207531E-009
  1.260000000000000E-002   -1.299831302256078E-010
  1.270000000000000E-002   -2.651211032822691E-009
  1.280000000000000E-002   -5.048736827964711E-009
  1.290000000000000E-002   -6.916411106906390E-009
  1.300000000000000E-002   -7.875835534760642E-009
  1.310000000000000E-002   -7.623949182737544E-009
  1.320000000000000E-002   -5.970058405186058E-009
  1.330000000000000E-002   -2.856535568044761E-009
  1.340000000000000E-002    1.640356336279684E-009
  1.350000000000000E-002    7.330237883608242E-009
  1.360000000000000E-002    1.394670459207471E-008
  1.370000000000000E-002    2.119866262070853E-008
  1.380000000000000E-002    2.882779378664735E-008
  1.390000000000000E-002    3.666385452707884E-008
  1.400000000000000E-002    4.466963039985435E-008
  1.410000000000000E-002    5.296859810973474E-008
  1.420000000000000E-002    6.185073355354868E-008
  1.430000000000000E-002    7.175490752582484E-008
  1.440000000000000E-002    8.322971037208138E-008
  1.450000000000000E-002    9.687782130433599E-008
  1.460000000000000E-002    1.132914699517739E-007
  1.470000000000000E-002    1.329882263367426E-007
  1.480000000000000E-002    1.563563790153116E-007
  1.490000000000000E-002    1.836182877153522E-007
  1.500000000000000E-002    2.148174512765717E-007
  1.510000000000000E-002    2.498320130801838E-007
  1.520000000000000E-002    2.884133193531178E-007
  1.530000000000000E-002    3.302449709979480E-007
  1.540000000000000E-002    3.750142389391995E-007
  1.550000000000000E-002    4.224856950079493E-007
  1.560000000000000E-002    4.725670073988336E-007
  1.570000000000000E-002    5.253568918143594E-007
  1.580000000000000E-002    5.811677140637811E-007
  1.590000000000000E-002    6.405193485292356E-007
  1.600000000000000E-002    7.041041158052848E-007
  1.610000000000000E-002    7.727279067348837E-007
  1.620000000000000E-002    8.472344503083085E-007
  1.630000000000000E-002    9.284246704993260E-007
  1.640000000000000E-002    1.016981957966932E-006
  1.650000000000000E-002    1.113414919446128E-006
  1.660000000000000E-002    1.218026322610818E-006
  1.670000000000000E-002    1.330913733600350E-006
  1.680000000000000E-002    1.452002332669522E-006
  1.690000000000000E-002    1.581106494628476E-006
  1.700000000000000E-002    1.718011724769130E-006
  1.710000000000000E-002    1.862566200627483E-006
  1.720000000000000E-002    2.014768504633492E-006
  1.730000000000000E-002    2.174838848194559E-006
  1.740000000000000E-002    2.343264160880220E-006
  1.750000000000000E-002    2.520809589000519E-006
  1.760000000000000E-002    2.708493923400214E-006
  1.770000000000000E-002    2.907532446797931E-006
  1.780000000000000E-002    3.119254701422605E-006
  1.790000000000000E-002    3.345010342565024E-006
  1.800000000000000E-002    3.586073917989980E-006
  1.810000000000000E-002    3.843564760807803E-006
  1.820000000000000E-002    4.118395555601935E-006
  1.830000000000000E-002    4.411254003214788E-006
  1.840000000000000E-002    4.722623262339782E-006
  1.850000000000000E-002    5.052842177148222E-006
  1.860000000000000E-002    5.402191327364792E-006
  1.870000000000000E-002    5.770998515571325E-006