 -4.000000000000000E-002    0.000000000000000E+000
 -3.990000000000000E-002    0.000000000000000E+000
 -3.980000000000000E-002    0.000000000000000E+000
 -3.970000000000000E-002    0.000000000000000E+000
 -3.960000000000000E-002    0.000000000000000E+000
 -3.950000000000000E-002    0.000000000000000E+000
 -3.940000000000000E-002    0.000000000000000E+000
 -3.930000000000000E-002    0.000000000000000E+000
 -3.920000000000000E-002    0.000000000000000E+000
 -3.910000000000000E-002    0.000000000000000E+000
 -3.900000000000000E-002    0.000000000000000E+000
 -3.890000000000000E-002    0.000000000000000E+000
 -3.880000000000000E-002    0.000000000000000E+000
 -3.870000000000000E-002    0.000000000000000E+000
 -3.860000000000000E-002    0.000000000000000E+000
 -3.850000000000000E-002    0.000000000000000E+000
 -3.840000000000000E-002    0.000000000000000E+000
 -3.830000000000000E-002    0.000000000000000E+000
 -3.820000000000000E-002    0.000000000000000E+000
 -3.810000000000000E-002    0.000000000000000E+000
 -3.800000000000000E-002    0.000000000000000E+000
 -3.790000000000000E-002    0.000000000000000E+000
 -3.780000000000000E-002    0.000000000000000E+000
 -3.770000000000000E-002    0.000000000000000E+000
 -3.760000000000000E-002    0.000000000000000E+000
 -3.750000000000000E-002    0.000000000000000E+000
 -3.740000000000000E-002    0.000000000000000E+000
 -3.730000000000000E-002    0.000000000000000E+000
 -3.720000000000000E-002    0.000000000000000E+000
 -3.710000000000000E-002    0.000000000000000E+000
 -3.700000000000000E-002    0.000000000000000E+000
 -3.690000000000000E-002    0.000000000000000E+000
 -3.680000000000000E-002    0.000000000000000E+000
 -3.670000000000000E-002    0.000000000000000E+000
 -3.660000000000000E-002    0.000000000000000E+000
 -3.650000000000000E-002    0.000000000000000E+000
 -3.640000000000000E-002    0.000000000000000E+000
 -3.630000000000000E-002    0.000000000000000E+000
 -3.620000000000000E-002    0.000000000000000E+000
 -3.610000000000000E-002    0.000000000000000E+000
 -3.600000000000000E-002    0.000000000000000E+000
 -3.590000000000000E-002    0.000000000000000E+000
 -3.580000000000000E-002    0.000000000000000E+000
 -3.570000000000000E-002    0.000000000000000E+000
 -3.560000000000000E-002    0.000000000000000E+000
 -3.550000000000000E-002    0.000000000000000E+000
 -3.540000000000000E-002    0.000000000000000E+000
 -3.530000000000000E-002    0.000000000000000E+000
 -3.520000000000000E-002    0.000000000000000E+000
 -3.510000000000000E-002    0.000000000000000E+000
 -3.500000000000000E-002    0.000000000000000E+000
 -3.490000000000000E-002    0.000000000000000E+000
 -3.480000000000000E-002    0.000000000000000E+000
 -3.470000000000000E-002    0.000000000000000E+000
 -3.460000000000000E-002    0.000000000000000E+000
 -3.450000000000000E-002    0.000000000000000E+000
 -3.440000000000000E-002    0.000000000000000E+000
 -3.430000000000000E-002    0.000000000000000E+000
 -3.420000000000000E-002    0.000000000000000E+000
 -3.410000000000000E-002    0.000000000000000E+000
 -3.400000000000000E-002    0.000000000000000E+000
 -3.390000000000000E-002    0.000000000000000E+000
 -3.380000000000000E-002    0.000000000000000E+000
 -3.370000000000000E-002    0.000000000000000E+000
 -3.360000000000000E-002    0.000000000000000E+000
 -3.350000000000000E-002    0.000000000000000E+000
 -3.340000000000000E-002    0.000000000000000E+000
 -3.330000000000000E-002    0.000000000000000E+000
 -3.320000000000000E-002    0.000000000000000E+000
 -3.310000000000000E-002    0.000000000000000E+000
 -3.300000000000000E-002    0.000000000000000E+000
 -3.290000000000000E-002    0.000000000000000E+000
 -3.280000000000000E-002    0.000000000000000E+000
 -3.270000000000000E-002    0.000000000000000E+000
 -3.260000000000000E-002    0.000000000000000E+000
 -3.250000000000000E-002    0.000000000000000E+000
 -3.240000000000000E-002    0.000000000000000E+000
 -3.230000000000000E-002    0.000000000000000E+000
 -3.220000000000000E-002    0.000000000000000E+000
 -3.210000000000000E-002    0.000000000000000E+000
 -3.200000000000000E-002    0.000000000000000E+000
 -3.190000000000000E-002    0.000000000000000E+000
 -3.180000000000000E-002    0.000000000000000E+000
 -3.170000000000000E-002    0.000000000000000E+000
 -3.160000000000000E-002    1.924390591266381E-047
 -3.150000000000000E-002    3.848781182532762E-047
 -3.140000000000000E-002    5.773171773799143E-047
 -3.130000000000000E-002    5.773171773799143E-047
 -3.120000000000000E-002    0.000000000000000E+000
 -3.110000000000000E-002   -4.746830125123739E-047
 -3.100000000000000E-002   -2.131661047544855E-046
 -3.090000000000000E-002   -2.710980351468163E-046
 -3.080000000000000E-002   -3.792643335664124E-046
 -3.070000000000000E-002   -1.325349032893365E-045
 -3.060000000000000E-002   -1.655910606804223E-045
 -3.050000000000000E-002   -2.189195913034847E-045
 -3.040000000000000E-002   -3.058316924672616E-045
 -3.030000000000000E-002   -3.605112895990267E-045
 -3.020000000000000E-002   -2.963320386219690E-045
 -3.010000000000000E-002    1.311301761048297E-046
 -3.000000000000000E-002    8.235991792851920E-045
 -2.990000000000000E-002    2.293285799377385E-044
 -2.980000000000000E-002    4.708273077639564E-044
 -2.970000000000000E-002    8.137649608366072E-044
 -2.960000000000000E-002    1.214384945580350E-043
 -2.950000000000000E-002    1.586184403689402E-043
 -2.940000000000000E-002    1.723235352044350E-043
 -2.930000000000000E-002    1.249505031120962E-043
 -2.920000000000000E-002   -3.870132928758067E-044
 -2.910000000000000E-002   -3.905416393714889E-043
 -2.900000000000000E-002   -1.009478568118863E-042
 -2.890000000000000E-002   -1.954323742631128E-042
 -2.880000000000000E-002   -3.218412724186230E-042
 -2.870000000000000E-002   -4.651287514798976E-042
 -2.860000000000000E-002   -5.863863802702536E-042
 -2.850000000000000E-002   -6.113233809087404E-042
 -2.840000000000000E-002   -4.210555937753293E-042
 -2.830000000000000E-002    1.494438875043295E-042
 -2.820000000000000E-002    1.296924129891997E-041
 -2.810000000000000E-002    3.207326073117101E-041
 -2.800000000000000E-002    5.973313065732283E-041
 -2.790000000000000E-002    9.461880920077578E-041
 -2.780000000000000E-002    1.313175790242815E-040
 -2.770000000000000E-002    1.581882142931283E-040
 -2.760000000000000E-002    1.553717694037467E-040
 -2.750000000000000E-002    9.383639976223576E-041
 -2.740000000000000E-002   -6.319010145197137E-041
 -2.730000000000000E-002   -3.546234747357038E-040
 -2.720000000000000E-002   -8.098438463849405E-040
 -2.710000000000000E-002   -1.429335750999991E-039
 -2.700000000000000E-002   -2.157334475753554E-039
 -2.690000000000000E-002   -2.848652101596666E-039
 -2.680000000000000E-002   -3.235827891084826E-039
 -2.670000000000000E-002   -2.908125450513067E-039
 -2.660000000000000E-002   -1.320010419303440E-039
 -2.650000000000000E-002    2.147780112767349E-039
 -2.640000000000000E-002    8.049155636510695E-039
 -2.630000000000000E-002    1.663431007072209E-038
 -2.620000000000000E-002    2.750558985041643E-038
 -2.610000000000000E-002    3.919035598520480E-038
 -2.600000000000000E-002    4.869958004313213E-038
 -2.590000000000000E-002    5.120216125895710E-038
 -2.580000000000000E-002    4.001400086038827E-038
 -2.570000000000000E-002    7.161925804195862E-039
 -2.560000000000000E-002   -5.519164658937082E-038
 -2.550000000000000E-002   -1.522204975117856E-037
 -2.540000000000000E-002   -2.827130144896463E-037
 -2.530000000000000E-002   -4.343693624490171E-037
 -2.520000000000000E-002   -5.787954940841443E-037
 -2.510000000000000E-002   -6.674849637572613E-037
 -2.500000000000000E-002   -6.307584372641139E-037
 -2.490000000000000E-002   -3.822235042857132E-037
 -2.480000000000000E-002    1.684314968166135E-037
 -2.470000000000000E-002    1.091908020928178E-036
 -2.460000000000000E-002    2.404056804700454E-036
 -2.450000000000000E-002    4.020696960248397E-036
 -2.440000000000000E-002    5.708479240797492E-036
 -2.430000000000000E-002    7.043207045178501E-036
 -2.420000000000000E-002    7.392978529359434E-036
 -2.410000000000000E-002    5.948541660507854E-036
 -2.400000000000000E-002    1.825377849596079E-036
 -2.390000000000000E-002   -5.741551970223767E-036
 -2.380000000000000E-002   -1.710141487194216E-035
 -2.370000000000000E-002   -3.180303070258881E-035
 -2.360000000000000E-002   -4.817001118882259E-035
 -2.350000000000000E-002   -6.292628336951395E-035
 -2.340000000000000E-002   -7.100931112332929E-035
 -2.330000000000000E-002   -6.574690223965308E-035
 -2.320000000000000E-002   -3.958848539912204E-035
 -2.310000000000000E-002    1.444677065532323E-035
 -2.300000000000000E-002    1.005327875278078E-034
 -2.290000000000000E-002    2.171073660163464E-034
 -2.280000000000000E-002    3.535964935222920E-034
 -2.270000000000000E-002    4.874476613704877E-034
 -2.260000000000000E-002    5.824563800484849E-034
 -2.250000000000000E-002    5.896338407269479E-034
 -2.240000000000000E-002    4.519564964723279E-034
 -2.230000000000000E-002    1.141311860325527E-034
 -2.220000000000000E-002   -4.621225298974867E-034
 -2.210000000000000E-002   -1.277923039340067E-033
 -2.200000000000000E-002   -2.274512356464577E-033
 -2.190000000000000E-002   -3.312314745769917E-033
 -2.180000000000000E-002   -4.158198844059528E-033
 -2.170000000000000E-002   -4.489014431885369E-033
 -2.160000000000000E-002   -3.919958168985472E-033
 -2.150000000000000E-002   -2.064901904432010E-033
 -2.140000000000000E-002    1.368286287117491E-033
 -2.130000000000000E-002    6.451570551745309E-033
 -2.120000000000000E-002    1.289402145351941E-032
 -2.110000000000000E-002    1.990902866682004E-032
 -2.100000000000000E-002    2.613017309025627E-032
 -2.090000000000000E-002    2.962359420534601E-032
 -2.080000000000000E-002    2.804679632943320E-032
 -2.070000000000000E-002    1.899452208840977E-032
 -2.060000000000000E-002    5.475541550837420E-034
 -2.050000000000000E-002   -2.800116382287571E-032
 -2.040000000000000E-002   -6.532668588340377E-032
 -2.030000000000000E-002   -1.073093335555791E-031
 -2.020000000000000E-002   -1.465455595861011E-031
 -2.010000000000000E-002   -1.723949028521936E-031
 -2.000000000000000E-002   -1.718315902932162E-031
 -1.990000000000000E-002   -1.313114361198252E-031
 -1.980000000000000E-002   -3.972512372111067E-032
 -1.970000000000000E-002    1.077173528842151E-031
 -1.960000000000000E-002    3.051334568695133E-031
 -1.950000000000000E-002    5.319539521368554E-031
 -1.940000000000000E-002    7.503823178114638E-031
 -1.930000000000000E-002    9.056748833856751E-031
 -1.920000000000000E-002    9.305803074049067E-031
 -1.910000000000000E-002    7.549434590412893E-031
 -1.900000000000000E-002    3.207353702372584E-031
 -1.890000000000000E-002   -3.983958629752410E-031
 -1.880000000000000E-002   -1.375481217910327E-030
 -1.870000000000000E-002   -2.510597317182177E-030
 -1.860000000000000E-002   -3.618857952997551E-030
 -1.850000000000000E-002   -4.432526254749890E-030
 -1.840000000000000E-002   -4.623533377369372E-030
 -1.830000000000000E-002   -3.850840196265717E-030
 -1.820000000000000E-002   -1.833356896970269E-030
 -1.810000000000000E-002    1.556558683668967E-030
 -1.800000000000000E-002    6.191146981323108E-030
 -1.790000000000000E-002    1.159662277261019E-029
 -1.780000000000000E-002    1.690022017524429E-029
 -1.770000000000000E-002    2.084467953091531E-029
 -1.760000000000000E-002    2.189800504148269E-029
 -1.750000000000000E-002    1.847699446324173E-029
 -1.740000000000000E-002    9.285231348732100E-030
 -1.730000000000000E-002   -6.259940566059549E-030
 -1.720000000000000E-002   -2.756883521106930E-029
 -1.710000000000000E-002   -5.247974677776689E-029
 -1.700000000000000E-002   -7.703571647678649E-029
 -1.690000000000000E-002   -9.556746776196911E-029
 -1.680000000000000E-002   -1.011999514248221E-028
 -1.670000000000000E-002   -8.685564590193020E-029
 -1.660000000000000E-002   -4.674753441994375E-029
 -1.650000000000000E-002    2.175935884258101E-029
 -1.640000000000000E-002    1.161741559373711E-028
 -1.630000000000000E-002    2.271866779610920E-028
 -1.620000000000000E-002    3.377530172418634E-028
 -1.610000000000000E-002    4.234976998257777E-028
 -1.600000000000000E-002    4.549061284516644E-028
 -1.590000000000000E-002    4.015832027344274E-028
 -1.580000000000000E-002    2.385124405649147E-028
 -1.570000000000000E-002   -4.621918162210508E-029
 -1.560000000000000E-002   -4.433111351662207E-028
 -1.550000000000000E-002   -9.153684754723140E-028
 -1.540000000000000E-002   -1.393255483138347E-027
 -1.530000000000000E-002   -1.777808721972964E-027
 -1.520000000000000E-002   -1.948726533954437E-027
 -1.510000000000000E-002   -1.781629396674945E-027
 -1.500000000000000E-002   -1.172911135398289E-027
 -1.490000000000000E-002   -7.016407181961513E-029
 -1.480000000000000E-002    1.496127637965130E-027
 -1.470000000000000E-002    3.385908250983069E-027
 -1.460000000000000E-002    5.335566045346809E-027
 -1.450000000000000E-002    6.964608208611402E-027
 -1.440000000000000E-002    7.809643861480929E-027
 -1.430000000000000E-002    7.389064763575477E-027
 -1.420000000000000E-002    5.296589461420995E-027
 -1.410000000000000E-002    1.314972666503775E-027
 -1.400000000000000E-002   -4.466383762950872E-027
 -1.390000000000000E-002   -1.155319123749467E-026
 -1.380000000000000E-002   -1.899535533035457E-026
 -1.370000000000000E-002   -2.541184580595386E-026
 -1.360000000000000E-002   -2.911439418593798E-026
 -1.350000000000000E-002   -2.834102694205412E-026
 -1.340000000000000E-002   -2.159123849738380E-026
 -1.330000000000000E-002   -8.030433845346989E-027
 -1.320000000000000E-002    1.209503643939157E-026
 -1.310000000000000E-002    3.711453762026990E-026
 -1.300000000000000E-002    6.375860188340464E-026
 -1.290000000000000E-002    8.725005412787598E-026
 -1.280000000000000E-002    1.017373367622790E-025
 -1.270000000000000E-002    1.011027755483385E-025
 -1.260000000000000E-002    8.011238943431252E-026
 -1.250000000000000E-002    3.579169768014720E-026
 -1.240000000000000E-002   -3.117544593502915E-026
 -1.230000000000000E-002   -1.153038395836819E-025
 -1.220000000000000E-002   -2.057428939152048E-025
 -1.210000000000000E-002   -2.866077828311744E-025
 -1.200000000000000E-002   -3.384475756233790E-025
 -1.190000000000000E-002   -3.409416964302084E-025
 -1.180000000000000E-002   -2.766965631612912E-025
 -1.170000000000000E-002   -1.357456236658398E-025
 -1.160000000000000E-002    7.992240919759589E-026
 -1.150000000000000E-002    3.527153656312981E-025
 -1.140000000000000E-002    6.477046579852208E-025
 -1.130000000000000E-002    9.137989159860244E-025
 -1.120000000000000E-002    1.088558256246438E-024
 -1.110000000000000E-002    1.106887015231218E-024
 -1.100000000000000E-002    9.131385755229111E-025
 -1.090000000000000E-002    4.753253026966605E-025
 -1.080000000000000E-002   -2.007303956500717E-025
 -1.070000000000000E-002   -1.060156059871962E-024
 -1.060000000000000E-002   -1.993896532813849E-024
 -1.050000000000000E-002   -2.842691003755597E-024
 -1.040000000000000E-002   -3.412306223275618E-024
 -1.030000000000000E-002   -3.500603626966730E-024
 -1.020000000000000E-002   -2.934843687658235E-024
 -1.010000000000000E-002   -1.615086706033276E-024
 -1.000000000000000E-002    4.429823346740139E-025
 -9.899999999999999E-003    3.074455735687576E-024
 -9.800000000000000E-003    5.950363465131123E-024
 -9.699999999999999E-003    8.590380926026776E-024
 -9.599999999999999E-003    1.040916591033761E-023
 -9.500000000000000E-003    1.079763998389517E-023
 -9.399999999999999E-003    9.234040049631680E-024
 -9.299999999999999E-003    5.412157732955632E-024
 -9.200000000000000E-003   -6.330734077070261E-025
 -9.099999999999999E-003   -8.427932009925102E-024
 -8.999999999999999E-003   -1.701771584070013E-023
 -8.900000000000000E-003   -2.500489940400484E-023
 -8.799999999999999E-003   -3.068438840673966E-023
 -8.699999999999999E-003   -3.227855491269222E-023
 -8.600000000000000E-003   -2.825635974007792E-023
 -8.499999999999999E-003   -1.769964017557646E-023
 -8.399999999999999E-003   -6.598914221157944E-025
 -8.300000000000000E-003    2.156601131779144E-023
 -8.199999999999999E-003    4.631777051033492E-023
 -8.100000000000000E-003    6.967980851923060E-023
 -8.000000000000000E-003    8.686003947527018E-023
 -7.899999999999999E-003    9.284479881015316E-023
 -7.800000000000000E-003    8.328355913890108E-023
 -7.699999999999999E-003    5.550029744809671E-023
 -7.599999999999999E-003    9.474555204949229E-024
 -7.499999999999999E-003   -5.140295420288306E-023
 -7.399999999999999E-003   -1.200069156350220E-022
 -7.299999999999999E-003   -1.857684004094747E-022
 -7.199999999999999E-003   -2.356957126699920E-022
 -7.100000000000000E-003   -2.561344386308328E-022
 -6.999999999999999E-003   -2.351373940655604E-022
 -6.899999999999999E-003   -1.651650388345915E-022
 -6.800000000000000E-003   -4.569757277268407E-023
 -6.699999999999999E-003    1.147562048941628E-022
 -6.599999999999999E-003    2.977941400870321E-022
 -6.499999999999999E-003    4.758700418457830E-022
 -6.399999999999999E-003    6.149486260373274E-022
 -6.299999999999999E-003    6.790777013709675E-022
 -6.199999999999999E-003    6.365329270661507E-022
 -6.100000000000000E-003    4.668014904908804E-022
 -5.999999999999999E-003    1.673268726357394E-022
 -5.899999999999999E-003   -2.413063738241457E-022
 -5.800000000000000E-003   -7.131162527634316E-022
 -5.699999999999999E-003   -1.178574949301083E-021
 -5.599999999999999E-003   -1.551286550858122E-021
 -5.499999999999999E-003   -1.739494072034031E-021
 -5.399999999999999E-003   -1.661525849570067E-021
 -5.299999999999999E-003   -1.263329107835425E-021
 -5.199999999999999E-003   -5.353868105547671E-022
 -5.099999999999999E-003    4.742543622339638E-022
 -4.999999999999999E-003    1.654223056824860E-021
 -4.899999999999999E-003    2.834206040395695E-021
 -4.799999999999999E-003    3.801201793988866E-021
 -4.699999999999999E-003    4.327608684195756E-021
 -4.599999999999999E-003    4.208931209723501E-021
 -4.499999999999999E-003    3.306575669198874E-021
 -4.399999999999999E-003    1.589165282440624E-021
 -4.299999999999999E-003   -8.355246418957723E-022
 -4.199999999999999E-003   -3.706103322527977E-021
 -4.099999999999999E-003   -6.617431359082019E-021
 -3.999999999999999E-003   -9.058884108239889E-021
 -3.899999999999999E-003   -1.048086889893807E-020
 -3.799999999999999E-003   -1.038427980095849E-020
 -3.699999999999999E-003   -8.422152930886085E-021
 -3.599999999999999E-003   -4.498029795626458E-021
 -3.499999999999999E-003    1.157508102852025E-021
 -3.399999999999999E-003    7.951045815014921E-021
 -3.299999999999999E-003    1.494724497859705E-020
 -3.199999999999999E-003    2.095585598364519E-020
 -3.099999999999999E-003    2.468450558402336E-020
 -2.999999999999999E-003    2.494499435878890E-020
 -2.899999999999999E-003    2.088842404579880E-020
 -2.799999999999999E-003    1.223364019342814E-020
 -2.699999999999999E-003   -5.533129128861410E-022
 -2.599999999999999E-003   -1.617185108944848E-020
 -2.499999999999999E-003   -3.252794467209639E-020
 -2.399999999999999E-003   -4.692507344078252E-020
 -2.299999999999999E-003   -5.640462455427075E-020
 -2.199999999999999E-003   -5.820839473405829E-020
 -2.099999999999999E-003   -5.030827812081161E-020
 -1.999999999999999E-003   -3.192405282134203E-020
 -1.899999999999999E-003   -3.935110390091746E-021
 -1.799999999999999E-003    3.090976937620905E-020
 -1.699999999999999E-003    6.806550100260012E-020
 -1.599999999999999E-003    1.015949048787186E-019
 -1.499999999999999E-003    1.249042891034630E-019
 -1.399999999999999E-003    1.317520135313064E-019
 -1.299999999999999E-003    1.174113194140960E-019
 -1.199999999999999E-003    7.981618374000566E-020
 -1.099999999999999E-003    2.048593031828851E-020
 -9.999999999999989E-004   -5.497977418391583E-020
 -8.999999999999990E-004   -1.370121501251828E-019
 -7.999999999999990E-004   -2.128979785167919E-019
 -6.999999999999989E-004   -2.683223344093156E-019
 -5.999999999999990E-004   -2.895090925374546E-019
 -4.999999999999989E-004   -2.657108404662149E-019
 -3.999999999999989E-004   -1.916865098155332E-019
 -2.999999999999989E-004   -6.973499766838024E-020
 -1.999999999999989E-004    8.915842014665627E-020
 -9.999999999999892E-005    2.654411371398005E-019
  1.084202172485504E-018    4.326122947258573E-019
  1.000000000000011E-004    5.603638160278369E-019
  2.000000000000011E-004    6.190065766259436E-019
  3.000000000000011E-004    5.846741542685683E-019
  4.000000000000011E-004    4.445636036525024E-019
  5.000000000000011E-004    2.013196247172690E-019
  6.000000000000011E-004   -1.243600939447819E-019
  7.000000000000011E-004   -4.936930464191037E-019
  8.000000000000011E-004   -8.528620456437652E-019
  9.000000000000012E-004   -1.139224714199677E-018
  1.000000000000001E-003   -1.290232025308898E-018
  1.100000000000001E-003   -1.254056562119292E-018
  1.200000000000001E-003   -1.000445124169541E-018
  1.300000000000001E-003   -5.299906869954002E-019
  1.400000000000001E-003    1.200556653824965E-019
  1.500000000000001E-003    8.750782927753203E-019
  1.600000000000001E-003    1.628580020519267E-018
  1.700000000000001E-003    2.254091607576627E-018
  1.800000000000001E-003    2.622695930508568E-018
  1.900000000000001E-003    2.624250127043567E-018
  2.000000000000001E-003    2.189404882690390E-018
  2.100000000000001E-003    1.308854709189530E-018
  2.200000000000001E-003    4.605548372773889E-020
  2.300000000000001E-003   -1.459932603970642E-018
  2.400000000000001E-003   -3.003768556628086E-018
  2.500000000000001E-003   -4.335973904788889E-018
  2.600000000000001E-003   -5.196511956919429E-018
  2.700000000000001E-003   -5.356241984217446E-018
  2.800000000000001E-003   -4.660723993874675E-018
  2.900000000000001E-003   -3.069456744692854E-018
  3.000000000000001E-003   -6.831759480352931E-019
  3.100000000000001E-003    2.247494016570638E-018
  3.200000000000001E-003    5.336796457734807E-018
  3.300000000000001E-003    8.103706440450225E-018
  3.400000000000001E-003    1.003469423888232E-017
  3.500000000000001E-003    1.066299317338180E-017
  3.600000000000001E-003    9.654078193669018E-018
  3.700000000000001E-003    6.884241252362450E-018
  3.800000000000001E-003    2.498024196123418E-018
  3.900000000000001E-003   -3.068701614342439E-018
  4.000000000000001E-003   -9.109799516842680E-018
  4.100000000000001E-003   -1.471820373581927E-017
  4.200000000000001E-003   -1.890040012691285E-017
  4.300000000000001E-003   -2.072489160949354E-017
  4.400000000000001E-003   -1.948593023664861E-017
  4.500000000000001E-003   -1.485814940912589E-017
  4.600000000000002E-003   -7.015017551960541E-018
  4.700000000000001E-003    3.314499767847427E-018
  4.800000000000001E-003    1.487088890743970E-017
  4.900000000000002E-003    2.598030563739910E-017
  5.000000000000001E-003    3.475834355929238E-017
  5.100000000000001E-003    3.938255166224650E-017
  5.200000000000001E-003    3.840055353172447E-017
  5.300000000000002E-003    3.102914006538136E-017
  5.400000000000001E-003    1.739385992713501E-017
  5.500000000000001E-003   -1.339992556760394E-018
  5.600000000000002E-003   -2.298444132389660E-017
  5.700000000000001E-003   -4.451555446142231E-017
  5.800000000000001E-003   -6.242729813799020E-017
  5.900000000000002E-003   -7.322217262543022E-017
  6.000000000000001E-003   -7.398100232371694E-017
  6.100000000000001E-003   -6.293184463755989E-017
  6.200000000000002E-003   -3.992513267460744E-017
  6.300000000000002E-003   -6.722461135289923E-018
  6.400000000000001E-003    3.297826631773459E-017
  6.500000000000001E-003    7.382810376333668E-017
  6.600000000000002E-003    1.094263880826540E-016
  6.700000000000001E-003    1.331873650420819E-016
  6.800000000000001E-003    1.393761074841240E-016
  6.900000000000002E-003    1.241725993495894E-016
  7.000000000000001E-003    8.659594534150462E-017
  7.100000000000001E-003    2.911613722243208E-017
  7.200000000000002E-003   -4.219536507441710E-017
  7.300000000000002E-003   -1.180739690933034E-016
  7.400000000000001E-003   -1.870514358844116E-016
  7.500000000000001E-003   -2.369580403251552E-016
  7.600000000000002E-003   -2.567750074576126E-016
  7.700000000000001E-003   -2.385921088136154E-016
  7.800000000000001E-003   -1.793702917119565E-016
  7.900000000000001E-003   -8.219348579839126E-017
  8.000000000000002E-003    4.327270541685829E-017
  8.100000000000001E-003    1.813131696400064E-016
  8.200000000000001E-003    3.117542289759715E-016
  8.300000000000002E-003    4.125203746894927E-016
  8.400000000000001E-003    4.628928988551179E-016
  8.500000000000002E-003    4.470526231833832E-016
  8.600000000000002E-003    3.573773578573561E-016
  8.700000000000001E-003    1.969245760407849E-016
  8.800000000000002E-003   -1.942693588631409E-017
  8.900000000000002E-003   -2.655657392271062E-016
  9.000000000000001E-003   -5.066353762854737E-016
  9.100000000000002E-003   -7.033088819531275E-016
  9.200000000000002E-003   -8.174307339387724E-016
  9.300000000000001E-003   -8.183234612855087E-016
  9.400000000000002E-003   -6.888414323982145E-016
  9.500000000000001E-003   -4.301568518880754E-016
  9.600000000000001E-003   -6.431546802778855E-017
  9.700000000000002E-003    3.661843965682562E-016
  9.800000000000001E-003    8.021670714736263E-016
  9.900000000000001E-003    1.174799745185183E-015
  1.000000000000000E-002    1.415209780851594E-015
  1.010000000000000E-002    1.465531092404276E-015
  1.020000000000000E-002    1.289812618829060E-015
  1.030000000000000E-002    8.830073213078797E-016
  1.040000000000000E-002    2.763118772016753E-016
  1.050000000000000E-002   -4.625403273758328E-016
  1.060000000000000E-002   -1.234819345050541E-015
  1.070000000000000E-002   -1.922128660469054E-015
  1.080000000000000E-002   -2.402544505194653E-015
  1.090000000000000E-002   -2.569656878258070E-015
  1.100000000000000E-002   -2.351869317761227E-015
  1.110000000000000E-002   -1.728877696529305E-015
  1.120000000000000E-002   -7.422712667240728E-016
  1.130000000000000E-002    5.022967721508560E-016
  1.140000000000000E-002    1.842926395200023E-015
  1.150000000000000E-002    3.079437215803510E-015
  1.160000000000000E-002    4.000038023493012E-015
  1.170000000000000E-002    4.413629219072773E-015
  1.180000000000000E-002    4.183337194353160E-015
  1.190000000000000E-002    3.256045059075412E-015
  1.200000000000000E-002    1.682607680913198E-015
  1.210000000000000E-002   -3.758139440268436E-016
  1.220000000000000E-002   -2.658254872634627E-015
  1.230000000000000E-002   -4.831934719781763E-015
  1.240000000000000E-002   -6.535649983405090E-015
  1.250000000000000E-002   -7.433707380482161E-015
  1.260000000000000E-002   -7.273174065634073E-015
  1.270000000000000E-002   -5.935679389230468E-015
  1.280000000000000E-002   -3.474679060849322E-015
  1.290000000000000E-002   -1.302104753292565E-016
  1.300000000000000E-002    3.684298788966451E-015
  1.310000000000000E-002    7.424827260538817E-015
  1.320000000000000E-002    1.048627033315551E-014
  1.330000000000000E-002    1.229106103933919E-014
  1.340000000000000E-002    1.238523434645607E-014
  1.350000000000000E-002    1.052743801645064E-014
  1.360000000000000E-002    6.755670738053417E-015
  1.370000000000000E-002    1.418047136601577E-015
  1.380000000000000E-002   -4.842098201153920E-015
  1.390000000000000E-002   -1.115037304963955E-014
  1.400000000000000E-002   -1.651090934188555E-014
  1.410000000000000E-002   -1.994966715191049E-014
  1.420000000000000E-002   -2.067283170460414E-014
  1.430000000000000E-002   -1.821681677023904E-014
  1.440000000000000E-002   -1.256467806567447E-014
  1.450000000000000E-002   -4.205961078802799E-015
  1.460000000000000E-002    5.876897649224092E-015
  1.470000000000000E-002    1.630277628690914E-014
  1.480000000000000E-002    2.546179800128328E-014
  1.490000000000000E-002    3.174330893692053E-014
  1.500000000000000E-002    3.379264056977886E-014
  1.510000000000000E-002    3.075904260608161E-014
  1.520000000000000E-002    2.249399892308640E-014
  1.530000000000000E-002    9.661869584069160E-015
  1.540000000000000E-002   -6.265677474771160E-015
  1.550000000000000E-002   -2.314494442706436E-014
  1.560000000000000E-002   -3.841944502285170E-014
  1.570000000000000E-002   -4.947675084920322E-014
  1.580000000000000E-002   -5.405770610258497E-014
  1.590000000000000E-002   -5.065881666383504E-014
  1.600000000000000E-002   -3.886260239445382E-014
  1.610000000000000E-002   -1.953430142424168E-014
  1.620000000000000E-002    5.162571675217680E-015
  1.630000000000000E-002    3.195594508168278E-014
  1.640000000000000E-002    5.685426489052462E-014
  1.650000000000000E-002    7.569637556491973E-014
  1.660000000000000E-002    8.479325133520201E-014
  1.670000000000000E-002    8.156981866333861E-014
  1.680000000000000E-002    6.510427285299916E-014
  1.690000000000000E-002    3.646684433045483E-014
  1.700000000000000E-002   -1.219453741522531E-015
  1.710000000000000E-002   -4.303794720169643E-014
  1.720000000000000E-002   -8.285281968395780E-014
  1.730000000000000E-002   -1.141434795074501E-013
  1.740000000000000E-002   -1.309955217631544E-013
  1.750000000000000E-002   -1.291079706879088E-013
  1.760000000000000E-002   -1.066581133413734E-013
  1.770000000000000E-002   -6.487009780849879E-014
  1.780000000000000E-002   -8.163333956917106E-015
  1.790000000000000E-002    5.618993165919454E-014
  1.800000000000000E-002    1.188981883777359E-013
  1.810000000000000E-002    1.698971676619990E-013
  1.820000000000000E-002    1.998568069965176E-013
  1.830000000000000E-002    2.017376653596877E-013
  1.840000000000000E-002    1.721549496702252E-013
  1.850000000000000E-002    1.123125247020479E-013
  1.860000000000000E-002    2.831176962503438E-014
  1.870000000000000E-002   -6.928127074866902E-014