 -4.000000000000000E-002    0.000000000000000E+000
 -3.990000000000000E-002    0.000000000000000E+000
 -3.980000000000000E-002    0.000000000000000E+000
 -3.970000000000000E-002    0.000000000000000E+000
 -3.960000000000000E-002    0.000000000000000E+000
 -3.950000000000000E-002    0.000000000000000E+000
 -3.940000000000000E-002    0.000000000000000E+000
 -3.930000000000000E-002    0.000000000000000E+000
 -3.920000000000000E-002    0.000000000000000E+000
 -3.910000000000000E-002    0.000000000000000E+000
 -3.900000000000000E-002    0.000000000000000E+000
 -3.890000000000000E-002    0.000000000000000E+000
 -3.880000000000000E-002    0.000000000000000E+000
 -3.870000000000000E-002    0.000000000000000E+000
 -3.860000000000000E-002    2.139895146055100E-043
 -3.850000000000000E-002    5.342173147688679E-042
 -3.840000000000000E-002    6.742506852486216E-041
 -3.830000000000000E-002    5.705753253935768E-040
 -3.820000000000000E-002    3.614698092928681E-039
 -3.810000000000000E-002    1.808482892609648E-038
 -3.800000000000000E-002    7.309504576912319E-038
 -3.790000000000000E-002    2.370799027199434E-037
 -3.780000000000000E-002    5.780539706920633E-037
 -3.770000000000000E-002    7.423401820737837E-037
 -3.760000000000000E-002   -1.977321386326253E-036
 -3.750000000000000E-002   -1.924421581874488E-035
 -3.740000000000000E-002   -9.026921766940221E-035
 -3.730000000000000E-002   -3.262146022001786E-034
 -3.720000000000000E-002   -9.997523804914377E-034
 -3.710000000000000E-002   -2.690295364503501E-033
 -3.700000000000000E-002   -6.437641256077037E-033
 -3.690000000000000E-002   -1.367967314183854E-032
 -3.680000000000000E-002   -2.533953809696007E-032
 -3.670000000000000E-002   -3.864839372172995E-032
 -3.660000000000000E-002   -3.908146543349990E-032
 -3.650000000000000E-002    1.660917404959696E-032
 -3.640000000000000E-002    2.308890980530732E-031
 -3.630000000000000E-002    8.115976420556034E-031
 -3.620000000000000E-002    2.126085165670212E-030
 -3.610000000000000E-002    4.732131601295901E-030
 -3.600000000000000E-002    9.310141350888954E-030
 -3.590000000000000E-002    1.635188003751851E-029
 -3.580000000000000E-002    2.537409964397496E-029
 -3.570000000000000E-002    3.335262396067906E-029
 -3.560000000000000E-002    3.208544252116766E-029
 -3.550000000000000E-002    4.421619008494345E-030
 -3.540000000000000E-002   -8.008166963183519E-029
 -3.530000000000000E-002   -2.682777831974173E-028
 -3.520000000000000E-002   -6.215470737493088E-028
 -3.510000000000000E-002   -1.202480888284689E-027
 -3.500000000000000E-002   -2.040965404354702E-027
 -3.490000000000000E-002   -3.068983844793941E-027
 -3.480000000000000E-002   -4.015558651204849E-027
 -3.470000000000000E-002   -4.262375197728771E-027
 -3.460000000000000E-002   -2.680640800379701E-027
 -3.450000000000000E-002    2.495928159148871E-027
 -3.440000000000000E-002    1.365854128317115E-026
 -3.430000000000000E-002    3.351066578477347E-026
 -3.420000000000000E-002    6.424580280119426E-026
 -3.410000000000000E-002    1.059949049234589E-025
 -3.400000000000000E-002    1.543933199045544E-025
 -3.390000000000000E-002    1.973218885766257E-025
 -3.380000000000000E-002    2.112675618272079E-025
 -3.370000000000000E-002    1.583453022465303E-025
 -3.360000000000000E-002   -1.420847747936916E-026
 -3.350000000000000E-002   -3.694615092356947E-025
 -3.340000000000000E-002   -9.679623585103870E-025
 -3.330000000000000E-002   -1.843596973850386E-024
 -3.320000000000000E-002   -2.966357289150899E-024
 -3.310000000000000E-002   -4.193298780880365E-024
 -3.300000000000000E-002   -5.214167129154190E-024
 -3.290000000000000E-002   -5.505454712216475E-024
 -3.280000000000000E-002   -4.315242474007677E-024
 -3.270000000000000E-002   -7.091623475978006E-025
 -3.260000000000000E-002    6.287854656278258E-024
 -3.250000000000000E-002    1.742301593622680E-023
 -3.240000000000000E-002    3.280550535687275E-023
 -3.230000000000000E-002    5.137299989059464E-023
 -3.220000000000000E-002    7.030465482859608E-023
 -3.210000000000000E-002    8.451731260805666E-023
 -3.200000000000000E-002    8.645468431900126E-023
 -3.190000000000000E-002    6.643906559376476E-023
 -3.180000000000000E-002    1.387690951649827E-023
 -3.170000000000000E-002   -8.044157312274959E-023
 -3.160000000000000E-002   -2.208615753694172E-022
 -3.150000000000000E-002   -4.023945491603481E-022
 -3.140000000000000E-002   -6.058567459021869E-022
 -3.130000000000000E-002   -7.937021424014933E-022
 -3.120000000000000E-002   -9.081277561645349E-022
 -3.110000000000000E-002   -8.733834922540602E-022
 -3.100000000000000E-002   -6.042561678352249E-022
 -3.090000000000000E-002   -2.221513020416476E-023
 -3.080000000000000E-002    9.204611981250812E-022
 -3.070000000000000E-002    2.210190913109808E-021
 -3.060000000000000E-002    3.739459648257003E-021
 -3.050000000000000E-002    5.279265981753827E-021
 -3.040000000000000E-002    6.466607067464603E-021
 -3.030000000000000E-002    6.818623472305914E-021
 -3.020000000000000E-002    5.784615938361712E-021
 -3.010000000000000E-002    2.843572443172934E-021
 -3.000000000000000E-002   -2.352557715207497E-021
 -2.990000000000000E-002   -9.800953871085783E-021
 -2.980000000000000E-002   -1.896104064308666E-020
 -2.970000000000000E-002   -2.859977491655123E-020
 -2.960000000000000E-002   -3.672349539067816E-020
 -2.950000000000000E-002   -4.065718839345527E-020
 -2.940000000000000E-002   -3.732670814845975E-020
 -2.930000000000000E-002   -2.377807105820536E-020
 -2.920000000000000E-002    2.072187059349306E-021
 -2.910000000000000E-002    4.051952099010133E-020
 -2.900000000000000E-002    8.912105994882308E-020
 -2.890000000000000E-002    1.419179434267022E-019
 -2.880000000000000E-002    1.890923562536182E-019
 -2.870000000000000E-002    2.173413820993778E-019
 -2.860000000000000E-002    2.112148731338245E-019
 -2.850000000000000E-002    1.555550740320137E-019
 -2.840000000000000E-002    3.898776826318384E-020
 -2.830000000000000E-002   -1.418455447945095E-019
 -2.820000000000000E-002   -3.779263091588757E-019
 -2.810000000000000E-002   -6.442740237939837E-019
 -2.800000000000000E-002   -8.982579368681841E-019
 -2.790000000000000E-002   -1.080979996687966E-018
 -2.780000000000000E-002   -1.122724353409920E-018
 -2.770000000000000E-002   -9.529899838630433E-019
 -2.760000000000000E-002   -5.148504335410204E-019
 -2.750000000000000E-002    2.176547573399128E-019
 -2.740000000000000E-002    1.221546328246799E-018
 -2.730000000000000E-002    2.409881970741084E-018
 -2.720000000000000E-002    3.623962836842888E-018
 -2.710000000000000E-002    4.637158883615356E-018
 -2.700000000000000E-002    5.173975271614031E-018
 -2.690000000000000E-002    4.946157730836607E-018
 -2.680000000000000E-002    3.704779172804157E-018
 -2.670000000000000E-002    1.303568066238947E-018
 -2.660000000000000E-002   -2.235256066043074E-018
 -2.650000000000000E-002   -6.664979723253156E-018
 -2.640000000000000E-002   -1.148289033313993E-017
 -2.630000000000000E-002   -1.593801314237372E-017
 -2.620000000000000E-002   -1.908998171357860E-017
 -2.610000000000000E-002   -1.992463134694440E-017
 -2.600000000000000E-002   -1.752241908526027E-017
 -2.590000000000000E-002   -1.126390520700450E-017
 -2.580000000000000E-002   -1.044016756392911E-018
 -2.570000000000000E-002    1.254405516357147E-017
 -2.560000000000000E-002    2.810092631486996E-017
 -2.550000000000000E-002    4.343405358998344E-017
 -2.540000000000000E-002    5.572685422658230E-017
 -2.530000000000000E-002    6.187920559697414E-017
 -2.520000000000000E-002    5.900548501581857E-017
 -2.510000000000000E-002    4.504125719186171E-017
 -2.500000000000000E-002    1.937364287802103E-017
 -2.490000000000000E-002   -1.661955037912395E-017
 -2.480000000000000E-002   -5.925313693395583E-017
 -2.470000000000000E-002   -1.025666274006300E-016
 -2.460000000000000E-002   -1.388000560404576E-016
 -2.450000000000000E-002   -1.593502911108387E-016
 -2.440000000000000E-002   -1.561610932522052E-016
 -2.430000000000000E-002   -1.234034363561154E-016
 -2.420000000000000E-002   -5.920554017577757E-017
 -2.410000000000000E-002    3.288510922586763E-017
 -2.400000000000000E-002    1.430626636212348E-016
 -2.390000000000000E-002    2.553805230076908E-016
 -2.380000000000000E-002    3.490675691895447E-016
 -2.370000000000000E-002    4.011229314596475E-016
 -2.360000000000000E-002    3.900462813754081E-016
 -2.350000000000000E-002    3.003060794278851E-016
 -2.340000000000000E-002    1.269029325824825E-016
 -2.330000000000000E-002   -1.208060798171647E-016
 -2.320000000000000E-002   -4.169356599330841E-016
 -2.310000000000000E-002   -7.193974052226705E-016
 -2.300000000000000E-002   -9.733186541043317E-016
 -2.290000000000000E-002   -1.117728911599499E-015
 -2.280000000000000E-002   -1.095127152343915E-015
 -2.270000000000000E-002   -8.629105206009359E-016
 -2.260000000000000E-002   -4.050449122821415E-016
 -2.250000000000000E-002    2.580888005839420E-016
 -2.240000000000000E-002    1.063920068538422E-015
 -2.230000000000000E-002    1.908040614664309E-015
 -2.220000000000000E-002    2.652126982573500E-015
 -2.210000000000000E-002    3.139858583597263E-015
 -2.200000000000000E-002    3.219915497368907E-015
 -2.190000000000000E-002    2.773660648263044E-015
 -2.180000000000000E-002    1.743711511947760E-015
 -2.170000000000000E-002    1.585748451922459E-016
 -2.160000000000000E-002   -1.851893439180286E-015
 -2.150000000000000E-002   -4.054999800975620E-015
 -2.140000000000000E-002   -6.131116773949057E-015
 -2.130000000000000E-002   -7.708100255869165E-015
 -2.120000000000000E-002   -8.412370592483430E-015
 -2.110000000000000E-002   -7.931493226516491E-015
 -2.100000000000000E-002   -6.080000660061099E-015
 -2.090000000000000E-002   -2.857888378933385E-015
 -2.080000000000000E-002    1.509741515752406E-015
 -2.070000000000000E-002    6.562564324333653E-015
 -2.060000000000000E-002    1.163226123891334E-014
 -2.050000000000000E-002    1.591011731780816E-014
 -2.040000000000000E-002    1.855176181405172E-014
 -2.030000000000000E-002    1.880885063150882E-014
 -2.020000000000000E-002    1.617096232430556E-014
 -2.010000000000000E-002    1.049597063090768E-014
 -2.000000000000000E-002    2.104890293710693E-015
 -1.990000000000000E-002   -8.181395485274803E-015
 -1.980000000000000E-002   -1.908070027836383E-014
 -1.970000000000000E-002   -2.897115670176711E-014
 -1.960000000000000E-002   -3.609132773750384E-014
 -1.950000000000000E-002   -3.880025859793067E-014
 -1.940000000000000E-002   -3.586568740234228E-014
 -1.930000000000000E-002   -2.673814859521951E-014
 -1.920000000000000E-002   -1.176349198554558E-014
 -1.910000000000000E-002    7.712034583705385E-015
 -1.900000000000000E-002    2.938036862272548E-014
 -1.890000000000000E-002    5.017291888757241E-014
 -1.880000000000000E-002    6.662042109940341E-014
 -1.870000000000000E-002    7.534036233714848E-014
 -1.860000000000000E-002    7.359523665641232E-014
 -1.850000000000000E-002    5.984335329836447E-014
 -1.840000000000000E-002    3.419212052447086E-014
 -1.830000000000000E-002   -1.335837945077089E-015
 -1.820000000000000E-002   -4.279816358978120E-014
 -1.810000000000000E-002   -8.463451024889592E-014
 -1.800000000000000E-002   -1.202775574973369E-013
 -1.790000000000000E-002   -1.430271050756871E-013
 -1.780000000000000E-002   -1.470914406649461E-013
 -1.770000000000000E-002   -1.286578769564317E-013
 -1.760000000000000E-002   -8.682704689067270E-014
 -1.750000000000000E-002   -2.424057075619160E-014
 -1.740000000000000E-002    5.274743062333018E-014
 -1.730000000000000E-002    1.344564191059779E-013
 -1.720000000000000E-002    2.088527503217244E-013
 -1.710000000000000E-002    2.630522679415805E-013
 -1.700000000000000E-002    2.852014657588745E-013
 -1.690000000000000E-002    2.665031329143105E-013
 -1.680000000000000E-002    2.030931138608507E-013
 -1.670000000000000E-002    9.745028266203599E-014
 -1.660000000000000E-002   -4.095475954004491E-014
 -1.650000000000000E-002   -1.959951781534013E-013
 -1.640000000000000E-002   -3.463125252863126E-013
 -1.630000000000000E-002   -4.677828860708883E-013
 -1.620000000000000E-002   -5.368085800400244E-013
 -1.610000000000000E-002   -5.340555713796397E-013
 -1.600000000000000E-002   -4.481303386552070E-013
 -1.590000000000000E-002   -2.786183805783167E-013
 -1.580000000000000E-002   -3.791401927797161E-014
 -1.570000000000000E-002    2.486313160065808E-013
 -1.560000000000000E-002    5.445307979954581E-013
 -1.550000000000000E-002    8.059837637842911E-013
 -1.540000000000000E-002    9.874244755719348E-013
 -1.530000000000000E-002    1.048216043708216E-012
 -1.520000000000000E-002    9.596426552552770E-013
 -1.510000000000000E-002    7.111716175007187E-013
 -1.500000000000000E-002    3.149125119545680E-013
 -1.490000000000000E-002   -1.926916515585265E-013
 -1.480000000000000E-002   -7.526299237533392E-013
 -1.470000000000000E-002   -1.288810022557823E-012
 -1.460000000000000E-002   -1.716996811016658E-012
 -1.450000000000000E-002   -1.956365746655641E-012
 -1.440000000000000E-002   -1.942297409237323E-012
 -1.430000000000000E-002   -1.638639008665799E-012
 -1.420000000000000E-002   -1.047472326986972E-012
 -1.410000000000000E-002   -2.145062277283107E-013
 -1.400000000000000E-002    7.713916733682081E-013
 -1.390000000000000E-002    1.785335719766713E-012
 -1.380000000000000E-002    2.680132563455590E-012
 -1.370000000000000E-002    3.305427679313901E-012
 -1.360000000000000E-002    3.530140112554611E-012
 -1.350000000000000E-002    3.265207704901641E-012
 -1.340000000000000E-002    2.483173031419044E-012
 -1.330000000000000E-002    1.231111639632060E-012
 -1.320000000000000E-002   -3.660639023684493E-013
 -1.310000000000000E-002   -2.113837054703014E-012
 -1.300000000000000E-002   -3.768239264426061E-012
 -1.290000000000000E-002   -5.066500871821513E-012
 -1.280000000000000E-002   -5.764922086417703E-012
 -1.270000000000000E-002   -5.679088566665161E-012
 -1.260000000000000E-002   -4.720481324034345E-012
 -1.250000000000000E-002   -2.923244756149601E-012
 -1.240000000000000E-002   -4.555449556579686E-013
 -1.230000000000000E-002    2.388417874801314E-012
 -1.220000000000000E-002    5.217177450102492E-012
 -1.210000000000000E-002    7.589905198433494E-012
 -1.200000000000000E-002    9.078559206577703E-012
 -1.190000000000000E-002    9.336441749715567E-012
 -1.180000000000000E-002    8.163242441023824E-012
 -1.170000000000000E-002    5.555847284304750E-012
 -1.160000000000000E-002    1.734961439786124E-012
 -1.150000000000000E-002   -2.859892061625991E-012
 -1.140000000000000E-002   -7.610436953271209E-012
 -1.130000000000000E-002   -1.179310646166368E-011
 -1.120000000000000E-002   -1.467870418138257E-011
 -1.110000000000000E-002   -1.564596909806139E-011
 -1.100000000000000E-002   -1.429289856333722E-011
 -1.090000000000000E-002   -1.052795714919852E-011
 -1.080000000000000E-002   -4.624166628644134E-012
 -1.070000000000000E-002    2.777219278310827E-012
 -1.060000000000000E-002    1.072043103872654E-011
 -1.050000000000000E-002    1.804506040744845E-011
 -1.040000000000000E-002    2.354175502992166E-011
 -1.030000000000000E-002    2.613486711782795E-011
 -1.020000000000000E-002    2.506653502028701E-011
 -1.010000000000000E-002    2.005334428177564E-011
 -1.000000000000000E-002    1.138756044104764E-011
 -9.899999999999999E-003   -3.969300316045953E-014
 -9.800000000000000E-003   -1.280625909996033E-011
 -9.699999999999999E-003   -2.511780612438853E-011
 -9.599999999999999E-003   -3.504339138219137E-011
 -9.500000000000000E-003   -4.079949534192049E-011
 -9.399999999999999E-003   -4.104352014426869E-011
 -9.299999999999999E-003   -3.513153462438990E-011
 -9.200000000000000E-003   -2.329589216510232E-011
 -9.099999999999999E-003   -6.705735184931297E-012
 -8.999999999999999E-003    1.261197192308111E-011
 -8.900000000000000E-003    3.199384277760516E-011
 -8.799999999999999E-003    4.848455820561445E-011
 -8.699999999999999E-003    5.926374522322958E-011
 -8.600000000000000E-003    6.209701857364914E-011
 -8.499999999999999E-003    5.574313505751590E-011
 -8.399999999999999E-003    4.024885950046393E-011
 -8.300000000000000E-003    1.707376550541663E-011
 -8.199999999999999E-003   -1.099200219215402E-011
 -8.100000000000000E-003   -4.012524567709853E-011
 -8.000000000000000E-003   -6.595766790149714E-011
 -7.899999999999999E-003   -8.419708256334584E-011
 -7.800000000000000E-003   -9.129808515146257E-011
 -7.699999999999999E-003   -8.508242647077935E-011
 -7.599999999999999E-003   -6.520744109554049E-011
 -7.499999999999999E-003   -3.339510482575670E-011
 -7.399999999999999E-003    6.636930496222490E-012
 -7.299999999999999E-003    4.955951165215419E-011
 -7.199999999999999E-003    8.910115737497534E-011
 -7.100000000000000E-003    1.189246458691033E-010
 -6.999999999999999E-003    1.335938682759573E-010
 -6.899999999999999E-003    1.294892678323493E-010
 -6.800000000000000E-003    1.055253763395928E-010
 -6.699999999999999E-003    6.354170433696087E-011
 -6.599999999999999E-003    8.277903073793723E-012
 -6.499999999999999E-003   -5.309914033594473E-011
 -6.399999999999999E-003   -1.118817835917901E-010
 -6.299999999999999E-003   -1.590201091277914E-010
 -6.199999999999999E-003   -1.864735944208989E-010
 -6.100000000000000E-003   -1.885206419682148E-010
 -5.999999999999999E-003   -1.628203347368691E-010
 -5.899999999999999E-003   -1.110428564832141E-010
 -5.800000000000000E-003   -3.893644521384791E-011
 -5.699999999999999E-003    4.422474180930412E-011
 -5.599999999999999E-003    1.267762848637561E-010
 -5.499999999999999E-003    1.962541243016677E-010
 -5.399999999999999E-003    2.412316431407744E-010
 -5.299999999999999E-003    2.531402963826514E-010
 -5.199999999999999E-003    2.277930781049999E-010
 -5.099999999999999E-003    1.663545937584409E-010
 -4.999999999999999E-003    7.556676586819442E-011
 -4.899999999999999E-003   -3.286030910858050E-011
 -4.799999999999999E-003   -1.436621603249414E-010
 -4.699999999999999E-003   -2.400819074515176E-010
 -4.599999999999999E-003   -3.063136173232612E-010
 -4.499999999999999E-003   -3.299816050663651E-010
 -4.399999999999999E-003   -3.042809257531986E-010
 -4.299999999999999E-003   -2.294270945970209E-010
 -4.199999999999999E-003   -1.131447583132513E-010
 -4.099999999999999E-003    2.994848110428587E-011
 -3.999999999999999E-003    1.800490306741792E-010
 -3.899999999999999E-003    3.147840180967925E-010
 -3.799999999999999E-003    4.124056156672425E-010
 -3.699999999999999E-003    4.551207074690115E-010
 -3.599999999999999E-003    4.320627958095327E-010
 -3.499999999999999E-003    3.414320312634196E-010
 -3.399999999999999E-003    1.914243508731071E-010
 -3.299999999999999E-003   -2.736248400744593E-013
 -3.199999999999999E-003   -2.084457192067377E-010
 -3.099999999999999E-003   -4.035678300214494E-010
 -2.999999999999999E-003   -5.558923097461964E-010
 -2.899999999999999E-003   -6.398421886013867E-010
 -2.799999999999999E-003   -6.380798001769599E-010
 -2.699999999999999E-003   -5.446225845153667E-010
 -2.599999999999999E-003   -3.664808307805806E-010
 -2.499999999999999E-003   -1.234799482994666E-010
 -2.399999999999999E-003    1.538212525607599E-010
 -2.299999999999999E-003    4.279261511050851E-010
 -2.199999999999999E-003    6.594536949155329E-010
 -2.099999999999999E-003    8.127781716123610E-010
 -1.999999999999999E-003    8.614571045139287E-010
 -1.899999999999999E-003    7.926318906585701E-010
 -1.799999999999999E-003    6.096906362686010E-010
 -1.699999999999999E-003    3.326979692127121E-010
 -1.599999999999999E-003   -3.601537571205663E-012
 -1.499999999999999E-003   -3.540507405034597E-010
 -1.399999999999999E-003   -6.691174358713273E-010
 -1.299999999999999E-003   -9.019107222836140E-010
 -1.199999999999999E-003   -1.015194326217881E-009
 -1.099999999999999E-003   -9.873607565469999E-010
 -9.999999999999989E-004   -8.164242760120622E-010
 -8.999999999999990E-004   -5.213323451396211E-010
 -7.999999999999990E-004   -1.402530233816646E-010
 -6.999999999999989E-004    2.740750616262371E-010
 -5.999999999999990E-004    6.614035144005636E-010
 -4.999999999999989E-004    9.625322669087452E-010
 -3.999999999999989E-004    1.128177072328615E-009
 -2.999999999999989E-004    1.126850055026123E-009
 -1.999999999999989E-004    9.505257040878297E-010
 -9.999999999999892E-005    6.171301319147276E-010
  1.084202172485504E-018    1.693056739780615E-010
  1.000000000000011E-004   -3.305740197445586E-010
  2.000000000000011E-004   -8.086087177634845E-010
  3.000000000000011E-004   -1.189759568189473E-009
  4.000000000000011E-004   -1.409002013917377E-009
  5.000000000000011E-004   -1.421634082241141E-009
  6.000000000000011E-004   -1.211164407361455E-009
  7.000000000000011E-004   -7.934763475662656E-010
  8.000000000000011E-004   -2.164429134898116E-010
  9.000000000000012E-004    4.452056998066305E-010
  1.000000000000001E-003    1.099270726953944E-009
  1.100000000000001E-003    1.648580832891274E-009
  1.200000000000001E-003    2.004929854936878E-009
  1.300000000000001E-003    2.102483530402244E-009
  1.400000000000001E-003    1.908659770745327E-009
  1.500000000000001E-003    1.430751799466571E-009
  1.600000000000001E-003    7.170980554091083E-010
  1.700000000000001E-003   -1.476535816457682E-010
  1.800000000000001E-003   -1.052797854916871E-009
  1.900000000000001E-003   -1.876115983635493E-009
  2.000000000000001E-003   -2.500798330308715E-009
  2.100000000000001E-003   -2.832383762481794E-009
  2.200000000000001E-003   -2.813238250664265E-009
  2.300000000000001E-003   -2.432335273932686E-009
  2.400000000000001E-003   -1.728686562498299E-009
  2.500000000000001E-003   -7.876272150770197E-010
  2.600000000000001E-003    2.698247574499489E-010
  2.700000000000001E-003    1.303281067959793E-009
  2.800000000000001E-003    2.172817844399089E-009
  2.900000000000001E-003    2.759565383283636E-009
  3.000000000000001E-003    2.984035448070534E-009
  3.100000000000001E-003    2.819378173208245E-009
  3.200000000000001E-003    2.297364647753532E-009
  3.300000000000001E-003    1.505874494175729E-009
  3.400000000000001E-003    5.778650193382464E-010
  3.500000000000001E-003   -3.269434086378116E-010
  3.600000000000001E-003   -1.045295830880067E-009
  3.700000000000001E-003   -1.435341913055607E-009
  3.800000000000001E-003   -1.399679745294769E-009
  3.900000000000001E-003   -9.030123639505446E-010
  4.000000000000001E-003    1.843926946013400E-011
  4.100000000000001E-003    1.257553016605283E-009
  4.200000000000001E-003    2.647337715851337E-009
  4.300000000000001E-003    3.981274277985775E-009
  4.400000000000001E-003    5.040455469018652E-009
  4.500000000000001E-003    5.623919304370193E-009
  4.600000000000002E-003    5.577976823759088E-009
  4.700000000000001E-003    4.820320986488264E-009
  4.800000000000001E-003    3.355310132343004E-009
  4.900000000000002E-003    1.277984144887506E-009
  5.000000000000001E-003   -1.234071300939565E-009
  5.100000000000001E-003   -3.940141006910490E-009
  5.200000000000001E-003   -6.564525592693101E-009
  5.300000000000002E-003   -8.829495879292420E-009
  5.400000000000001E-003   -1.048828533549659E-008
  5.500000000000001E-003   -1.135319324508412E-008
  5.600000000000002E-003   -1.131440447228669E-008
  5.700000000000001E-003   -1.034636134472869E-008
  5.800000000000001E-003   -8.500234252246227E-009
  5.900000000000002E-003   -5.883045490148320E-009
  6.000000000000001E-003   -2.625976785681166E-009
  6.100000000000001E-003    1.153921645433916E-009
  6.200000000000002E-003    5.393273872484979E-009
  6.300000000000002E-003    1.011747221086489E-008
  6.400000000000001E-003    1.546604512522556E-008
  6.500000000000001E-003    2.170426817991952E-008
  6.600000000000002E-003    2.921885892092488E-008
  6.700000000000001E-003    3.849782709866235E-008
  6.800000000000001E-003    5.009689060773015E-008
  6.900000000000002E-003    6.459685830285533E-008
  7.000000000000001E-003    8.255788244162518E-008
  7.100000000000001E-003    1.044770934204652E-007
  7.200000000000002E-003    1.307558807189550E-007
  7.300000000000002E-003    1.616818709566085E-007
  7.400000000000001E-003    1.974287299397303E-007
  7.500000000000001E-003    2.380742200812499E-007
  7.600000000000002E-003    2.836347585832702E-007
  7.700000000000001E-003    3.341117910474837E-007
  7.800000000000001E-003    3.895438528444405E-007
  7.900000000000001E-003    4.500567823942582E-007
  8.000000000000002E-003    5.159051169766780E-007
  8.100000000000001E-003    5.874984693872215E-007
  8.200000000000001E-003    6.654083560944397E-007
  8.300000000000002E-003    7.503547352990826E-007
  8.400000000000001E-003    8.431727103537066E-007
  8.500000000000002E-003    9.447648724531155E-007
  8.600000000000002E-003    1.056045210368569E-006
  8.700000000000001E-003    1.177882253601010E-006
  8.800000000000002E-003    1.311050832599533E-006
  8.900000000000002E-003    1.456198575773630E-006
  9.000000000000001E-003    1.613833858712839E-006
  9.100000000000002E-003    1.784336622385917E-006
  9.200000000000002E-003    1.967991765545628E-006
  9.300000000000001E-003    2.165042414922974E-006
  9.400000000000002E-003    2.375753608619321E-006
  9.500000000000001E-003    2.600481037281325E-006
  9.600000000000001E-003    2.839732990142966E-006
  9.700000000000002E-003    3.094218624524062E-006
  9.800000000000001E-003    3.364874070015086E-006
  9.900000000000001E-003    3.652865546635857E-006
  1.000000000000000E-002    3.959563994853248E-006
  1.010000000000000E-002    4.286500584851825E-006
  1.020000000000000E-002    4.635303903333558E-006
  1.030000000000000E-002    5.007633340566179E-006
  1.040000000000000E-002    5.405113045565312E-006
  1.050000000000000E-002    5.829280507272138E-006
  1.060000000000000E-002    6.281557045312261E-006
  1.070000000000000E-002    6.763243880531504E-006
  1.080000000000000E-002    7.275548072422756E-006
  1.090000000000000E-002    7.819631819203914E-006
  1.100000000000000E-002    8.396684994291229E-006
  1.110000000000000E-002    9.008002813114798E-006
  1.120000000000000E-002    9.655071846039572E-006
  1.130000000000000E-002    1.033963624578794E-005
  1.140000000000000E-002    1.106374840587448E-005
  1.150000000000000E-002    1.182978937364332E-005
  1.160000000000000E-002    1.264046354314084E-005
  1.170000000000000E-002    1.349875760760067E-005
  1.180000000000000E-002    1.440788083918858E-005
  1.190000000000000E-002    1.537119291813777E-005
  1.200000000000000E-002    1.639212514126534E-005
  1.210000000000000E-002    1.747410918716198E-005
  1.220000000000000E-002    1.862053229817526E-005
  1.230000000000000E-002    1.983471673458539E-005
  1.240000000000000E-002    2.111993083708149E-005
  1.250000000000000E-002    2.247943475767691E-005
  1.260000000000000E-002    2.391655146921364E-005
  1.270000000000000E-002    2.543475841354544E-005
  1.280000000000000E-002    2.703778465511009E-005
  1.290000000000000E-002    2.872970727953523E-005
  1.300000000000000E-002    3.051501848439068E-005
  1.310000000000000E-002    3.239868403194905E-005
  1.320000000000000E-002    3.438614490288372E-005
  1.330000000000000E-002    3.648331316588536E-005
  1.340000000000000E-002    3.869651488704454E-005
  1.350000000000000E-002    4.103241888396076E-005
  1.360000000000000E-002    4.349796732367383E-005
  1.370000000000000E-002    4.610029105634667E-005
  1.380000000000000E-002    4.884665220224300E-005
  1.390000000000000E-002    5.174441524262762E-005
  1.400000000000000E-002    5.480104241985220E-005
  1.410000000000000E-002    5.802414182094486E-005
  1.420000000000000E-002    6.142152382955976E-005
  1.430000000000000E-002    6.500130774096300E-005
  1.440000000000000E-002    6.877202978902820E-005
  1.450000000000000E-002    7.274273962444494E-005
  1.460000000000000E-002    7.692311811696416E-005
  1.470000000000000E-002    8.132352053314851E-005
  1.480000000000000E-002    8.595503521818071E-005
  1.490000000000000E-002    9.082946167382999E-005
  1.500000000000000E-002    9.595929971706956E-005
  1.510000000000000E-002    1.013576629146968E-004
  1.520000000000000E-002    1.070382100599360E-004
  1.530000000000000E-002    1.130150549894397E-004
  1.540000000000000E-002    1.193027338266435E-004
  1.550000000000000E-002    1.259161015175673E-004
  1.560000000000000E-002    1.328703859761811E-004
  1.570000000000000E-002    1.401811780216289E-004
  1.580000000000000E-002    1.478645211102106E-004
  1.590000000000000E-002    1.559370201570465E-004
  1.600000000000000E-002    1.644159522125787E-004
  1.610000000000000E-002    1.733194184075733E-004
  1.620000000000000E-002    1.826664380584119E-004
  1.630000000000000E-002    1.924770883361703E-004
  1.640000000000000E-002    2.027725438454501E-004
  1.650000000000000E-002    2.135751147572808E-004
  1.660000000000000E-002    2.249082080518308E-004
  1.670000000000000E-002    2.367963592577068E-004
  1.680000000000000E-002    2.492650850853158E-004
  1.690000000000000E-002    2.623408113496789E-004
  1.700000000000000E-002    2.760508392188290E-004
  1.710000000000000E-002    2.904232541861548E-004
  1.720000000000000E-002    3.054869135851989E-004
  1.730000000000000E-002    3.212714515093171E-004
  1.740000000000000E-002    3.378073456713939E-004
  1.750000000000000E-002    3.551260562308880E-004
  1.760000000000000E-002    3.732601102883997E-004
  1.770000000000000E-002    3.922432317605288E-004
  1.780000000000000E-002    4.121105479457281E-004
  1.790000000000000E-002    4.328986703346194E-004
  1.800000000000000E-002    4.546458690264303E-004
  1.810000000000000E-002    4.773920283380175E-004
  1.820000000000000E-002    5.011788294420383E-004
  1.830000000000000E-002    5.260495037034894E-004
  1.840000000000000E-002    5.520490337657100E-004
  1.850000000000000E-002    5.792238912355718E-004
  1.860000000000000E-002    6.076220611944179E-004
  1.870000000000000E-002    6.372929835066299E-004