 -4.000000000000000E-002    0.000000000000000E+000
 -3.990000000000000E-002    0.000000000000000E+000
 -3.980000000000000E-002    0.000000000000000E+000
 -3.970000000000000E-002    0.000000000000000E+000
 -3.960000000000000E-002    0.000000000000000E+000
 -3.950000000000000E-002    0.000000000000000E+000
 -3.940000000000000E-002    0.000000000000000E+000
 -3.930000000000000E-002    0.000000000000000E+000
 -3.920000000000000E-002    0.000000000000000E+000
 -3.910000000000000E-002    0.000000000000000E+000
 -3.900000000000000E-002    0.000000000000000E+000
 -3.890000000000000E-002    0.000000000000000E+000
 -3.880000000000000E-002    0.000000000000000E+000
 -3.870000000000000E-002    0.000000000000000E+000
 -3.860000000000000E-002    0.000000000000000E+000
 -3.850000000000000E-002    0.000000000000000E+000
 -3.840000000000000E-002    0.000000000000000E+000
 -3.830000000000000E-002    0.000000000000000E+000
 -3.820000000000000E-002    0.000000000000000E+000
 -3.810000000000000E-002    0.000000000000000E+000
 -3.800000000000000E-002    0.000000000000000E+000
 -3.790000000000000E-002    0.000000000000000E+000
 -3.780000000000000E-002    0.000000000000000E+000
 -3.770000000000000E-002    0.000000000000000E+000
 -3.760000000000000E-002    0.000000000000000E+000
 -3.750000000000000E-002    0.000000000000000E+000
 -3.740000000000000E-002    0.000000000000000E+000
 -3.730000000000000E-002    0.000000000000000E+000
 -3.720000000000000E-002    0.000000000000000E+000
 -3.710000000000000E-002    0.000000000000000E+000
 -3.700000000000000E-002    0.000000000000000E+000
 -3.690000000000000E-002    0.000000000000000E+000
 -3.680000000000000E-002    0.000000000000000E+000
 -3.670000000000000E-002    0.000000000000000E+000
 -3.660000000000000E-002    0.000000000000000E+000
 -3.650000000000000E-002    0.000000000000000E+000
 -3.640000000000000E-002    0.000000000000000E+000
 -3.630000000000000E-002    0.000000000000000E+000
 -3.620000000000000E-002    0.000000000000000E+000
 -3.610000000000000E-002    0.000000000000000E+000
 -3.600000000000000E-002    0.000000000000000E+000
 -3.590000000000000E-002    0.000000000000000E+000
 -3.580000000000000E-002    0.000000000000000E+000
 -3.570000000000000E-002    0.000000000000000E+000
 -3.560000000000000E-002    0.000000000000000E+000
 -3.550000000000000E-002    0.000000000000000E+000
 -3.540000000000000E-002    0.000000000000000E+000
 -3.530000000000000E-002    0.000000000000000E+000
 -3.520000000000000E-002    0.000000000000000E+000
 -3.510000000000000E-002    0.000000000000000E+000
 -3.500000000000000E-002    0.000000000000000E+000
 -3.490000000000000E-002    0.000000000000000E+000
 -3.480000000000000E-002    0.000000000000000E+000
 -3.470000000000000E-002    0.000000000000000E+000
 -3.460000000000000E-002    0.000000000000000E+000
 -3.450000000000000E-002    0.000000000000000E+000
 -3.440000000000000E-002    0.000000000000000E+000
 -3.430000000000000E-002    0.000000000000000E+000
 -3.420000000000000E-002    0.000000000000000E+000
 -3.410000000000000E-002    0.000000000000000E+000
 -3.400000000000000E-002    0.000000000000000E+000
 -3.390000000000000E-002    0.000000000000000E+000
 -3.380000000000000E-002    0.000000000000000E+000
 -3.370000000000000E-002    0.000000000000000E+000
 -3.360000000000000E-002    0.000000000000000E+000
 -3.350000000000000E-002    0.000000000000000E+000
 -3.340000000000000E-002    0.000000000000000E+000
 -3.330000000000000E-002    0.000000000000000E+000
 -3.320000000000000E-002    0.000000000000000E+000
 -3.310000000000000E-002    0.000000000000000E+000
 -3.300000000000000E-002    0.000000000000000E+000
 -3.290000000000000E-002    0.000000000000000E+000
 -3.280000000000000E-002    0.000000000000000E+000
 -3.270000000000000E-002    0.000000000000000E+000
 -3.260000000000000E-002    0.000000000000000E+000
 -3.250000000000000E-002    0.000000000000000E+000
 -3.240000000000000E-002    0.000000000000000E+000
 -3.230000000000000E-002    0.000000000000000E+000
 -3.220000000000000E-002    0.000000000000000E+000
 -3.210000000000000E-002    0.000000000000000E+000
 -3.200000000000000E-002    0.000000000000000E+000
 -3.190000000000000E-002    0.000000000000000E+000
 -3.180000000000000E-002    0.000000000000000E+000
 -3.170000000000000E-002    0.000000000000000E+000
 -3.160000000000000E-002    0.000000000000000E+000
 -3.150000000000000E-002    0.000000000000000E+000
 -3.140000000000000E-002    0.000000000000000E+000
 -3.130000000000000E-002    0.000000000000000E+000
 -3.120000000000000E-002    0.000000000000000E+000
 -3.110000000000000E-002    0.000000000000000E+000
 -3.100000000000000E-002    0.000000000000000E+000
 -3.090000000000000E-002    0.000000000000000E+000
 -3.080000000000000E-002    0.000000000000000E+000
 -3.070000000000000E-002    0.000000000000000E+000
 -3.060000000000000E-002    0.000000000000000E+000
 -3.050000000000000E-002    0.000000000000000E+000
 -3.040000000000000E-002    0.000000000000000E+000
 -3.030000000000000E-002    0.000000000000000E+000
 -3.020000000000000E-002    0.000000000000000E+000
 -3.010000000000000E-002    0.000000000000000E+000
 -3.000000000000000E-002    0.000000000000000E+000
 -2.990000000000000E-002    0.000000000000000E+000
 -2.980000000000000E-002    0.000000000000000E+000
 -2.970000000000000E-002    0.000000000000000E+000
 -2.960000000000000E-002    0.000000000000000E+000
 -2.950000000000000E-002    0.000000000000000E+000
 -2.940000000000000E-002    0.000000000000000E+000
 -2.930000000000000E-002    0.000000000000000E+000
 -2.920000000000000E-002    0.000000000000000E+000
 -2.910000000000000E-002    0.000000000000000E+000
 -2.900000000000000E-002    0.000000000000000E+000
 -2.890000000000000E-002    0.000000000000000E+000
 -2.880000000000000E-002    0.000000000000000E+000
 -2.870000000000000E-002    0.000000000000000E+000
 -2.860000000000000E-002    0.000000000000000E+000
 -2.850000000000000E-002    0.000000000000000E+000
 -2.840000000000000E-002    0.000000000000000E+000
 -2.830000000000000E-002    0.000000000000000E+000
 -2.820000000000000E-002    0.000000000000000E+000
 -2.810000000000000E-002    0.000000000000000E+000
 -2.800000000000000E-002    0.000000000000000E+000
 -2.790000000000000E-002    0.000000000000000E+000
 -2.780000000000000E-002    0.000000000000000E+000
 -2.770000000000000E-002    0.000000000000000E+000
 -2.760000000000000E-002    0.000000000000000E+000
 -2.750000000000000E-002    0.000000000000000E+000
 -2.740000000000000E-002    0.000000000000000E+000
 -2.730000000000000E-002    0.000000000000000E+000
 -2.720000000000000E-002    0.000000000000000E+000
 -2.710000000000000E-002    0.000000000000000E+000
 -2.700000000000000E-002    0.000000000000000E+000
 -2.690000000000000E-002    0.000000000000000E+000
 -2.680000000000000E-002    0.000000000000000E+000
 -2.670000000000000E-002    0.000000000000000E+000
 -2.660000000000000E-002    0.000000000000000E+000
 -2.650000000000000E-002    0.000000000000000E+000
 -2.640000000000000E-002    0.000000000000000E+000
 -2.630000000000000E-002    0.000000000000000E+000
 -2.620000000000000E-002    0.000000000000000E+000
 -2.610000000000000E-002    0.000000000000000E+000
 -2.600000000000000E-002   -1.924390591266381E-047
 -2.590000000000000E-002   -1.900734176592889E-046
 -2.580000000000000E-002   -3.801468353185779E-046
 -2.570000000000000E-002   -5.509763470652030E-046
 -2.560000000000000E-002   -5.317324411525392E-046
 -2.550000000000000E-002   -3.224151175805865E-046
 -2.540000000000000E-002    1.218780707802041E-046
 -2.530000000000000E-002    1.223830764910610E-045
 -2.520000000000000E-002    2.725174200272258E-045
 -2.510000000000000E-002    4.845889542232533E-045
 -2.500000000000000E-002    7.047629501680335E-045
 -2.490000000000000E-002    8.779417731550462E-045
 -2.480000000000000E-002    8.086121492272695E-045
 -2.470000000000000E-002    3.853159031762525E-045
 -2.460000000000000E-002   -5.506875461571001E-045
 -2.450000000000000E-002   -2.216249931360184E-044
 -2.440000000000000E-002   -4.666738820061979E-044
 -2.430000000000000E-002   -7.791978069809353E-044
 -2.420000000000000E-002   -1.112045488917784E-043
 -2.410000000000000E-002   -1.371060647823709E-043
 -2.400000000000000E-002   -1.385394910506316E-043
 -2.390000000000000E-002   -9.633959754548465E-044
 -2.380000000000000E-002    1.491816437727304E-044
 -2.370000000000000E-002    2.169379560141885E-043
 -2.360000000000000E-002    5.215375776235139E-043
 -2.350000000000000E-002    9.142768017162881E-043
 -2.340000000000000E-002    1.342308670765382E-042
 -2.330000000000000E-002    1.699868671160911E-042
 -2.320000000000000E-002    1.814247875901647E-042
 -2.310000000000000E-002    1.451908326492096E-042
 -2.300000000000000E-002    3.433879789320533E-043
 -2.290000000000000E-002   -1.761794780738521E-042
 -2.280000000000000E-002   -4.998537421626633E-042
 -2.270000000000000E-002   -9.254660177714837E-042
 -2.260000000000000E-002   -1.401640104420229E-041
 -2.250000000000000E-002   -1.821807653538706E-041
 -2.240000000000000E-002   -2.015218077953187E-041
 -2.230000000000000E-002   -1.750624211893485E-041
 -2.220000000000000E-002   -7.613807028753596E-042
 -2.210000000000000E-002    1.199449600944606E-041
 -2.200000000000000E-002    4.270449737089869E-041
 -2.190000000000000E-002    8.360761745919529E-041
 -2.180000000000000E-002    1.300996450609535E-040
 -2.170000000000000E-002    1.725841235107123E-040
 -2.160000000000000E-002    1.957380154811039E-040
 -2.150000000000000E-002    1.789498041421913E-040
 -2.140000000000000E-002    9.863657897283171E-041
 -2.130000000000000E-002   -6.695369937056907E-041
 -2.120000000000000E-002   -3.301317222147553E-040
 -2.110000000000000E-002   -6.836660176834642E-040
 -2.100000000000000E-002   -1.089433031436596E-039
 -2.090000000000000E-002   -1.468273805879683E-039
 -2.080000000000000E-002   -1.694797543483644E-039
 -2.070000000000000E-002   -1.601956606818654E-039
 -2.060000000000000E-002   -1.000543629284598E-039
 -2.050000000000000E-002    2.820862793022390E-040
 -2.040000000000000E-002    2.342509631016835E-039
 -2.030000000000000E-002    5.124268388354850E-039
 -2.020000000000000E-002    8.333878627504419E-039
 -2.010000000000000E-002    1.136892741328715E-038
 -2.000000000000000E-002    1.328613071585720E-038
 -1.990000000000000E-002    1.284361807065750E-038
 -1.980000000000000E-002    8.652536308677841E-039
 -1.970000000000000E-002   -5.355165823473934E-040
 -1.960000000000000E-002   -1.539990410278650E-038
 -1.950000000000000E-002   -3.551166894282457E-038
 -1.940000000000000E-002   -5.876314195690907E-038
 -1.930000000000000E-002   -8.090308907331907E-038
 -1.920000000000000E-002   -9.536792467943438E-038
 -1.910000000000000E-002   -9.363354372496033E-038
 -1.900000000000000E-002   -6.630532971328361E-038
 -1.890000000000000E-002   -5.093547329894508E-039
 -1.880000000000000E-002    9.433030357291408E-038
 -1.870000000000000E-002    2.288399129047722E-037
 -1.860000000000000E-002    3.842801961873531E-037
 -1.850000000000000E-002    5.327143166597576E-037
 -1.840000000000000E-002    6.316954786986591E-037
 -1.830000000000000E-002    6.269208852542633E-037
 -1.820000000000000E-002    4.595067944135986E-037
 -1.810000000000000E-002    7.860851325969994E-038
 -1.800000000000000E-002   -5.408847198077468E-037
 -1.790000000000000E-002   -1.377330449227907E-036
 -1.780000000000000E-002   -2.341582260240349E-036
 -1.770000000000000E-002   -3.262023565159757E-036
 -1.760000000000000E-002   -3.882442063524273E-036
 -1.750000000000000E-002   -3.880350866406352E-036
 -1.740000000000000E-002   -2.912239402847235E-036
 -1.730000000000000E-002   -6.888329956069208E-037
 -1.720000000000000E-002    2.922589640439785E-036
 -1.710000000000000E-002    7.780262005463057E-036
 -1.700000000000000E-002    1.335590109404341E-035
 -1.690000000000000E-002    1.866001627087754E-035
 -1.680000000000000E-002    2.224311646516222E-035
 -1.670000000000000E-002    2.231242249437648E-035
 -1.660000000000000E-002    1.699529382186884E-035
 -1.650000000000000E-002    4.759886985133580E-036
 -1.640000000000000E-002   -1.503035234328967E-035
 -1.630000000000000E-002   -4.149724339508325E-035
 -1.620000000000000E-002   -7.168370042575269E-035
 -1.610000000000000E-002   -1.002124604266633E-034
 -1.600000000000000E-002   -1.193647670215359E-034
 -1.590000000000000E-002   -1.197714271894653E-034
 -1.580000000000000E-002   -9.185388697301884E-035
 -1.570000000000000E-002   -2.803695145553124E-035
 -1.560000000000000E-002    7.442373112607228E-035
 -1.550000000000000E-002    2.103842253137069E-034
 -1.540000000000000E-002    3.641544453465845E-034
 -1.530000000000000E-002    5.080792980531796E-034
 -1.520000000000000E-002    6.033046736613482E-034
 -1.510000000000000E-002    6.036017626253407E-034
 -1.500000000000000E-002    4.628026385002333E-034
 -1.490000000000000E-002    1.457945231562999E-034
 -1.480000000000000E-002   -3.578624265615458E-034
 -1.470000000000000E-002   -1.019701611639338E-033
 -1.460000000000000E-002   -1.760602918963765E-033
 -1.450000000000000E-002   -2.445494947224128E-033
 -1.440000000000000E-002   -2.888783021406877E-033
 -1.430000000000000E-002   -2.874213459360679E-033
 -1.420000000000000E-002   -2.191174815337832E-033
 -1.410000000000000E-002   -6.864643144016460E-034
 -1.400000000000000E-002    1.673554287786539E-033
 -1.390000000000000E-002    4.740238012958051E-033
 -1.380000000000000E-002    8.133829499968499E-033
 -1.370000000000000E-002    1.122619651692184E-032
 -1.360000000000000E-002    1.317340397410876E-032
 -1.350000000000000E-002    1.301290029349147E-032
 -1.340000000000000E-002    9.831618223885768E-033
 -1.330000000000000E-002    2.997576480381101E-033
 -1.320000000000000E-002   -7.570449995796797E-033
 -1.310000000000000E-002   -2.114062689179420E-032
 -1.300000000000000E-002   -3.597672596387784E-032
 -1.290000000000000E-002   -4.929268427082532E-032
 -1.280000000000000E-002   -5.742688251730689E-032
 -1.270000000000000E-002   -5.629130969366781E-032
 -1.260000000000000E-002   -4.211146775367692E-032
 -1.250000000000000E-002   -1.241311408202004E-032
 -1.240000000000000E-002    3.286309823225399E-032
 -1.230000000000000E-002    9.031760287282548E-032
 -1.220000000000000E-002    1.523847023823315E-031
 -1.210000000000000E-002    2.072636875907047E-031
 -1.200000000000000E-002    2.397713432870175E-031
 -1.190000000000000E-002    2.333084361764679E-031
 -1.180000000000000E-002    1.729612804156010E-031
 -1.170000000000000E-002    4.951276534058172E-032
 -1.160000000000000E-002   -1.361599030854319E-031
 -1.150000000000000E-002   -3.691236873693907E-031
 -1.140000000000000E-002   -6.179249484867531E-031
 -1.130000000000000E-002   -8.347770326704758E-031
 -1.120000000000000E-002   -9.594308507591304E-031
 -1.110000000000000E-002   -9.273544558470613E-031
 -1.100000000000000E-002   -6.821391596689904E-031
 -1.090000000000000E-002   -1.910827381662068E-031
 -1.080000000000000E-002    5.382200801497024E-031
 -1.070000000000000E-002    1.443527754202754E-030
 -1.060000000000000E-002    2.399872420223939E-030
 -1.050000000000000E-002    3.221976640104484E-030
 -1.040000000000000E-002    3.680736148278057E-030
 -1.030000000000000E-002    3.535635327891598E-030
 -1.020000000000000E-002    2.582201485349931E-030
 -1.010000000000000E-002    7.099751319348564E-031
 -1.000000000000000E-002   -2.037549381169854E-030
 -9.899999999999999E-003   -5.413243032539621E-030
 -9.800000000000000E-003   -8.941563032062239E-030
 -9.699999999999999E-003   -1.193344851047958E-029
 -9.599999999999999E-003   -1.355263351648859E-029
 -9.500000000000000E-003   -1.293841144594088E-029
 -9.399999999999999E-003   -9.379584522282684E-030
 -9.299999999999999E-003   -2.521353377291229E-030
 -9.200000000000000E-003    7.426914180570662E-030
 -9.099999999999999E-003    1.952710538951135E-029
 -8.999999999999999E-003    3.204193949734253E-029
 -8.900000000000000E-003    4.250812193447765E-029
 -8.799999999999999E-003    4.798984979676480E-029
 -8.699999999999999E-003    4.552426501605892E-029
 -8.600000000000000E-003    3.273381848448284E-029
 -8.499999999999999E-003    8.536039354192142E-030
 -8.399999999999999E-003   -2.616429567116107E-029
 -8.300000000000000E-003   -6.795281703517380E-029
 -8.199999999999999E-003   -1.107233445203763E-028
 -8.100000000000000E-003   -1.459944198000672E-028
 -8.000000000000000E-003   -1.638338347273801E-028
 -7.899999999999999E-003   -1.544108361826207E-028
 -7.800000000000000E-003   -1.100705065096578E-028
 -7.699999999999999E-003   -2.767875099761729E-029
 -7.599999999999999E-003    8.915730353317929E-029
 -7.499999999999999E-003    2.284990078831208E-028
 -7.399999999999999E-003    3.696630630106702E-028
 -7.299999999999999E-003    4.844743840304180E-028
 -7.199999999999999E-003    5.404932188278525E-028
 -7.100000000000000E-003    5.062188411347657E-028
 -6.999999999999999E-003    3.578629890091437E-028
 -6.899999999999999E-003    8.682390251621066E-029
 -6.800000000000000E-003   -2.934439475672407E-028
 -6.699999999999999E-003   -7.427794934204871E-028
 -6.599999999999999E-003   -1.193577970488486E-027
 -6.499999999999999E-003   -1.555414762196118E-027
 -6.399999999999999E-003   -1.725852628910912E-027
 -6.299999999999999E-003   -1.607254005736261E-027
 -6.199999999999999E-003   -1.128131269135134E-027
 -6.100000000000000E-003   -2.661604682456696E-028
 -5.999999999999999E-003    9.312873067554623E-028
 -5.899999999999999E-003    2.334075438683502E-027
 -5.800000000000000E-003    3.728747998728501E-027
 -5.699999999999999E-003    4.834622604574192E-027
 -5.599999999999999E-003    5.338589181550801E-027
 -5.499999999999999E-003    4.947534340580168E-027
 -5.399999999999999E-003    3.453392330419939E-027
 -5.299999999999999E-003    8.016951771045906E-028
 -5.199999999999999E-003   -2.849079271018783E-027
 -5.099999999999999E-003   -7.092178390564716E-027
 -4.999999999999999E-003   -1.127584832013786E-026
 -4.899999999999999E-003   -1.455654938723189E-026
 -4.799999999999999E-003   -1.600691883637715E-026
 -4.699999999999999E-003   -1.477375897728042E-026
 -4.599999999999999E-003   -1.026987247017871E-026
 -4.499999999999999E-003   -2.371828735941074E-027
 -4.399999999999999E-003    8.413911598720336E-027
 -4.299999999999999E-003    2.085916028884484E-026
 -4.199999999999999E-003    3.303714572760338E-026
 -4.099999999999999E-003    4.249065869863031E-026
 -3.999999999999999E-003    4.655535976804448E-026
 -3.899999999999999E-003    4.282061928287799E-026
 -3.799999999999999E-003    2.967774996488080E-026
 -3.699999999999999E-003    6.873326879497103E-027
 -3.599999999999999E-003   -2.403996478207787E-026
 -3.499999999999999E-003   -5.947381677555707E-026
 -3.399999999999999E-003   -9.390606546652567E-026
 -3.299999999999999E-003   -1.203903954558166E-025
 -3.199999999999999E-003   -1.314926007693937E-025
 -3.099999999999999E-003   -1.205934008355284E-025
 -2.999999999999999E-003   -8.340878091356964E-026
 -2.899999999999999E-003   -1.949321324432506E-026
 -2.799999999999999E-003    6.657241758876615E-026
 -2.699999999999999E-003    1.646295694545231E-025
 -2.599999999999999E-003    2.593155237648934E-025
 -2.499999999999999E-003    3.315504693845138E-025
 -2.399999999999999E-003    3.611631769601496E-025
 -2.299999999999999E-003    3.304655438738646E-025
 -2.199999999999999E-003    2.283488446661002E-025
 -2.099999999999999E-003    5.425448508936189E-026
 -1.999999999999999E-003   -1.787828645207622E-025
 -1.899999999999999E-003   -4.428634845068912E-025
 -1.799999999999999E-003   -6.964548636457862E-025
 -1.699999999999999E-003   -8.885774649022707E-025
 -1.599999999999999E-003   -9.659459006704342E-025
 -1.499999999999999E-003   -8.824976349206143E-025
 -1.399999999999999E-003   -6.101290379163312E-025
 -1.299999999999999E-003   -1.489062331693023E-025
 -1.199999999999999E-003    4.653440471298233E-025
 -1.099999999999999E-003    1.158217592935074E-024
 -9.999999999999989E-004    1.820502438594227E-024
 -8.999999999999990E-004    2.319567120838944E-024
 -7.999999999999990E-004    2.518217807443021E-024
 -6.999999999999989E-004    2.299405102142260E-024
 -5.999999999999990E-004    1.593623478899306E-024
 -4.999999999999989E-004    4.045061270439015E-025
 -3.999999999999989E-004   -1.172710342907529E-024
 -2.999999999999989E-004   -2.945202245676954E-024
 -1.999999999999989E-004   -4.633420739627271E-024
 -9.999999999999892E-005   -5.901092028381537E-024
  1.084202172485504E-018   -6.403611975512046E-024
  1.000000000000011E-004   -5.850416090671632E-024
  2.000000000000011E-004   -4.073143551679138E-024
  3.000000000000011E-004   -1.088240873279696E-024
  4.000000000000011E-004    2.859168428825161E-024
  5.000000000000011E-004    7.283109431155208E-024
  6.000000000000011E-004    1.148651860984825E-023
  7.000000000000011E-004    1.463786888415427E-023
  8.000000000000011E-004    1.589200086923749E-023
  9.000000000000012E-004    1.454355828640720E-023
  1.000000000000001E-003    1.019244556160731E-023
  1.100000000000001E-003    2.893418262604492E-024
  1.200000000000001E-003   -6.741962168395221E-024
  1.300000000000001E-003   -1.752163530708029E-023
  1.400000000000001E-003   -2.775108746824431E-023
  1.500000000000001E-003   -3.542336163827290E-023
  1.600000000000001E-003   -3.851284796651256E-023
  1.700000000000001E-003   -3.534346285934160E-023
  1.800000000000001E-003   -2.498090280535534E-023
  1.900000000000001E-003   -7.582223476326588E-024
  2.000000000000001E-003    1.537199343195165E-023
  2.100000000000001E-003    4.103360770335326E-023
  2.200000000000001E-003    6.538362113156541E-023
  2.300000000000001E-003    8.369013532966894E-023
  2.400000000000001E-003    9.120466784291124E-023
  2.500000000000001E-003    8.402469198132156E-023
  2.600000000000001E-003    6.000273842235467E-023
  2.700000000000001E-003    1.954630955551891E-023
  2.800000000000001E-003   -3.386321502151533E-023
  2.900000000000001E-003   -9.359237846500184E-023
  3.000000000000001E-003   -1.503335787362818E-022
  3.100000000000001E-003   -1.931791417898516E-022
  3.200000000000001E-003   -2.112314305324748E-022
  3.300000000000001E-003   -1.955774358289637E-022
  3.400000000000001E-003   -1.413507907931544E-022
  3.500000000000001E-003   -4.952606881999617E-023
  3.600000000000001E-003    7.194068945695870E-023
  3.700000000000001E-003    2.079784413351232E-022
  3.800000000000001E-003    3.375232588239956E-022
  3.900000000000001E-003    4.359718249626404E-022
  4.000000000000001E-003    4.788170587636213E-022
  4.100000000000001E-003    4.460695083925894E-022
  4.200000000000001E-003    3.268389934718526E-022
  4.300000000000001E-003    1.232851020974857E-022
  4.400000000000001E-003   -1.469125184144599E-022
  4.500000000000001E-003   -4.503306705728517E-022
  4.600000000000002E-003   -7.403522961406792E-022
  4.700000000000001E-003   -9.626296850393895E-022
  4.800000000000001E-003   -1.063107519579116E-021
  4.900000000000002E-003   -9.977149241517948E-022
  5.000000000000001E-003   -7.423481515196660E-022
  5.100000000000001E-003   -3.014189428289462E-022
  5.200000000000001E-003    2.868625374183711E-022
  5.300000000000002E-003    9.501031537280182E-022
  5.400000000000001E-003    1.587339781339534E-021
  5.500000000000001E-003    2.080906537891539E-021
  5.600000000000002E-003    2.313750512838889E-021
  5.700000000000001E-003    2.190250940579931E-021
  5.800000000000001E-003    1.657569409675315E-021
  5.900000000000002E-003    7.238524081024226E-022
  6.000000000000001E-003   -5.305900183365620E-022
  6.100000000000001E-003   -1.952550432708105E-021
  6.200000000000002E-003   -3.327901129151863E-021
  6.300000000000002E-003   -4.406755324924532E-021
  6.400000000000001E-003   -4.940046228604042E-021
  6.500000000000001E-003   -4.723382258643412E-021
  6.600000000000002E-003   -3.641916185136193E-021
  6.700000000000001E-003   -1.708530532718034E-021
  6.800000000000001E-003    9.127134898339043E-022
  6.900000000000002E-003    3.904927046504561E-021
  7.000000000000001E-003    6.823169072528723E-021
  7.100000000000001E-003    9.146539088393615E-021
  7.200000000000002E-003    1.035385690594825E-020
  7.300000000000002E-003    1.001432746958125E-020
  7.400000000000001E-003    7.880274492592774E-021
  7.500000000000001E-003    3.966150861758418E-021
  7.600000000000002E-003   -1.402635821797021E-021
  7.700000000000001E-003   -7.585459280648574E-021
  7.800000000000001E-003   -1.367614017276108E-020
  7.900000000000001E-003   -1.860829588962262E-020
  8.000000000000002E-003   -2.130877286649706E-020
  8.100000000000001E-003   -2.088172772363797E-020
  8.200000000000001E-003   -1.679726466259608E-020
  8.300000000000002E-003   -9.052812319050600E-021
  8.400000000000001E-003    1.725885813743793E-021
  8.500000000000002E-003    1.427305506566141E-020
  8.600000000000002E-003    2.677929046268375E-020
  8.700000000000001E-003    3.709975331369612E-020
  8.800000000000002E-003    4.305915567836408E-020
  8.900000000000002E-003    4.281905829490069E-020
  9.000000000000001E-003    3.525581282472626E-020
  9.100000000000002E-003    2.028611160616365E-020
  9.200000000000002E-003   -9.254871857971983E-022
  9.300000000000001E-003   -2.593445781632253E-020
  9.400000000000002E-003   -5.119733901349322E-020
  9.500000000000001E-003   -7.247390270559611E-020
  9.600000000000001E-003   -8.542197440940844E-020
  9.700000000000002E-003   -8.631816759075663E-020
  9.800000000000001E-003   -7.280417715715025E-020
  9.900000000000001E-003   -4.453579666229953E-020
  1.000000000000000E-002   -3.606362520341979E-021
  1.010000000000000E-002    4.536813700176222E-020
  1.020000000000000E-002    9.557744555504571E-020
  1.030000000000000E-002    1.387769089839698E-019
  1.040000000000000E-002    1.664265697345847E-019
  1.050000000000000E-002    1.710831769599693E-019
  1.060000000000000E-002    1.478537809672277E-019
  1.070000000000000E-002    9.567501863966452E-020
  1.080000000000000E-002    1.817061087280934E-020
  1.090000000000000E-002   -7.613232550764636E-020
  1.100000000000000E-002   -1.743771346017676E-019
  1.110000000000000E-002   -2.607827257819668E-019
  1.120000000000000E-002   -3.187873782645411E-019
  1.130000000000000E-002   -3.336977542711949E-019
  1.140000000000000E-002   -2.954837171265489E-019
  1.150000000000000E-002   -2.012731023965921E-019
  1.160000000000000E-002   -5.707424075494417E-020
  1.170000000000000E-002    1.216964736883872E-019
  1.180000000000000E-002    3.111759926488443E-019
  1.190000000000000E-002    4.815982937539594E-019
  1.200000000000000E-002    6.012633837169011E-019
  1.210000000000000E-002    6.415082922980963E-019
  1.220000000000000E-002    5.820166159507318E-019
  1.230000000000000E-002    4.156339958775689E-019
  1.240000000000000E-002    1.517994640653898E-019
  1.250000000000000E-002   -1.822156228408879E-019
  1.260000000000000E-002   -5.428373195133428E-019
  1.270000000000000E-002   -8.746972436924487E-019
  1.280000000000000E-002   -1.117865461726098E-018
  1.290000000000000E-002   -1.217056102830453E-018
  1.300000000000000E-002   -1.131599444596117E-018
  1.310000000000000E-002   -8.446454582160600E-019
  1.320000000000000E-002   -3.699372998493395E-019
  1.330000000000000E-002    2.453763767270876E-019
  1.340000000000000E-002    9.230131460638563E-019
  1.350000000000000E-002    1.561375166312925E-018
  1.360000000000000E-002    2.048527069190113E-018
  1.370000000000000E-002    2.279026522815766E-018
  1.380000000000000E-002    2.172444936041649E-018
  1.390000000000000E-002    1.690780529878645E-018
  1.400000000000000E-002    8.516949522087066E-019
  1.410000000000000E-002   -2.653012675013268E-019
  1.420000000000000E-002   -1.521887292913800E-018
  1.430000000000000E-002   -2.734188269319145E-018
  1.440000000000000E-002   -3.695710619034451E-018
  1.450000000000000E-002   -4.207727080818012E-018
  1.460000000000000E-002   -4.113285962649388E-018
  1.470000000000000E-002   -3.329810052724696E-018
  1.480000000000000E-002   -1.874668239616258E-018
  1.490000000000000E-002    1.216281684212993E-019
  1.500000000000000E-002    2.418764226031333E-018
  1.510000000000000E-002    4.688585961670603E-018
  1.520000000000000E-002    6.555033618338489E-018
  1.530000000000000E-002    7.648316922777858E-018
  1.540000000000000E-002    7.666661340702877E-018
  1.550000000000000E-002    6.436647572587183E-018
  1.560000000000000E-002    3.961980734775928E-018
  1.570000000000000E-002    4.508308594144886E-019
  1.580000000000000E-002   -3.686132512722773E-018
  1.590000000000000E-002   -7.871291697234650E-018
  1.600000000000000E-002   -1.142863498244533E-017
  1.610000000000000E-002   -1.367920151736872E-017
  1.620000000000000E-002   -1.405190977235991E-017
  1.630000000000000E-002   -1.219395246828867E-017
  1.640000000000000E-002   -8.062518937924871E-018
  1.650000000000000E-002   -1.979883331442935E-018
  1.660000000000000E-002    5.362883896928592E-018
  1.670000000000000E-002    1.296213952379423E-017
  1.680000000000000E-002    1.961783245025741E-017
  1.690000000000000E-002    2.409976819675669E-017
  1.700000000000000E-002    2.534435477911545E-017
  1.710000000000000E-002    2.265420415349141E-017
  1.720000000000000E-002    1.586822713213185E-017
  1.730000000000000E-002    5.469800983240961E-018
  1.740000000000000E-002   -7.394218283826595E-018
  1.750000000000000E-002   -2.100032980784098E-017
  1.760000000000000E-002   -3.324289364638082E-017
  1.770000000000000E-002   -4.192072435706123E-017
  1.780000000000000E-002   -4.508266600184638E-017
  1.790000000000000E-002   -4.138434160318768E-017
  1.800000000000000E-002   -3.039924648106903E-017
  1.810000000000000E-002   -1.282624379942415E-017
  1.820000000000000E-002    9.456113712012032E-018
  1.830000000000000E-002    3.352030720776964E-017
  1.840000000000000E-002    5.571184583137506E-017
  1.850000000000000E-002    7.213825640089852E-017
  1.860000000000000E-002    7.926973943981408E-017
  1.870000000000000E-002    7.456961644095253E-017