 -4.000000000000000E-002    0.000000000000000E+000
 -3.990000000000000E-002    0.000000000000000E+000
 -3.980000000000000E-002    0.000000000000000E+000
 -3.970000000000000E-002    0.000000000000000E+000
 -3.960000000000000E-002    0.000000000000000E+000
 -3.950000000000000E-002    0.000000000000000E+000
 -3.940000000000000E-002    0.000000000000000E+000
 -3.930000000000000E-002    0.000000000000000E+000
 -3.920000000000000E-002   -5.304556194416534E-027
 -3.910000000000000E-002   -8.121992902488509E-026
 -3.900000000000000E-002   -6.480177510614906E-025
 -3.890000000000000E-002   -3.575450240225452E-024
 -3.880000000000000E-002   -1.527435730595499E-023
 -3.870000000000000E-002   -5.361357210925981E-023
 -3.860000000000000E-002   -1.601240194938727E-022
 -3.850000000000000E-002   -4.155872682093509E-022
 -3.840000000000000E-002   -9.479537692517410E-022
 -3.830000000000000E-002   -1.904338068694443E-021
 -3.820000000000000E-002   -3.334674980095355E-021
 -3.810000000000000E-002   -4.911952695051616E-021
 -3.800000000000000E-002   -5.412468774008106E-021
 -3.790000000000000E-002   -1.931041595112139E-021
 -3.780000000000000E-002    1.105157810697058E-020
 -3.770000000000000E-002    4.237093905401688E-020
 -3.760000000000000E-002    1.039024793178550E-019
 -3.750000000000000E-002    2.081586423216933E-019
 -3.740000000000000E-002    3.623605448554875E-019
 -3.730000000000000E-002    5.577615543847186E-019
 -3.720000000000000E-002    7.539400184106530E-019
 -3.710000000000000E-002    8.597714655940674E-019
 -3.700000000000000E-002    7.159073270753010E-019
 -3.690000000000000E-002    8.747845478666209E-020
 -3.680000000000000E-002   -1.320539944359374E-018
 -3.670000000000000E-002   -3.810927163981780E-018
 -3.660000000000000E-002   -7.592351367219430E-018
 -3.650000000000000E-002   -1.262359320931649E-017
 -3.640000000000000E-002   -1.841483126144058E-017
 -3.630000000000000E-002   -2.381955325347910E-017
 -3.620000000000000E-002   -2.687739534852019E-017
 -3.610000000000000E-002   -2.479295129166116E-017
 -3.600000000000000E-002   -1.414887646343942E-017
 -3.590000000000000E-002    8.557509692313995E-018
 -3.580000000000000E-002    4.600674538269331E-017
 -3.570000000000000E-002    9.881175723109107E-017
 -3.560000000000000E-002    1.640828084802303E-016
 -3.550000000000000E-002    2.340871462700783E-016
 -3.540000000000000E-002    2.954145970632201E-016
 -3.530000000000000E-002    3.291386349836860E-016
 -3.520000000000000E-002    3.124454136269650E-016
 -3.510000000000000E-002    2.220511932081571E-016
 -3.500000000000000E-002    3.941962824703873E-017
 -3.490000000000000E-002   -2.426630221825826E-016
 -3.480000000000000E-002   -6.131387422553517E-016
 -3.470000000000000E-002   -1.036865922013427E-015
 -3.460000000000000E-002   -1.451826835998999E-015
 -3.450000000000000E-002   -1.771294022939434E-015
 -3.440000000000000E-002   -1.892496284890350E-015
 -3.430000000000000E-002   -1.712401101309648E-015
 -3.420000000000000E-002   -1.149797328733707E-015
 -3.410000000000000E-002   -1.710868421576713E-016
 -3.400000000000000E-002    1.184616423687015E-015
 -3.390000000000000E-002    2.786928415532658E-015
 -3.380000000000000E-002    4.408616242628972E-015
 -3.370000000000000E-002    5.738768434785410E-015
 -3.360000000000000E-002    6.418293035426393E-015
 -3.350000000000000E-002    6.097592790470911E-015
 -3.340000000000000E-002    4.511415177268442E-015
 -3.330000000000000E-002    1.560568664358667E-015
 -3.320000000000000E-002   -2.614444439866270E-015
 -3.310000000000000E-002   -7.585656016600093E-015
 -3.300000000000000E-002   -1.263333096966345E-014
 -3.290000000000000E-002   -1.679881222280152E-014
 -3.280000000000000E-002   -1.900027990756323E-014
 -3.270000000000000E-002   -1.820595060435407E-014
 -3.260000000000000E-002   -1.364615809797820E-014
 -3.250000000000000E-002   -5.033082159037653E-015
 -3.240000000000000E-002    7.252631980618950E-015
 -3.230000000000000E-002    2.205275550006690E-014
 -3.220000000000000E-002    3.744001885288710E-014
 -3.210000000000000E-002    5.087115014972902E-014
 -3.200000000000000E-002    5.948982950422638E-014
 -3.190000000000000E-002    6.055768146088895E-014
 -3.180000000000000E-002    5.196252846366099E-014
 -3.170000000000000E-002    3.272792810442520E-014
 -3.160000000000000E-002    3.432173501107852E-015
 -3.150000000000000E-002   -3.355691030843651E-014
 -3.140000000000000E-002   -7.410973091512850E-014
 -3.130000000000000E-002   -1.126709608157047E-013
 -3.120000000000000E-002   -1.429028256331241E-013
 -3.110000000000000E-002   -1.585801223555266E-013
 -3.100000000000000E-002   -1.546279136217193E-013
 -3.090000000000000E-002   -1.281497782986706E-013
 -3.080000000000000E-002   -7.927222152642304E-014
 -3.070000000000000E-002   -1.163520236174001E-014
 -3.060000000000000E-002    6.760698581937617E-014
 -3.050000000000000E-002    1.483479585994779E-013
 -3.040000000000000E-002    2.186460622406731E-013
 -3.030000000000000E-002    2.662962581559709E-013
 -3.020000000000000E-002    2.806725206868535E-013
 -3.010000000000000E-002    2.545922109004555E-013
 -3.000000000000000E-002    1.859221210534100E-013
 -2.990000000000000E-002    7.865539703858376E-014
 -2.980000000000000E-002   -5.676072953384920E-014
 -2.970000000000000E-002   -2.039786450671889E-013
 -2.960000000000000E-002   -3.422056127727383E-013
 -2.950000000000000E-002   -4.484582568379521E-013
 -2.940000000000000E-002   -5.004001827099708E-013
 -2.930000000000000E-002   -4.794554368670443E-013
 -2.920000000000000E-002   -3.738357577352201E-013
 -2.910000000000000E-002   -1.811056234654271E-013
 -2.900000000000000E-002    9.006333156784297E-014
 -2.890000000000000E-002    4.192304518065034E-013
 -2.880000000000000E-002    7.748060965327438E-013
 -2.870000000000000E-002    1.116029528049316E-012
 -2.860000000000000E-002    1.396257855818560E-012
 -2.850000000000000E-002    1.567392890293790E-012
 -2.840000000000000E-002    1.585147784810494E-012
 -2.830000000000000E-002    1.414737129641609E-012
 -2.820000000000000E-002    1.036465275364190E-012
 -2.810000000000000E-002    4.506006885628719E-013
 -2.800000000000000E-002   -3.191234848721364E-013
 -2.790000000000000E-002   -1.224044459675021E-012
 -2.780000000000000E-002   -2.191712369374337E-012
 -2.770000000000000E-002   -3.130039905943956E-012
 -2.760000000000000E-002   -3.934568667054086E-012
 -2.750000000000000E-002   -4.498579692071621E-012
 -2.740000000000000E-002   -4.725322313848386E-012
 -2.730000000000000E-002   -4.541163092473916E-012
 -2.720000000000000E-002   -3.908048292751987E-012
 -2.710000000000000E-002   -2.833430322826532E-012
 -2.700000000000000E-002   -1.375748728932641E-012
 -2.690000000000000E-002    3.561211660904334E-013
 -2.680000000000000E-002    2.210471202663973E-012
 -2.670000000000000E-002    4.007517238298003E-012
 -2.660000000000000E-002    5.560297748779361E-012
 -2.650000000000000E-002    6.699543629394472E-012
 -2.640000000000000E-002    7.299307510936017E-012
 -2.630000000000000E-002    7.299453647108212E-012
 -2.620000000000000E-002    6.720931675920524E-012
 -2.610000000000000E-002    5.670287436706593E-012
 -2.600000000000000E-002    4.330985205976790E-012
 -2.590000000000000E-002    2.940962322948239E-012
 -2.580000000000000E-002    1.757977131989461E-012
 -2.570000000000000E-002    1.016594397428411E-012
 -2.560000000000000E-002    8.826209005170996E-013
 -2.550000000000000E-002    1.412138194255869E-012
 -2.540000000000000E-002    2.522544450909293E-012
 -2.530000000000000E-002    3.982235586850618E-012
 -2.520000000000000E-002    5.423417027265599E-012
 -2.510000000000000E-002    6.379530861358482E-012
 -2.500000000000000E-002    6.345026746823692E-012
 -2.490000000000000E-002    4.851430456886225E-012
 -2.480000000000000E-002    1.550320260821897E-012
 -2.470000000000000E-002   -3.708382608636434E-012
 -2.460000000000000E-002   -1.081509479957852E-011
 -2.450000000000000E-002   -1.936740620318429E-011
 -2.440000000000000E-002   -2.867328860536102E-011
 -2.430000000000000E-002   -3.779454090634675E-011
 -2.420000000000000E-002   -4.562898198978010E-011
 -2.410000000000000E-002   -5.102433609134235E-011
 -2.400000000000000E-002   -5.291184259761748E-011
 -2.390000000000000E-002   -5.044403779198956E-011
 -2.380000000000000E-002   -4.311958846627278E-011
 -2.370000000000000E-002   -3.087855029911920E-011
 -2.360000000000000E-002   -1.415442211110230E-011
 -2.350000000000000E-002    6.126078118604016E-012
 -2.340000000000000E-002    2.859839718667518E-011
 -2.330000000000000E-002    5.156734845218614E-011
 -2.320000000000000E-002    7.315631550278672E-011
 -2.310000000000000E-002    9.148393708945149E-011
 -2.300000000000000E-002    1.048501263501344E-010
 -2.290000000000000E-002    1.119120269996798E-010
 -2.280000000000000E-002    1.118311675077532E-010
 -2.270000000000000E-002    1.043755554127882E-010
 -2.260000000000000E-002    8.996453611485527E-011
 -2.250000000000000E-002    6.964936252203127E-011
 -2.240000000000000E-002    4.502831030802631E-011
 -2.230000000000000E-002    1.810089010011047E-011
 -2.220000000000000E-002   -8.927973885848993E-012
 -2.210000000000000E-002   -3.387785557607474E-011
 -2.200000000000000E-002   -5.483572181539742E-011
 -2.190000000000000E-002   -7.038710652358529E-011
 -2.180000000000000E-002   -7.980878888533091E-011
 -2.170000000000000E-002   -8.319603926815630E-011
 -2.160000000000000E-002   -8.150055051141661E-011
 -2.150000000000000E-002   -7.646114887521750E-011
 -2.140000000000000E-002   -7.041929751354526E-011
 -2.130000000000000E-002   -6.602453119027150E-011
 -2.120000000000000E-002   -6.585062166865264E-011
 -2.110000000000000E-002   -7.195959548707479E-011
 -2.100000000000000E-002   -8.546593873761028E-011
 -2.090000000000000E-002   -1.061639991358859E-010
 -2.080000000000000E-002   -1.322855217133596E-010
 -2.070000000000000E-002   -1.604485622763123E-010
 -2.060000000000000E-002   -1.858432013482594E-010
 -2.050000000000000E-002   -2.026720930985411E-010
 -2.040000000000000E-002   -2.048290531084274E-010
 -2.030000000000000E-002   -1.867591484986854E-010
 -2.020000000000000E-002   -1.444044842046499E-010
 -2.010000000000000E-002   -7.610834359877534E-011
 -2.000000000000000E-002    1.666584137610008E-011
 -1.990000000000000E-002    1.289429283035711E-010
 -1.980000000000000E-002    2.522877545561818E-010
 -1.970000000000000E-002    3.753681531983280E-010
 -1.960000000000000E-002    4.850286627557282E-010
 -1.950000000000000E-002    5.677971222215160E-010
 -1.940000000000000E-002    6.116641339006901E-010
 -1.930000000000000E-002    6.079111114032168E-010
 -1.920000000000000E-002    5.527178954400804E-010
 -1.910000000000000E-002    4.482768205061781E-010
 -1.900000000000000E-002    3.031755534996496E-010
 -1.890000000000000E-002    1.318909131233141E-010
 -1.880000000000000E-002   -4.664778997249440E-011
 -1.870000000000000E-002   -2.113288471859491E-010
 -1.860000000000000E-002   -3.417201932787638E-010
 -1.850000000000000E-002   -4.211584726409490E-010
 -1.840000000000000E-002   -4.396152542848916E-010
 -1.830000000000000E-002   -3.958680452519942E-010
 -1.820000000000000E-002   -2.985524438049813E-010
 -1.810000000000000E-002   -1.657929788026086E-010
 -1.800000000000000E-002   -2.329761468789652E-011
 -1.790000000000000E-002    9.897186369028674E-011
 -1.780000000000000E-002    1.712026028204241E-010
 -1.770000000000000E-002    1.686423912139407E-010
 -1.760000000000000E-002    7.630734095596732E-011
 -1.750000000000000E-002   -1.072813432926285E-010
 -1.740000000000000E-002   -3.680373748615127E-010
 -1.730000000000000E-002   -6.764525315884856E-010
 -1.720000000000000E-002   -9.901825718505387E-010
 -1.710000000000000E-002   -1.258961935705536E-009
 -1.700000000000000E-002   -1.431353408680314E-009
 -1.690000000000000E-002   -1.462494438253706E-009
 -1.680000000000000E-002   -1.321755099892064E-009
 -1.670000000000000E-002   -9.991131565368279E-010
 -1.660000000000000E-002   -5.091235719080682E-010
 -1.650000000000000E-002    1.083861506791650E-010
 -1.640000000000000E-002    7.913478750326194E-010
 -1.630000000000000E-002    1.462132182193618E-009
 -1.620000000000000E-002    2.037223415504670E-009
 -1.610000000000000E-002    2.438711799630927E-009
 -1.600000000000000E-002    2.606026958140884E-009
 -1.590000000000000E-002    2.506151955494284E-009
 -1.580000000000000E-002    2.140628305769804E-009
 -1.570000000000000E-002    1.548002956800613E-009
 -1.560000000000000E-002    8.009540363520413E-010
 -1.550000000000000E-002   -1.911636137522846E-012
 -1.540000000000000E-002   -7.487740626205710E-010
 -1.530000000000000E-002   -1.330242830326465E-009
 -1.520000000000000E-002   -1.655760383871626E-009
 -1.510000000000000E-002   -1.668302808234621E-009
 -1.500000000000000E-002   -1.354988576145493E-009
 -1.490000000000000E-002   -7.516517784105783E-010
 -1.480000000000000E-002    5.976683366132725E-011
 -1.470000000000000E-002    9.611229930889705E-010
 -1.460000000000000E-002    1.814244620525641E-009
 -1.450000000000000E-002    2.481297952306624E-009
 -1.440000000000000E-002    2.846448510419155E-009
 -1.430000000000000E-002    2.835510567059284E-009
 -1.420000000000000E-002    2.430348467231465E-009
 -1.410000000000000E-002    1.675393531900591E-009
 -1.400000000000000E-002    6.746917900688940E-010
 -1.390000000000000E-002   -4.207234594371126E-010
 -1.380000000000000E-002   -1.433823268424956E-009
 -1.370000000000000E-002   -2.188223676561897E-009
 -1.360000000000000E-002   -2.536669877294679E-009
 -1.350000000000000E-002   -2.387009035184986E-009
 -1.340000000000000E-002   -1.721384074560417E-009
 -1.330000000000000E-002   -6.051408849863797E-010
 -1.320000000000000E-002    8.166886518497427E-010
 -1.310000000000000E-002    2.335688779848702E-009
 -1.300000000000000E-002    3.707556236614346E-009
 -1.290000000000000E-002    4.687381505853985E-009
 -1.280000000000000E-002    5.067911249411229E-009
 -1.270000000000000E-002    4.715257680877143E-009
 -1.260000000000000E-002    3.596610043705882E-009
 -1.250000000000000E-002    1.795428036510713E-009
 -1.240000000000000E-002   -4.887131723950056E-010
 -1.230000000000000E-002   -2.956255708428804E-009
 -1.220000000000000E-002   -5.238014742780765E-009
 -1.210000000000000E-002   -6.935716660918738E-009
 -1.200000000000000E-002   -7.667014138906197E-009
 -1.190000000000000E-002   -7.108237601621530E-009
 -1.180000000000000E-002   -5.028341707624600E-009
 -1.170000000000000E-002   -1.308453451167520E-009
 -1.160000000000000E-002    4.056514027098295E-009
 -1.150000000000000E-002    1.097520753008367E-008
 -1.140000000000000E-002    1.929424358550310E-008
 -1.130000000000000E-002    2.884516639970499E-008
 -1.120000000000000E-002    3.949743501439746E-008
 -1.110000000000000E-002    5.120954930263164E-008
 -1.100000000000000E-002    6.407077424172921E-008
 -1.090000000000000E-002    7.832671356735671E-008
 -1.080000000000000E-002    9.438433393004911E-008
 -1.070000000000000E-002    1.127950471224057E-007
 -1.060000000000000E-002    1.342174936472576E-007
 -1.050000000000000E-002    1.593649510149590E-007
 -1.040000000000000E-002    1.889441026954581E-007
 -1.030000000000000E-002    2.235946018748570E-007
 -1.020000000000000E-002    2.638373546151220E-007
 -1.010000000000000E-002    3.100399553702315E-007
 -1.000000000000000E-002    3.624040850561929E-007
 -9.899999999999999E-003    4.209776973244243E-007
 -9.800000000000000E-003    4.856902480214749E-007
 -9.699999999999999E-003    5.564069839768305E-007
 -9.599999999999999E-003    6.329942824883250E-007
 -9.500000000000000E-003    7.153873419389194E-007
 -9.399999999999999E-003    8.036501983110034E-007
 -9.299999999999999E-003    8.980197372173130E-007
 -9.200000000000000E-003    9.989268474829841E-007
 -9.099999999999999E-003    1.106991655009477E-006
 -8.999999999999999E-003    1.222993021330695E-006
 -8.900000000000000E-003    1.347816074565507E-006
 -8.799999999999999E-003    1.482386024550370E-006
 -8.699999999999999E-003    1.627596984478466E-006
 -8.600000000000000E-003    1.784246332152760E-006
 -8.499999999999999E-003    1.952985203185249E-006
 -8.399999999999999E-003    2.134292046146376E-006
 -8.300000000000000E-003    2.328475509351465E-006
 -8.199999999999999E-003    2.535705249848862E-006
 -8.100000000000000E-003    2.756070296066183E-006
 -8.000000000000000E-003    2.989655797559165E-006
 -7.899999999999999E-003    3.236628099471457E-006
 -7.800000000000000E-003    3.497318980868357E-006
 -7.699999999999999E-003    3.772293532784053E-006
 -7.599999999999999E-003    4.062395196547270E-006
 -7.499999999999999E-003    4.368759240834814E-006
 -7.399999999999999E-003    4.692790756309549E-006
 -7.299999999999999E-003    5.036112414443123E-006
 -7.199999999999999E-003    5.400485899904730E-006
 -7.100000000000000E-003    5.787717246118209E-006
 -6.999999999999999E-003    6.199560944618136E-006
 -6.899999999999999E-003    6.637636039456647E-006
 -6.800000000000000E-003    7.103366396785226E-006
 -6.699999999999999E-003    7.597958407437217E-006
 -6.599999999999999E-003    8.122414638810506E-006
 -6.499999999999999E-003    8.677594392407786E-006
 -6.399999999999999E-003    9.264301705966169E-006
 -6.299999999999999E-003    9.883404196990866E-006
 -6.199999999999999E-003    1.053595271963496E-005
 -6.100000000000000E-003    1.122330030385821E-005
 -5.999999999999999E-003    1.194719082361322E-005
 -5.899999999999999E-003    1.270981254759613E-005
 -5.800000000000000E-003    1.351380053959410E-005
 -5.699999999999999E-003    1.436219411981909E-005
 -5.599999999999999E-003    1.525834844950984E-005
 -5.499999999999999E-003    1.620581165749034E-005
 -5.399999999999999E-003    1.720818986285203E-005
 -5.299999999999999E-003    1.826901299530056E-005
 -5.199999999999999E-003    1.939163460614328E-005
 -5.099999999999999E-003    2.057916144739919E-005
 -4.999999999999999E-003    2.183444765823315E-005
 -4.899999999999999E-003    2.316014743111546E-005
 -4.799999999999999E-003    2.455881864738260E-005
 -4.699999999999999E-003    2.603307107279602E-005
 -4.599999999999999E-003    2.758573703801949E-005
 -4.499999999999999E-003    2.922004563653359E-005
 -4.399999999999999E-003    3.093976439314309E-005
 -4.299999999999999E-003    3.274930710938365E-005
 -4.199999999999999E-003    3.465376434463405E-005
 -4.099999999999999E-003    3.665888559372704E-005
 -3.999999999999999E-003    3.877098289720831E-005
 -3.899999999999999E-003    4.099679895862371E-005
 -3.799999999999999E-003    4.334332511505168E-005
 -3.699999999999999E-003    4.581764419510821E-005
 -3.599999999999999E-003    4.842676966312701E-005
 -3.499999999999999E-003    5.117755694578820E-005
 -3.399999999999999E-003    5.407665943472369E-005
 -3.299999999999999E-003    5.713057242337887E-005
 -3.199999999999999E-003    6.034572228164805E-005
 -3.099999999999999E-003    6.372864002443418E-005
 -2.999999999999999E-003    6.728614563263541E-005
 -2.899999999999999E-003    7.102554718833562E-005
 -2.799999999999999E-003    7.495480996059893E-005
 -2.699999999999999E-003    7.908267246254807E-005
 -2.599999999999999E-003    8.341872737995685E-005
 -2.499999999999999E-003    8.797339868053185E-005
 -2.399999999999999E-003    9.275785561291866E-005
 -2.299999999999999E-003    9.778390099727814E-005
 -2.199999999999999E-003    1.030637984213312E-004
 -2.099999999999999E-003    1.086101062348790E-004
 -1.999999999999999E-003    1.144355581895061E-004
 -1.899999999999999E-003    1.205529615856896E-004
 -1.799999999999999E-003    1.269751931487987E-004
 -1.699999999999999E-003    1.337152271074668E-004
 -1.599999999999999E-003    1.407862581167395E-004
 -1.499999999999999E-003    1.482018611382348E-004
 -1.399999999999999E-003    1.559761662353943E-004
 -1.299999999999999E-003    1.641241028051477E-004
 -1.199999999999999E-003    1.726614474610097E-004
 -1.099999999999999E-003    1.816050641539663E-004
 -9.999999999999989E-004    1.909728441904981E-004
 -8.999999999999990E-004    2.007837187982900E-004
 -7.999999999999990E-004    2.110576161798780E-004
 -6.999999999999989E-004    2.218153013337687E-004
 -5.999999999999990E-004    2.330782455332165E-004
 -4.999999999999989E-004    2.448684795983567E-004
 -3.999999999999989E-004    2.572084659731106E-004
 -2.999999999999989E-004    2.701211035174456E-004
 -1.999999999999989E-004    2.836296459698271E-004
 -9.999999999999892E-005    2.977577926182053E-004
  1.084202172485504E-018    3.125297449300132E-004
  1.000000000000011E-004    3.279704653342812E-004
  2.000000000000011E-004    3.441057875594201E-004
  3.000000000000011E-004    3.609625279526863E-004
  4.000000000000011E-004    3.785687705635286E-004
  5.000000000000011E-004    3.969538455239852E-004
  6.000000000000011E-004    4.161484535307289E-004
  7.000000000000011E-004    4.361846283303112E-004
  8.000000000000011E-004    4.570957601297194E-004
  9.000000000000012E-004    4.789164013412315E-004
  1.000000000000001E-003    5.016822022249433E-004
  1.100000000000001E-003    5.254299004204985E-004
  1.200000000000001E-003    5.501969948430074E-004
  1.300000000000001E-003    5.760218502660036E-004
  1.400000000000001E-003    6.029437007322139E-004
  1.500000000000001E-003    6.310025565468129E-004
  1.600000000000001E-003    6.602392323922126E-004
  1.700000000000001E-003    6.906957115219609E-004
  1.800000000000001E-003    7.224149590948158E-004
  1.900000000000001E-003    7.554412955004337E-004
  2.000000000000001E-003    7.898204350283522E-004
  2.100000000000001E-003    8.255996125624153E-004
  2.200000000000001E-003    8.628276838893102E-004
  2.300000000000001E-003    9.015552177333984E-004
  2.400000000000001E-003    9.418343951882937E-004
  2.500000000000001E-003    9.837191099528460E-004
  2.600000000000001E-003    1.027264731095161E-003
  2.700000000000001E-003    1.072528163510423E-003
  2.800000000000001E-003    1.119567647212630E-003
  2.900000000000001E-003    1.168442751624002E-003
  3.000000000000001E-003    1.219214018405297E-003
  3.100000000000001E-003    1.271943384434068E-003
  3.200000000000001E-003    1.326693667346199E-003
  3.300000000000001E-003    1.383528913438873E-003
  3.400000000000001E-003    1.442514383814927E-003
  3.500000000000001E-003    1.503716712645029E-003
  3.600000000000001E-003    1.567203946662708E-003
  3.700000000000001E-003    1.633045549535313E-003
  3.800000000000001E-003    1.701312886568659E-003
  3.900000000000001E-003    1.772078739612850E-003
  4.000000000000001E-003    1.845417699030304E-003
  4.100000000000001E-003    1.921406127748643E-003
  4.200000000000001E-003    2.000121791274514E-003
  4.300000000000001E-003    2.081644023357196E-003
  4.400000000000001E-003    2.166053672192637E-003
  4.500000000000001E-003    2.253432871767722E-003
  4.600000000000002E-003    2.343864641188523E-003
  4.700000000000001E-003    2.437433194857353E-003
  4.800000000000001E-003    2.534224085027662E-003
  4.900000000000002E-003    2.634323410616520E-003
  5.000000000000001E-003    2.737818925232939E-003
  5.100000000000001E-003    2.844799395186368E-003
  5.200000000000001E-003    2.955354732038473E-003
  5.300000000000002E-003    3.069576659441882E-003
  5.400000000000001E-003    3.187558025884767E-003
  5.500000000000001E-003    3.309393109692593E-003
  5.600000000000002E-003    3.435177987913950E-003
  5.700000000000001E-003    3.565010297100466E-003
  5.800000000000001E-003    3.698988302681704E-003
  5.900000000000002E-003    3.837211478115650E-003
  6.000000000000001E-003    3.979780398766354E-003
  6.100000000000001E-003    4.126796057700757E-003
  6.200000000000002E-003    4.278360076226405E-003
  6.300000000000002E-003    4.434574326799772E-003
  6.400000000000001E-003    4.595540749636623E-003
  6.500000000000001E-003    4.761362107453572E-003
  6.600000000000002E-003    4.932140845613746E-003
  6.700000000000001E-003    5.107980310637457E-003
  6.800000000000001E-003    5.288983928966627E-003
  6.900000000000002E-003    5.475255569547066E-003
  7.000000000000001E-003    5.666899244054567E-003
  7.100000000000001E-003    5.864019150854103E-003
  7.200000000000002E-003    6.066720545090290E-003
  7.300000000000002E-003    6.275107677639327E-003
  7.400000000000001E-003    6.489285631866331E-003
  7.500000000000001E-003    6.709357962524459E-003
  7.600000000000002E-003    6.935428638475925E-003
  7.700000000000001E-003    7.167600315849608E-003
  7.800000000000001E-003    7.405974774808879E-003
  7.900000000000001E-003    7.650652677772329E-003
  8.000000000000002E-003    7.901733338992821E-003
  8.100000000000001E-003    8.159314669828376E-003
  8.200000000000001E-003    8.423493849076452E-003
  8.300000000000002E-003    8.694366120554839E-003
  8.400000000000001E-003    8.972024846206687E-003
  8.500000000000002E-003    9.256562899542511E-003
  8.600000000000002E-003    9.548070244161599E-003
  8.700000000000001E-003    9.846634905338924E-003
  8.800000000000002E-003    1.015234321925238E-002
  8.900000000000002E-003    1.046527901281384E-002
  9.000000000000001E-003    1.078552197473514E-002
  9.100000000000002E-003    1.111315025029809E-002
  9.200000000000002E-003    1.144823761468770E-002
  9.300000000000001E-003    1.179085408712721E-002
  9.400000000000002E-003    1.214106611858809E-002
  9.500000000000001E-003    1.249893650887159E-002
  9.600000000000001E-003    1.286452356101463E-002
  9.700000000000002E-003    1.323788054555878E-002
  9.800000000000001E-003    1.361905847578427E-002
  9.900000000000001E-003    1.400810262351653E-002
  1.000000000000000E-002    1.440505291043043E-002
  1.010000000000000E-002    1.480994513858718E-002
  1.020000000000000E-002    1.522280998808924E-002
  1.030000000000000E-002    1.564367167162187E-002
  1.040000000000000E-002    1.607255050264712E-002
  1.050000000000000E-002    1.650946059208290E-002
  1.060000000000000E-002    1.695440733392674E-002
  1.070000000000000E-002    1.740739080554709E-002
  1.080000000000000E-002    1.786840541063999E-002
  1.090000000000000E-002    1.833743507052308E-002
  1.100000000000000E-002    1.881445989761085E-002
  1.110000000000000E-002    1.929944920240591E-002
  1.120000000000000E-002    1.979236551872516E-002
  1.130000000000000E-002    2.029316506536346E-002
  1.140000000000000E-002    2.080179418467023E-002
  1.150000000000000E-002    2.131819199176104E-002
  1.160000000000000E-002    2.184228863249433E-002
  1.170000000000000E-002    2.237400659255904E-002
  1.180000000000000E-002    2.291325624201627E-002
  1.190000000000000E-002    2.345994370774327E-002
  1.200000000000000E-002    2.401396370128289E-002
  1.210000000000000E-002    2.457520139454249E-002
  1.220000000000000E-002    2.514353410809259E-002
  1.230000000000000E-002    2.571882680853129E-002
  1.240000000000000E-002    2.630093371994565E-002
  1.250000000000000E-002    2.688970047997528E-002
  1.260000000000000E-002    2.748496010868400E-002
  1.270000000000000E-002    2.808653693135942E-002
  1.280000000000000E-002    2.869424277370863E-002
  1.290000000000000E-002    2.930787986048734E-002
  1.300000000000000E-002    2.992723589618756E-002
  1.310000000000000E-002    3.055209032538062E-002
  1.320000000000000E-002    3.118220819897803E-002
  1.330000000000000E-002    3.181734730367342E-002
  1.340000000000000E-002    3.245725150334147E-002
  1.350000000000000E-002    3.310165234402802E-002
  1.360000000000000E-002    3.375027232367699E-002
  1.370000000000000E-002    3.440282381740756E-002
  1.380000000000000E-002    3.505900193680530E-002
  1.390000000000000E-002    3.571849445408710E-002
  1.400000000000000E-002    3.638097231121344E-002
  1.410000000000000E-002    3.704609628475446E-002
  1.420000000000000E-002    3.771351683301205E-002
  1.430000000000000E-002    3.838286887674187E-002
  1.440000000000000E-002    3.905377675694956E-002
  1.450000000000000E-002    3.972585077649730E-002
  1.460000000000000E-002    4.039868886219414E-002
  1.470000000000000E-002    4.107188168144044E-002
  1.480000000000000E-002    4.174499918787802E-002
  1.490000000000000E-002    4.241760624511334E-002
  1.500000000000000E-002    4.308925717452295E-002
  1.510000000000000E-002    4.375949068885744E-002
  1.520000000000000E-002    4.442783721260487E-002
  1.530000000000000E-002    4.509381523530943E-002
  1.540000000000000E-002    4.575693212371695E-002
  1.550000000000000E-002    4.641667981322818E-002
  1.560000000000000E-002    4.707254658226522E-002
  1.570000000000000E-002    4.772400335320288E-002
  1.580000000000000E-002    4.837050897247833E-002
  1.590000000000000E-002    4.901151757510670E-002
  1.600000000000000E-002    4.964647103052020E-002
  1.610000000000000E-002    5.027480319919274E-002
  1.620000000000000E-002    5.089593216829801E-002
  1.630000000000000E-002    5.150927414527362E-002
  1.640000000000000E-002    5.211423549828570E-002
  1.650000000000000E-002    5.271021359962950E-002
  1.660000000000000E-002    5.329659957659309E-002
  1.670000000000000E-002    5.387277607209618E-002
  1.680000000000000E-002    5.443811774414219E-002
  1.690000000000000E-002    5.499199697913783E-002
  1.700000000000000E-002    5.553377904091059E-002
  1.710000000000000E-002    5.606281601769263E-002
  1.720000000000000E-002    5.657846695626224E-002
  1.730000000000000E-002    5.708007662792432E-002
  1.740000000000000E-002    5.756699103464787E-002
  1.750000000000000E-002    5.803855152143483E-002
  1.760000000000000E-002    5.849409541621901E-002
  1.770000000000000E-002    5.893295986167484E-002
  1.780000000000000E-002    5.935448118470214E-002
  1.790000000000000E-002    5.975799581696369E-002
  1.800000000000000E-002    6.014284282878219E-002
  1.810000000000000E-002    6.050836172231173E-002
  1.820000000000000E-002    6.085389047561320E-002
  1.830000000000000E-002    6.117877412253014E-002
  1.840000000000000E-002    6.148236254080108E-002
  1.850000000000000E-002    6.176400589017510E-002
  1.860000000000000E-002    6.202306364017336E-002
  1.870000000000000E-002    6.225889972380962E-002