 -4.000000000000000E-002    0.000000000000000E+000
 -3.990000000000000E-002    0.000000000000000E+000
 -3.980000000000000E-002    0.000000000000000E+000
 -3.970000000000000E-002    0.000000000000000E+000
 -3.960000000000000E-002    0.000000000000000E+000
 -3.950000000000000E-002    0.000000000000000E+000
 -3.940000000000000E-002    0.000000000000000E+000
 -3.930000000000000E-002    0.000000000000000E+000
 -3.920000000000000E-002    7.417721541231162E-029
 -3.910000000000000E-002    5.186559416982011E-028
 -3.900000000000000E-002   -1.146906995780162E-027
 -3.890000000000000E-002   -3.717338744855534E-026
 -3.880000000000000E-002   -2.962478398274280E-025
 -3.870000000000000E-002   -1.535715208806987E-024
 -3.860000000000000E-002   -6.082795488920937E-024
 -3.850000000000000E-002   -1.961762424838549E-023
 -3.840000000000000E-002   -5.303114872389835E-023
 -3.830000000000000E-002   -1.210538525411204E-022
 -3.820000000000000E-002   -2.291576285990264E-022
 -3.810000000000000E-002   -3.325536366936328E-022
 -3.800000000000000E-002   -2.437959341292385E-022
 -3.790000000000000E-002    5.337243770380235E-022
 -3.780000000000000E-002    3.046302778073243E-021
 -3.770000000000000E-002    9.141080325328543E-021
 -3.760000000000000E-002    2.154385752670437E-020
 -3.750000000000000E-002    4.340133063489043E-020
 -3.740000000000000E-002    7.672454798207311E-020
 -3.730000000000000E-002    1.190400698280172E-019
 -3.720000000000000E-002    1.576583871935919E-019
 -3.710000000000000E-002    1.615287282113941E-019
 -3.700000000000000E-002    7.189031794741043E-020
 -3.690000000000000E-002   -2.050220234873919E-019
 -3.680000000000000E-002   -7.972343381233237E-019
 -3.670000000000000E-002   -1.849440828516653E-018
 -3.660000000000000E-002   -3.477945143308297E-018
 -3.650000000000000E-002   -5.688437125950449E-018
 -3.640000000000000E-002   -8.252621215390800E-018
 -3.630000000000000E-002   -1.055201562192320E-017
 -3.620000000000000E-002   -1.141702078427247E-017
 -3.610000000000000E-002   -9.015122141329527E-018
 -3.600000000000000E-002   -8.693781972936788E-019
 -3.590000000000000E-002    1.589113756722910E-017
 -3.580000000000000E-002    4.394572873976203E-017
 -3.570000000000000E-002    8.478857803320791E-017
 -3.560000000000000E-002    1.373301277883530E-016
 -3.550000000000000E-002    1.962212501949491E-016
 -3.540000000000000E-002    2.501973096616994E-016
 -3.530000000000000E-002    2.809281209377098E-016
 -3.520000000000000E-002    2.630242473140455E-016
 -3.510000000000000E-002    1.659295505272239E-016
 -3.500000000000000E-002   -4.164826689760732E-017
 -3.490000000000000E-002   -3.844181642972894E-016
 -3.480000000000000E-002   -8.705082791391714E-016
 -3.470000000000000E-002   -1.479806222604132E-015
 -3.460000000000000E-002   -2.152618190184688E-015
 -3.450000000000000E-002   -2.781571843271159E-015
 -3.440000000000000E-002   -3.210357830653881E-015
 -3.430000000000000E-002   -3.243010527150169E-015
 -3.420000000000000E-002   -2.666649910584374E-015
 -3.410000000000000E-002   -1.288774574483875E-015
 -3.400000000000000E-002    1.012732045975955E-015
 -3.390000000000000E-002    4.232491380011969E-015
 -3.380000000000000E-002    8.183084406818462E-015
 -3.370000000000000E-002    1.245623412675689E-014
 -3.360000000000000E-002    1.641472598981891E-014
 -3.350000000000000E-002    1.922922306752289E-014
 -3.340000000000000E-002    1.996961747266657E-014
 -3.330000000000000E-002    1.775219117324652E-014
 -3.320000000000000E-002    1.193189039513424E-014
 -3.310000000000000E-002    2.315081484426887E-015
 -3.300000000000000E-002   -1.064541316226607E-014
 -3.290000000000000E-002   -2.572119492019808E-014
 -3.280000000000000E-002   -4.089602235215660E-014
 -3.270000000000000E-002   -5.351388152320529E-014
 -3.260000000000000E-002   -6.061115262485744E-014
 -3.250000000000000E-002   -5.942507815234673E-014
 -3.240000000000000E-002   -4.802984484641921E-014
 -3.230000000000000E-002   -2.600808686484984E-014
 -3.220000000000000E-002    4.972845646789676E-015
 -3.210000000000000E-002    4.083359183071866E-014
 -3.200000000000000E-002    7.515567103654312E-014
 -3.190000000000000E-002    9.977096776893732E-014
 -3.180000000000000E-002    1.059138899556025E-013
 -3.170000000000000E-002    8.588038438538533E-014
 -3.160000000000000E-002    3.501688436256851E-014
 -3.150000000000000E-002   -4.626016254085429E-014
 -3.140000000000000E-002   -1.508106691119463E-013
 -3.130000000000000E-002   -2.639269425769149E-013
 -3.120000000000000E-002   -3.637146428495451E-013
 -3.110000000000000E-002   -4.229967700488391E-013
 -3.100000000000000E-002   -4.128300074775356E-013
 -3.090000000000000E-002   -3.074402946357777E-013
 -3.080000000000000E-002   -9.006211061980870E-014
 -3.070000000000000E-002    2.411418740937014E-013
 -3.060000000000000E-002    6.681388854010794E-013
 -3.050000000000000E-002    1.150216203674252E-012
 -3.040000000000000E-002    1.624366923502434E-012
 -3.030000000000000E-002    2.009626621968173E-012
 -3.020000000000000E-002    2.215601004638234E-012
 -3.010000000000000E-002    2.154747442887021E-012
 -3.000000000000000E-002    1.757221346317896E-012
 -2.990000000000000E-002    9.863918836961214E-013
 -2.980000000000000E-002   -1.473968502524560E-013
 -2.970000000000000E-002   -1.577462151912026E-012
 -2.960000000000000E-002   -3.178266240726595E-012
 -2.950000000000000E-002   -4.771555327990738E-012
 -2.940000000000000E-002   -6.141885644502616E-012
 -2.930000000000000E-002   -7.060878399009911E-012
 -2.920000000000000E-002   -7.317992718368878E-012
 -2.910000000000000E-002   -6.754179078391749E-012
 -2.900000000000000E-002   -5.293670954165403E-012
 -2.890000000000000E-002   -2.968675432252824E-012
 -2.880000000000000E-002    6.799925283426357E-014
 -2.870000000000000E-002    3.546225015483867E-012
 -2.860000000000000E-002    7.099679158133096E-012
 -2.850000000000000E-002    1.030423082341206E-011
 -2.840000000000000E-002    1.273024353196851E-011
 -2.830000000000000E-002    1.400277994529252E-011
 -2.820000000000000E-002    1.386162340313745E-011
 -2.810000000000000E-002    1.221198605473579E-011
 -2.800000000000000E-002    9.156924607457470E-012
 -2.790000000000000E-002    5.004158699667057E-012
 -2.780000000000000E-002    2.429292135292704E-013
 -2.770000000000000E-002   -4.509418330232202E-012
 -2.760000000000000E-002   -8.586865018302883E-012
 -2.750000000000000E-002   -1.137139544008256E-011
 -2.740000000000000E-002   -1.239439682552259E-011
 -2.730000000000000E-002   -1.142793543525175E-011
 -2.720000000000000E-002   -8.550679727575728E-012
 -2.710000000000000E-002   -4.175056051026157E-012
 -2.700000000000000E-002    9.737493306250507E-013
 -2.690000000000000E-002    5.930406328435974E-012
 -2.680000000000000E-002    9.610002530749699E-012
 -2.670000000000000E-002    1.096529421068875E-011
 -2.660000000000000E-002    9.162527000333576E-012
 -2.650000000000000E-002    3.752427776283348E-012
 -2.640000000000000E-002   -5.189615063904858E-012
 -2.630000000000000E-002   -1.697953677411187E-011
 -2.620000000000000E-002   -3.031774268974332E-011
 -2.610000000000000E-002   -4.337257977546601E-011
 -2.600000000000000E-002   -5.395648143952341E-011
 -2.590000000000000E-002   -5.978433779307357E-011
 -2.580000000000000E-002   -5.879048591551738E-011
 -2.570000000000000E-002   -4.946861875134873E-011
 -2.560000000000000E-002   -3.119005199779873E-011
 -2.550000000000000E-002   -4.451629108901803E-012
 -2.540000000000000E-002    2.899355156722278E-011
 -2.530000000000000E-002    6.616042319928611E-011
 -2.520000000000000E-002    1.030334435681211E-010
 -2.510000000000000E-002    1.349459796482126E-010
 -2.500000000000000E-002    1.571128728664610E-010
 -2.490000000000000E-002    1.652654498275949E-010
 -2.480000000000000E-002    1.563151134705355E-010
 -2.470000000000000E-002    1.289548631117735E-010
 -2.460000000000000E-002    8.410251059367167E-011
 -2.450000000000000E-002    2.509636315360340E-011
 -2.440000000000000E-002   -4.242400429315643E-011
 -2.430000000000000E-002   -1.109834889071576E-010
 -2.420000000000000E-002   -1.720689438338303E-010
 -2.410000000000000E-002   -2.171914418198321E-010
 -2.400000000000000E-002   -2.390956463676913E-010
 -2.390000000000000E-002   -2.329581279516931E-010
 -2.380000000000000E-002   -1.973929764284994E-010
 -2.370000000000000E-002   -1.350848354164487E-010
 -2.360000000000000E-002   -5.289910088358427E-011
 -2.350000000000000E-002    3.862276506218756E-011
 -2.340000000000000E-002    1.263933225450968E-010
 -2.330000000000000E-002    1.964489806640266E-010
 -2.320000000000000E-002    2.359773086398337E-010
 -2.310000000000000E-002    2.354365618420189E-010
 -2.300000000000000E-002    1.904507863603943E-010
 -2.290000000000000E-002    1.031527252519990E-010
 -2.280000000000000E-002   -1.730910037089185E-011
 -2.270000000000000E-002   -1.552916004955112E-010
 -2.260000000000000E-002   -2.902605150833811E-010
 -2.250000000000000E-002   -3.993655127928802E-010
 -2.240000000000000E-002   -4.607075963182150E-010
 -2.230000000000000E-002   -4.568726048685597E-010
 -2.220000000000000E-002   -3.782072928247131E-010
 -2.210000000000000E-002   -2.252907075514644E-010
 -2.200000000000000E-002   -1.011299997053296E-011
 -2.190000000000000E-002    2.443784470866273E-010
 -2.180000000000000E-002    5.064866335171520E-010
 -2.170000000000000E-002    7.395812874563451E-010
 -2.160000000000000E-002    9.071056385675013E-010
 -2.150000000000000E-002    9.781184193076146E-010
 -2.140000000000000E-002    9.325581143138356E-010
 -2.130000000000000E-002    7.653722229910562E-010
 -2.120000000000000E-002    4.887435193872747E-010
 -2.110000000000000E-002    1.318701453014299E-010
 -2.100000000000000E-002   -2.619100335195398E-010
 -2.090000000000000E-002   -6.404573029427575E-010
 -2.080000000000000E-002   -9.500235652167962E-010
 -2.070000000000000E-002   -1.143341117995471E-009
 -2.060000000000000E-002   -1.187410394767897E-009
 -2.050000000000000E-002   -1.069728058876401E-009
 -2.040000000000000E-002   -8.018280949192989E-010
 -2.030000000000000E-002   -4.193380838449158E-010
 -2.020000000000000E-002    2.176366349203591E-011
 -2.010000000000000E-002    4.524236637216049E-010
 -2.000000000000000E-002    8.004690871000400E-010
 -1.990000000000000E-002    1.001890719011462E-009
 -1.980000000000000E-002    1.011773098997340E-009
 -1.970000000000000E-002    8.131102934124257E-010
 -1.960000000000000E-002    4.219347732199271E-010
 -1.950000000000000E-002   -1.123549469345527E-010
 -1.940000000000000E-002   -7.119107640318943E-010
 -1.930000000000000E-002   -1.280246866664680E-009
 -1.920000000000000E-002   -1.715800473013862E-009
 -1.910000000000000E-002   -1.927419589773735E-009
 -1.900000000000000E-002   -1.849518705905118E-009
 -1.890000000000000E-002   -1.454531492371100E-009
 -1.880000000000000E-002   -7.605400091605748E-010
 -1.870000000000000E-002    1.674434086383975E-010
 -1.860000000000000E-002    1.223188310090611E-009
 -1.850000000000000E-002    2.271572006051961E-009
 -1.840000000000000E-002    3.166101771419625E-009
 -1.830000000000000E-002    3.769341360181886E-009
 -1.820000000000000E-002    3.973370556214934E-009
 -1.810000000000000E-002    3.717239411093577E-009
 -1.800000000000000E-002    2.998663885939680E-009
 -1.790000000000000E-002    1.877924041824606E-009
 -1.780000000000000E-002    4.729922211507893E-010
 -1.770000000000000E-002   -1.053825813308620E-009
 -1.760000000000000E-002   -2.516181825090887E-009
 -1.750000000000000E-002   -3.728256493511617E-009
 -1.740000000000000E-002   -4.530219310997544E-009
 -1.730000000000000E-002   -4.810919362339268E-009
 -1.720000000000000E-002   -4.524419706842242E-009
 -1.710000000000000E-002   -3.697776442425833E-009
 -1.700000000000000E-002   -2.428654200519290E-009
 -1.690000000000000E-002   -8.728251401198035E-010
 -1.680000000000000E-002    7.769180200305394E-010
 -1.670000000000000E-002    2.317595180385398E-009
 -1.660000000000000E-002    3.564848023304749E-009
 -1.650000000000000E-002    4.379549402805251E-009
 -1.640000000000000E-002    4.688241555599356E-009
 -1.630000000000000E-002    4.494215399325476E-009
 -1.620000000000000E-002    3.877320760622069E-009
 -1.610000000000000E-002    2.982199933095005E-009
 -1.600000000000000E-002    1.996320835729908E-009
 -1.590000000000000E-002    1.120732169533402E-009
 -1.580000000000000E-002    5.376289707200071E-010
 -1.570000000000000E-002    3.794335867771054E-010
 -1.560000000000000E-002    7.040546747688724E-010
 -1.550000000000000E-002    1.480278753820528E-009
 -1.540000000000000E-002    2.585952471018917E-009
 -1.530000000000000E-002    3.819895867005430E-009
 -1.520000000000000E-002    4.926583897375407E-009
 -1.510000000000000E-002    5.630792677954858E-009
 -1.500000000000000E-002    5.677906891853940E-009
 -1.490000000000000E-002    4.874629493608236E-009
 -1.480000000000000E-002    3.124590924407898E-009
 -1.470000000000000E-002    4.538642861029308E-010
 -1.460000000000000E-002   -2.977380276607498E-009
 -1.450000000000000E-002   -6.879035943237933E-009
 -1.440000000000000E-002   -1.085085913660268E-008
 -1.430000000000000E-002   -1.441551364498466E-008
 -1.420000000000000E-002   -1.706052440877913E-008
 -1.410000000000000E-002   -1.828336019264264E-008
 -1.400000000000000E-002   -1.763322798343436E-008
 -1.390000000000000E-002   -1.474331861960963E-008
 -1.380000000000000E-002   -9.348403051406077E-009
 -1.370000000000000E-002   -1.284511516748098E-009
 -1.360000000000000E-002    9.530080583337445E-009
 -1.350000000000000E-002    2.313073479822762E-008
 -1.340000000000000E-002    3.955474623598331E-008
 -1.330000000000000E-002    5.889562710631380E-008
 -1.320000000000000E-002    8.135573757068318E-008
 -1.310000000000000E-002    1.072893807553209E-007
 -1.300000000000000E-002    1.372295888898434E-007
 -1.290000000000000E-002    1.718936563408028E-007
 -1.280000000000000E-002    2.121654058490525E-007
 -1.270000000000000E-002    2.590556175721899E-007
 -1.260000000000000E-002    3.136449304398815E-007
 -1.250000000000000E-002    3.770168654052486E-007
 -1.240000000000000E-002    4.501899541926625E-007
 -1.230000000000000E-002    5.340589943811833E-007
 -1.220000000000000E-002    6.293544146195045E-007
 -1.210000000000000E-002    7.366265354440406E-007
 -1.200000000000000E-002    8.562583672304006E-007
 -1.190000000000000E-002    9.885062940767375E-007
 -1.180000000000000E-002    1.133564131962744E-006
 -1.170000000000000E-002    1.291642246864659E-006
 -1.160000000000000E-002    1.463050430473210E-006
 -1.150000000000000E-002    1.648273410449301E-006
 -1.140000000000000E-002    1.848026667664054E-006
 -1.130000000000000E-002    2.063284604467443E-006
 -1.120000000000000E-002    2.295274913439518E-006
 -1.110000000000000E-002    2.545440511658504E-006
 -1.100000000000000E-002    2.815372818553329E-006
 -1.090000000000000E-002    3.106725339952279E-006
 -1.080000000000000E-002    3.421121968984250E-006
 -1.070000000000000E-002    3.760071753131356E-006
 -1.060000000000000E-002    4.124907029826382E-006
 -1.050000000000000E-002    4.516751673904719E-006
 -1.040000000000000E-002    4.936529974245009E-006
 -1.030000000000000E-002    5.385014725441319E-006
 -1.020000000000000E-002    5.862910669879825E-006
 -1.010000000000000E-002    6.370961867993567E-006
 -1.000000000000000E-002    6.910068033691620E-006
 -9.899999999999999E-003    7.481396353364535E-006
 -9.800000000000000E-003    8.086470439030125E-006
 -9.699999999999999E-003    8.727222916242695E-006
 -9.599999999999999E-003    9.406005698545601E-006
 -9.500000000000000E-003    1.012555490746138E-005
 -9.399999999999999E-003    1.088891440049536E-005
 -9.299999999999999E-003    1.169932915898450E-005
 -9.200000000000000E-003    1.256012493349616E-005
 -9.099999999999999E-003    1.347459235000363E-005
 -8.999999999999999E-003    1.444589065377730E-005
 -8.900000000000000E-003    1.547699088793991E-005
 -8.799999999999999E-003    1.657066410649430E-005
 -8.699999999999999E-003    1.772951905028036E-005
 -8.600000000000000E-003    1.895608573877471E-005
 -8.499999999999999E-003    2.025293938851243E-005
 -8.399999999999999E-003    2.162284314540420E-005
 -8.300000000000000E-003    2.306889066306169E-005
 -8.199999999999999E-003    2.459463770915310E-005
 -8.100000000000000E-003    2.620420014886562E-005
 -8.000000000000000E-003    2.790230118007688E-005
 -7.899999999999999E-003    2.969428522749459E-005
 -7.800000000000000E-003    3.158605708528974E-005
 -7.699999999999999E-003    3.358401519092786E-005
 -7.599999999999999E-003    3.569491884292741E-005
 -7.499999999999999E-003    3.792578428167062E-005
 -7.399999999999999E-003    4.028375910601103E-005
 -7.299999999999999E-003    4.277604517755800E-005
 -7.199999999999999E-003    4.540983372332678E-005
 -7.100000000000000E-003    4.819231847973593E-005
 -6.999999999999999E-003    5.113072251518275E-005
 -6.899999999999999E-003    5.423239649336058E-005
 -6.800000000000000E-003    5.750492343871143E-005
 -6.699999999999999E-003    6.095624449819302E-005
 -6.599999999999999E-003    6.459480760111547E-005
 -6.499999999999999E-003    6.842967608523611E-005
 -6.399999999999999E-003    7.247061458774631E-005
 -6.299999999999999E-003    7.672815244991193E-005
 -6.199999999999999E-003    8.121359431634541E-005
 -6.100000000000000E-003    8.593901005695380E-005
 -5.999999999999999E-003    9.091716567082723E-005
 -5.899999999999999E-003    9.616148605768171E-005
 -5.800000000000000E-003    1.016859649488741E-004
 -5.699999999999999E-003    1.075050964897366E-004
 -5.599999999999999E-003    1.136338675394749E-004
 -5.499999999999999E-003    1.200877102020400E-004
 -5.399999999999999E-003    1.268825271305191E-004
 -5.299999999999999E-003    1.340347585746820E-004
 -5.199999999999999E-003    1.415614565015178E-004
 -5.099999999999999E-003    1.494803575561052E-004
 -4.999999999999999E-003    1.578099876974253E-004
 -4.899999999999999E-003    1.665697580608944E-004
 -4.799999999999999E-003    1.757800238835446E-004
 -4.699999999999999E-003    1.854621302881573E-004
 -4.599999999999999E-003    1.956384558319860E-004
 -4.499999999999999E-003    2.063323875610581E-004
 -4.399999999999999E-003    2.175682812745592E-004
 -4.299999999999999E-003    2.293714376215775E-004
 -4.199999999999999E-003    2.417680845051912E-004
 -4.099999999999999E-003    2.547853417371450E-004
 -3.999999999999999E-003    2.684512219654287E-004
 -3.899999999999999E-003    2.827946997401915E-004
 -3.799999999999999E-003    2.978457670575883E-004
 -3.699999999999999E-003    3.136355392245486E-004
 -3.599999999999999E-003    3.301964380125543E-004
 -3.499999999999999E-003    3.475622307756808E-004
 -3.399999999999999E-003    3.657683337519219E-004
 -3.299999999999999E-003    3.848518071550367E-004
 -3.199999999999999E-003    4.048514964433635E-004
 -3.099999999999999E-003    4.258080960212206E-004
 -2.999999999999999E-003    4.477640900917975E-004
 -2.899999999999999E-003    4.707637529636184E-004
 -2.799999999999999E-003    4.948530095919335E-004
 -2.699999999999999E-003    5.200793799147709E-004
 -2.599999999999999E-003    5.464917769922444E-004
 -2.499999999999999E-003    5.741404389652483E-004
 -2.399999999999999E-003    6.030770051454548E-004
 -2.299999999999999E-003    6.333542421835428E-004
 -2.199999999999999E-003    6.650263539940097E-004
 -2.099999999999999E-003    6.981489920231356E-004
 -1.999999999999999E-003    7.327794186200574E-004
 -1.899999999999999E-003    7.689767221461554E-004
 -1.799999999999999E-003    8.068021347971050E-004
 -1.699999999999999E-003    8.463192113160760E-004
 -1.599999999999999E-003    8.875940428114755E-004
 -1.499999999999999E-003    9.306954322897700E-004
 -1.399999999999999E-003    9.756950315182285E-004
 -1.299999999999999E-003    1.022667334544056E-003
 -1.199999999999999E-003    1.071689680789578E-003
 -1.099999999999999E-003    1.122842042292299E-003
 -9.999999999999989E-004    1.176207130815224E-003
 -8.999999999999990E-004    1.231870130831818E-003
 -7.999999999999990E-004    1.289918580503156E-003
 -6.999999999999989E-004    1.350442450136107E-003
 -5.999999999999990E-004    1.413533734576433E-003
 -4.999999999999989E-004    1.479286923945477E-003
 -3.999999999999989E-004    1.547798832150702E-003
 -2.999999999999989E-004    1.619168559893530E-003
 -1.999999999999989E-004    1.693497904023927E-003
 -9.999999999999892E-005    1.770891691713859E-003
  1.084202172485504E-018    1.851457173676954E-003
  1.000000000000011E-004    1.935305260239955E-003
  2.000000000000011E-004    2.022549573546827E-003
  3.000000000000011E-004    2.113307408215711E-003
  4.000000000000011E-004    2.207699228207830E-003
  5.000000000000011E-004    2.305849082891564E-003
  6.000000000000011E-004    2.407884152726587E-003
  7.000000000000011E-004    2.513934960218183E-003
  8.000000000000011E-004    2.624135544556860E-003
  9.000000000000012E-004    2.738622804115595E-003
  1.000000000000001E-003    2.857536865369301E-003
  1.100000000000001E-003    2.981021428575383E-003
  1.200000000000001E-003    3.109222943510647E-003
  1.300000000000001E-003    3.242290934600579E-003
  1.400000000000001E-003    3.380378385548300E-003
  1.500000000000001E-003    3.523641377367822E-003
  1.600000000000001E-003    3.672239338581916E-003
  1.700000000000001E-003    3.826334745862018E-003
  1.800000000000001E-003    3.986093274850633E-003
  1.900000000000001E-003    4.151684955945643E-003
  2.000000000000001E-003    4.323281595699183E-003
  2.100000000000001E-003    4.501059772948970E-003
  2.200000000000001E-003    4.685199167970895E-003
  2.300000000000001E-003    4.875881854154485E-003
  2.400000000000001E-003    5.073294200390063E-003
  2.500000000000001E-003    5.277625416799604E-003
  2.600000000000001E-003    5.489067636074187E-003
  2.700000000000001E-003    5.707816198370221E-003
  2.800000000000001E-003    5.934070399780639E-003
  2.900000000000001E-003    6.168031534539319E-003
  3.000000000000001E-003    6.409903783478312E-003
  3.100000000000001E-003    6.659894737550041E-003
  3.200000000000001E-003    6.918213823343800E-003
  3.300000000000001E-003    7.185073676630072E-003
  3.400000000000001E-003    7.460689357050179E-003
  3.500000000000001E-003    7.745277218315676E-003
  3.600000000000001E-003    8.039057657911372E-003
  3.700000000000001E-003    8.342251558051844E-003
  3.800000000000001E-003    8.655082513897266E-003
  3.900000000000001E-003    8.977775719948662E-003
  4.000000000000001E-003    9.310558367177407E-003
  4.100000000000001E-003    9.653658586889029E-003
  4.200000000000001E-003    1.000730724764145E-002
  4.300000000000001E-003    1.037173653816387E-002
  4.400000000000001E-003    1.074717889101741E-002
  4.500000000000001E-003    1.113386751312857E-002
  4.600000000000002E-003    1.153203861968646E-002
  4.700000000000001E-003    1.194192721519780E-002
  4.800000000000001E-003    1.236376833772653E-002
  4.900000000000002E-003    1.279779877209198E-002
  5.000000000000001E-003    1.324425343257512E-002
  5.100000000000001E-003    1.370336552351732E-002
  5.200000000000001E-003    1.417536864721601E-002
  5.300000000000002E-003    1.466049628388316E-002
  5.400000000000001E-003    1.515897619560777E-002
  5.500000000000001E-003    1.567103867559781E-002
  5.600000000000002E-003    1.619690841017875E-002
  5.700000000000001E-003    1.673680740005510E-002
  5.800000000000001E-003    1.729095663715443E-002
  5.900000000000002E-003    1.785957447262794E-002
  6.000000000000001E-003    1.844287518930237E-002
  6.100000000000001E-003    1.904106898088292E-002
  6.200000000000002E-003    1.965436521064991E-002
  6.300000000000002E-003    2.028296608587782E-002
  6.400000000000001E-003    2.092707101519471E-002
  6.500000000000001E-003    2.158687382990231E-002
  6.600000000000002E-003    2.226256343311092E-002
  6.700000000000001E-003    2.295432326445886E-002
  6.800000000000001E-003    2.366232995560204E-002
  6.900000000000002E-003    2.438675148395264E-002
  7.000000000000001E-003    2.512774892426976E-002
  7.100000000000001E-003    2.588547520189470E-002
  7.200000000000002E-003    2.666007256882938E-002
  7.300000000000002E-003    2.745167230247260E-002
  7.400000000000001E-003    2.826040064148954E-002
  7.500000000000001E-003    2.908636532780215E-002
  7.600000000000002E-003    2.992966783025785E-002
  7.700000000000001E-003    3.079040017802763E-002
  7.800000000000001E-003    3.166863472375529E-002
  7.900000000000001E-003    3.256444116696012E-002
  8.000000000000002E-003    3.347786892721575E-002
  8.100000000000001E-003    3.440896037781872E-002
  8.200000000000001E-003    3.535773691538516E-002
  8.300000000000002E-003    3.632421155412850E-002
  8.400000000000001E-003    3.730838397280926E-002
  8.500000000000002E-003    3.831023370640751E-002
  8.600000000000002E-003    3.932972252919722E-002
  8.700000000000001E-003    4.036679939754109E-002
  8.800000000000002E-003    4.142139363007428E-002
  8.900000000000002E-003    4.249342079322193E-002
  9.000000000000001E-003    4.358277007350407E-002
  9.100000000000002E-003    4.468931494094747E-002
  9.200000000000002E-003    4.581290967074953E-002
  9.300000000000001E-003    4.695338378873166E-002
  9.400000000000002E-003    4.811055078664266E-002
  9.500000000000001E-003    4.928419789953020E-002
  9.600000000000001E-003    5.047408911738907E-002
  9.700000000000002E-003    5.167996947208608E-002
  9.800000000000001E-003    5.290155703534525E-002
  9.900000000000001E-003    5.413854239392402E-002
  1.000000000000000E-002    5.539059413271968E-002
  1.010000000000000E-002    5.665735672388873E-002
  1.020000000000000E-002    5.793844882578537E-002
  1.030000000000000E-002    5.923345422610244E-002
  1.040000000000000E-002    6.054193714012783E-002
  1.050000000000000E-002    6.186343366093078E-002
  1.060000000000000E-002    6.319745144596259E-002
  1.070000000000000E-002    6.454346948299768E-002
  1.080000000000000E-002    6.590093260950131E-002
  1.090000000000000E-002    6.726926907669280E-002
  1.100000000000000E-002    6.864786277611472E-002
  1.110000000000000E-002    7.003607570125286E-002
  1.120000000000000E-002    7.143324083709118E-002
  1.130000000000000E-002    7.283865964583602E-002
  1.140000000000000E-002    7.425160023742190E-002
  1.150000000000000E-002    7.567129798117557E-002
  1.160000000000000E-002    7.709695724475737E-002
  1.170000000000000E-002    7.852774686758598E-002
  1.180000000000000E-002    7.996281033704898E-002
  1.190000000000000E-002    8.140125169264288E-002
  1.200000000000000E-002    8.284214743286894E-002
  1.210000000000000E-002    8.428453699008073E-002
  1.220000000000000E-002    8.572742708948541E-002
  1.230000000000000E-002    8.716978917587370E-002
  1.240000000000000E-002    8.861056337658230E-002
  1.250000000000000E-002    9.004866077534573E-002
  1.260000000000000E-002    9.148294843045833E-002
  1.270000000000000E-002    9.291226903269062E-002
  1.280000000000000E-002    9.433542783318560E-002
  1.290000000000000E-002    9.575120629390077E-002
  1.300000000000000E-002    9.715834539948547E-002
  1.310000000000000E-002    9.855555969551748E-002
  1.320000000000000E-002    9.994151959586402E-002
  1.330000000000000E-002    0.101314872116482     
  1.340000000000000E-002    0.102674236891697     
  1.350000000000000E-002    0.104018197565685     
  1.360000000000000E-002    0.105345306396154     
  1.370000000000000E-002    0.106654087084864     
  1.380000000000000E-002    0.107943039881106     
  1.390000000000000E-002    0.109210626848003     
  1.400000000000000E-002    0.110455294287333     
  1.410000000000000E-002    0.111675454236316     
  1.420000000000000E-002    0.112869497313232     
  1.430000000000000E-002    0.114035785172661     
  1.440000000000000E-002    0.115172661798022     
  1.450000000000000E-002    0.116278433382226     
  1.460000000000000E-002    0.117351400336143     
  1.470000000000000E-002    0.118389826375787     
  1.480000000000000E-002    0.119391965401639     
  1.490000000000000E-002    0.120356056021501     
  1.500000000000000E-002    0.121280307259169     
  1.510000000000000E-002    0.122162918404983     
  1.520000000000000E-002    0.123002071115091     
  1.530000000000000E-002    0.123795941070406     
  1.540000000000000E-002    0.124542681398112     
  1.550000000000000E-002    0.125240443081739     
  1.560000000000000E-002    0.125887356944196     
  1.570000000000000E-002    0.126481565198789     
  1.580000000000000E-002    0.127021170939374     
  1.590000000000000E-002    0.127504312305514     
  1.600000000000000E-002    0.127929111635030     
  1.610000000000000E-002    0.128293676662759     
  1.620000000000000E-002    0.128596127898018     
  1.630000000000000E-002    0.128834602751934     
  1.640000000000000E-002    0.129007218996994     
  1.650000000000000E-002    0.129112117306493     
  1.660000000000000E-002    0.129147450646451     
  1.670000000000000E-002    0.129111374211392     
  1.680000000000000E-002    0.129002060967123     
  1.690000000000000E-002    0.128817694820219     
  1.700000000000000E-002    0.128556496325857     
  1.710000000000000E-002    0.128216676834763     
  1.720000000000000E-002    0.127796502406495     
  1.730000000000000E-002    0.127294233028064     
  1.740000000000000E-002    0.126708180393185     
  1.750000000000000E-002    0.126036671687659     
  1.760000000000000E-002    0.125278068145603     
  1.770000000000000E-002    0.124430757829938     
  1.780000000000000E-002    0.123493183866736     
  1.790000000000000E-002    0.122463807361760     
  1.800000000000000E-002    0.121341150915604     
  1.810000000000000E-002    0.120123758429183     
  1.820000000000000E-002    0.118810230487595     
  1.830000000000000E-002    0.117399225612555     
  1.840000000000000E-002    0.115889443302402     
  1.850000000000000E-002    0.114279634629720     
  1.860000000000000E-002    0.112568606397352     
  1.870000000000000E-002    0.110755227312395     