 -4.000000000000000E-002    0.000000000000000E+000
 -3.990000000000000E-002    0.000000000000000E+000
 -3.980000000000000E-002    0.000000000000000E+000
 -3.970000000000000E-002    0.000000000000000E+000
 -3.960000000000000E-002    0.000000000000000E+000
 -3.950000000000000E-002    0.000000000000000E+000
 -3.940000000000000E-002    0.000000000000000E+000
 -3.930000000000000E-002    0.000000000000000E+000
 -3.920000000000000E-002    0.000000000000000E+000
 -3.910000000000000E-002    0.000000000000000E+000
 -3.900000000000000E-002    0.000000000000000E+000
 -3.890000000000000E-002    0.000000000000000E+000
 -3.880000000000000E-002    0.000000000000000E+000
 -3.870000000000000E-002    0.000000000000000E+000
 -3.860000000000000E-002    0.000000000000000E+000
 -3.850000000000000E-002    0.000000000000000E+000
 -3.840000000000000E-002    0.000000000000000E+000
 -3.830000000000000E-002    0.000000000000000E+000
 -3.820000000000000E-002    0.000000000000000E+000
 -3.810000000000000E-002    0.000000000000000E+000
 -3.800000000000000E-002    0.000000000000000E+000
 -3.790000000000000E-002    0.000000000000000E+000
 -3.780000000000000E-002    0.000000000000000E+000
 -3.770000000000000E-002    0.000000000000000E+000
 -3.760000000000000E-002    0.000000000000000E+000
 -3.750000000000000E-002    0.000000000000000E+000
 -3.740000000000000E-002    0.000000000000000E+000
 -3.730000000000000E-002    0.000000000000000E+000
 -3.720000000000000E-002    0.000000000000000E+000
 -3.710000000000000E-002    0.000000000000000E+000
 -3.700000000000000E-002    0.000000000000000E+000
 -3.690000000000000E-002    0.000000000000000E+000
 -3.680000000000000E-002    0.000000000000000E+000
 -3.670000000000000E-002    0.000000000000000E+000
 -3.660000000000000E-002    0.000000000000000E+000
 -3.650000000000000E-002    0.000000000000000E+000
 -3.640000000000000E-002    0.000000000000000E+000
 -3.630000000000000E-002    0.000000000000000E+000
 -3.620000000000000E-002    0.000000000000000E+000
 -3.610000000000000E-002    0.000000000000000E+000
 -3.600000000000000E-002    0.000000000000000E+000
 -3.590000000000000E-002    0.000000000000000E+000
 -3.580000000000000E-002    0.000000000000000E+000
 -3.570000000000000E-002    0.000000000000000E+000
 -3.560000000000000E-002    0.000000000000000E+000
 -3.550000000000000E-002    0.000000000000000E+000
 -3.540000000000000E-002    0.000000000000000E+000
 -3.530000000000000E-002    0.000000000000000E+000
 -3.520000000000000E-002    0.000000000000000E+000
 -3.510000000000000E-002    0.000000000000000E+000
 -3.500000000000000E-002    0.000000000000000E+000
 -3.490000000000000E-002    0.000000000000000E+000
 -3.480000000000000E-002    0.000000000000000E+000
 -3.470000000000000E-002    0.000000000000000E+000
 -3.460000000000000E-002    0.000000000000000E+000
 -3.450000000000000E-002    0.000000000000000E+000
 -3.440000000000000E-002    0.000000000000000E+000
 -3.430000000000000E-002    0.000000000000000E+000
 -3.420000000000000E-002    0.000000000000000E+000
 -3.410000000000000E-002    0.000000000000000E+000
 -3.400000000000000E-002    0.000000000000000E+000
 -3.390000000000000E-002    0.000000000000000E+000
 -3.380000000000000E-002    0.000000000000000E+000
 -3.370000000000000E-002    0.000000000000000E+000
 -3.360000000000000E-002    0.000000000000000E+000
 -3.350000000000000E-002    0.000000000000000E+000
 -3.340000000000000E-002    0.000000000000000E+000
 -3.330000000000000E-002    0.000000000000000E+000
 -3.320000000000000E-002    0.000000000000000E+000
 -3.310000000000000E-002    0.000000000000000E+000
 -3.300000000000000E-002    0.000000000000000E+000
 -3.290000000000000E-002    0.000000000000000E+000
 -3.280000000000000E-002    0.000000000000000E+000
 -3.270000000000000E-002    0.000000000000000E+000
 -3.260000000000000E-002    0.000000000000000E+000
 -3.250000000000000E-002    0.000000000000000E+000
 -3.240000000000000E-002    0.000000000000000E+000
 -3.230000000000000E-002    0.000000000000000E+000
 -3.220000000000000E-002    0.000000000000000E+000
 -3.210000000000000E-002    0.000000000000000E+000
 -3.200000000000000E-002    0.000000000000000E+000
 -3.190000000000000E-002    0.000000000000000E+000
 -3.180000000000000E-002    0.000000000000000E+000
 -3.170000000000000E-002    0.000000000000000E+000
 -3.160000000000000E-002    0.000000000000000E+000
 -3.150000000000000E-002    0.000000000000000E+000
 -3.140000000000000E-002    0.000000000000000E+000
 -3.130000000000000E-002    0.000000000000000E+000
 -3.120000000000000E-002    0.000000000000000E+000
 -3.110000000000000E-002    0.000000000000000E+000
 -3.100000000000000E-002    0.000000000000000E+000
 -3.090000000000000E-002    0.000000000000000E+000
 -3.080000000000000E-002    0.000000000000000E+000
 -3.070000000000000E-002    0.000000000000000E+000
 -3.060000000000000E-002    0.000000000000000E+000
 -3.050000000000000E-002    0.000000000000000E+000
 -3.040000000000000E-002    0.000000000000000E+000
 -3.030000000000000E-002    0.000000000000000E+000
 -3.020000000000000E-002    0.000000000000000E+000
 -3.010000000000000E-002    0.000000000000000E+000
 -3.000000000000000E-002    0.000000000000000E+000
 -2.990000000000000E-002    0.000000000000000E+000
 -2.980000000000000E-002    0.000000000000000E+000
 -2.970000000000000E-002    0.000000000000000E+000
 -2.960000000000000E-002    0.000000000000000E+000
 -2.950000000000000E-002    0.000000000000000E+000
 -2.940000000000000E-002    0.000000000000000E+000
 -2.930000000000000E-002    0.000000000000000E+000
 -2.920000000000000E-002    0.000000000000000E+000
 -2.910000000000000E-002    0.000000000000000E+000
 -2.900000000000000E-002    0.000000000000000E+000
 -2.890000000000000E-002    0.000000000000000E+000
 -2.880000000000000E-002    0.000000000000000E+000
 -2.870000000000000E-002    0.000000000000000E+000
 -2.860000000000000E-002    0.000000000000000E+000
 -2.850000000000000E-002    0.000000000000000E+000
 -2.840000000000000E-002    0.000000000000000E+000
 -2.830000000000000E-002    0.000000000000000E+000
 -2.820000000000000E-002    0.000000000000000E+000
 -2.810000000000000E-002    0.000000000000000E+000
 -2.800000000000000E-002    0.000000000000000E+000
 -2.790000000000000E-002    0.000000000000000E+000
 -2.780000000000000E-002    0.000000000000000E+000
 -2.770000000000000E-002    0.000000000000000E+000
 -2.760000000000000E-002    0.000000000000000E+000
 -2.750000000000000E-002    0.000000000000000E+000
 -2.740000000000000E-002    0.000000000000000E+000
 -2.730000000000000E-002    0.000000000000000E+000
 -2.720000000000000E-002    0.000000000000000E+000
 -2.710000000000000E-002    0.000000000000000E+000
 -2.700000000000000E-002    0.000000000000000E+000
 -2.690000000000000E-002    0.000000000000000E+000
 -2.680000000000000E-002    0.000000000000000E+000
 -2.670000000000000E-002    0.000000000000000E+000
 -2.660000000000000E-002    0.000000000000000E+000
 -2.650000000000000E-002    0.000000000000000E+000
 -2.640000000000000E-002    0.000000000000000E+000
 -2.630000000000000E-002    0.000000000000000E+000
 -2.620000000000000E-002    0.000000000000000E+000
 -2.610000000000000E-002    0.000000000000000E+000
 -2.600000000000000E-002    0.000000000000000E+000
 -2.590000000000000E-002    0.000000000000000E+000
 -2.580000000000000E-002    0.000000000000000E+000
 -2.570000000000000E-002    0.000000000000000E+000
 -2.560000000000000E-002    0.000000000000000E+000
 -2.550000000000000E-002    0.000000000000000E+000
 -2.540000000000000E-002    0.000000000000000E+000
 -2.530000000000000E-002    0.000000000000000E+000
 -2.520000000000000E-002    0.000000000000000E+000
 -2.510000000000000E-002    0.000000000000000E+000
 -2.500000000000000E-002    0.000000000000000E+000
 -2.490000000000000E-002    0.000000000000000E+000
 -2.480000000000000E-002    0.000000000000000E+000
 -2.470000000000000E-002    0.000000000000000E+000
 -2.460000000000000E-002    0.000000000000000E+000
 -2.450000000000000E-002    0.000000000000000E+000
 -2.440000000000000E-002    0.000000000000000E+000
 -2.430000000000000E-002    0.000000000000000E+000
 -2.420000000000000E-002    0.000000000000000E+000
 -2.410000000000000E-002    0.000000000000000E+000
 -2.400000000000000E-002    0.000000000000000E+000
 -2.390000000000000E-002    0.000000000000000E+000
 -2.380000000000000E-002    0.000000000000000E+000
 -2.370000000000000E-002    0.000000000000000E+000
 -2.360000000000000E-002    0.000000000000000E+000
 -2.350000000000000E-002    0.000000000000000E+000
 -2.340000000000000E-002    0.000000000000000E+000
 -2.330000000000000E-002    0.000000000000000E+000
 -2.320000000000000E-002    0.000000000000000E+000
 -2.310000000000000E-002    0.000000000000000E+000
 -2.300000000000000E-002    0.000000000000000E+000
 -2.290000000000000E-002    0.000000000000000E+000
 -2.280000000000000E-002    0.000000000000000E+000
 -2.270000000000000E-002    0.000000000000000E+000
 -2.260000000000000E-002    0.000000000000000E+000
 -2.250000000000000E-002    0.000000000000000E+000
 -2.240000000000000E-002    0.000000000000000E+000
 -2.230000000000000E-002    0.000000000000000E+000
 -2.220000000000000E-002    0.000000000000000E+000
 -2.210000000000000E-002    0.000000000000000E+000
 -2.200000000000000E-002    0.000000000000000E+000
 -2.190000000000000E-002    0.000000000000000E+000
 -2.180000000000000E-002    0.000000000000000E+000
 -2.170000000000000E-002    0.000000000000000E+000
 -2.160000000000000E-002    0.000000000000000E+000
 -2.150000000000000E-002    0.000000000000000E+000
 -2.140000000000000E-002    0.000000000000000E+000
 -2.130000000000000E-002    0.000000000000000E+000
 -2.120000000000000E-002    0.000000000000000E+000
 -2.110000000000000E-002    0.000000000000000E+000
 -2.100000000000000E-002    0.000000000000000E+000
 -2.090000000000000E-002    0.000000000000000E+000
 -2.080000000000000E-002    0.000000000000000E+000
 -2.070000000000000E-002    0.000000000000000E+000
 -2.060000000000000E-002    0.000000000000000E+000
 -2.050000000000000E-002    0.000000000000000E+000
 -2.040000000000000E-002    0.000000000000000E+000
 -2.030000000000000E-002    0.000000000000000E+000
 -2.020000000000000E-002    0.000000000000000E+000
 -2.010000000000000E-002    0.000000000000000E+000
 -2.000000000000000E-002    0.000000000000000E+000
 -1.990000000000000E-002    0.000000000000000E+000
 -1.980000000000000E-002    0.000000000000000E+000
 -1.970000000000000E-002    0.000000000000000E+000
 -1.960000000000000E-002    0.000000000000000E+000
 -1.950000000000000E-002    0.000000000000000E+000
 -1.940000000000000E-002    0.000000000000000E+000
 -1.930000000000000E-002    0.000000000000000E+000
 -1.920000000000000E-002    0.000000000000000E+000
 -1.910000000000000E-002    0.000000000000000E+000
 -1.900000000000000E-002    0.000000000000000E+000
 -1.890000000000000E-002    0.000000000000000E+000
 -1.880000000000000E-002    0.000000000000000E+000
 -1.870000000000000E-002    0.000000000000000E+000
 -1.860000000000000E-002    0.000000000000000E+000
 -1.850000000000000E-002    0.000000000000000E+000
 -1.840000000000000E-002    0.000000000000000E+000
 -1.830000000000000E-002    0.000000000000000E+000
 -1.820000000000000E-002    0.000000000000000E+000
 -1.810000000000000E-002    0.000000000000000E+000
 -1.800000000000000E-002    0.000000000000000E+000
 -1.790000000000000E-002    0.000000000000000E+000
 -1.780000000000000E-002    0.000000000000000E+000
 -1.770000000000000E-002    0.000000000000000E+000
 -1.760000000000000E-002    0.000000000000000E+000
 -1.750000000000000E-002    0.000000000000000E+000
 -1.740000000000000E-002    0.000000000000000E+000
 -1.730000000000000E-002    0.000000000000000E+000
 -1.720000000000000E-002    0.000000000000000E+000
 -1.710000000000000E-002    0.000000000000000E+000
 -1.700000000000000E-002    0.000000000000000E+000
 -1.690000000000000E-002    0.000000000000000E+000
 -1.680000000000000E-002    0.000000000000000E+000
 -1.670000000000000E-002    0.000000000000000E+000
 -1.660000000000000E-002    0.000000000000000E+000
 -1.650000000000000E-002    0.000000000000000E+000
 -1.640000000000000E-002    0.000000000000000E+000
 -1.630000000000000E-002    0.000000000000000E+000
 -1.620000000000000E-002    0.000000000000000E+000
 -1.610000000000000E-002    0.000000000000000E+000
 -1.600000000000000E-002    0.000000000000000E+000
 -1.590000000000000E-002    0.000000000000000E+000
 -1.580000000000000E-002    0.000000000000000E+000
 -1.570000000000000E-002    0.000000000000000E+000
 -1.560000000000000E-002    0.000000000000000E+000
 -1.550000000000000E-002    0.000000000000000E+000
 -1.540000000000000E-002    0.000000000000000E+000
 -1.530000000000000E-002    0.000000000000000E+000
 -1.520000000000000E-002    0.000000000000000E+000
 -1.510000000000000E-002    0.000000000000000E+000
 -1.500000000000000E-002    6.414635304221270E-048
 -1.490000000000000E-002    1.282927060844254E-047
 -1.480000000000000E-002    1.924390591266381E-047
 -1.470000000000000E-002    1.924390591266381E-047
 -1.460000000000000E-002    1.282927060844254E-047
 -1.450000000000000E-002    0.000000000000000E+000
 -1.440000000000000E-002   -7.404886472679843E-047
 -1.430000000000000E-002   -2.114555353400265E-046
 -1.420000000000000E-002   -3.574150530255496E-046
 -1.410000000000000E-002   -5.539698435405063E-046
 -1.400000000000000E-002   -7.290757788232789E-046
 -1.390000000000000E-002   -7.667750434928235E-046
 -1.380000000000000E-002   -6.176885542291042E-046
 -1.370000000000000E-002    3.227338408066310E-047
 -1.360000000000000E-002    8.625397034680266E-046
 -1.350000000000000E-002    1.988212934606801E-045
 -1.340000000000000E-002    3.445281772752071E-045
 -1.330000000000000E-002    4.910997412566019E-045
 -1.320000000000000E-002    5.833033847465933E-045
 -1.310000000000000E-002    5.879340403487210E-045
 -1.300000000000000E-002    5.406231140164410E-045
 -1.290000000000000E-002    2.604797707910759E-045
 -1.280000000000000E-002   -1.343830513698641E-045
 -1.270000000000000E-002   -7.700576950847582E-045
 -1.260000000000000E-002   -1.517679712025834E-044
 -1.250000000000000E-002   -2.349057532308300E-044
 -1.240000000000000E-002   -3.094909956593803E-044
 -1.230000000000000E-002   -3.391368746908475E-044
 -1.220000000000000E-002   -3.017572152484183E-044
 -1.210000000000000E-002   -1.682443284466041E-044
 -1.200000000000000E-002    7.355459109609176E-045
 -1.190000000000000E-002    4.524623152875566E-044
 -1.180000000000000E-002    9.263783586341428E-044
 -1.170000000000000E-002    1.436156362264220E-043
 -1.160000000000000E-002    1.873137761804574E-043
 -1.150000000000000E-002    2.089756386691750E-043
 -1.140000000000000E-002    1.927208913078134E-043
 -1.130000000000000E-002    1.189861954698621E-043
 -1.120000000000000E-002   -2.305708023821176E-044
 -1.110000000000000E-002   -2.356685970275883E-043
 -1.100000000000000E-002   -5.045246804653709E-043
 -1.090000000000000E-002   -7.951877317836691E-043
 -1.080000000000000E-002   -1.046581395661061E-042
 -1.070000000000000E-002   -1.177675720083042E-042
 -1.060000000000000E-002   -1.092880065290759E-042
 -1.050000000000000E-002   -6.997717145477713E-043
 -1.040000000000000E-002    6.700580908460171E-044
 -1.030000000000000E-002    1.215533517108138E-042
 -1.020000000000000E-002    2.667851318681106E-042
 -1.010000000000000E-002    4.232128537060147E-042
 -1.000000000000000E-002    5.590598608553293E-042
 -9.899999999999999E-003    6.313389075411114E-042
 -9.800000000000000E-003    5.906113117268567E-042
 -9.699999999999999E-003    3.893990636338595E-042
 -9.599999999999999E-003   -5.423294052123136E-044
 -9.500000000000000E-003   -5.974381680432937E-042
 -9.399999999999999E-003   -1.345108037372450E-041
 -9.299999999999999E-003   -2.149565743985621E-041
 -9.200000000000000E-003   -2.849416354390786E-041
 -9.099999999999999E-003   -3.228651704258457E-041
 -8.999999999999999E-003   -3.040879894905617E-041
 -8.900000000000000E-003   -2.052652364556395E-041
 -8.799999999999999E-003   -1.047775821971484E-042
 -8.699999999999999E-003    2.814434128560009E-041
 -8.600000000000000E-003    6.495207556903738E-041
 -8.499999999999999E-003    1.044955378061627E-040
 -8.399999999999999E-003    1.389202326651016E-040
 -8.300000000000000E-003    1.578193231036178E-040
 -8.199999999999999E-003    1.494478662773124E-040
 -8.100000000000000E-003    1.028180544358302E-040
 -8.000000000000000E-003    1.060710545484485E-041
 -7.899999999999999E-003   -1.274347078404352E-040
 -7.800000000000000E-003   -3.011231327819818E-040
 -7.699999999999999E-003   -4.873527334967455E-040
 -7.599999999999999E-003   -6.494320250330903E-040
 -7.499999999999999E-003   -7.392624238292150E-040
 -7.399999999999999E-003   -7.031365349704482E-040
 -7.299999999999999E-003   -4.914724961377494E-040
 -7.199999999999999E-003   -7.202355108196790E-041
 -7.100000000000000E-003    5.549017931464774E-040
 -6.999999999999999E-003    1.341802234732018E-039
 -6.899999999999999E-003    2.183548995526552E-039
 -6.800000000000000E-003    2.915406369174895E-039
 -6.699999999999999E-003    3.323744013023046E-039
 -6.599999999999999E-003    3.172594381899129E-039
 -6.499999999999999E-003    2.247023823425119E-039
 -6.399999999999999E-003    4.108628360615251E-040
 -6.299999999999999E-003   -2.328035114611792E-039
 -6.199999999999999E-003   -5.756467085169934E-039
 -6.100000000000000E-003   -9.414077533915512E-039
 -5.999999999999999E-003   -1.258896341831926E-038
 -5.899999999999999E-003   -1.436782405929819E-038
 -5.800000000000000E-003   -1.375281996667124E-038
 -5.699999999999999E-003   -9.847473420958033E-039
 -5.599999999999999E-003   -2.099413587034208E-039
 -5.499999999999999E-003    9.430208540431236E-039
 -5.399999999999999E-003    2.381951673143918E-038
 -5.299999999999999E-003    3.912544332044008E-038
 -5.199999999999999E-003    5.238219337901751E-038
 -5.099999999999999E-003    5.982553782591032E-038
 -4.999999999999999E-003    5.738740663059529E-038
 -4.899999999999999E-003    4.146356914457742E-038
 -4.799999999999999E-003    9.897631187671468E-039
 -4.699999999999999E-003   -3.694668315431875E-038
 -4.599999999999999E-003   -9.522520633416071E-038
 -4.499999999999999E-003   -1.570222842739507E-037
 -4.399999999999999E-003   -2.104097478881909E-037
 -4.299999999999999E-003   -2.404072905943624E-037
 -4.199999999999999E-003   -2.309992512200720E-037
 -4.099999999999999E-003   -1.681929123631221E-037
 -3.999999999999999E-003   -4.386924237882675E-038
 -3.899999999999999E-003    1.400963248118181E-037
 -3.799999999999999E-003    3.682329142654619E-037
 -3.699999999999999E-003    6.093831205834067E-037
 -3.599999999999999E-003    8.171746543928116E-037
 -3.499999999999999E-003    9.339658461587921E-037
 -3.399999999999999E-003    8.987779795151405E-037
 -3.299999999999999E-003    6.590647238401574E-037
 -3.199999999999999E-003    1.852777967525795E-037
 -3.099999999999999E-003   -5.138210238435079E-037
 -2.999999999999999E-003   -1.378107421219247E-036
 -2.899999999999999E-003   -2.288981120053005E-036
 -2.799999999999999E-003   -3.072007685052035E-036
 -2.699999999999999E-003   -3.512495310580992E-036
 -2.599999999999999E-003   -3.385626520375932E-036
 -2.499999999999999E-003   -2.500256488212394E-036
 -2.399999999999999E-003   -7.522288456224239E-037
 -2.299999999999999E-003    1.820546168416716E-036
 -2.199999999999999E-003    4.992302453983637E-036
 -2.099999999999999E-003    8.326139300351577E-036
 -1.999999999999999E-003    1.118662607256326E-035
 -1.899999999999999E-003    1.279902075974470E-035
 -1.799999999999999E-003    1.235992073509745E-035
 -1.699999999999999E-003    9.195038536957277E-036
 -1.599999999999999E-003    2.948243002482815E-036
 -1.499999999999999E-003   -6.226458604178798E-036
 -1.399999999999999E-003   -1.750928882874952E-035
 -1.299999999999999E-003   -2.934141015439621E-035
 -1.199999999999999E-003   -3.947937236096677E-035
 -1.099999999999999E-003   -4.521224149394714E-035
 -9.999999999999989E-004   -4.375487164747241E-035
 -8.999999999999990E-004   -3.279864144466865E-035
 -7.999999999999990E-004   -1.116134114151596E-035
 -6.999999999999989E-004    2.056371664658953E-035
 -5.999999999999990E-004    5.949477646452569E-035
 -4.999999999999989E-004    1.002398136774803E-034
 -3.999999999999989E-004    1.351152182379948E-034
 -2.999999999999989E-004    1.549149934668063E-034
 -1.999999999999989E-004    1.502651844462985E-034
 -9.999999999999892E-005    1.134886131769374E-034
  1.084202172485504E-018    4.077332791064110E-035
  1.000000000000011E-004   -6.569678272828704E-035
  2.000000000000011E-004   -1.961009768888077E-034
  3.000000000000011E-004   -3.323375517301782E-034
  4.000000000000011E-004   -4.488524617012572E-034
  5.000000000000011E-004   -5.152768030148925E-034
  6.000000000000011E-004   -5.009520696825667E-034
  7.000000000000011E-004   -3.810613303408363E-034
  8.000000000000011E-004   -1.436586379161238E-034
  9.000000000000012E-004    2.035337522617093E-034
  1.000000000000001E-003    6.280255894354790E-034
  1.100000000000001E-003    1.070766516906468E-033
  1.200000000000001E-003    1.449136748836288E-033
  1.300000000000001E-003    1.665712577730226E-033
  1.400000000000001E-003    1.622951598359987E-033
  1.500000000000001E-003    1.242789183037103E-033
  1.600000000000001E-003    4.888030628550643E-034
  1.700000000000001E-003   -6.126899252776424E-034
  1.800000000000001E-003   -1.957218386474601E-033
  1.900000000000001E-003   -3.357395551579014E-033
  2.000000000000001E-003   -4.553254509879353E-033
  2.100000000000001E-003   -5.240517824252703E-033
  2.200000000000001E-003   -5.116938348278155E-033
  2.300000000000001E-003   -3.943249060623769E-033
  2.400000000000001E-003   -1.611208243034868E-033
  2.500000000000001E-003    1.792620081409334E-033
  2.600000000000001E-003    5.941483130601005E-033
  2.700000000000001E-003    1.025640336397863E-032
  2.800000000000001E-003    1.394051242309038E-032
  2.900000000000001E-003    1.606762231036583E-032
  3.000000000000001E-003    1.572452284580562E-032
  3.100000000000001E-003    1.219563813589451E-032
  3.200000000000001E-003    5.166621876148999E-033
  3.300000000000001E-003   -5.087614005238992E-033
  3.400000000000001E-003   -1.757258674926693E-032
  3.500000000000001E-003   -3.054545044785893E-032
  3.600000000000001E-003   -4.162489348803091E-032
  3.700000000000001E-003   -4.806087829449289E-032
  3.800000000000001E-003   -4.716022198095759E-032
  3.900000000000001E-003   -3.683188899963283E-032
  4.000000000000001E-003   -1.618122059388042E-032
  4.100000000000001E-003    1.394896080335767E-032
  4.200000000000001E-003    5.061294316410135E-032
  4.300000000000001E-003    8.869741035671101E-032
  4.400000000000001E-003    1.212610513154036E-031
  4.500000000000001E-003    1.403337095790053E-031
  4.600000000000002E-003    1.381565368346452E-031
  4.700000000000001E-003    1.087526946381012E-031
  4.800000000000001E-003    4.962032714202683E-032
  4.900000000000002E-003   -3.674622849136193E-032
  5.000000000000001E-003   -1.418543220664739E-031
  5.100000000000001E-003   -2.510785687375608E-031
  5.200000000000001E-003   -3.446755697434542E-031
  5.300000000000002E-003   -4.000881247047659E-031
  5.400000000000001E-003   -3.954687607538872E-031
  5.500000000000001E-003   -3.140948113178409E-031
  5.600000000000002E-003   -1.490795246305959E-031
  5.700000000000001E-003    9.244705523733356E-032
  5.800000000000001E-003    3.866479095219273E-031
  5.900000000000002E-003    6.927286568545294E-031
  6.000000000000001E-003    9.558745539252649E-031
  6.100000000000001E-003    1.113720117469768E-030
  6.200000000000002E-003    1.106114344827492E-030
  6.300000000000002E-003    8.872384815487976E-031
  6.400000000000001E-003    4.384166933605613E-031
  6.500000000000001E-003   -2.206437450617302E-031
  6.600000000000002E-003   -1.024777517947213E-030
  6.700000000000001E-003   -1.862975828270402E-030
  6.800000000000001E-003   -2.586630960993685E-030
  6.900000000000002E-003   -3.027241898526982E-030
  7.000000000000001E-003   -3.022826774635600E-030
  7.100000000000001E-003   -2.450414563900007E-030
  7.200000000000002E-003   -1.260105414538133E-030
  7.300000000000002E-003    4.953544754528828E-031
  7.400000000000001E-003    2.642329846715814E-030
  7.500000000000001E-003    4.885952357886688E-030
  7.600000000000002E-003    6.832605141393265E-030
  7.700000000000001E-003    8.037179533324251E-030
  7.800000000000001E-003    8.072846140141500E-030
  7.900000000000001E-003    6.616216435947210E-030
  8.000000000000002E-003    3.535934522152481E-030
  8.100000000000001E-003   -1.031108099344687E-030
  8.200000000000001E-003   -6.633622171641353E-030
  8.300000000000002E-003   -1.250652427825035E-029
  8.400000000000001E-003   -1.763059121358324E-029
  8.500000000000002E-003   -2.085555158901683E-029
  8.600000000000002E-003   -2.108021898663584E-029
  8.700000000000001E-003   -1.747082346384557E-029
  8.800000000000002E-003   -9.686602501652559E-030
  8.900000000000002E-003    1.927731722319741E-030
  9.000000000000001E-003    1.622729324357468E-029
  9.100000000000002E-003    3.127168418675346E-029
  9.200000000000002E-003    4.447908098438523E-029
  9.300000000000001E-003    5.293939813680760E-029
  9.400000000000002E-003    5.386906413029400E-029
  9.500000000000001E-003    4.515889059748756E-029
  9.600000000000001E-003    2.593682308098881E-029
  9.700000000000002E-003   -2.955285900346121E-030
  9.800000000000001E-003   -3.868128416202553E-029
  9.900000000000001E-003   -7.642839367409476E-029
  1.000000000000000E-002   -1.097947650409874E-028
  1.010000000000000E-002   -1.315680738381394E-028
  1.020000000000000E-002   -1.348488738556499E-028
  1.030000000000000E-002   -1.143970227185448E-028
  1.040000000000000E-002   -6.800789827059567E-029
  1.050000000000000E-002    2.328237328450668E-030
  1.060000000000000E-002    8.975107884467440E-029
  1.070000000000000E-002    1.825831867733931E-028
  1.080000000000000E-002    2.652798709571097E-028
  1.090000000000000E-002    3.203211080131781E-028
  1.100000000000000E-002    3.309274530255790E-028
  1.110000000000000E-002    2.843022750396623E-028
  1.120000000000000E-002    1.749328083273031E-028
  1.130000000000000E-002    7.359812602274580E-030
  1.140000000000000E-002   -2.022193114068969E-028
  1.150000000000000E-002   -4.260874838707675E-028
  1.160000000000000E-002   -6.272759145574029E-028
  1.170000000000000E-002   -7.640578966824693E-028
  1.180000000000000E-002   -7.963777843996810E-028
  1.190000000000000E-002   -6.935027168941536E-028
  1.200000000000000E-002   -4.417927562662964E-028
  1.210000000000000E-002   -5.120393804209421E-029
  1.220000000000000E-002    4.409545117801990E-028
  1.230000000000000E-002    9.703326545074575E-028
  1.240000000000000E-002    1.450815949264662E-027
  1.250000000000000E-002    1.784960927917154E-027
  1.260000000000000E-002    1.878896625521874E-027
  1.270000000000000E-002    1.660028617652035E-027
  1.280000000000000E-002    1.094989478700659E-027
  1.290000000000000E-002    2.046526753242043E-028
  1.300000000000000E-002   -9.271703935201869E-028
  1.310000000000000E-002   -2.154357325802049E-027
  1.320000000000000E-002   -3.280429751117816E-027
  1.330000000000000E-002   -4.082251910926134E-027
  1.340000000000000E-002   -4.343860253732558E-027
  1.350000000000000E-002   -3.896629838860417E-027
  1.360000000000000E-002   -2.659989407266208E-027
  1.370000000000000E-002   -6.755112779076576E-028
  1.380000000000000E-002    1.873206939118469E-027
  1.390000000000000E-002    4.661581414217059E-027
  1.400000000000000E-002    7.250444974597057E-027
  1.410000000000000E-002    9.138682155559167E-027
  1.420000000000000E-002    9.838477167050768E-027
  1.430000000000000E-002    8.964714631032697E-027
  1.440000000000000E-002    6.325673414811234E-027
  1.450000000000000E-002    1.999174523164633E-027
  1.460000000000000E-002   -3.622532274096675E-027
  1.470000000000000E-002   -9.833871692058305E-027
  1.480000000000000E-002   -1.567275848853552E-026
  1.490000000000000E-002   -2.003501379271198E-026
  1.500000000000000E-002   -2.183842421785685E-026
  1.510000000000000E-002   -2.021800928653577E-026
  1.520000000000000E-002   -1.472455387516046E-026
  1.530000000000000E-002   -5.492025590341143E-027
  1.540000000000000E-002    6.662296714611961E-027
  1.550000000000000E-002    2.023679956641445E-026
  1.560000000000000E-002    3.316467425869762E-026
  1.570000000000000E-002    4.305732510613535E-026
  1.580000000000000E-002    4.755514216796607E-026
  1.590000000000000E-002    4.474628706099058E-026
  1.600000000000000E-002    3.359400833245419E-026
  1.610000000000000E-002    1.429916603761501E-026
  1.620000000000000E-002   -1.147892760991320E-026
  1.630000000000000E-002   -4.061115432457448E-026
  1.640000000000000E-002   -6.874169377677578E-026
  1.650000000000000E-002   -9.079480528557514E-026
  1.660000000000000E-002   -1.017104593073517E-025
  1.670000000000000E-002   -9.732669772456906E-026
  1.680000000000000E-002   -7.528426835527409E-026
  1.690000000000000E-002   -3.580047637837041E-026
  1.700000000000000E-002    1.784898005264495E-026
  1.710000000000000E-002    7.928250038096801E-026
  1.720000000000000E-002    1.394941798238276E-025
  1.730000000000000E-002    1.878861428877078E-025
  1.740000000000000E-002    2.137816924548100E-025
  1.750000000000000E-002    2.082515668382961E-025
  1.760000000000000E-002    1.659988098924749E-025
  1.770000000000000E-002    8.698716251082533E-026
  1.780000000000000E-002   -2.251861533653125E-026
  1.790000000000000E-002   -1.497952299744274E-025
  1.800000000000000E-002   -2.765846741096451E-025
  1.810000000000000E-002   -3.811497780786670E-025
  1.820000000000000E-002   -4.413259461302581E-025
  1.830000000000000E-002   -4.382344446864966E-025
  1.840000000000000E-002   -3.601466087484867E-025
  1.850000000000000E-002   -2.058628306969720E-025
  1.860000000000000E-002    1.306651976984546E-026
  1.870000000000000E-002    2.718787505927966E-025