 -4.000000000000000E-002    0.000000000000000E+000
 -3.990000000000000E-002    0.000000000000000E+000
 -3.980000000000000E-002    0.000000000000000E+000
 -3.970000000000000E-002    0.000000000000000E+000
 -3.960000000000000E-002    0.000000000000000E+000
 -3.950000000000000E-002    0.000000000000000E+000
 -3.940000000000000E-002    0.000000000000000E+000
 -3.930000000000000E-002    0.000000000000000E+000
 -3.920000000000000E-002    0.000000000000000E+000
 -3.910000000000000E-002    0.000000000000000E+000
 -3.900000000000000E-002    0.000000000000000E+000
 -3.890000000000000E-002    0.000000000000000E+000
 -3.880000000000000E-002    0.000000000000000E+000
 -3.870000000000000E-002    0.000000000000000E+000
 -3.860000000000000E-002    0.000000000000000E+000
 -3.850000000000000E-002    0.000000000000000E+000
 -3.840000000000000E-002    0.000000000000000E+000
 -3.830000000000000E-002    0.000000000000000E+000
 -3.820000000000000E-002    0.000000000000000E+000
 -3.810000000000000E-002    0.000000000000000E+000
 -3.800000000000000E-002    0.000000000000000E+000
 -3.790000000000000E-002    0.000000000000000E+000
 -3.780000000000000E-002    0.000000000000000E+000
 -3.770000000000000E-002    0.000000000000000E+000
 -3.760000000000000E-002    0.000000000000000E+000
 -3.750000000000000E-002    0.000000000000000E+000
 -3.740000000000000E-002    0.000000000000000E+000
 -3.730000000000000E-002    0.000000000000000E+000
 -3.720000000000000E-002    0.000000000000000E+000
 -3.710000000000000E-002    0.000000000000000E+000
 -3.700000000000000E-002    0.000000000000000E+000
 -3.690000000000000E-002    0.000000000000000E+000
 -3.680000000000000E-002    0.000000000000000E+000
 -3.670000000000000E-002    0.000000000000000E+000
 -3.660000000000000E-002    0.000000000000000E+000
 -3.650000000000000E-002    0.000000000000000E+000
 -3.640000000000000E-002    0.000000000000000E+000
 -3.630000000000000E-002    0.000000000000000E+000
 -3.620000000000000E-002    0.000000000000000E+000
 -3.610000000000000E-002    0.000000000000000E+000
 -3.600000000000000E-002    0.000000000000000E+000
 -3.590000000000000E-002    0.000000000000000E+000
 -3.580000000000000E-002    0.000000000000000E+000
 -3.570000000000000E-002    0.000000000000000E+000
 -3.560000000000000E-002    0.000000000000000E+000
 -3.550000000000000E-002    0.000000000000000E+000
 -3.540000000000000E-002    0.000000000000000E+000
 -3.530000000000000E-002    0.000000000000000E+000
 -3.520000000000000E-002    0.000000000000000E+000
 -3.510000000000000E-002    0.000000000000000E+000
 -3.500000000000000E-002    0.000000000000000E+000
 -3.490000000000000E-002    0.000000000000000E+000
 -3.480000000000000E-002    0.000000000000000E+000
 -3.470000000000000E-002    0.000000000000000E+000
 -3.460000000000000E-002    0.000000000000000E+000
 -3.450000000000000E-002    0.000000000000000E+000
 -3.440000000000000E-002    0.000000000000000E+000
 -3.430000000000000E-002    0.000000000000000E+000
 -3.420000000000000E-002    0.000000000000000E+000
 -3.410000000000000E-002    0.000000000000000E+000
 -3.400000000000000E-002    0.000000000000000E+000
 -3.390000000000000E-002    0.000000000000000E+000
 -3.380000000000000E-002    0.000000000000000E+000
 -3.370000000000000E-002    0.000000000000000E+000
 -3.360000000000000E-002    0.000000000000000E+000
 -3.350000000000000E-002    0.000000000000000E+000
 -3.340000000000000E-002    0.000000000000000E+000
 -3.330000000000000E-002    0.000000000000000E+000
 -3.320000000000000E-002    0.000000000000000E+000
 -3.310000000000000E-002    0.000000000000000E+000
 -3.300000000000000E-002    0.000000000000000E+000
 -3.290000000000000E-002    0.000000000000000E+000
 -3.280000000000000E-002    0.000000000000000E+000
 -3.270000000000000E-002    0.000000000000000E+000
 -3.260000000000000E-002    0.000000000000000E+000
 -3.250000000000000E-002    0.000000000000000E+000
 -3.240000000000000E-002    6.414635304221270E-048
 -3.230000000000000E-002   -3.421138828918010E-048
 -3.220000000000000E-002   -4.276423536147513E-049
 -3.210000000000000E-002    1.546186228157750E-047
 -3.200000000000000E-002   -3.126971578196169E-048
 -3.190000000000000E-002    3.009565690086152E-047
 -3.180000000000000E-002    1.100108649613054E-046
 -3.170000000000000E-002    9.893220629818975E-047
 -3.160000000000000E-002    1.984127045669553E-046
 -3.150000000000000E-002    8.157291455288578E-047
 -3.140000000000000E-002   -9.979978937221106E-047
 -3.130000000000000E-002   -8.651013915844208E-046
 -3.120000000000000E-002   -2.606280756648063E-045
 -3.110000000000000E-002   -4.879008546291743E-045
 -3.100000000000000E-002   -8.007443107964428E-045
 -3.090000000000000E-002   -1.175041011185948E-044
 -3.080000000000000E-002   -1.423634581523887E-044
 -3.070000000000000E-002   -1.381553113743292E-044
 -3.060000000000000E-002   -6.316426736120190E-045
 -3.050000000000000E-002    1.444788195728594E-044
 -3.040000000000000E-002    5.802843711981761E-044
 -3.030000000000000E-002    1.351238210301239E-043
 -3.020000000000000E-002    2.549017504621807E-043
 -3.010000000000000E-002    4.162486572885631E-043
 -3.000000000000000E-002    6.002310760351489E-043
 -2.990000000000000E-002    7.497391035311860E-043
 -2.980000000000000E-002    7.548096340739199E-043
 -2.970000000000000E-002    4.268598999821024E-043
 -2.960000000000000E-002   -5.033887259921948E-043
 -2.950000000000000E-002   -2.376758571302094E-042
 -2.940000000000000E-002   -5.536270640344983E-042
 -2.930000000000000E-002   -1.018905360887496E-041
 -2.920000000000000E-002   -1.616468486704167E-041
 -2.910000000000000E-002   -2.254833853562067E-041
 -2.900000000000000E-002   -2.721759287840797E-041
 -2.890000000000000E-002   -2.635664164911706E-041
 -2.880000000000000E-002   -1.411296965232684E-041
 -2.870000000000000E-002    1.730697588896153E-041
 -2.860000000000000E-002    7.668798136482312E-041
 -2.850000000000000E-002    1.714780287999262E-040
 -2.840000000000000E-002    3.035697671690807E-040
 -2.830000000000000E-002    4.628605170733418E-040
 -2.820000000000000E-002    6.188070285181244E-040
 -2.810000000000000E-002    7.111036631370652E-040
 -2.800000000000000E-002    6.420665151596655E-040
 -2.790000000000000E-002    2.751334039306177E-040
 -2.780000000000000E-002   -5.541353995910287E-040
 -2.770000000000000E-002   -2.006713101285517E-039
 -2.760000000000000E-002   -4.180469134055675E-039
 -2.750000000000000E-002   -7.017082788367483E-039
 -2.740000000000000E-002   -1.017726869779782E-038
 -2.730000000000000E-002   -1.289866165765356E-038
 -2.720000000000000E-002   -1.386941222630687E-038
 -2.710000000000000E-002   -1.117411274125930E-038
 -2.700000000000000E-002   -2.393498736614659E-039
 -2.690000000000000E-002    1.504209307675828E-038
 -2.680000000000000E-002    4.314501966270821E-038
 -2.670000000000000E-002    8.223969491936433E-038
 -2.660000000000000E-002    1.294218075915271E-037
 -2.650000000000000E-002    1.767638132186118E-037
 -2.640000000000000E-002    2.096326386062765E-037
 -2.630000000000000E-002    2.057466263685013E-037
 -2.620000000000000E-002    1.358650270785614E-037
 -2.610000000000000E-002   -3.279856852642886E-038
 -2.600000000000000E-002   -3.293487522543947E-037
 -2.590000000000000E-002   -7.674045190789822E-037
 -2.580000000000000E-002   -1.328794944159033E-036
 -2.570000000000000E-002   -1.944258345846282E-036
 -2.560000000000000E-002   -2.474712057815827E-036
 -2.550000000000000E-002   -2.699164278688667E-036
 -2.540000000000000E-002   -2.317861132121779E-036
 -2.530000000000000E-002   -9.810447274349570E-037
 -2.520000000000000E-002    1.646339647547154E-036
 -2.510000000000000E-002    5.776772802281631E-036
 -2.500000000000000E-002    1.134941472348817E-035
 -2.490000000000000E-002    1.784951347776255E-035
 -2.480000000000000E-002    2.412886014608747E-035
 -2.470000000000000E-002    2.827953879116582E-035
 -2.460000000000000E-002    2.763420897642330E-035
 -2.450000000000000E-002    1.898028655765139E-035
 -2.440000000000000E-002   -9.252589547690263E-037
 -2.430000000000000E-002   -3.448062502428412E-035
 -2.420000000000000E-002   -8.200391239475832E-035
 -2.410000000000000E-002   -1.402398525750538E-034
 -2.400000000000000E-002   -2.008490377053043E-034
 -2.390000000000000E-002   -2.492828316825080E-034
 -2.380000000000000E-002   -2.646034986318138E-034
 -2.370000000000000E-002   -2.209090557724162E-034
 -2.360000000000000E-002   -9.101013662545515E-035
 -2.350000000000000E-002    1.471972329489113E-034
 -2.340000000000000E-002    5.016632769776925E-034
 -2.330000000000000E-002    9.551474334923622E-034
 -2.320000000000000E-002    1.453911637826035E-033
 -2.310000000000000E-002    1.898962116742171E-033
 -2.300000000000000E-002    2.143697917647149E-033
 -2.290000000000000E-002    2.002467445747043E-033
 -2.280000000000000E-002    1.274381557499125E-033
 -2.270000000000000E-002   -2.146700808831019E-034
 -2.260000000000000E-002   -2.551852875565070E-033
 -2.250000000000000E-002   -5.663819252857444E-033
 -2.240000000000000E-002   -9.240764634905831E-033
 -2.230000000000000E-002   -1.267603118238500E-032
 -2.220000000000000E-002   -1.504556878140003E-032
 -2.210000000000000E-002   -1.515514578249151E-032
 -2.200000000000000E-002   -1.168179600023646E-032
 -2.190000000000000E-002   -3.427081796007743E-033
 -2.180000000000000E-002    1.031886118210411E-032
 -2.170000000000000E-002    2.933158483625974E-032
 -2.160000000000000E-002    5.199071534123834E-032
 -2.150000000000000E-002    7.490778856775435E-032
 -2.140000000000000E-002    9.278381327254053E-032
 -2.130000000000000E-002    9.865533471779239E-032
 -2.120000000000000E-002    8.467614138524559E-032
 -2.110000000000000E-002    4.352837434950179E-032
 -2.100000000000000E-002   -2.954848137099766E-032
 -2.090000000000000E-002   -1.342793909003401E-031
 -2.080000000000000E-002   -2.627926535390103E-031
 -2.070000000000000E-002   -3.975508168389016E-031
 -2.060000000000000E-002   -5.105240760752078E-031
 -2.050000000000000E-002   -5.644392711083622E-031
 -2.040000000000000E-002   -5.168578850160466E-031
 -2.030000000000000E-002   -3.275348302973798E-031
 -2.020000000000000E-002    3.105037479929640E-032
 -2.010000000000000E-002    5.609140390716322E-031
 -2.000000000000000E-002    1.225456382119862E-030
 -1.990000000000000E-002    1.938957911599132E-030
 -1.980000000000000E-002    2.562437282600285E-030
 -1.970000000000000E-002    2.909941558531986E-030
 -1.960000000000000E-002    2.768849098782480E-030
 -1.950000000000000E-002    1.936161048656030E-030
 -1.940000000000000E-002    2.699519433777109E-031
 -1.930000000000000E-002   -2.248808387563783E-030
 -1.920000000000000E-002   -5.453551779422861E-030
 -1.910000000000000E-002   -8.942689013368982E-030
 -1.900000000000000E-002   -1.206113343022980E-029
 -1.890000000000000E-002   -1.393153288485459E-029
 -1.880000000000000E-002   -1.355102415210900E-029
 -1.870000000000000E-002   -9.961516609474821E-030
 -1.860000000000000E-002   -2.488181243593207E-030
 -1.850000000000000E-002    8.977394930844858E-030
 -1.840000000000000E-002    2.369380257230885E-029
 -1.830000000000000E-002    3.985068475086319E-029
 -1.820000000000000E-002    5.449287866694096E-029
 -1.810000000000000E-002    6.366903071267003E-029
 -1.800000000000000E-002    6.287144491028203E-029
 -1.790000000000000E-002    4.779692009228352E-029
 -1.780000000000000E-002    1.539874671805719E-029
 -1.770000000000000E-002   -3.487846920709859E-029
 -1.760000000000000E-002   -9.987829059012772E-029
 -1.750000000000000E-002   -1.718053054596623E-028
 -1.740000000000000E-002   -2.379250667568495E-028
 -1.730000000000000E-002   -2.812279251849617E-028
 -1.720000000000000E-002   -2.823221440828736E-028
 -1.710000000000000E-002   -2.226609345622608E-028
 -1.700000000000000E-002   -8.895750311660272E-029
 -1.690000000000000E-002    1.216838112190065E-028
 -1.680000000000000E-002    3.967449071761241E-028
 -1.670000000000000E-002    7.045243401527567E-028
 -1.660000000000000E-002    9.929627240333327E-028
 -1.650000000000000E-002    1.192387982641701E-027
 -1.640000000000000E-002    1.223191444426143E-027
 -1.630000000000000E-002    1.008786231942530E-027
 -1.620000000000000E-002    4.931891091641927E-028
 -1.610000000000000E-002   -3.386920562308475E-028
 -1.600000000000000E-002   -1.441335729943862E-027
 -1.590000000000000E-002   -2.693897396188523E-027
 -1.580000000000000E-002   -3.895641448710116E-027
 -1.570000000000000E-002   -4.776474539879284E-027
 -1.560000000000000E-002   -5.026265892172066E-027
 -1.550000000000000E-002   -4.344049707840279E-027
 -1.540000000000000E-002   -2.504410881356116E-027
 -1.530000000000000E-002    5.663366721141901E-028
 -1.520000000000000E-002    4.716453859030823E-027
 -1.510000000000000E-002    9.513968903529109E-027
 -1.500000000000000E-002    1.422939156784273E-026
 -1.490000000000000E-002    1.787365554259680E-026
 -1.480000000000000E-002    1.930404477269483E-026
 -1.470000000000000E-002    1.740133984653238E-026
 -1.460000000000000E-002    1.130775172914646E-026
 -1.450000000000000E-002    6.986771673642545E-028
 -1.440000000000000E-002   -1.395553062906165E-026
 -1.430000000000000E-002   -3.119540474517068E-026
 -1.420000000000000E-002   -4.851031669289265E-026
 -1.410000000000000E-002   -6.246872320970699E-026
 -1.400000000000000E-002   -6.908280738530184E-026
 -1.390000000000000E-002   -6.441618024964509E-026
 -1.380000000000000E-002   -4.539654950864586E-026
 -1.370000000000000E-002   -1.073924744682598E-026
 -1.360000000000000E-002    3.816728764099983E-026
 -1.350000000000000E-002    9.660783755694593E-026
 -1.340000000000000E-002    1.563314943520831E-025
 -1.330000000000000E-002    2.059833365921605E-025
 -1.320000000000000E-002    2.323091196598985E-025
 -1.310000000000000E-002    2.221533467287415E-025
 -1.300000000000000E-002    1.651169535861186E-025
 -1.290000000000000E-002    5.656219848944061E-026
 -1.280000000000000E-002   -9.952328765612360E-026
 -1.270000000000000E-002   -2.884256414070626E-025
 -1.260000000000000E-002   -4.840435683517702E-025
 -1.250000000000000E-002   -6.502763745880400E-025
 -1.240000000000000E-002   -7.448607317290359E-025
 -1.230000000000000E-002   -7.256942983350833E-025
 -1.220000000000000E-002   -5.592003570463557E-025
 -1.210000000000000E-002   -2.297302378169575E-025
 -1.200000000000000E-002    2.515268050812470E-025
 -1.190000000000000E-002    8.400556940380262E-025
 -1.180000000000000E-002    1.456015163174300E-024
 -1.170000000000000E-002    1.988550428826210E-024
 -1.160000000000000E-002    2.307587355547664E-024
 -1.150000000000000E-002    2.283142725832957E-024
 -1.140000000000000E-002    1.810726465170438E-024
 -1.130000000000000E-002    8.397496077616998E-025
 -1.120000000000000E-002   -5.996931338477360E-025
 -1.110000000000000E-002   -2.377434495885286E-024
 -1.100000000000000E-002   -4.257310754989808E-024
 -1.090000000000000E-002   -5.910029466148978E-024
 -1.080000000000000E-002   -6.948085276403769E-024
 -1.070000000000000E-002   -6.982659485257928E-024
 -1.060000000000000E-002   -5.698147959830063E-024
 -1.050000000000000E-002   -2.935184905554652E-024
 -1.040000000000000E-002    1.231362518064891E-024
 -1.030000000000000E-002    6.436016533274659E-024
 -1.020000000000000E-002    1.200529232714519E-023
 -1.010000000000000E-002    1.699420276068991E-023
 -1.000000000000000E-002    2.028562282817726E-023
 -9.899999999999999E-003    2.075193086441504E-023
 -9.800000000000000E-003    1.746618466526189E-023
 -9.699999999999999E-003    9.936867831852992E-024
 -9.599999999999999E-003   -1.671818640007534E-024
 -9.500000000000000E-003   -1.638032150089782E-023
 -9.399999999999999E-003   -3.234266607757638E-023
 -9.299999999999999E-003   -4.694467087992649E-023
 -9.200000000000000E-003   -5.707535940335843E-023
 -9.099999999999999E-003   -5.956934227462822E-023
 -8.999999999999999E-003   -5.178446784077053E-023
 -8.900000000000000E-003   -3.224386571718022E-023
 -8.799999999999999E-003   -1.239038400077499E-024
 -8.699999999999999E-003    3.873017663960381E-023
 -8.600000000000000E-003    8.280686783084952E-023
 -8.499999999999999E-003    1.240274060593681E-022
 -8.399999999999999E-003    1.540336031583233E-022
 -8.300000000000000E-003    1.642391129912627E-022
 -8.199999999999999E-003    1.473555909907242E-022
 -8.100000000000000E-003    9.909102683938103E-023
 -8.000000000000000E-003    1.975008529511140E-023
 -7.899999999999999E-003   -8.458748714113996E-023
 -7.800000000000000E-003   -2.016412120723098E-022
 -7.699999999999999E-003   -3.135358467611195E-022
 -7.599999999999999E-003   -3.985983523430435E-022
 -7.499999999999999E-003   -4.343264507625651E-022
 -7.399999999999999E-003   -4.012863052196261E-022
 -7.299999999999999E-003   -2.874621269998644E-022
 -7.199999999999999E-003   -9.237367943636923E-023
 -7.100000000000000E-003    1.698552961635083E-022
 -6.999999999999999E-003    4.693095373148731E-022
 -6.899999999999999E-003    7.616748892227389E-022
 -6.800000000000000E-003    9.926088973870309E-022
 -6.699999999999999E-003    1.105044122520610E-021
 -6.599999999999999E-003    1.048829035356514E-021
 -6.499999999999999E-003    7.915313429195879E-022
 -6.399999999999999E-003    3.287269067726845E-022
 -6.299999999999999E-003   -3.082260716380503E-022
 -6.199999999999999E-003   -1.048957713907868E-021
 -6.100000000000000E-003   -1.787113257858983E-021
 -5.999999999999999E-003   -2.390610290647756E-021
 -5.899999999999999E-003   -2.719040755649122E-021
 -5.800000000000000E-003   -2.646799315429822E-021
 -5.699999999999999E-003   -2.089153793539766E-021
 -5.599999999999999E-003   -1.027265230777564E-021
 -5.499999999999999E-003    4.726020934886269E-022
 -5.399999999999999E-003    2.250513134563033E-021
 -5.299999999999999E-003    4.059004991093746E-021
 -5.199999999999999E-003    5.586308547777921E-021
 -5.099999999999999E-003    6.496521871447754E-021
 -4.999999999999999E-003    6.483507990130593E-021
 -4.899999999999999E-003    5.332101213613986E-021
 -4.799999999999999E-003    2.977405800450195E-021
 -4.699999999999999E-003   -4.488246955898746E-022
 -4.599999999999999E-003   -4.595925848678337E-021
 -4.499999999999999E-003   -8.905694774265866E-021
 -4.399999999999999E-003   -1.266301293227252E-020
 -4.299999999999999E-003   -1.508569657074423E-020
 -4.199999999999999E-003   -1.544653870712671E-020
 -4.099999999999999E-003   -1.321321960547793E-020
 -3.999999999999999E-003   -8.185436171533502E-021
 -3.899999999999999E-003   -6.044525274382922E-022
 -3.799999999999999E-003    8.790354892955602E-021
 -3.699999999999999E-003    1.877955592243363E-020
 -3.599999999999999E-003    2.776967416819497E-020
 -3.499999999999999E-003    3.398779123924079E-020
 -3.399999999999999E-003    3.575003492853697E-020
 -3.299999999999999E-003    3.177314608756562E-020
 -3.199999999999999E-003    2.148398035424084E-020
 -3.099999999999999E-003    5.272615933500389E-021
 -2.999999999999999E-003   -1.536717552124345E-020
 -2.899999999999999E-003   -3.785849627889745E-020
 -2.799999999999999E-003   -5.875369224316547E-020
 -2.699999999999999E-003   -7.414225370332089E-020
 -2.599999999999999E-003   -8.022494039739378E-020
 -2.499999999999999E-003   -7.398959950272179E-020
 -2.399999999999999E-003   -5.389327005062728E-020
 -2.299999999999999E-003   -2.043414101506656E-020
 -2.199999999999999E-003    2.350799476746186E-020
 -2.099999999999999E-003    7.266931748245548E-020
 -1.999999999999999E-003    1.198072349616473E-019
 -1.899999999999999E-003    1.565276309106989E-019
 -1.799999999999999E-003    1.744779151354719E-019
 -1.699999999999999E-003    1.667760642851862E-019
 -1.599999999999999E-003    1.294787684021258E-019
 -1.499999999999999E-003    6.284576438883531E-020
 -1.399999999999999E-003   -2.785614853169890E-020
 -1.299999999999999E-003   -1.322387271547477E-019
 -1.199999999999999E-003   -2.355241485589409E-019
 -1.099999999999999E-003   -3.201661510628224E-019
 -9.999999999999989E-004   -3.682609863351418E-019
 -8.999999999999990E-004   -3.644945931174118E-019
 -7.999999999999990E-004   -2.992307578490020E-019
 -6.999999999999989E-004   -1.712461929050268E-019
 -5.999999999999990E-004    1.041945537951461E-020
 -4.999999999999989E-004    2.259819308111153E-019
 -3.999999999999989E-004    4.461444569144486E-019
 -2.999999999999989E-004    6.351655291719444E-019
 -1.999999999999989E-004    7.555970643183654E-019
 -9.999999999999892E-005    7.742144810859670E-019
  1.084202172485504E-018    6.683711684580598E-019
  1.000000000000011E-004    4.317886501425590E-019
  2.000000000000011E-004    7.870837177308027E-020
  3.000000000000011E-004   -3.545993689946542E-019
  4.000000000000011E-004   -8.117164875847914E-019
  5.000000000000011E-004   -1.221665675721787E-018
  6.000000000000011E-004   -1.507965307792226E-018
  7.000000000000011E-004   -1.600280609453499E-018
  8.000000000000011E-004   -1.447212832164488E-018
  9.000000000000012E-004   -1.028305631994647E-018
  1.000000000000001E-003   -3.631328851150641E-019
  1.100000000000001E-003    4.845780727908035E-019
  1.200000000000001E-003    1.409374386864376E-018
  1.300000000000001E-003    2.273841368152085E-018
  1.400000000000001E-003    2.925418686927828E-018
  1.500000000000001E-003    3.218752543839706E-018
  1.600000000000001E-003    3.040890547201692E-018
  1.700000000000001E-003    2.335665893690298E-018
  1.800000000000001E-003    1.123106553652874E-018
  1.900000000000001E-003   -4.902187838931765E-019
  2.000000000000001E-003   -2.313225958227857E-018
  2.100000000000001E-003   -4.086571370663991E-018
  2.200000000000001E-003   -5.512969139403233E-018
  2.300000000000001E-003   -6.299076529847883E-018
  2.400000000000001E-003   -6.204087732845261E-018
  2.500000000000001E-003   -5.088243352628027E-018
  2.600000000000001E-003   -2.953301029082587E-018
  2.700000000000001E-003    3.306281350105139E-020
  2.800000000000001E-003    3.535700434757757E-018
  2.900000000000001E-003    7.077474935243833E-018
  3.000000000000001E-003    1.009228889528267E-017
  3.100000000000001E-003    1.200171762759433E-017
  3.200000000000001E-003    1.230680443255296E-017
  3.300000000000001E-003    1.068263442926025E-017
  3.400000000000001E-003    7.060755335950108E-018
  3.500000000000001E-003    1.683966055475814E-018
  3.600000000000001E-003   -4.880124780689240E-018
  3.700000000000001E-003   -1.177593176456070E-017
  3.800000000000001E-003   -1.794962974044674E-017
  3.900000000000001E-003   -2.228611131712810E-017
  4.000000000000001E-003   -2.377884318087669E-017
  4.100000000000001E-003   -2.171057198298124E-017
  4.200000000000001E-003   -1.581738927819539E-017
  4.300000000000001E-003   -6.406838291519852E-018
  4.400000000000001E-003    5.596743033231794E-018
  4.500000000000001E-003    1.869895429167129E-017
  4.600000000000002E-003    3.098177514546460E-017
  4.700000000000001E-003    4.034249917473763E-017
  4.800000000000001E-003    4.480163239035840E-017
  4.900000000000002E-003    4.284139386374720E-017
  5.000000000000001E-003    3.372508653464486E-017
  5.100000000000001E-003    1.774274863495009E-017
  5.200000000000001E-003   -3.668610480608986E-018
  5.300000000000002E-003   -2.796970978959929E-017
  5.400000000000001E-003   -5.174828400015903E-017
  5.500000000000001E-003   -7.112559258495105E-017
  5.600000000000002E-003   -8.230320252409015E-017
  5.700000000000001E-003   -8.218457110367079E-017
  5.800000000000001E-003   -6.898318565313764E-017
  5.900000000000002E-003   -4.271746367194637E-017
  6.000000000000001E-003   -5.494669548418450E-018
  6.100000000000001E-003    3.849514827503259E-017
  6.200000000000002E-003    8.332023526479087E-017
  6.300000000000002E-003    1.219810845344050E-016
  6.400000000000001E-003    1.473614884666130E-016
  6.500000000000001E-003    1.533474906621892E-016
  6.600000000000002E-003    1.359607178649654E-016
  6.700000000000001E-003    9.432662475926121E-017
  6.800000000000001E-003    3.129650815675747E-017
  6.900000000000002E-003   -4.643020439791420E-017
  7.000000000000001E-003   -1.287805420300447E-016
  7.100000000000001E-003   -2.033949416679704E-016
  7.200000000000002E-003   -2.572475060090387E-016
  7.300000000000002E-003   -2.786208900113014E-016
  7.400000000000001E-003   -2.591742816740659E-016
  7.500000000000001E-003   -1.957872368933299E-016
  7.600000000000002E-003   -9.184982800371583E-017
  7.700000000000001E-003    4.229116125094543E-017
  7.800000000000001E-003    1.899298872753223E-016
  7.900000000000001E-003    3.297037282611659E-016
  8.000000000000002E-003    4.382955796678763E-016
  8.100000000000001E-003    4.938524871694549E-016
  8.200000000000001E-003    4.796820521680008E-016
  8.300000000000002E-003    3.876762810754073E-016
  8.400000000000001E-003    2.208753154013654E-016
  8.500000000000002E-003   -5.367023841438120E-018
  8.600000000000002E-003   -2.640079989876616E-016
  8.700000000000001E-003   -5.188963300946995E-016
  8.800000000000002E-003   -7.291826142595885E-016
  8.900000000000002E-003   -8.551237503353364E-016
  9.000000000000001E-003   -8.645583074226874E-016
  9.100000000000002E-003   -7.391163426845157E-016
  9.200000000000002E-003   -4.791338594528515E-016
  9.300000000000001E-003   -1.062998287979624E-016
  9.400000000000002E-003    3.367144517001468E-016
  9.500000000000001E-003    7.900170877623894E-016
  9.600000000000001E-003    1.183536899053974E-015
  9.700000000000002E-003    1.446688407757803E-015
  9.800000000000001E-003    1.519494386247169E-015
  9.900000000000001E-003    1.363598566456186E-015
  1.000000000000000E-002    9.713984980494596E-016
  1.010000000000000E-002    3.715773627629156E-016
  1.020000000000000E-002   -3.703528044849867E-016
  1.030000000000000E-002   -1.157284244181409E-015
  1.040000000000000E-002   -1.871494980145019E-015
  1.050000000000000E-002   -2.390430157824359E-015
  1.060000000000000E-002   -2.605440352106124E-015
  1.070000000000000E-002   -2.440899197413460E-015
  1.080000000000000E-002   -1.870713857304939E-015
  1.090000000000000E-002   -9.292387523567286E-016
  1.100000000000000E-002    2.859036109916762E-016
  1.110000000000000E-002    1.620656586776454E-015
  1.120000000000000E-002    2.881239463936679E-015
  1.130000000000000E-002    3.859415430558687E-015
  1.140000000000000E-002    4.363463043267321E-015
  1.150000000000000E-002    4.250694370418607E-015
  1.160000000000000E-002    3.456563485803647E-015
  1.170000000000000E-002    2.015281811900534E-015
  1.180000000000000E-002    6.754233120400910E-017
  1.190000000000000E-002   -2.147595788884299E-015
  1.200000000000000E-002   -4.317456693583163E-015
  1.210000000000000E-002   -6.095415240123974E-015
  1.220000000000000E-002   -7.151137467196661E-015
  1.230000000000000E-002   -7.224817336711228E-015
  1.240000000000000E-002   -6.177331670226008E-015
  1.250000000000000E-002   -4.027831967957586E-015
  1.260000000000000E-002   -9.711855676116817E-016
  1.270000000000000E-002    2.630089657077193E-015
  1.280000000000000E-002    6.281409912127624E-015
  1.290000000000000E-002    9.417128395458511E-015
  1.300000000000000E-002    1.148052674844225E-014
  1.310000000000000E-002    1.201257531782594E-014
  1.320000000000000E-002    1.073652328432812E-014
  1.330000000000000E-002    7.624411530684746E-015
  1.340000000000000E-002    2.932721092326894E-015
  1.350000000000000E-002   -2.802339982898473E-015
  1.360000000000000E-002   -8.814237151189435E-015
  1.370000000000000E-002   -1.419792584072692E-014
  1.380000000000000E-002   -1.803485962681266E-014
  1.390000000000000E-002   -1.953555658947899E-014
  1.400000000000000E-002   -1.817938598641077E-014
  1.410000000000000E-002   -1.382917436742986E-014
  1.420000000000000E-002   -6.799461746069637E-015
  1.430000000000000E-002    2.137957850949212E-015
  1.440000000000000E-002    1.181972839325435E-014
  1.450000000000000E-002    2.082610817271429E-014
  1.460000000000000E-002    2.767269132744528E-014
  1.470000000000000E-002    3.103522190787922E-014
  1.480000000000000E-002    2.997614320018675E-014
  1.490000000000000E-002    2.413732652531187E-014
  1.500000000000000E-002    1.386468061910364E-014
  1.510000000000000E-002    2.370093866820995E-016
  1.520000000000000E-002   -1.501673929672260E-014
  1.530000000000000E-002   -2.971191914687297E-014
  1.540000000000000E-002   -4.149677188290056E-014
  1.550000000000000E-002   -4.820080261121786E-014
  1.560000000000000E-002   -4.819512443543833E-014
  1.570000000000000E-002   -4.070956748583201E-014
  1.580000000000000E-002   -2.605177045354636E-014
  1.590000000000000E-002   -5.682584549941016E-015
  1.600000000000000E-002    1.788040621801068E-014
  1.610000000000000E-002    4.133586291401624E-014
  1.620000000000000E-002    6.102521097178824E-014
  1.630000000000000E-002    7.346335755639750E-014
  1.640000000000000E-002    7.590205744218174E-014
  1.650000000000000E-002    6.684140397624132E-014
  1.660000000000000E-002    4.640343726605793E-014
  1.670000000000000E-002    1.649403280574045E-014
  1.680000000000000E-002   -1.929589439764676E-014
  1.690000000000000E-002   -5.606321811455047E-014
  1.700000000000000E-002   -8.821147053838273E-014
  1.710000000000000E-002   -1.102459016663584E-013
  1.720000000000000E-002   -1.176399658355972E-013
  1.730000000000000E-002   -1.076453490626720E-013
  1.740000000000000E-002   -7.991309496238306E-014
  1.750000000000000E-002   -3.680813936833941E-014
  1.760000000000000E-002    1.666484843997397E-014
  1.770000000000000E-002    7.335464358396271E-014
  1.780000000000000E-002    1.248436060191289E-013
  1.790000000000000E-002    1.626189749920610E-013
  1.800000000000000E-002    1.793835512802994E-013
  1.810000000000000E-002    1.703164554520389E-013
  1.820000000000000E-002    1.340821309508662E-013
  1.830000000000000E-002    7.340414012431858E-014
  1.840000000000000E-002   -4.931476444076104E-015
  1.850000000000000E-002   -9.070276235794048E-014
  1.860000000000000E-002   -1.714773466903139E-013
  1.870000000000000E-002   -2.343073865496150E-013