 -4.000000000000000E-002    0.000000000000000E+000
 -3.990000000000000E-002    0.000000000000000E+000
 -3.980000000000000E-002    0.000000000000000E+000
 -3.970000000000000E-002    0.000000000000000E+000
 -3.960000000000000E-002    0.000000000000000E+000
 -3.950000000000000E-002    0.000000000000000E+000
 -3.940000000000000E-002    0.000000000000000E+000
 -3.930000000000000E-002    0.000000000000000E+000
 -3.920000000000000E-002    0.000000000000000E+000
 -3.910000000000000E-002    0.000000000000000E+000
 -3.900000000000000E-002    0.000000000000000E+000
 -3.890000000000000E-002    0.000000000000000E+000
 -3.880000000000000E-002    0.000000000000000E+000
 -3.870000000000000E-002    0.000000000000000E+000
 -3.860000000000000E-002    0.000000000000000E+000
 -3.850000000000000E-002    0.000000000000000E+000
 -3.840000000000000E-002    0.000000000000000E+000
 -3.830000000000000E-002    0.000000000000000E+000
 -3.820000000000000E-002    0.000000000000000E+000
 -3.810000000000000E-002    0.000000000000000E+000
 -3.800000000000000E-002    0.000000000000000E+000
 -3.790000000000000E-002    0.000000000000000E+000
 -3.780000000000000E-002    0.000000000000000E+000
 -3.770000000000000E-002    0.000000000000000E+000
 -3.760000000000000E-002    0.000000000000000E+000
 -3.750000000000000E-002    0.000000000000000E+000
 -3.740000000000000E-002    0.000000000000000E+000
 -3.730000000000000E-002    0.000000000000000E+000
 -3.720000000000000E-002    0.000000000000000E+000
 -3.710000000000000E-002    0.000000000000000E+000
 -3.700000000000000E-002    0.000000000000000E+000
 -3.690000000000000E-002    0.000000000000000E+000
 -3.680000000000000E-002    0.000000000000000E+000
 -3.670000000000000E-002    0.000000000000000E+000
 -3.660000000000000E-002    0.000000000000000E+000
 -3.650000000000000E-002    0.000000000000000E+000
 -3.640000000000000E-002    0.000000000000000E+000
 -3.630000000000000E-002    0.000000000000000E+000
 -3.620000000000000E-002    0.000000000000000E+000
 -3.610000000000000E-002    0.000000000000000E+000
 -3.600000000000000E-002    0.000000000000000E+000
 -3.590000000000000E-002    0.000000000000000E+000
 -3.580000000000000E-002    0.000000000000000E+000
 -3.570000000000000E-002    0.000000000000000E+000
 -3.560000000000000E-002    0.000000000000000E+000
 -3.550000000000000E-002    0.000000000000000E+000
 -3.540000000000000E-002    0.000000000000000E+000
 -3.530000000000000E-002    0.000000000000000E+000
 -3.520000000000000E-002    0.000000000000000E+000
 -3.510000000000000E-002    0.000000000000000E+000
 -3.500000000000000E-002    0.000000000000000E+000
 -3.490000000000000E-002    0.000000000000000E+000
 -3.480000000000000E-002    0.000000000000000E+000
 -3.470000000000000E-002    0.000000000000000E+000
 -3.460000000000000E-002    0.000000000000000E+000
 -3.450000000000000E-002    0.000000000000000E+000
 -3.440000000000000E-002    0.000000000000000E+000
 -3.430000000000000E-002    0.000000000000000E+000
 -3.420000000000000E-002    0.000000000000000E+000
 -3.410000000000000E-002    0.000000000000000E+000
 -3.400000000000000E-002    0.000000000000000E+000
 -3.390000000000000E-002    0.000000000000000E+000
 -3.380000000000000E-002    0.000000000000000E+000
 -3.370000000000000E-002    0.000000000000000E+000
 -3.360000000000000E-002    0.000000000000000E+000
 -3.350000000000000E-002    0.000000000000000E+000
 -3.340000000000000E-002    0.000000000000000E+000
 -3.330000000000000E-002    0.000000000000000E+000
 -3.320000000000000E-002    0.000000000000000E+000
 -3.310000000000000E-002    0.000000000000000E+000
 -3.300000000000000E-002    0.000000000000000E+000
 -3.290000000000000E-002    0.000000000000000E+000
 -3.280000000000000E-002    0.000000000000000E+000
 -3.270000000000000E-002    0.000000000000000E+000
 -3.260000000000000E-002    0.000000000000000E+000
 -3.250000000000000E-002    6.414635304221270E-048
 -3.240000000000000E-002    1.282927060844254E-047
 -3.230000000000000E-002    1.282927060844254E-047
 -3.220000000000000E-002    0.000000000000000E+000
 -3.210000000000000E-002   -1.331302470770806E-046
 -3.200000000000000E-002   -3.908378941589467E-046
 -3.190000000000000E-002   -8.849378081933878E-046
 -3.180000000000000E-002   -1.703591051576489E-045
 -3.170000000000000E-002   -2.831830141931734E-045
 -3.160000000000000E-002   -4.032274052496426E-045
 -3.150000000000000E-002   -4.494300800199326E-045
 -3.140000000000000E-002   -3.754194324629449E-045
 -3.130000000000000E-002    1.204183400024769E-045
 -3.120000000000000E-002    1.335264100076854E-044
 -3.110000000000000E-002    3.646824399958667E-044
 -3.100000000000000E-002    7.505819815298840E-044
 -3.090000000000000E-002    1.307050657916126E-043
 -3.080000000000000E-002    1.996867153397391E-043
 -3.070000000000000E-002    2.645809146256576E-043
 -3.060000000000000E-002    2.837536580365949E-043
 -3.050000000000000E-002    1.860096640332114E-043
 -3.040000000000000E-002   -1.398246248431155E-043
 -3.030000000000000E-002   -8.412991230398513E-043
 -3.020000000000000E-002   -2.078526259947578E-042
 -3.010000000000000E-002   -3.963065663924435E-042
 -3.000000000000000E-002   -6.444204817543153E-042
 -2.990000000000000E-002   -9.136127313972287E-042
 -2.980000000000000E-002   -1.108047366221848E-041
 -2.970000000000000E-002   -1.049030007559873E-041
 -2.960000000000000E-002   -4.557791800656488E-042
 -2.950000000000000E-002    1.051309803608537E-041
 -2.940000000000000E-002    3.900507495816729E-041
 -2.930000000000000E-002    8.443760657142872E-041
 -2.920000000000000E-002    1.472267668574658E-040
 -2.910000000000000E-002    2.211066076046685E-040
 -2.900000000000000E-002    2.884089109483527E-040
 -2.890000000000000E-002    3.149619804429716E-040
 -2.880000000000000E-002    2.462173172300445E-040
 -2.870000000000000E-002    7.432508903869484E-042
 -2.860000000000000E-002   -4.880934821705628E-040
 -2.850000000000000E-002   -1.317856735557058E-039
 -2.840000000000000E-002   -2.511440219610299E-039
 -2.830000000000000E-002   -3.991845967406201E-039
 -2.820000000000000E-002   -5.499700743356917E-039
 -2.810000000000000E-002   -6.512203433063848E-039
 -2.800000000000000E-002   -6.181715153262312E-039
 -2.790000000000000E-002   -3.334588306055857E-039
 -2.780000000000000E-002    3.414086633877198E-039
 -2.770000000000000E-002    1.536569319368702E-038
 -2.760000000000000E-002    3.320626424548273E-038
 -2.750000000000000E-002    5.621416059121352E-038
 -2.740000000000000E-002    8.125449181468266E-038
 -2.730000000000000E-002    1.017222019975863E-037
 -2.720000000000000E-002    1.067510289371350E-037
 -2.710000000000000E-002    8.118203303574629E-038
 -2.700000000000000E-002    6.939405916598876E-039
 -2.690000000000000E-002   -1.334772702440804E-037
 -2.680000000000000E-002   -3.508014307441252E-037
 -2.670000000000000E-002   -6.399473203410016E-037
 -2.660000000000000E-002   -9.687449632036773E-037
 -2.650000000000000E-002   -1.266343201252753E-036
 -2.640000000000000E-002   -1.414739617763732E-036
 -2.630000000000000E-002   -1.248577303191851E-036
 -2.620000000000000E-002   -5.696571334730459E-037
 -2.610000000000000E-002    8.171368921858986E-037
 -2.600000000000000E-002    3.041489744725377E-036
 -2.590000000000000E-002    6.078382741342161E-036
 -2.580000000000000E-002    9.639376290352231E-036
 -2.570000000000000E-002    1.306338383873120E-035
 -2.560000000000000E-002    1.523976986531044E-035
 -2.550000000000000E-002    1.461033411221108E-035
 -2.540000000000000E-002    9.306073341599568E-036
 -2.530000000000000E-002   -2.526499866947404E-036
 -2.520000000000000E-002   -2.217300286529563E-035
 -2.510000000000000E-002   -4.957814026803014E-035
 -2.500000000000000E-002   -8.242622003749246E-035
 -2.490000000000000E-002   -1.152428878684057E-034
 -2.480000000000000E-002   -1.387929591023310E-034
 -2.470000000000000E-002   -1.401469281260539E-034
 -2.460000000000000E-002   -1.038432441191800E-034
 -2.450000000000000E-002   -1.453952402781620E-035
 -2.440000000000000E-002    1.386225968104745E-034
 -2.430000000000000E-002    3.560561774353985E-034
 -2.420000000000000E-002    6.208146995651806E-034
 -2.410000000000000E-002    8.920461825634700E-034
 -2.400000000000000E-002    1.100868505805137E-033
 -2.390000000000000E-002    1.151329948931076E-033
 -2.380000000000000E-002    9.293670609670129E-034
 -2.370000000000000E-002    3.222585242215084E-034
 -2.360000000000000E-002   -7.502741373802687E-034
 -2.350000000000000E-002   -2.294655306336048E-033
 -2.340000000000000E-002   -4.196675782118655E-033
 -2.330000000000000E-002   -6.178694411689967E-033
 -2.320000000000000E-002   -7.774640098597114E-033
 -2.310000000000000E-002   -8.339998020002062E-033
 -2.300000000000000E-002   -7.114649228475931E-033
 -2.290000000000000E-002   -3.352750095206702E-033
 -2.280000000000000E-002    3.475752683652241E-033
 -2.270000000000000E-002    1.342361586878427E-032
 -2.260000000000000E-002    2.577881026603286E-032
 -2.250000000000000E-002    3.881094013990785E-032
 -2.240000000000000E-002    4.963614111526996E-032
 -2.230000000000000E-002    5.430115058220825E-032
 -2.220000000000000E-002    4.818612227222855E-032
 -2.210000000000000E-002    2.679826524657719E-032
 -2.200000000000000E-002   -1.303261912467404E-032
 -2.190000000000000E-002   -7.164211140369545E-032
 -2.180000000000000E-002   -1.449141396854549E-031
 -2.170000000000000E-002   -2.229091507514924E-031
 -2.160000000000000E-002   -2.892107118131669E-031
 -2.150000000000000E-002   -3.215308835260502E-031
 -2.140000000000000E-002   -2.940805483950783E-031
 -2.130000000000000E-002   -1.820327926541594E-031
 -2.120000000000000E-002    3.194490750149486E-032
 -2.110000000000000E-002    3.496376553153366E-031
 -2.100000000000000E-002    7.489091731226313E-031
 -2.090000000000000E-002    1.176887789655757E-030
 -2.080000000000000E-002    1.547150804449918E-030
 -2.070000000000000E-002    1.743573668375551E-030
 -2.060000000000000E-002    1.633207133195665E-030
 -2.050000000000000E-002    1.089506070814568E-030
 -2.040000000000000E-002    2.537993341763487E-032
 -2.030000000000000E-002   -1.567086580573133E-030
 -2.020000000000000E-002   -3.576505776376914E-030
 -2.010000000000000E-002   -5.740988017974258E-030
 -2.000000000000000E-002   -7.637497952391641E-030
 -1.990000000000000E-002   -8.703952208179754E-030
 -1.980000000000000E-002   -8.304187498102243E-030
 -1.970000000000000E-002   -5.840474906692754E-030
 -1.960000000000000E-002   -9.092186212534272E-031
 -1.950000000000000E-002    6.516661971337136E-030
 -1.940000000000000E-002    1.590893115980256E-029
 -1.930000000000000E-002    2.605191707452688E-029
 -1.920000000000000E-002    3.500865180816075E-029
 -1.910000000000000E-002    4.023707036864561E-029
 -1.900000000000000E-002    3.889624499680927E-029
 -1.890000000000000E-002    2.835645803663163E-029
 -1.880000000000000E-002    6.885897233405718E-030
 -1.870000000000000E-002   -2.556558966511047E-029
 -1.860000000000000E-002   -6.662194704849384E-029
 -1.850000000000000E-002   -1.109615070796336E-028
 -1.840000000000000E-002   -1.502370175070361E-028
 -1.830000000000000E-002   -1.736403121166208E-028
 -1.820000000000000E-002   -1.692579822733278E-028
 -1.810000000000000E-002   -1.262463397390772E-028
 -1.800000000000000E-002   -3.768167123640212E-029
 -1.790000000000000E-002    9.627048530543570E-029
 -1.780000000000000E-002    2.654419778312439E-028
 -1.770000000000000E-002    4.477580099607602E-028
 -1.760000000000000E-002    6.091787263405706E-028
 -1.750000000000000E-002    7.062505565478681E-028
 -1.740000000000000E-002    6.917604382747438E-028
 -1.730000000000000E-002    5.234957664457392E-028
 -1.720000000000000E-002    1.754279184432194E-028
 -1.710000000000000E-002   -3.501693879555510E-028
 -1.700000000000000E-002   -1.011947201724442E-027
 -1.690000000000000E-002   -1.722935525006243E-027
 -1.680000000000000E-002   -2.351304755681696E-027
 -1.670000000000000E-002   -2.731113031603788E-027
 -1.660000000000000E-002   -2.684576405217970E-027
 -1.650000000000000E-002   -2.055484299046348E-027
 -1.640000000000000E-002   -7.508194020018504E-028
 -1.630000000000000E-002    1.215248740310880E-027
 -1.620000000000000E-002    3.683537953987807E-027
 -1.610000000000000E-002    6.328620947587368E-027
 -1.600000000000000E-002    8.664928862321160E-027
 -1.590000000000000E-002    1.008907011792990E-026
 -1.580000000000000E-002    9.962773372031413E-027
 -1.570000000000000E-002    7.733818354715318E-027
 -1.560000000000000E-002    3.083273382953941E-027
 -1.550000000000000E-002   -3.922471209631647E-027
 -1.540000000000000E-002   -1.270514928864574E-026
 -1.530000000000000E-002   -2.210931205136155E-026
 -1.520000000000000E-002   -3.043386901817802E-026
 -1.510000000000000E-002   -3.558836368595322E-026
 -1.500000000000000E-002   -3.538547706744734E-026
 -1.490000000000000E-002   -2.795683380411813E-026
 -1.480000000000000E-002   -1.224883204168252E-026
 -1.470000000000000E-002    1.147640496594612E-026
 -1.460000000000000E-002    4.123679886475153E-026
 -1.450000000000000E-002    7.313948113604105E-026
 -1.440000000000000E-002    1.015156416138218E-025
 -1.430000000000000E-002    1.194640484742308E-025
 -1.420000000000000E-002    1.198300474997342E-025
 -1.410000000000000E-002    9.656609838516134E-026
 -1.400000000000000E-002    4.632359859521346E-026
 -1.390000000000000E-002   -2.997139868609666E-026
 -1.380000000000000E-002   -1.258844105460600E-025
 -1.370000000000000E-002   -2.289433990025252E-025
 -1.360000000000000E-002   -3.211518110601248E-025
 -1.350000000000000E-002   -3.807788557603359E-025
 -1.340000000000000E-002   -3.854785964581958E-025
 -1.330000000000000E-002   -3.165369133561805E-025
 -1.320000000000000E-002   -1.637535725779947E-025
 -1.310000000000000E-002    6.981853237928013E-026
 -1.300000000000000E-002    3.642709603278066E-025
 -1.290000000000000E-002    6.814513306691415E-025
 -1.280000000000000E-002    9.667591082491132E-025
 -1.270000000000000E-002    1.154757991486732E-024
 -1.260000000000000E-002    1.178669995617440E-024
 -1.250000000000000E-002    9.830624368145905E-025
 -1.240000000000000E-002    5.381907688903948E-025
 -1.230000000000000E-002   -1.463339021341679E-025
 -1.220000000000000E-002   -1.011456763773791E-024
 -1.210000000000000E-002   -1.945236425310436E-024
 -1.200000000000000E-002   -2.788716443010694E-024
 -1.190000000000000E-002   -3.352738224677024E-024
 -1.180000000000000E-002   -3.445640284205109E-024
 -1.170000000000000E-002   -2.909638551292116E-024
 -1.160000000000000E-002   -1.661325739235236E-024
 -1.150000000000000E-002    2.704069923413525E-025
 -1.140000000000000E-002    2.717161730474536E-024
 -1.130000000000000E-002    5.362923076685291E-024
 -1.120000000000000E-002    7.762114162590957E-024
 -1.110000000000000E-002    9.387813705142669E-024
 -1.100000000000000E-002    9.709386576852830E-024
 -1.090000000000000E-002    8.292879648760045E-024
 -1.080000000000000E-002    4.911245329028494E-024
 -1.070000000000000E-002   -3.540639640521950E-025
 -1.060000000000000E-002   -7.042045222042534E-024
 -1.050000000000000E-002   -1.429374310676765E-023
 -1.040000000000000E-002   -2.090455796710136E-023
 -1.030000000000000E-002   -2.545667540811095E-023
 -1.020000000000000E-002   -2.652827851055802E-023
 -1.010000000000000E-002   -2.296056530938880E-023
 -1.000000000000000E-002   -1.414746977215979E-023
 -9.899999999999999E-003   -2.992193235300868E-025
 -9.800000000000000E-003    1.737718662512983E-023
 -9.699999999999999E-003    3.663677772273012E-023
 -9.599999999999999E-003    5.433939300309932E-023
 -9.500000000000000E-003    6.679799806965740E-023
 -9.399999999999999E-003    7.032087059532557E-023
 -9.299999999999999E-003    6.189651082971321E-023
 -9.200000000000000E-003    3.992983341533738E-023
 -9.099999999999999E-003    4.905302998233337E-024
 -8.999999999999999E-003   -4.016555054266249E-023
 -8.900000000000000E-003   -8.965066544084659E-023
 -8.799999999999999E-003   -1.356651086558789E-022
 -8.699999999999999E-003   -1.689482152565131E-022
 -8.600000000000000E-003   -1.802150656184009E-022
 -8.499999999999999E-003   -1.618509985488766E-022
 -8.399999999999999E-003   -1.097212080389720E-022
 -8.300000000000000E-003   -2.479014053607519E-023
 -8.199999999999999E-003    8.579391563844489E-023
 -8.100000000000000E-003    2.084791317859562E-022
 -8.000000000000000E-003    3.242052929508180E-022
 -7.899999999999999E-003    4.105193379928800E-022
 -7.800000000000000E-003    4.448177402742931E-022
 -7.699999999999999E-003    4.083927169730188E-022
 -7.599999999999999E-003    2.907369093653248E-022
 -7.499999999999999E-003    9.338393671196826E-023
 -7.399999999999999E-003   -1.675208416040267E-022
 -7.299999999999999E-003   -4.606825030749548E-022
 -7.199999999999999E-003   -7.417197978284945E-022
 -7.100000000000000E-003   -9.580606913991467E-022
 -6.999999999999999E-003   -1.056434670936089E-021
 -6.899999999999999E-003   -9.922089483898796E-022
 -6.800000000000000E-003   -7.393080978514826E-022
 -6.699999999999999E-003   -2.990694854640453E-022
 -6.599999999999999E-003    2.937910791777988E-022
 -6.499999999999999E-003    9.698170219915085E-022
 -6.399999999999999E-003    1.629319259793103E-021
 -6.299999999999999E-003    2.153248256622649E-021
 -6.199999999999999E-003    2.419898606450974E-021
 -6.100000000000000E-003    2.325748466956928E-021
 -5.999999999999999E-003    1.807642312772568E-021
 -5.899999999999999E-003    8.626767500592525E-022
 -5.800000000000000E-003   -4.382215827781290E-022
 -5.699999999999999E-003   -1.946774301112077E-021
 -5.599999999999999E-003   -3.446643624399882E-021
 -5.499999999999999E-003   -4.676626823121194E-021
 -5.399999999999999E-003   -5.366603798606170E-021
 -5.299999999999999E-003   -5.282610872608514E-021
 -5.199999999999999E-003   -4.275053811256746E-021
 -5.099999999999999E-003   -2.322285008051553E-021
 -4.999999999999999E-003    4.390103583066047E-022
 -4.899999999999999E-003    3.704622143035932E-021
 -4.799999999999999E-003    7.020739809817423E-021
 -4.699999999999999E-003    9.831390949986919E-021
 -4.599999999999999E-003    1.155314223905351E-020
 -4.499999999999999E-003    1.166961783389462E-020
 -4.399999999999999E-003    9.833488230049123E-021
 -4.299999999999999E-003    5.959829292448143E-021
 -4.199999999999999E-003    2.931021728691589E-022
 -4.099999999999999E-003   -6.568959001423818E-021
 -3.999999999999999E-003   -1.370705597000676E-020
 -3.899999999999999E-003   -1.997307166633903E-020
 -3.799999999999999E-003   -2.413979259459771E-020
 -3.699999999999999E-003   -2.509311938998966E-020
 -3.599999999999999E-003   -2.204216557256072E-020
 -3.499999999999999E-003   -1.471499569383748E-020
 -3.399999999999999E-003   -3.504100816938108E-021
 -3.299999999999999E-003    1.047248481874131E-020
 -3.199999999999999E-003    2.542063859754944E-020
 -3.099999999999999E-003    3.904241516462249E-020
 -2.999999999999999E-003    4.882507100190407E-020
 -2.899999999999999E-003    5.241980355838948E-020
 -2.799999999999999E-003    4.806332165013039E-020
 -2.699999999999999E-003    3.497949947098530E-020
 -2.599999999999999E-003    1.369047644642016E-020
 -2.499999999999999E-003   -1.383117659861055E-020
 -2.399999999999999E-003   -4.422305795988676E-020
 -2.299999999999999E-003   -7.303458916688389E-020
 -2.199999999999999E-003   -9.526265075720973E-020
 -2.099999999999999E-003   -1.060743480641387E-019
 -1.999999999999999E-003   -1.016305310052442E-019
 -1.899999999999999E-003   -7.989226128187641E-020
 -1.799999999999999E-003   -4.127441850450472E-020
 -1.699999999999999E-003    1.098737390112844E-020
 -1.599999999999999E-003    7.086662081546216E-020
 -1.499999999999999E-003    1.300360492433833E-019
 -1.399999999999999E-003    1.788179197637454E-019
 -1.299999999999999E-003    2.075175429202889E-019
 -1.199999999999999E-003    2.079893556573291E-019
 -1.099999999999999E-003    1.752205206757122E-019
 -9.999999999999989E-004    1.086780847558324E-019
 -8.999999999999990E-004    1.316232937461459E-020
 -7.999999999999990E-004   -1.010549262899264E-019
 -6.999999999999989E-004   -2.189491625311536E-019
 -5.999999999999990E-004   -3.223459442076429E-019
 -4.999999999999989E-004   -3.922977094794725E-019
 -3.999999999999989E-004   -4.119810360138594E-019
 -2.999999999999989E-004   -3.697365368215347E-019
 -1.999999999999989E-004   -2.617891823625235E-019
 -9.999999999999892E-005   -9.416142136247093E-020
  1.084202172485504E-018    1.166565164007416E-019
  1.000000000000011E-004    3.445906404637476E-019
  2.000000000000011E-004    5.565309874212195E-019
  3.000000000000011E-004    7.164109637704805E-019
  4.000000000000011E-004    7.904201163601881E-019
  5.000000000000011E-004    7.527065457946511E-019
  6.000000000000011E-004    5.907491899381345E-019
  7.000000000000011E-004    3.094977331486034E-019
  8.000000000000011E-004   -6.656775774194414E-020
  9.000000000000012E-004   -4.941169624591704E-019
  1.000000000000001E-003   -9.147168030559760E-019
  1.100000000000001E-003   -1.261548549528168E-018
  1.200000000000001E-003   -1.468513295670846E-018
  1.300000000000001E-003   -1.480678601487354E-018
  1.400000000000001E-003   -1.264645855433615E-018
  1.500000000000001E-003   -8.172022235115791E-019
  1.600000000000001E-003   -1.706392039430218E-019
  1.700000000000001E-003    6.066202324016981E-019
  1.800000000000001E-003    1.414921112130477E-018
  1.900000000000001E-003    2.133912876404487E-018
  2.000000000000001E-003    2.637963849113864E-018
  2.100000000000001E-003    2.814824870772360E-018
  2.200000000000001E-003    2.585152225445283E-018
  2.300000000000001E-003    1.919990463681074E-018
  2.400000000000001E-003    8.531865681907042E-019
  2.500000000000001E-003   -5.139853945882511E-019
  2.600000000000001E-003   -2.017919928130301E-018
  2.700000000000001E-003   -3.448220809162841E-018
  2.800000000000001E-003   -4.572897400293431E-018
  2.900000000000001E-003   -5.170832984094057E-018
  3.000000000000001E-003   -5.067614924602197E-018
  3.100000000000001E-003   -4.169712691306995E-018
  3.200000000000001E-003   -2.491453107145654E-018
  3.300000000000001E-003   -1.695294744932896E-019
  3.400000000000001E-003    2.539128460527408E-018
  3.500000000000001E-003    5.278398860449561E-018
  3.600000000000001E-003    7.632499344235032E-018
  3.700000000000001E-003    9.180824008438134E-018
  3.800000000000001E-003    9.561918981480083E-018
  3.900000000000001E-003    8.538151397468264E-018
  4.000000000000001E-003    6.051155330278764E-018
  4.100000000000001E-003    2.258154146707476E-018
  4.200000000000001E-003   -2.459404333951564E-018
  4.300000000000001E-003   -7.520398238757452E-018
  4.400000000000001E-003   -1.220300139348634E-017
  4.500000000000001E-003   -1.573421646252744E-017
  4.600000000000002E-003   -1.740073953717801E-017
  4.700000000000001E-003   -1.666729718713488E-017
  4.800000000000001E-003   -1.328535186707110E-017
  4.900000000000002E-003   -7.374017441857359E-018
  5.000000000000001E-003    5.434509813698120E-019
  5.100000000000001E-003    9.559753381462178E-018
  5.200000000000001E-003    1.846548764470741E-017
  5.300000000000002E-003    2.588954442971955E-017
  5.400000000000001E-003    3.048485257940742E-017
  5.500000000000001E-003    3.113768623729091E-017
  5.600000000000002E-003    2.717169185554235E-017
  5.700000000000001E-003    1.851472588211809E-017
  5.800000000000001E-003    5.797390461822635E-018
  5.900000000000002E-003   -9.641578497829722E-018
  6.000000000000001E-003   -2.585745091695724E-017
  6.100000000000001E-003   -4.050858585429658E-017
  6.200000000000002E-003   -5.115598667238440E-017
  6.300000000000002E-003   -5.562017318694525E-017
  6.400000000000001E-003   -5.234893215080298E-017
  6.500000000000001E-003   -4.074134462380994E-017
  6.600000000000002E-003   -2.137251821177759E-017
  6.700000000000001E-003    3.929174250385144E-018
  6.800000000000001E-003    3.218439313408998E-017
  6.900000000000002E-003    5.955406638602951E-017
  7.000000000000001E-003    8.180102390504124E-017
  7.100000000000001E-003    9.487534561091319E-017
  7.200000000000002E-003    9.555125395630635E-017
  7.300000000000002E-003    8.202619824850876E-017
  7.400000000000001E-003    5.438580939952549E-017
  7.500000000000001E-003    1.484689258705805E-017
  7.600000000000002E-003   -3.228846254817131E-017
  7.700000000000001E-003   -8.099878635594626E-017
  7.800000000000001E-003   -1.242166847650715E-016
  7.900000000000001E-003   -1.547487982303142E-016
  8.000000000000002E-003   -1.663366969033040E-016
  8.100000000000001E-003   -1.547169697756621E-016
  8.200000000000001E-003   -1.185224173385995E-016
  8.300000000000002E-003   -5.986782700591967E-017
  8.400000000000001E-003    1.550760352311396E-017
  8.500000000000002E-003    9.862012313701708E-017
  8.600000000000002E-003    1.781536389180068E-016
  8.700000000000001E-003    2.418368509150762E-016
  8.800000000000002E-003    2.781398974685838E-016
  8.900000000000002E-003    2.780799982939814E-016
  9.000000000000001E-003    2.368809138465967E-016
  9.100000000000002E-003    1.552236794324829E-016
  9.200000000000002E-003    3.985112576236419E-017
  9.300000000000001E-003   -9.664413535390644E-017
  9.400000000000002E-003   -2.369200097355127E-016
  9.500000000000001E-003   -3.608239398083115E-016
  9.600000000000001E-003   -4.479920113144876E-016
  9.700000000000002E-003   -4.808090542376515E-016
  9.800000000000001E-003   -4.473436017195943E-016
  9.900000000000001E-003   -3.438251927463668E-016
  1.000000000000000E-002   -1.762458486133387E-016
  1.010000000000000E-002    3.925869464933936E-017
  1.020000000000000E-002    2.774556554801134E-016
  1.030000000000000E-002    5.065190624664529E-016
  1.040000000000000E-002    6.918118815762050E-016
  1.050000000000000E-002    8.005606161681070E-016
  1.060000000000000E-002    8.068583816152252E-016
  1.070000000000000E-002    6.963179808718710E-016
  1.080000000000000E-002    4.696576287694394E-016
  1.090000000000000E-002    1.445642990463126E-016
  1.100000000000000E-002   -2.446531902881128E-016
  1.110000000000000E-002   -6.498584578429146E-016
  1.120000000000000E-002   -1.014243969705280E-015
  1.130000000000000E-002   -1.279415013877917E-015
  1.140000000000000E-002   -1.393638167093509E-015
  1.150000000000000E-002   -1.320213122587926E-015
  1.160000000000000E-002   -1.044790570470797E-015
  1.170000000000000E-002   -5.804361758447114E-016
  1.180000000000000E-002    3.059167931067092E-017
  1.190000000000000E-002    7.190398587772971E-016
  1.200000000000000E-002    1.395064928750008E-015
  1.210000000000000E-002    1.958483625576122E-015
  1.220000000000000E-002    2.311925314892917E-015
  1.230000000000000E-002    2.375366944447089E-015
  1.240000000000000E-002    2.100162285178607E-015
  1.250000000000000E-002    1.480438902742492E-015
  1.260000000000000E-002    5.598519696650708E-016
  1.270000000000000E-002   -5.679371965357174E-016
  1.280000000000000E-002   -1.766019087029046E-015
  1.290000000000000E-002   -2.868264110304981E-015
  1.300000000000000E-002   -3.699602763562764E-015
  1.310000000000000E-002   -4.100478035255013E-015
  1.320000000000000E-002   -3.952497444557593E-015
  1.330000000000000E-002   -3.201643129208643E-015
  1.340000000000000E-002   -1.875313110435642E-015
  1.350000000000000E-002   -8.975610849292306E-017
  1.360000000000000E-002    1.954582168525489E-015
  1.370000000000000E-002    3.990862408782073E-015
  1.380000000000000E-002    5.716069801148159E-015
  1.390000000000000E-002    6.830969651867100E-015
  1.400000000000000E-002    7.085204665415625E-015
  1.410000000000000E-002    6.321593795899357E-015
  1.420000000000000E-002    4.512841984866791E-015
  1.430000000000000E-002    1.784024615787883E-015
  1.440000000000000E-002   -1.584569807550720E-015
  1.450000000000000E-002   -5.177571192643744E-015
  1.460000000000000E-002   -8.487905776543835E-015
  1.470000000000000E-002   -1.098026710932860E-014
  1.480000000000000E-002   -1.216791019558539E-014
  1.490000000000000E-002   -1.169310230014965E-014
  1.500000000000000E-002   -9.399430777519303E-015
  1.510000000000000E-002   -5.383794827750262E-015
  1.520000000000000E-002   -1.721084145707656E-017
  1.530000000000000E-002    6.073262165740603E-015
  1.540000000000000E-002    1.206427909502843E-014
  1.550000000000000E-002    1.703447216725852E-014
  1.560000000000000E-002    2.009153654313555E-014
  1.570000000000000E-002    2.051276796469725E-014
  1.580000000000000E-002    1.787916805732674E-014
  1.590000000000000E-002    1.218162921675647E-014
  1.600000000000000E-002    3.878714935438951E-015
  1.610000000000000E-002   -6.109669320148017E-015
  1.620000000000000E-002   -1.648069384080422E-014
  1.630000000000000E-002   -2.569708072961973E-014
  1.640000000000000E-002   -3.219232997113212E-014
  1.650000000000000E-002   -3.460857525746030E-014
  1.660000000000000E-002   -3.203465287594811E-014
  1.670000000000000E-002   -2.420727927853022E-014
  1.680000000000000E-002   -1.163894862692398E-014
  1.690000000000000E-002    4.357445258691061E-015
  1.700000000000000E-002    2.176518757142163E-014
  1.710000000000000E-002    3.808285315374289E-014
  1.720000000000000E-002    5.064815361135203E-014
  1.730000000000000E-002    5.703011298276846E-014
  1.740000000000000E-002    5.543726534054557E-014
  1.750000000000000E-002    4.508006856275920E-014
  1.760000000000000E-002    2.642483872671026E-014
  1.770000000000000E-002    1.284923500348470E-015
  1.780000000000000E-002   -2.728644038592079E-014
  1.790000000000000E-002   -5.531078405441439E-014
  1.800000000000000E-002   -7.838435452539084E-014
  1.810000000000000E-002   -9.230884605110469E-014
  1.820000000000000E-002   -9.377091009414714E-014
  1.830000000000000E-002   -8.097017238422248E-014
  1.840000000000000E-002   -5.409061472257582E-014
  1.850000000000000E-002   -1.552141864390791E-014
  1.860000000000000E-002    3.023894229591218E-014
  1.870000000000000E-002    7.702011082099862E-014