 -4.000000000000000E-002    0.000000000000000E+000
 -3.990000000000000E-002    0.000000000000000E+000
 -3.980000000000000E-002    0.000000000000000E+000
 -3.970000000000000E-002    0.000000000000000E+000
 -3.960000000000000E-002    0.000000000000000E+000
 -3.950000000000000E-002    0.000000000000000E+000
 -3.940000000000000E-002    0.000000000000000E+000
 -3.930000000000000E-002    0.000000000000000E+000
 -3.920000000000000E-002    0.000000000000000E+000
 -3.910000000000000E-002    0.000000000000000E+000
 -3.900000000000000E-002    0.000000000000000E+000
 -3.890000000000000E-002    0.000000000000000E+000
 -3.880000000000000E-002    0.000000000000000E+000
 -3.870000000000000E-002    0.000000000000000E+000
 -3.860000000000000E-002    0.000000000000000E+000
 -3.850000000000000E-002    0.000000000000000E+000
 -3.840000000000000E-002    0.000000000000000E+000
 -3.830000000000000E-002    0.000000000000000E+000
 -3.820000000000000E-002    0.000000000000000E+000
 -3.810000000000000E-002    0.000000000000000E+000
 -3.800000000000000E-002    0.000000000000000E+000
 -3.790000000000000E-002    0.000000000000000E+000
 -3.780000000000000E-002    0.000000000000000E+000
 -3.770000000000000E-002    0.000000000000000E+000
 -3.760000000000000E-002    0.000000000000000E+000
 -3.750000000000000E-002    0.000000000000000E+000
 -3.740000000000000E-002    0.000000000000000E+000
 -3.730000000000000E-002    0.000000000000000E+000
 -3.720000000000000E-002    0.000000000000000E+000
 -3.710000000000000E-002    0.000000000000000E+000
 -3.700000000000000E-002    0.000000000000000E+000
 -3.690000000000000E-002    0.000000000000000E+000
 -3.680000000000000E-002    0.000000000000000E+000
 -3.670000000000000E-002    0.000000000000000E+000
 -3.660000000000000E-002    0.000000000000000E+000
 -3.650000000000000E-002    0.000000000000000E+000
 -3.640000000000000E-002    0.000000000000000E+000
 -3.630000000000000E-002    0.000000000000000E+000
 -3.620000000000000E-002    0.000000000000000E+000
 -3.610000000000000E-002    0.000000000000000E+000
 -3.600000000000000E-002    0.000000000000000E+000
 -3.590000000000000E-002    0.000000000000000E+000
 -3.580000000000000E-002    0.000000000000000E+000
 -3.570000000000000E-002    0.000000000000000E+000
 -3.560000000000000E-002    0.000000000000000E+000
 -3.550000000000000E-002    0.000000000000000E+000
 -3.540000000000000E-002    0.000000000000000E+000
 -3.530000000000000E-002    0.000000000000000E+000
 -3.520000000000000E-002    0.000000000000000E+000
 -3.510000000000000E-002    0.000000000000000E+000
 -3.500000000000000E-002    0.000000000000000E+000
 -3.490000000000000E-002    0.000000000000000E+000
 -3.480000000000000E-002    0.000000000000000E+000
 -3.470000000000000E-002    0.000000000000000E+000
 -3.460000000000000E-002    0.000000000000000E+000
 -3.450000000000000E-002    0.000000000000000E+000
 -3.440000000000000E-002    0.000000000000000E+000
 -3.430000000000000E-002    0.000000000000000E+000
 -3.420000000000000E-002    0.000000000000000E+000
 -3.410000000000000E-002    0.000000000000000E+000
 -3.400000000000000E-002    0.000000000000000E+000
 -3.390000000000000E-002    0.000000000000000E+000
 -3.380000000000000E-002    0.000000000000000E+000
 -3.370000000000000E-002    0.000000000000000E+000
 -3.360000000000000E-002    0.000000000000000E+000
 -3.350000000000000E-002    0.000000000000000E+000
 -3.340000000000000E-002    0.000000000000000E+000
 -3.330000000000000E-002    0.000000000000000E+000
 -3.320000000000000E-002    0.000000000000000E+000
 -3.310000000000000E-002    0.000000000000000E+000
 -3.300000000000000E-002    0.000000000000000E+000
 -3.290000000000000E-002    0.000000000000000E+000
 -3.280000000000000E-002    0.000000000000000E+000
 -3.270000000000000E-002    0.000000000000000E+000
 -3.260000000000000E-002    0.000000000000000E+000
 -3.250000000000000E-002    0.000000000000000E+000
 -3.240000000000000E-002    0.000000000000000E+000
 -3.230000000000000E-002    0.000000000000000E+000
 -3.220000000000000E-002    0.000000000000000E+000
 -3.210000000000000E-002    0.000000000000000E+000
 -3.200000000000000E-002    0.000000000000000E+000
 -3.190000000000000E-002    0.000000000000000E+000
 -3.180000000000000E-002    0.000000000000000E+000
 -3.170000000000000E-002    0.000000000000000E+000
 -3.160000000000000E-002   -6.414635304221270E-048
 -3.150000000000000E-002   -1.282927060844254E-047
 -3.140000000000000E-002   -1.924390591266381E-047
 -3.130000000000000E-002   -1.924390591266381E-047
 -3.120000000000000E-002    0.000000000000000E+000
 -3.110000000000000E-002    1.582276708374580E-047
 -3.100000000000000E-002    4.210916330858499E-047
 -3.090000000000000E-002    6.141980677269526E-047
 -3.080000000000000E-002    9.747523957922728E-047
 -3.070000000000000E-002    2.816140102803520E-046
 -3.060000000000000E-002    4.342556355002396E-046
 -3.050000000000000E-002    7.674942480701555E-046
 -3.040000000000000E-002    1.362596803665481E-045
 -3.030000000000000E-002    1.519172221609050E-045
 -3.020000000000000E-002    1.276584855139792E-045
 -3.010000000000000E-002    5.871004866598346E-046
 -3.000000000000000E-002   -1.092196675631362E-045
 -2.990000000000000E-002   -4.675742297247012E-045
 -2.980000000000000E-002   -1.055045473703626E-044
 -2.970000000000000E-002   -2.057587469760864E-044
 -2.960000000000000E-002   -3.491570980716983E-044
 -2.950000000000000E-002   -5.118986246457711E-044
 -2.940000000000000E-002   -6.439613660558048E-044
 -2.930000000000000E-002   -6.712123874116954E-044
 -2.920000000000000E-002   -4.414264651039560E-044
 -2.910000000000000E-002    2.522561914497834E-044
 -2.900000000000000E-002    1.679160482871243E-043
 -2.890000000000000E-002    4.112449744776717E-043
 -2.880000000000000E-002    7.736717587429473E-043
 -2.870000000000000E-002    1.244905765550654E-042
 -2.860000000000000E-002    1.759679560904201E-042
 -2.850000000000000E-002    2.160725079892951E-042
 -2.840000000000000E-002    2.164684463447732E-042
 -2.830000000000000E-002    1.333445560450310E-042
 -2.820000000000000E-002   -9.234465000994286E-043
 -2.810000000000000E-002   -5.276511726133773E-042
 -2.800000000000000E-002   -1.231382197380773E-041
 -2.790000000000000E-002   -2.222936440874800E-041
 -2.780000000000000E-002   -3.435769916685785E-041
 -2.770000000000000E-002   -4.654836963752143E-041
 -2.760000000000000E-002   -5.447567492512182E-041
 -2.750000000000000E-002   -5.105394988599442E-041
 -2.740000000000000E-002   -2.628199179553328E-041
 -2.730000000000000E-002    3.202671606040138E-041
 -2.720000000000000E-002    1.360582679016853E-040
 -2.710000000000000E-002    2.937805013168276E-040
 -2.700000000000000E-002    5.022784235398314E-040
 -2.690000000000000E-002    7.387440495321743E-040
 -2.680000000000000E-002    9.500629818798925E-040
 -2.670000000000000E-002    1.043304719081580E-039
 -2.660000000000000E-002    8.810923122019970E-040
 -2.650000000000000E-002    2.876307806422541E-040
 -2.640000000000000E-002   -9.273913725281681E-040
 -2.630000000000000E-002   -2.919639890051214E-039
 -2.620000000000000E-002   -5.730365977786182E-039
 -2.610000000000000E-002   -9.176227680464338E-039
 -2.600000000000000E-002   -1.271884453078614E-038
 -2.590000000000000E-002   -1.533905253374752E-038
 -2.580000000000000E-002   -1.545944958483461E-038
 -2.570000000000000E-002   -1.097860101795379E-038
 -2.560000000000000E-002    5.046703972325215E-040
 -2.550000000000000E-002    2.119612231411227E-038
 -2.540000000000000E-002    5.227992303285575E-038
 -2.530000000000000E-002    9.275745149295679E-038
 -2.520000000000000E-002    1.380462793848544E-037
 -2.510000000000000E-002    1.785796206854372E-037
 -2.500000000000000E-002    1.988274245839127E-037
 -2.490000000000000E-002    1.773481100386579E-037
 -2.480000000000000E-002    8.862299092536788E-038
 -2.470000000000000E-002   -9.255432363610057E-038
 -2.460000000000000E-002   -3.835522915370054E-037
 -2.450000000000000E-002   -7.831583635897990E-037
 -2.440000000000000E-002   -1.258423564827177E-036
 -2.430000000000000E-002   -1.731165604791974E-036
 -2.420000000000000E-002   -2.067762185270478E-036
 -2.410000000000000E-002   -2.077448503735246E-036
 -2.400000000000000E-002   -1.525526423253261E-036
 -2.390000000000000E-002   -1.680395844076979E-037
 -2.380000000000000E-002    2.187125743048693E-036
 -2.370000000000000E-002    5.591816506172321E-036
 -2.360000000000000E-002    9.848049552431660E-036
 -2.350000000000000E-002    1.439343324022884E-035
 -2.340000000000000E-002    1.820975587404567E-035
 -2.330000000000000E-002    1.979498299518940E-035
 -2.320000000000000E-002    1.724765867401466E-035
 -2.310000000000000E-002    8.513523026761038E-036
 -2.300000000000000E-002   -8.167897941081343E-036
 -2.290000000000000E-002   -3.360917326907632E-035
 -2.280000000000000E-002   -6.685690492070325E-035
 -2.270000000000000E-002   -1.043241965135592E-034
 -2.260000000000000E-002   -1.390725959139358E-034
 -2.250000000000000E-002   -1.605248780012529E-034
 -2.240000000000000E-002   -1.549483624862142E-034
 -2.230000000000000E-002   -1.070505326185059E-034
 -2.220000000000000E-002   -2.944727081365360E-036
 -2.210000000000000E-002    1.654627093394921E-034
 -2.200000000000000E-002    3.949491244075447E-034
 -2.190000000000000E-002    6.650646565208318E-034
 -2.180000000000000E-002    9.331196805451043E-034
 -2.170000000000000E-002    1.131871799048911E-033
 -2.160000000000000E-002    1.172056639633056E-033
 -2.150000000000000E-002    9.519025222266423E-034
 -2.140000000000000E-002    3.752025467665739E-034
 -2.130000000000000E-002   -6.217600836402851E-034
 -2.120000000000000E-002   -2.036204741803221E-033
 -2.110000000000000E-002   -3.762311244999165E-033
 -2.100000000000000E-002   -5.559827520577735E-033
 -2.090000000000000E-002   -7.038445131597952E-033
 -2.080000000000000E-002   -7.670422464111930E-033
 -2.070000000000000E-002   -6.843673945432254E-033
 -2.060000000000000E-002   -3.964044362041621E-033
 -2.050000000000000E-002    1.391887787481807E-033
 -2.040000000000000E-002    9.284029726742531E-033
 -2.030000000000000E-002    1.920183592881227E-032
 -2.020000000000000E-002    2.988613009091431E-032
 -2.010000000000000E-002    3.923788524977917E-032
 -2.000000000000000E-002    4.438116500719909E-032
 -1.990000000000000E-002    4.194475143125975E-032
 -1.980000000000000E-002    2.860651304439455E-032
 -1.970000000000000E-002    1.904106444640763E-033
 -1.960000000000000E-002   -3.874757385233444E-032
 -1.950000000000000E-002   -9.097095723280750E-032
 -1.940000000000000E-002   -1.484975454792607E-031
 -1.930000000000000E-002   -2.006962099674386E-031
 -1.920000000000000E-002   -2.328968034491490E-031
 -1.910000000000000E-002   -2.278246635029576E-031
 -1.900000000000000E-002   -1.683525339380175E-031
 -1.890000000000000E-002   -4.156376995573924E-032
 -1.880000000000000E-002    1.561930861284658E-031
 -1.870000000000000E-002    4.139669277449197E-031
 -1.860000000000000E-002    7.017005031185371E-031
 -1.850000000000000E-002    9.680123584438433E-031
 -1.840000000000000E-002    1.141875953356401E-030
 -1.830000000000000E-002    1.139648223955687E-030
 -1.820000000000000E-002    8.783418690174485E-031
 -1.810000000000000E-002    2.949959216989634E-031
 -1.800000000000000E-002   -6.294898921595787E-031
 -1.790000000000000E-002   -1.845484859589185E-030
 -1.780000000000000E-002   -3.213967040985274E-030
 -1.770000000000000E-002   -4.496769199401091E-030
 -1.760000000000000E-002   -5.364965689922920E-030
 -1.750000000000000E-002   -5.431765660045893E-030
 -1.740000000000000E-002   -4.313550968331358E-030
 -1.730000000000000E-002   -1.717874735903919E-030
 -1.720000000000000E-002    2.449408638233719E-030
 -1.710000000000000E-002    7.973575317643519E-030
 -1.700000000000000E-002    1.424045346092673E-029
 -1.690000000000000E-002    2.019511347609178E-029
 -1.680000000000000E-002    2.438082099332616E-029
 -1.670000000000000E-002    2.508474065740052E-029
 -1.660000000000000E-002    2.060448300313380E-029
 -1.650000000000000E-002    9.628522906769431E-030
 -1.640000000000000E-002   -8.304723983567263E-030
 -1.630000000000000E-002   -3.233718140444144E-029
 -1.620000000000000E-002   -5.990989137709448E-029
 -1.610000000000000E-002   -8.659200288260967E-029
 -1.600000000000000E-002   -1.062463354147543E-028
 -1.590000000000000E-002   -1.116369054965848E-028
 -1.580000000000000E-002   -9.553044448729282E-029
 -1.570000000000000E-002   -5.225743745328875E-029
 -1.560000000000000E-002    2.041652990510018E-029
 -1.550000000000000E-002    1.193874260093869E-028
 -1.540000000000000E-002    2.346753111222362E-028
 -1.530000000000000E-002    3.487336185580979E-028
 -1.520000000000000E-002    4.370962713968197E-028
 -1.510000000000000E-002    4.707617976416563E-028
 -1.500000000000000E-002    4.204994266144656E-028
 -1.490000000000000E-002    2.629219142787996E-028
 -1.480000000000000E-002   -1.226924334980143E-029
 -1.470000000000000E-002   -3.949447707350333E-028
 -1.460000000000000E-002   -8.486332484802333E-028
 -1.450000000000000E-002   -1.307838317643966E-027
 -1.440000000000000E-002   -1.680401686535453E-027
 -1.430000000000000E-002   -1.856355558059750E-027
 -1.420000000000000E-002   -1.723890574269359E-027
 -1.410000000000000E-002   -1.191790374332161E-027
 -1.400000000000000E-002   -2.160924337148431E-028
 -1.390000000000000E-002    1.173007340289750E-027
 -1.380000000000000E-002    2.849522303096548E-027
 -1.370000000000000E-002    4.581783830186464E-027
 -1.360000000000000E-002    6.040679158460824E-027
 -1.350000000000000E-002    6.831008166130278E-027
 -1.340000000000000E-002    6.547937672385666E-027
 -1.330000000000000E-002    4.856035314664273E-027
 -1.320000000000000E-002    1.582784146177597E-027
 -1.310000000000000E-002   -3.187447352831211E-027
 -1.300000000000000E-002   -9.038136502255043E-027
 -1.290000000000000E-002   -1.518616023688405E-026
 -1.280000000000000E-002   -2.050974678534552E-026
 -1.270000000000000E-002   -2.365520714204298E-026
 -1.260000000000000E-002   -2.322834861763755E-026
 -1.250000000000000E-002   -1.806127083745366E-026
 -1.240000000000000E-002   -7.526510745100608E-027
 -1.230000000000000E-002    8.148913030979411E-027
 -1.220000000000000E-002    2.763329416846492E-026
 -1.210000000000000E-002    4.837660779558054E-026
 -1.200000000000000E-002    6.670319337724205E-026
 -1.190000000000000E-002    7.816229430917113E-026
 -1.180000000000000E-002    7.815339350213588E-026
 -1.170000000000000E-002    6.279306835910505E-026
 -1.160000000000000E-002    2.993032950460169E-026
 -1.150000000000000E-002   -1.984387816479679E-026
 -1.140000000000000E-002   -8.239732756065875E-026
 -1.130000000000000E-002   -1.496971231576205E-025
 -1.120000000000000E-002   -2.101079665128835E-025
 -1.110000000000000E-002   -2.495041126021781E-025
 -1.100000000000000E-002   -2.532407982385697E-025
 -1.090000000000000E-002   -2.088729293698165E-025
 -1.080000000000000E-002   -1.093232084897334E-025
 -1.070000000000000E-002    4.398307161911396E-026
 -1.060000000000000E-002    2.386482782811130E-025
 -1.050000000000000E-002    4.501993442099793E-025
 -1.040000000000000E-002    6.430056586926701E-025
 -1.030000000000000E-002    7.736784438714920E-025
 -1.020000000000000E-002    7.970680544731366E-025
 -1.010000000000000E-002    6.745000550387056E-025
 -1.000000000000000E-002    3.833354499864655E-025
 -9.899999999999999E-003   -7.360298162775902E-026
 -9.800000000000000E-003   -6.606215113027114E-025
 -9.699999999999999E-003   -1.305834519487614E-024
 -9.599999999999999E-003   -1.903837308693276E-024
 -9.500000000000000E-003   -2.325690112561551E-024
 -9.399999999999999E-003   -2.436506086458884E-024
 -9.299999999999999E-003   -2.119545402307364E-024
 -9.200000000000000E-003   -1.304116545656350E-024
 -9.099999999999999E-003    6.952861668470479E-027
 -8.999999999999999E-003    1.715709112815216E-024
 -8.900000000000000E-003    3.619229588735497E-024
 -8.799999999999999E-003    5.416941737558826E-024
 -8.699999999999999E-003    6.738748149802836E-024
 -8.600000000000000E-003    7.194712967148139E-024
 -8.499999999999999E-003    6.443092221923000E-024
 -8.399999999999999E-003    4.269082664077218E-024
 -8.300000000000000E-003    6.623657556053284E-025
 -8.199999999999999E-003   -4.121645811812190E-024
 -8.100000000000000E-003   -9.533197274741280E-024
 -8.000000000000000E-003   -1.474695066108551E-023
 -7.899999999999999E-003   -1.873805998335523E-023
 -7.800000000000000E-003   -2.041737399415700E-023
 -7.699999999999999E-003   -1.881694480163959E-023
 -7.599999999999999E-003   -1.330491745490414E-023
 -7.499999999999999E-003   -3.797570777971554E-024
 -7.399999999999999E-003    9.072144772147820E-024
 -7.299999999999999E-003    2.387328343708188E-023
 -7.199999999999999E-003    3.842199849204878E-023
 -7.100000000000000E-003    4.997931590584804E-023
 -6.999999999999999E-003    5.560620576100902E-023
 -6.899999999999999E-003    5.265244792782199E-023
 -6.800000000000000E-003    3.932424978250743E-023
 -6.699999999999999E-003    1.524623990553172E-023
 -6.599999999999999E-003   -1.808825254547752E-023
 -6.499999999999999E-003   -5.709197529179704E-023
 -6.399999999999999E-003   -9.618487960844795E-023
 -6.299999999999999E-003   -1.282894239673847E-022
 -6.199999999999999E-003   -1.457320511313226E-022
 -6.100000000000000E-003   -1.414903474892665E-022
 -5.999999999999999E-003   -1.106467618623789E-022
 -5.899999999999999E-003   -5.183405882788822E-023
 -5.800000000000000E-003    3.159488648826827E-023
 -5.699999999999999E-003    1.309591687958763E-022
 -5.599999999999999E-003    2.324588203203021E-022
 -5.499999999999999E-003    3.183708342366711E-022
 -5.399999999999999E-003    3.692643121758393E-022
 -5.299999999999999E-003    3.670869748968095E-022
 -5.199999999999999E-003    2.987794635835496E-022
 -5.099999999999999E-003    1.598913454992257E-022
 -4.999999999999999E-003   -4.245935287205223E-023
 -4.899999999999999E-003   -2.879836956229992E-022
 -4.799999999999999E-003   -5.436031416535273E-022
 -4.699999999999999E-003   -7.662338728048706E-022
 -4.599999999999999E-003   -9.080596002766439E-022
 -4.499999999999999E-003   -9.239460925410304E-022
 -4.399999999999999E-003   -7.801811242230837E-022
 -4.299999999999999E-003   -4.632821958640955E-022
 -4.199999999999999E-003    1.269568601923777E-023
 -4.099999999999999E-003    6.020277212031743E-022
 -3.999999999999999E-003    1.227863943467949E-021
 -3.899999999999999E-003    1.788464148171320E-021
 -3.799999999999999E-003    2.169354305028643E-021
 -3.699999999999999E-003    2.260629470606078E-021
 -3.599999999999999E-003    1.977515265964183E-021
 -3.499999999999999E-003    1.281284852129298E-021
 -3.399999999999999E-003    1.968844074676315E-022
 -3.299999999999999E-003   -1.176632871470944E-021
 -3.199999999999999E-003   -2.666378510504539E-021
 -3.099999999999999E-003   -4.039019063226640E-021
 -2.999999999999999E-003   -5.027913382994783E-021
 -2.899999999999999E-003   -5.372329186375743E-021
 -2.799999999999999E-003   -4.864534943646075E-021
 -2.699999999999999E-003   -3.398243464457630E-021
 -2.599999999999999E-003   -1.010158392252523E-021
 -2.499999999999999E-003    2.094241703597675E-021
 -2.399999999999999E-003    5.538726409112107E-021
 -2.299999999999999E-003    8.803787987074825E-021
 -2.199999999999999E-003    1.128525656466934E-020
 -2.099999999999999E-003    1.238063820916319E-020
 -1.999999999999999E-003    1.159414903922837E-020
 -1.899999999999999E-003    8.646162162662588E-021
 -1.799999999999999E-003    3.568917623818737E-021
 -1.699999999999999E-003   -3.231173924284049E-021
 -1.599999999999999E-003   -1.096268087084034E-020
 -1.499999999999999E-003   -1.850272239908236E-020
 -1.399999999999999E-003   -2.451938712900901E-020
 -1.299999999999999E-003   -2.765646336155343E-020
 -1.199999999999999E-003   -2.676164190361665E-020
 -1.099999999999999E-003   -2.112787266613261E-020
 -9.999999999999989E-004   -1.070892728905496E-020
 -8.999999999999990E-004    3.733526067261645E-021
 -7.999999999999990E-004    2.059092779396273E-020
 -6.999999999999989E-004    3.750619525467681E-020
 -5.999999999999990E-004    5.162080841006361E-020
 -4.999999999999989E-004    5.995902453754164E-020
 -3.999999999999989E-004    5.991115812714013E-020
 -2.999999999999989E-004    4.975346275342289E-020
 -1.999999999999989E-004    2.912293863537298E-020
 -9.999999999999892E-005   -6.433863365767615E-022
  1.084202172485504E-018   -3.638996249775426E-020
  1.000000000000011E-004   -7.330983806559361E-020
  2.000000000000011E-004   -1.054262164246626E-019
  3.000000000000011E-004   -1.263691373169023E-019
  4.000000000000011E-004   -1.303737444555017E-019
  5.000000000000011E-004   -1.133748179910233E-019
  6.000000000000011E-004   -7.403021576683503E-020
  7.000000000000011E-004   -1.448601184959362E-020
  8.000000000000011E-004    5.929714440192525E-020
  9.000000000000012E-004    1.377974094634937E-019
  1.000000000000001E-003    2.088347777856262E-019
  1.100000000000001E-003    2.590972604573429E-019
  1.200000000000001E-003    2.761532654106479E-019
  1.300000000000001E-003    2.507044635824037E-019
  1.400000000000001E-003    1.787460772267915E-019
  1.500000000000001E-003    6.325358377204287E-020
  1.600000000000001E-003   -8.497774272340012E-020
  1.700000000000001E-003   -2.476421071489325E-019
  1.800000000000001E-003   -4.005465409392648E-019
  1.900000000000001E-003   -5.165249543838073E-019
  2.000000000000001E-003   -5.693956874742613E-019
  2.100000000000001E-003   -5.384985593032691E-019
  2.200000000000001E-003   -4.131603623989942E-019
  2.300000000000001E-003   -1.963311241364855E-019
  2.400000000000001E-003    9.336906983112504E-020
  2.500000000000001E-003    4.218260130794592E-019
  2.600000000000001E-003    7.422104465149990E-019
  2.700000000000001E-003    1.000376320062011E-018
  2.800000000000001E-003    1.142459422954241E-018
  2.900000000000001E-003    1.123816151293651E-018
  3.000000000000001E-003    9.180670526860006E-019
  3.100000000000001E-003    5.247631106559757E-019
  3.200000000000001E-003   -2.584046353405875E-020
  3.300000000000001E-003   -6.722131684562354E-019
  3.400000000000001E-003   -1.326027236773848E-018
  3.500000000000001E-003   -1.881850335753137E-018
  3.600000000000001E-003   -2.231383865293870E-018
  3.700000000000001E-003   -2.280705207240953E-018
  3.800000000000001E-003   -1.968210654431417E-018
  3.900000000000001E-003   -1.280430322888341E-018
  4.000000000000001E-003   -2.627397787108877E-019
  4.100000000000001E-003    9.776872270124163E-019
  4.200000000000001E-003    2.278524739214454E-018
  4.300000000000001E-003    3.439131577085253E-018
  4.400000000000001E-003    4.246582959886272E-018
  4.500000000000001E-003    4.508239965971085E-018
  4.600000000000002E-003    4.086647295371241E-018
  4.700000000000001E-003    2.931465492429767E-018
  4.800000000000001E-003    1.102697347962274E-018
  4.900000000000002E-003   -1.220070115373454E-018
  5.000000000000001E-003   -3.746319139179433E-018
  5.100000000000001E-003   -6.102778240500994E-018
  5.200000000000001E-003   -7.879864499776494E-018
  5.300000000000002E-003   -8.691924215710486E-018
  5.400000000000001E-003   -8.243793942992670E-018
  5.500000000000001E-003   -6.393924434566919E-018
  5.600000000000002E-003   -3.203216450018270E-018
  5.700000000000001E-003    1.040754307009322E-018
  5.800000000000001E-003    5.832191154262083E-018
  5.900000000000002E-003    1.049229584153027E-017
  6.000000000000001E-003    1.425002557852214E-017
  6.100000000000001E-003    1.635121579975715E-017
  6.200000000000002E-003    1.618306023849793E-017
  6.300000000000002E-003    1.339633243456159E-017
  6.400000000000001E-003    8.005197614708737E-018
  6.500000000000001E-003    4.447427680882469E-019
  6.600000000000002E-003   -8.429978210819044E-018
  6.700000000000001E-003   -1.741282352219205E-017
  6.800000000000001E-003   -2.508330748019885E-017
  6.900000000000002E-003   -3.000011165514474E-017
  7.000000000000001E-003   -3.092942502841231E-017
  7.100000000000001E-003   -2.707678797336845E-017
  7.200000000000002E-003   -1.828563841334651E-017
  7.300000000000002E-003   -5.165191671000504E-018
  7.400000000000001E-003    1.088438068773170E-017
  7.500000000000001E-003    2.776987260319667E-017
  7.600000000000002E-003    4.293007360129081E-017
  7.700000000000001E-003    5.367185777156069E-017
  7.800000000000001E-003    5.758081995253922E-017
  7.900000000000001E-003    5.295228000312087E-017
  8.000000000000002E-003    3.917643517302324E-017
  8.100000000000001E-003    1.700848198363593E-017
  8.200000000000001E-003   -1.133779318037214E-017
  8.300000000000002E-003   -4.231567862663856E-017
  8.400000000000001E-003   -7.140464740253079E-017
  8.500000000000002E-003   -9.368156701465190E-017
  8.600000000000002E-003   -1.045452162189416E-016
  8.700000000000001E-003   -1.005016485341890E-016
  8.800000000000002E-003   -7.989365824594233E-017
  8.900000000000002E-003   -4.344860633738116E-017
  9.000000000000001E-003    5.471150735992540E-018
  9.100000000000002E-003    6.100135048443431E-017
  9.200000000000002E-003    1.153294482261639E-016
  9.300000000000001E-003    1.596445118073198E-016
  9.400000000000002E-003    1.853912742193196E-016
  9.500000000000001E-003    1.856736934276101E-016
  9.600000000000001E-003    1.566054997737782E-016
  9.700000000000002E-003    9.838353643564307E-017
  9.800000000000001E-003    1.587012481415167E-017
  9.900000000000001E-003   -8.148263247517767E-017
  1.000000000000000E-002   -1.804530062198612E-016
  1.010000000000000E-002   -2.655938920629032E-016
  1.020000000000000E-002   -3.213625695826684E-016
  1.030000000000000E-002   -3.345812361452162E-016
  1.040000000000000E-002   -2.968842381584125E-016
  1.050000000000000E-002   -2.067585970830795E-016
  1.060000000000000E-002   -7.079100932741155E-017
  1.070000000000000E-002    9.619372515736336E-017
  1.080000000000000E-002    2.722879617863965E-016
  1.090000000000000E-002    4.309538639361268E-016
  1.100000000000000E-002    5.445707381570621E-016
  1.110000000000000E-002    5.886686525168985E-016
  1.120000000000000E-002    5.462718545311354E-016
  1.130000000000000E-002    4.116739991243636E-016
  1.140000000000000E-002    1.929604530789283E-016
  1.150000000000000E-002   -8.730353662461556E-017
  1.160000000000000E-002   -3.935926840541841E-016
  1.170000000000000E-002   -6.812197173910116E-016
  1.180000000000000E-002   -9.021300555545206E-016
  1.190000000000000E-002   -1.012051985761580E-015
  1.200000000000000E-002   -9.780529509008569E-016
  1.210000000000000E-002   -7.853543773058379E-016
  1.220000000000000E-002   -4.422154024150722E-016
  1.230000000000000E-002    1.816408559016394E-017
  1.240000000000000E-002    5.394383512628577E-016
  1.250000000000000E-002    1.047837196318914E-015
  1.260000000000000E-002    1.461446536986621E-015
  1.270000000000000E-002    1.702063114050445E-015
  1.280000000000000E-002    1.708087646521413E-015
  1.290000000000000E-002    1.446549742150561E-015
  1.300000000000000E-002    9.222303739622641E-016
  1.310000000000000E-002    1.820372143683841E-016
  1.320000000000000E-002   -6.867094961567984E-016
  1.330000000000000E-002   -1.564628983597332E-015
  1.340000000000000E-002   -2.314845159586507E-015
  1.350000000000000E-002   -2.802276972296610E-015
  1.360000000000000E-002   -2.915228148368469E-015
  1.370000000000000E-002   -2.586152206962603E-015
  1.380000000000000E-002   -1.808185191807910E-015
  1.390000000000000E-002   -6.442588564558331E-016
  1.400000000000000E-002    7.736291127129132E-016
  1.410000000000000E-002    2.256175259472768E-015
  1.420000000000000E-002    3.579136758090970E-015
  1.430000000000000E-002    4.514151862175807E-015
  1.440000000000000E-002    4.864218600362200E-015
  1.450000000000000E-002    4.498826544143356E-015
  1.460000000000000E-002    3.383117909861250E-015
  1.470000000000000E-002    1.595688323838828E-015
  1.480000000000000E-002   -6.692459471684795E-016
  1.490000000000000E-002   -3.117671890443874E-015
  1.500000000000000E-002   -5.389384121081026E-015
  1.510000000000000E-002   -7.106301400737591E-015
  1.520000000000000E-002   -7.929732450428946E-015
  1.530000000000000E-002   -7.618646032646340E-015
  1.540000000000000E-002   -6.079862085123665E-015
  1.550000000000000E-002   -3.401211867733448E-015
  1.560000000000000E-002    1.397157204032300E-016
  1.570000000000000E-002    4.095650802135885E-015
  1.580000000000000E-002    7.898964086748194E-015
  1.590000000000000E-002    1.093605651799603E-014
  1.600000000000000E-002    1.263815157991787E-014
  1.610000000000000E-002    1.257617842456509E-014
  1.620000000000000E-002    1.054525216137822E-014
  1.630000000000000E-002    6.624166143554634E-015
  1.640000000000000E-002    1.197437478032385E-015
  1.650000000000000E-002   -5.068081126802725E-015
  1.660000000000000E-002   -1.129386054563751E-014
  1.670000000000000E-002   -1.650215633630791E-014
  1.680000000000000E-002   -1.975755258090947E-014
  1.690000000000000E-002   -2.031879417714522E-014
  1.700000000000000E-002   -1.777818068014806E-014
  1.710000000000000E-002   -1.216509492111329E-014
  1.720000000000000E-002   -3.993113532290382E-015
  1.730000000000000E-002    5.763385340684465E-015
  1.740000000000000E-002    1.576770459618297E-014
  1.750000000000000E-002    2.448777264857916E-014
  1.760000000000000E-002    3.041321326121897E-014
  1.770000000000000E-002    3.229432410686469E-014
  1.780000000000000E-002    2.936790536889351E-014
  1.790000000000000E-002    2.153294139275630E-014
  1.800000000000000E-002    9.442733816116285E-015
  1.810000000000000E-002   -5.510512562494734E-015
  1.820000000000000E-002   -2.132862237912539E-014
  1.830000000000000E-002   -3.565037954758105E-014
  1.840000000000000E-002   -4.607890450429614E-014
  1.850000000000000E-002   -5.055167320979057E-014
  1.860000000000000E-002   -4.770002447762126E-014
  1.870000000000000E-002   -3.714059783562448E-014