 -4.000000000000000E-002    0.000000000000000E+000
 -3.990000000000000E-002    0.000000000000000E+000
 -3.980000000000000E-002    0.000000000000000E+000
 -3.970000000000000E-002    0.000000000000000E+000
 -3.960000000000000E-002    0.000000000000000E+000
 -3.950000000000000E-002    0.000000000000000E+000
 -3.940000000000000E-002    0.000000000000000E+000
 -3.930000000000000E-002    0.000000000000000E+000
 -3.920000000000000E-002    0.000000000000000E+000
 -3.910000000000000E-002    0.000000000000000E+000
 -3.900000000000000E-002    0.000000000000000E+000
 -3.890000000000000E-002    0.000000000000000E+000
 -3.880000000000000E-002    0.000000000000000E+000
 -3.870000000000000E-002    0.000000000000000E+000
 -3.860000000000000E-002    0.000000000000000E+000
 -3.850000000000000E-002    0.000000000000000E+000
 -3.840000000000000E-002    0.000000000000000E+000
 -3.830000000000000E-002    0.000000000000000E+000
 -3.820000000000000E-002    0.000000000000000E+000
 -3.810000000000000E-002    0.000000000000000E+000
 -3.800000000000000E-002   -6.414635304221270E-048
 -3.790000000000000E-002   -1.312343785916438E-047
 -3.780000000000000E-002   -3.652861330243759E-046
 -3.770000000000000E-002   -1.449473512167557E-045
 -3.760000000000000E-002   -7.629845448691387E-045
 -3.750000000000000E-002   -3.400855954872485E-044
 -3.740000000000000E-002   -1.229098716149253E-043
 -3.730000000000000E-002   -3.681935060295407E-043
 -3.720000000000000E-002   -8.487638560999973E-043
 -3.710000000000000E-002   -1.049618799358906E-042
 -3.700000000000000E-002    2.822269072260059E-042
 -3.690000000000000E-002    2.741656484702497E-041
 -3.680000000000000E-002    1.312372576072424E-040
 -3.670000000000000E-002    4.917404878901366E-040
 -3.660000000000000E-002    1.587371758809394E-039
 -3.650000000000000E-002    4.578542662683827E-039
 -3.640000000000000E-002    1.200041667089369E-038
 -3.630000000000000E-002    2.879403408424712E-038
 -3.620000000000000E-002    6.330337635883605E-038
 -3.610000000000000E-002    1.267494836789046E-037
 -3.600000000000000E-002    2.272092799827206E-037
 -3.590000000000000E-002    3.494667745124941E-037
 -3.580000000000000E-002    4.047713510800446E-037
 -3.570000000000000E-002    1.254924830670241E-037
 -3.560000000000000E-002   -1.126351275634418E-036
 -3.550000000000000E-002   -4.658654948807598E-036
 -3.540000000000000E-002   -1.283085240875400E-035
 -3.530000000000000E-002   -2.936582904143065E-035
 -3.520000000000000E-002   -5.918571447813889E-035
 -3.510000000000000E-002   -1.069339679881196E-034
 -3.500000000000000E-002   -1.727377616825762E-034
 -3.490000000000000E-002   -2.430972532896062E-034
 -3.480000000000000E-002   -2.744274525859067E-034
 -3.470000000000000E-002   -1.674651627042006E-034
 -3.460000000000000E-002    2.662681712502930E-034
 -3.450000000000000E-002    1.337775755983418E-033
 -3.440000000000000E-002    3.492672574152165E-033
 -3.430000000000000E-002    7.261396184824335E-033
 -3.420000000000000E-002    1.308168918543301E-032
 -3.410000000000000E-002    2.090337418435149E-032
 -3.400000000000000E-002    2.947669865933259E-032
 -3.390000000000000E-002    3.525751028127447E-032
 -3.380000000000000E-002    3.097146249060231E-032
 -3.370000000000000E-002    4.108190735279930E-033
 -3.360000000000000E-002   -6.399930012943153E-032
 -3.350000000000000E-002   -1.973146131328748E-031
 -3.340000000000000E-002   -4.206299812357044E-031
 -3.330000000000000E-002   -7.491358595375026E-031
 -3.320000000000000E-002   -1.169598853290375E-030
 -3.310000000000000E-002   -1.611644758516678E-030
 -3.300000000000000E-002   -1.910246077622753E-030
 -3.290000000000000E-002   -1.765472885731146E-030
 -3.280000000000000E-002   -7.132784406027640E-031
 -3.270000000000000E-002    1.868846174598878E-030
 -3.260000000000000E-002    6.686746123345602E-030
 -3.250000000000000E-002    1.434261858338995E-029
 -3.240000000000000E-002    2.499493291953608E-029
 -3.230000000000000E-002    3.784209060715999E-029
 -3.220000000000000E-002    5.045072533208233E-029
 -3.210000000000000E-002    5.802701165606498E-029
 -3.200000000000000E-002    5.284161497299423E-029
 -3.190000000000000E-002    2.415621675677042E-029
 -3.180000000000000E-002   -4.086590264176545E-029
 -3.170000000000000E-002   -1.547011160685096E-028
 -3.160000000000000E-002   -3.249379003924813E-028
 -3.150000000000000E-002   -5.474211873335439E-028
 -3.140000000000000E-002   -7.973725009500599E-028
 -3.130000000000000E-002   -1.019713602802166E-027
 -3.120000000000000E-002   -1.121082922051138E-027
 -3.110000000000000E-002   -9.674787485957321E-028
 -3.100000000000000E-002   -3.927638470586835E-028
 -3.090000000000000E-002    7.760968030247265E-028
 -3.080000000000000E-002    2.671959791909640E-027
 -3.070000000000000E-002    5.316375739119447E-027
 -3.060000000000000E-002    8.527954587370331E-027
 -3.050000000000000E-002    1.182258195299421E-026
 -3.040000000000000E-002    1.432925522333576E-026
 -3.030000000000000E-002    1.475759376612759E-026
 -3.020000000000000E-002    1.146318899073090E-026
 -3.010000000000000E-002    2.660437845215336E-027
 -3.000000000000000E-002   -1.317635250643778E-026
 -2.990000000000000E-002   -3.670914591281032E-026
 -2.980000000000000E-002   -6.696367349283005E-026
 -2.970000000000000E-002   -1.004920561203165E-025
 -2.960000000000000E-002   -1.306606668943029E-025
 -2.950000000000000E-002   -1.473402348727091E-025
 -2.940000000000000E-002   -1.373410020135186E-025
 -2.930000000000000E-002   -8.594637011060806E-026
 -2.920000000000000E-002    2.018094077060147E-026
 -2.910000000000000E-002    1.886480064248428E-025
 -2.900000000000000E-002    4.158084520527252E-025
 -2.890000000000000E-002    6.808139982545974E-025
 -2.880000000000000E-002    9.405438879382059E-025
 -2.870000000000000E-002    1.127249164098007E-024
 -2.860000000000000E-002    1.151107711523883E-024
 -2.850000000000000E-002    9.098730603972890E-025
 -2.840000000000000E-002    3.072135931393878E-025
 -2.830000000000000E-002   -7.199825453071097E-025
 -2.820000000000000E-002   -2.167187129619902E-024
 -2.810000000000000E-002   -3.925354788956900E-024
 -2.800000000000000E-002   -5.749404352264958E-024
 -2.790000000000000E-002   -7.242729035611279E-024
 -2.780000000000000E-002   -7.870132143954150E-024
 -2.770000000000000E-002   -7.011122407285819E-024
 -2.760000000000000E-002   -4.061855207460186E-024
 -2.750000000000000E-002    1.413517015070583E-024
 -2.740000000000000E-002    9.492870059765227E-024
 -2.730000000000000E-002    1.969298820061131E-023
 -2.720000000000000E-002    3.079463355526123E-023
 -2.710000000000000E-002    4.075086341390793E-023
 -2.700000000000000E-002    4.674104835931836E-023
 -2.690000000000000E-002    4.542899307089932E-023
 -2.680000000000000E-002    3.346412037796224E-023
 -2.670000000000000E-002    8.226855019999769E-024
 -2.660000000000000E-002   -3.123648307109933E-023
 -2.650000000000000E-002   -8.321251485256260E-023
 -2.640000000000000E-002   -1.424484764083466E-022
 -2.630000000000000E-002   -1.996629766529799E-022
 -2.620000000000000E-002   -2.417221927128344E-022
 -2.610000000000000E-002   -2.527399720054175E-022
 -2.600000000000000E-002   -2.162681144131260E-022
 -2.590000000000000E-002   -1.185730131845595E-022
 -2.580000000000000E-002    4.724698749955102E-023
 -2.570000000000000E-002    2.768383156628656E-022
 -2.560000000000000E-002    5.506915523483938E-022
 -2.550000000000000E-002    8.318240440999078E-022
 -2.540000000000000E-002    1.066199140212404E-021
 -2.530000000000000E-002    1.186920266837770E-021
 -2.520000000000000E-002    1.122840270154968E-021
 -2.510000000000000E-002    8.115369449388626E-022
 -2.500000000000000E-002    2.156560735585726E-022
 -2.490000000000000E-002   -6.594984888144883E-022
 -2.480000000000000E-002   -1.750328601771406E-021
 -2.470000000000000E-002   -2.925294540874750E-021
 -2.460000000000000E-002   -3.985565894281112E-021
 -2.450000000000000E-002   -4.679758900432451E-021
 -2.440000000000000E-002   -4.734991465118531E-021
 -2.430000000000000E-002   -3.903933716903384E-021
 -2.420000000000000E-002   -2.024059557559525E-021
 -2.410000000000000E-002    9.186458108607586E-022
 -2.400000000000000E-002    4.732988531841823E-021
 -2.390000000000000E-002    8.987045466989619E-021
 -2.380000000000000E-002    1.300868942301570E-020
 -2.370000000000000E-002    1.593485381362309E-020
 -2.360000000000000E-002    1.681674449120902E-020
 -2.350000000000000E-002    1.477915612306703E-020
 -2.340000000000000E-002    9.220408178124388E-021
 -2.330000000000000E-002    2.639485586079479E-023
 -2.320000000000000E-002   -1.223966910742917E-020
 -2.310000000000000E-002   -2.621843266503813E-020
 -2.300000000000000E-002   -3.975445994702805E-020
 -2.290000000000000E-002   -5.005527272445962E-020
 -2.280000000000000E-002   -5.403058895438063E-020
 -2.270000000000000E-002   -4.880391410169547E-020
 -2.260000000000000E-002   -3.235130636483312E-020
 -2.250000000000000E-002   -4.181995519699951E-021
 -2.240000000000000E-002    3.406085450659706E-020
 -2.230000000000000E-002    7.822405168210509E-020
 -2.220000000000000E-002    1.216397954764889E-019
 -2.210000000000000E-002    1.556127295062363E-019
 -2.200000000000000E-002    1.704596640209646E-019
 -2.190000000000000E-002    1.570732012811917E-019
 -2.180000000000000E-002    1.088691533498531E-019
 -2.170000000000000E-002    2.385833903818345E-020
 -2.160000000000000E-002   -9.352027023934940E-020
 -2.150000000000000E-002   -2.312331788027583E-019
 -2.140000000000000E-002   -3.695817437877985E-019
 -2.130000000000000E-002   -4.825744569105452E-019
 -2.120000000000000E-002   -5.409147704365649E-019
 -2.110000000000000E-002   -5.165194325074241E-019
 -2.100000000000000E-002   -3.881641597901973E-019
 -2.090000000000000E-002   -1.475202512261715E-019
 -2.080000000000000E-002    1.954414081102864E-019
 -2.070000000000000E-002    6.088798762650849E-019
 -2.060000000000000E-002    1.038543575211830E-018
 -2.050000000000000E-002    1.411229232806517E-018
 -2.040000000000000E-002    1.642728559362923E-018
 -2.030000000000000E-002    1.650056809389956E-018
 -2.020000000000000E-002    1.366894871485771E-018
 -2.010000000000000E-002    7.602921409782997E-019
 -2.000000000000000E-002   -1.540876263937316E-019
 -1.990000000000000E-002   -1.301365981319132E-018
 -1.980000000000000E-002   -2.544680634957393E-018
 -1.970000000000000E-002   -3.692844213041123E-018
 -1.960000000000000E-002   -4.519811311982420E-018
 -1.950000000000000E-002   -4.795536704202702E-018
 -1.940000000000000E-002   -4.325640111265188E-018
 -1.930000000000000E-002   -2.995015026539055E-018
 -1.920000000000000E-002   -8.085873969424964E-019
 -1.910000000000000E-002    2.078792005480677E-018
 -1.900000000000000E-002    5.351397266403855E-018
 -1.890000000000000E-002    8.547296186617026E-018
 -1.880000000000000E-002    1.110239786036558E-017
 -1.870000000000000E-002    1.242329981196783E-017
 -1.860000000000000E-002    1.198311748762995E-017
 -1.850000000000000E-002    9.428954015418222E-018
 -1.840000000000000E-002    4.684913512627770E-018
 -1.830000000000000E-002   -1.968481655802350E-018
 -1.820000000000000E-002   -9.857976107551447E-018
 -1.810000000000000E-002   -1.794084386857213E-017
 -1.800000000000000E-002   -2.489757186132280E-017
 -1.790000000000000E-002   -2.929394066428727E-017
 -1.780000000000000E-002   -2.980027445269264E-017
 -1.770000000000000E-002   -2.544290449627474E-017
 -1.760000000000000E-002   -1.585164765257413E-017
 -1.750000000000000E-002   -1.459589654688310E-018
 -1.740000000000000E-002    1.638992924282542E-017
 -1.730000000000000E-002    3.546827919159905E-017
 -1.720000000000000E-002    5.284334660362580E-017
 -1.710000000000000E-002    6.522146609447146E-017
 -1.700000000000000E-002    6.942598349423834E-017
 -1.690000000000000E-002    6.296037971080633E-017
 -1.680000000000000E-002    4.457811516249070E-017
 -1.670000000000000E-002    1.476358979945698E-017
 -1.660000000000000E-002   -2.397644378904417E-017
 -1.650000000000000E-002   -6.710080929015244E-017
 -1.640000000000000E-002   -1.083622458249037E-016
 -1.630000000000000E-002   -1.404922304893409E-016
 -1.620000000000000E-002   -1.562013918986270E-016
 -1.610000000000000E-002   -1.493924938785354E-016
 -1.600000000000000E-002   -1.164266676643181E-016
 -1.590000000000000E-002   -5.724120796291383E-017
 -1.580000000000000E-002    2.389840285803660E-017
 -1.570000000000000E-002    1.182123087846056E-016
 -1.560000000000000E-002    2.129313377192243E-016
 -1.550000000000000E-002    2.925900357974229E-016
 -1.540000000000000E-002    3.410265864681083E-016
 -1.530000000000000E-002    3.438995663684088E-016
 -1.520000000000000E-002    2.914087426108168E-016
 -1.510000000000000E-002    1.808109120391617E-016
 -1.500000000000000E-002    1.827692079296282E-017
 -1.490000000000000E-002   -1.803442052729370E-016
 -1.480000000000000E-002   -3.901923094817558E-016
 -1.470000000000000E-002   -5.796613776005956E-016
 -1.460000000000000E-002   -7.142029212119932E-016
 -1.450000000000000E-002   -7.613404744897014E-016
 -1.440000000000000E-002   -6.963138869838587E-016
 -1.430000000000000E-002   -5.075544817583087E-016
 -1.420000000000000E-002   -2.010737633996224E-016
 -1.410000000000000E-002    1.971480243773227E-016
 -1.400000000000000E-002    6.415348818968197E-016
 -1.390000000000000E-002    1.070501185941088E-015
 -1.380000000000000E-002    1.413272276098951E-015
 -1.370000000000000E-002    1.599439745914237E-015
 -1.360000000000000E-002    1.570222914927304E-015
 -1.350000000000000E-002    1.289946749806386E-015
 -1.340000000000000E-002    7.559410163450907E-016
 -1.330000000000000E-002    4.997435291070101E-018
 -1.320000000000000E-002   -8.852661350502889E-016
 -1.310000000000000E-002   -1.801264171779276E-015
 -1.300000000000000E-002   -2.604860601579889E-015
 -1.290000000000000E-002   -3.150708647135871E-015
 -1.280000000000000E-002   -3.307804412067087E-015
 -1.270000000000000E-002   -2.982590388578777E-015
 -1.260000000000000E-002   -2.140228585606380E-015
 -1.250000000000000E-002   -8.203585001047371E-016
 -1.240000000000000E-002    8.561001685559450E-016
 -1.230000000000000E-002    2.691735034885177E-015
 -1.220000000000000E-002    4.430256270206368E-015
 -1.210000000000000E-002    5.786379777653407E-015
 -1.200000000000000E-002    6.485378974401754E-015
 -1.190000000000000E-002    6.307736277462385E-015
 -1.180000000000000E-002    5.132745041249018E-015
 -1.170000000000000E-002    2.974040187840932E-015
 -1.160000000000000E-002    1.144779046094190E-019
 -1.150000000000000E-002   -3.465925922029034E-015
 -1.140000000000000E-002   -6.970819860993935E-015
 -1.130000000000000E-002   -9.980009766805226E-015
 -1.120000000000000E-002   -1.194734800565353E-014
 -1.110000000000000E-002   -1.239816947853063E-014
 -1.100000000000000E-002   -1.101492520581521E-014
 -1.090000000000000E-002   -7.712415989342781E-015
 -1.080000000000000E-002   -2.689112860270767E-015
 -1.070000000000000E-002    3.557376627423126E-015
 -1.060000000000000E-002    1.025900014504869E-014
 -1.050000000000000E-002    1.645278286411580E-014
 -1.040000000000000E-002    2.109902361397063E-014
 -1.030000000000000E-002    2.323055718937437E-014
 -1.020000000000000E-002    2.211477587864723E-014
 -1.010000000000000E-002    1.740514581032342E-014
 -1.000000000000000E-002    9.256817135574060E-015
 -9.899999999999999E-003   -1.617435745551332E-015
 -9.800000000000000E-003   -1.396927009826710E-014
 -9.699999999999999E-003   -2.612367662042093E-014
 -9.599999999999999E-003   -3.617159286346668E-014
 -9.500000000000000E-003   -4.222929780771160E-014
 -9.399999999999999E-003   -4.273459020301948E-014
 -9.299999999999999E-003   -3.673938358024664E-014
 -9.200000000000000E-003   -2.415239312193174E-014
 -9.099999999999999E-003   -5.886396286057044E-015
 -8.999999999999999E-003    1.612774923048467E-014
 -8.900000000000000E-003    3.908311070410008E-014
 -8.799999999999999E-003    5.959649006283115E-014
 -8.699999999999999E-003    7.414358332085984E-014
 -8.600000000000000E-003    7.958236103829890E-014
 -8.499999999999999E-003    7.369659796045916E-014
 -8.399999999999999E-003    5.567788585620413E-014
 -8.300000000000000E-003    2.646199582114188E-014
 -8.199999999999999E-003   -1.115468880723070E-014
 -8.100000000000000E-003   -5.266956963873517E-014
 -8.000000000000000E-003   -9.231530137268926E-014
 -7.899999999999999E-003   -1.237622878007236E-013
 -7.800000000000000E-003   -1.410114837269126E-013
 -7.699999999999999E-003   -1.393666741955489E-013
 -7.599999999999999E-003   -1.163468980323220E-013
 -7.499999999999999E-003   -7.238865777944874E-014
 -7.399999999999999E-003   -1.119846652109198E-014
 -7.299999999999999E-003    6.034913796554292E-014
 -7.199999999999999E-003    1.328175783781598E-013
 -7.100000000000000E-003    1.952960095703865E-013
 -6.999999999999999E-003    2.368686386934088E-013
 -6.899999999999999E-003    2.482915737740621E-013
 -6.800000000000000E-003    2.236467423792760E-013
 -6.699999999999999E-003    1.617133936132868E-013
 -6.599999999999999E-003    6.680536251177495E-014
 -6.499999999999999E-003   -5.112915583208671E-014
 -6.399999999999999E-003   -1.772631259989398E-013
 -6.299999999999999E-003   -2.935008686827349E-013
 -6.199999999999999E-003   -3.808113683526060E-013
 -6.100000000000000E-003   -4.220215325157414E-013
 -5.999999999999999E-003   -4.046998119528557E-013
 -5.899999999999999E-003   -3.236966244351668E-013
 -5.800000000000000E-003   -1.829031756480488E-013
 -5.699999999999999E-003    4.147381364144503E-015
 -5.599999999999999E-003    2.150824534722080E-013
 -5.499999999999999E-003    4.209572651122767E-013
 -5.399999999999999E-003    5.898297312599387E-013
 -5.299999999999999E-003    6.912608933071911E-013
 -5.199999999999999E-003    7.011682328838668E-013
 -5.099999999999999E-003    6.063277321006324E-013
 -4.999999999999999E-003    4.077861153021068E-013
 -4.899999999999999E-003    1.225175747369258E-013
 -4.799999999999999E-003   -2.171546352670482E-013
 -4.699999999999999E-003   -5.665643560409602E-013
 -4.599999999999999E-003   -8.739816282085433E-013
 -4.499999999999999E-003   -1.087636085993053E-012
 -4.399999999999999E-003   -1.163620894239441E-012
 -4.299999999999999E-003   -1.073570359310480E-012
 -4.199999999999999E-003   -8.109019570549924E-013
 -4.099999999999999E-003   -3.944850875087670E-013
 -3.999999999999999E-003    1.311431631569771E-013
 -3.899999999999999E-003    6.994704208455097E-013
 -3.799999999999999E-003    1.229515180502607E-012
 -3.699999999999999E-003    1.636456124030591E-012
 -3.599999999999999E-003    1.844122314385283E-012
 -3.499999999999999E-003    1.797651865948963E-012
 -3.399999999999999E-003    1.474390737277883E-012
 -3.299999999999999E-003    8.911497278953524E-013
 -3.199999999999999E-003    1.062711983068588E-013
 -3.099999999999999E-003   -7.844190820164023E-013
 -2.999999999999999E-003   -1.657874211739094E-012
 -2.899999999999999E-003   -2.379452043801274E-012
 -2.799999999999999E-003   -2.822126005025348E-012
 -2.699999999999999E-003   -2.886753920235886E-012
 -2.599999999999999E-003   -2.520410976268941E-012
 -2.499999999999999E-003   -1.729753685416330E-012
 -2.399999999999999E-003   -5.867992185054304E-013
 -2.299999999999999E-003    7.746336596923426E-013
 -2.199999999999999E-003    2.172335748721451E-012
 -2.099999999999999E-003    3.398024736737000E-012
 -1.999999999999999E-003    4.246156557894605E-012
 -1.899999999999999E-003    4.545541407891857E-012
 -1.799999999999999E-003    4.189241209431246E-012
 -1.699999999999999E-003    3.157980316345591E-012
 -1.599999999999999E-003    1.532770427772988E-012
 -1.499999999999999E-003   -5.063629364814106E-013
 -1.399999999999999E-003   -2.696886110232244E-012
 -1.299999999999999E-003   -4.724624778372704E-012
 -1.199999999999999E-003   -6.265842836219996E-012
 -1.099999999999999E-003   -7.035309703118247E-012
 -9.999999999999989E-004   -6.833673802653248E-012
 -8.999999999999990E-004   -5.586825202321235E-012
 -7.999999999999990E-004   -3.370409516629902E-012
 -6.999999999999989E-004   -4.141725444722524E-013
 -5.999999999999990E-004    2.916634789155719E-012
 -4.999999999999989E-004    6.162354198476028E-012
 -3.999999999999989E-004    8.828616621937167E-012
 -2.999999999999989E-004    1.045744727449821E-011
 -1.999999999999989E-004    1.070013496409201E-011
 -9.999999999999892E-005    9.380965005975763E-012
  1.084202172485504E-018    6.541173244944706E-012
  1.000000000000011E-004    2.454433309482028E-012
  2.000000000000011E-004   -2.391298306998593E-012
  3.000000000000011E-004   -7.346252141375423E-012
  4.000000000000011E-004   -1.168099369317537E-011
  5.000000000000011E-004   -1.468872260921459E-011
  6.000000000000011E-004   -1.579414509991047E-011
  7.000000000000011E-004   -1.465299179683631E-011
  8.000000000000011E-004   -1.122617031502489E-011
  9.000000000000012E-004   -5.814769591000838E-012
  1.000000000000001E-003    9.530968688769868E-013
  1.100000000000001E-003    8.186308289374705E-012
  1.200000000000001E-003    1.484066451175620E-011
  1.300000000000001E-003    1.986239944528716E-011
  1.400000000000001E-003    2.234661275752157E-011
  1.500000000000001E-003    2.168794450921644E-011
  1.600000000000001E-003    1.769988305704512E-011
  1.700000000000001E-003    1.068159776340192E-011
  1.800000000000001E-003    1.417347466917102E-012
  1.900000000000001E-003   -8.897751623555969E-012
  2.000000000000001E-003   -1.880097867132932E-011
  2.100000000000001E-003   -2.675892620769157E-011
  2.200000000000001E-003   -3.139298359630281E-011
  2.300000000000001E-003   -3.170177747244577E-011
  2.400000000000001E-003   -2.724649268174934E-011
  2.500000000000001E-003   -1.826762526295397E-011
  2.600000000000001E-003   -5.709360017069723E-012
  2.700000000000001E-003    8.860376717273140E-012
  2.800000000000001E-003    2.343123648803531E-011
  2.900000000000001E-003    3.581462160768835E-011
  3.000000000000001E-003    4.395789270886390E-011
  3.100000000000001E-003    4.626539523613764E-011
  3.200000000000001E-003    4.187826836152822E-011
  3.300000000000001E-003    3.086717764373357E-011
  3.400000000000001E-003    1.430134642996708E-011
  3.500000000000001E-003   -5.827034104163550E-012
  3.600000000000001E-003   -2.682393224587960E-011
  3.700000000000001E-003   -4.563879832724719E-011
  3.800000000000001E-003   -5.929244436495451E-011
  3.900000000000001E-003   -6.532965140228516E-011
  4.000000000000001E-003   -6.223031671001557E-011
  4.100000000000001E-003   -4.971363482575108E-011
  4.200000000000001E-003   -2.888077754524123E-011
  4.300000000000001E-003   -2.161455521937255E-012
  4.400000000000001E-003    2.694344249836922E-011
  4.500000000000001E-003    5.430060651991646E-011
  4.600000000000002E-003    7.571289815980410E-011
  4.700000000000001E-003    8.754241922023014E-011
  4.800000000000001E-003    8.729856644630120E-011
  4.900000000000002E-003    7.409984179960982E-011
  5.000000000000001E-003    4.893016746128315E-011
  5.100000000000001E-003    1.463522021091594E-011
  5.200000000000001E-003   -2.436066682623648E-011
  5.300000000000002E-003   -6.259589333650914E-011
  5.400000000000001E-003   -9.430955304393622E-011
  5.500000000000001E-003   -1.142800709771677E-010
  5.600000000000002E-003   -1.186462868172958E-010
  5.700000000000001E-003   -1.055863331399379E-010
  5.800000000000001E-003   -7.574208649628303E-011
  5.900000000000002E-003   -3.230644825981834E-011
  6.000000000000001E-003    1.926421785849729E-011
  6.100000000000001E-003    7.189691056999348E-011
  6.200000000000002E-003    1.178376438058114E-010
  6.300000000000002E-003    1.497565863223097E-010
  6.400000000000001E-003    1.618698049338549E-010
  6.500000000000001E-003    1.509109669320628E-010
  6.600000000000002E-003    1.167974621125410E-010
  6.700000000000001E-003    6.286948277882778E-011
  6.800000000000001E-003   -4.363354363213633E-012
  6.900000000000002E-003   -7.596427699331272E-011
  7.000000000000001E-003   -1.417242962572106E-010
  7.100000000000001E-003   -1.915854817966202E-010
  7.200000000000002E-003   -2.171393240199800E-010
  7.300000000000002E-003   -2.129820554421070E-010
  7.400000000000001E-003   -1.777154785887685E-010
  7.500000000000001E-003   -1.144207800444914E-010
  7.600000000000002E-003   -3.049928935655731E-011
  7.700000000000001E-003    6.313731958956639E-011
  7.800000000000001E-003    1.534506084491350E-010
  7.900000000000001E-003    2.270638960120422E-010
  8.000000000000002E-003    2.722166296694644E-010
  8.100000000000001E-003    2.806044395558912E-010
  8.200000000000001E-003    2.488244900705144E-010
  8.300000000000002E-003    1.791854909350262E-010
  8.400000000000001E-003    7.972194699208681E-011
  8.500000000000002E-003   -3.664005493162644E-011
  8.600000000000002E-003   -1.536954946661823E-010
  8.700000000000001E-003   -2.541605121274600E-010
  8.800000000000002E-003   -3.221701376969079E-010
  8.900000000000002E-003   -3.457211855694805E-010
  9.000000000000001E-003   -3.186938311569752E-010
  9.100000000000002E-003   -2.421254071341017E-010
  9.200000000000002E-003   -1.245009390819491E-010
  9.300000000000001E-003    1.904379040793412E-011
  9.400000000000002E-003    1.685558165300064E-010
  9.500000000000001E-003    3.019267607736072E-010
  9.600000000000001E-003    3.980393346126325E-010
  9.700000000000002E-003    4.399620288881153E-010
  9.800000000000001E-003    4.177216713216878E-010
  9.900000000000001E-003    3.302178530123861E-010
  1.000000000000000E-002    1.859440225806101E-010
  1.010000000000000E-002    2.336634563835719E-012
  1.020000000000000E-002   -1.962344331899311E-010
  1.030000000000000E-002   -3.816178164052530E-010
  1.040000000000000E-002   -5.257791734737931E-010
  1.050000000000000E-002   -6.049148858124306E-010
  1.060000000000000E-002   -6.031882866000996E-010
  1.070000000000000E-002   -5.155163191716291E-010
  1.080000000000000E-002   -3.489419141549781E-010
  1.090000000000000E-002   -1.223095141214110E-010
  1.100000000000000E-002    1.358052641137211E-010
  1.110000000000000E-002    3.907058968081680E-010
  1.120000000000000E-002    6.062807651609107E-010
  1.130000000000000E-002    7.501742088476789E-010
  1.140000000000000E-002    7.986889742140875E-010
  1.150000000000000E-002    7.406853778482726E-010
  1.160000000000000E-002    5.798491003836426E-010
  1.170000000000000E-002    3.349072506194971E-010
  1.180000000000000E-002    3.764950710946089E-011
  1.190000000000000E-002   -2.710717856823132E-010
  1.200000000000000E-002   -5.468824478145562E-010
  1.210000000000000E-002   -7.482356942961139E-010
  1.220000000000000E-002   -8.426787233310852E-010
  1.230000000000000E-002   -8.121098667203617E-010
  1.240000000000000E-002   -6.562006525150427E-010
  1.250000000000000E-002   -3.933806341881939E-010
  1.260000000000000E-002   -5.911182635068009E-011
  1.270000000000000E-002    2.984367584290898E-010
  1.280000000000000E-002    6.248174302585128E-010
  1.290000000000000E-002    8.670021680616376E-010
  1.300000000000000E-002    9.812893454210266E-010
  1.310000000000000E-002    9.402718026850486E-010
  1.320000000000000E-002    7.378003683848288E-010
  1.330000000000000E-002    3.911125697614928E-010
  1.340000000000000E-002   -6.032311181092331E-011
  1.350000000000000E-002   -5.592467662484995E-010
  1.360000000000000E-002   -1.037841736774019E-009
  1.370000000000000E-002   -1.426848277891338E-009
  1.380000000000000E-002   -1.665319449799315E-009
  1.390000000000000E-002   -1.709630419072015E-009
  1.400000000000000E-002   -1.540396341791356E-009
  1.410000000000000E-002   -1.166198783733740E-009
  1.420000000000000E-002   -6.234380967709035E-010
  1.430000000000000E-002    2.783603180691047E-011
  1.440000000000000E-002    7.116779136772974E-010
  1.450000000000000E-002    1.346599081824733E-009
  1.460000000000000E-002    1.857112103912866E-009
  1.470000000000000E-002    2.184816600490336E-009
  1.480000000000000E-002    2.297371595914889E-009
  1.490000000000000E-002    2.193935086061540E-009
  1.500000000000000E-002    1.906110498201059E-009
  1.510000000000000E-002    1.494056235566691E-009
  1.520000000000000E-002    1.038116517109354E-009
  1.530000000000000E-002    6.270058571527504E-010
  1.540000000000000E-002    3.441438703647371E-010
  1.550000000000000E-002    2.540798521693878E-010
  1.560000000000000E-002    3.910314174005427E-010
  1.570000000000000E-002    7.513477122834751E-010
  1.580000000000000E-002    1.291219733564697E-009
  1.590000000000000E-002    1.930259667336862E-009
  1.600000000000000E-002    2.560744615354673E-009
  1.610000000000000E-002    3.061490556998071E-009
  1.620000000000000E-002    3.314605486949702E-009
  1.630000000000000E-002    3.222883456518759E-009
  1.640000000000000E-002    2.725408414171744E-009
  1.650000000000000E-002    1.809108777766617E-009
  1.660000000000000E-002    5.144921110204667E-010
  1.670000000000000E-002   -1.065430134931480E-009
  1.680000000000000E-002   -2.793063458878190E-009
  1.690000000000000E-002   -4.500043774349903E-009
  1.700000000000000E-002   -6.005090806934332E-009
  1.710000000000000E-002   -7.133384916405555E-009
  1.720000000000000E-002   -7.734637563964530E-009
  1.730000000000000E-002   -7.697110076613428E-009
  1.740000000000000E-002   -6.955304673351320E-009
  1.750000000000000E-002   -5.489900139752647E-009
  1.760000000000000E-002   -3.319607651496386E-009
  1.770000000000000E-002   -4.857130827038661E-010
  1.780000000000000E-002    2.968706619033011E-009
  1.790000000000000E-002    7.022191982648350E-009
  1.800000000000000E-002    1.169761479316978E-008
  1.810000000000000E-002    1.708088931782371E-008
  1.820000000000000E-002    2.333290453135243E-008
  1.830000000000000E-002    3.069265570021488E-008
  1.840000000000000E-002    3.947074263046971E-008
  1.850000000000000E-002    5.003393613844056E-008
  1.860000000000000E-002    6.278264529197658E-008
  1.870000000000000E-002    7.812420455692351E-008