 -4.000000000000000E-002    0.000000000000000E+000
 -3.990000000000000E-002    0.000000000000000E+000
 -3.980000000000000E-002    0.000000000000000E+000
 -3.970000000000000E-002    0.000000000000000E+000
 -3.960000000000000E-002    0.000000000000000E+000
 -3.950000000000000E-002    0.000000000000000E+000
 -3.940000000000000E-002    0.000000000000000E+000
 -3.930000000000000E-002    0.000000000000000E+000
 -3.920000000000000E-002    0.000000000000000E+000
 -3.910000000000000E-002    0.000000000000000E+000
 -3.900000000000000E-002    0.000000000000000E+000
 -3.890000000000000E-002    0.000000000000000E+000
 -3.880000000000000E-002    0.000000000000000E+000
 -3.870000000000000E-002    0.000000000000000E+000
 -3.860000000000000E-002    0.000000000000000E+000
 -3.850000000000000E-002    0.000000000000000E+000
 -3.840000000000000E-002    0.000000000000000E+000
 -3.830000000000000E-002    0.000000000000000E+000
 -3.820000000000000E-002    0.000000000000000E+000
 -3.810000000000000E-002    0.000000000000000E+000
 -3.800000000000000E-002    0.000000000000000E+000
 -3.790000000000000E-002    0.000000000000000E+000
 -3.780000000000000E-002    0.000000000000000E+000
 -3.770000000000000E-002    0.000000000000000E+000
 -3.760000000000000E-002    0.000000000000000E+000
 -3.750000000000000E-002    0.000000000000000E+000
 -3.740000000000000E-002    0.000000000000000E+000
 -3.730000000000000E-002   -3.592195770363911E-047
 -3.720000000000000E-002   -3.463903064279486E-047
 -3.710000000000000E-002   -8.723904013740927E-047
 -3.700000000000000E-002   -1.282927060844254E-046
 -3.690000000000000E-002    1.357568733168709E-046
 -3.680000000000000E-002    1.456847751569007E-045
 -3.670000000000000E-002    6.637385144528879E-045
 -3.660000000000000E-002    2.648234166688761E-044
 -3.650000000000000E-002    8.824091673949378E-044
 -3.640000000000000E-002    2.641178497466619E-043
 -3.630000000000000E-002    7.285107396449083E-043
 -3.620000000000000E-002    1.851238778820701E-042
 -3.610000000000000E-002    4.318223595731614E-042
 -3.600000000000000E-002    9.152249630466796E-042
 -3.590000000000000E-002    1.723169753530518E-041
 -3.580000000000000E-002    2.722968862848509E-041
 -3.570000000000000E-002    2.964373527504969E-041
 -3.560000000000000E-002   -7.489018603537725E-042
 -3.550000000000000E-002   -1.682780621631472E-040
 -3.540000000000000E-002   -6.428540258970025E-040
 -3.530000000000000E-002   -1.810886010248017E-039
 -3.520000000000000E-002   -4.342566599276030E-039
 -3.510000000000000E-002   -9.256697917560931E-039
 -3.500000000000000E-002   -1.777271073840079E-038
 -3.490000000000000E-002   -3.060890360666947E-038
 -3.480000000000000E-002   -4.610058440674140E-038
 -3.470000000000000E-002   -5.618005131578902E-038
 -3.460000000000000E-002   -3.903782047483666E-038
 -3.450000000000000E-002    5.244133538128680E-038
 -3.440000000000000E-002    3.058850692243369E-037
 -3.430000000000000E-002    8.638708748620477E-037
 -3.420000000000000E-002    1.925603876426875E-036
 -3.410000000000000E-002    3.711282673440316E-036
 -3.400000000000000E-002    6.347142823158017E-036
 -3.390000000000000E-002    9.610129625041132E-036
 -3.380000000000000E-002    1.246017036451111E-035
 -3.370000000000000E-002    1.230428483449889E-035
 -3.360000000000000E-002    4.011777506944963E-036
 -3.350000000000000E-002   -2.112380682791465E-035
 -3.340000000000000E-002   -7.595607328404860E-035
 -3.330000000000000E-002   -1.765723199977179E-034
 -3.320000000000000E-002   -3.382354804124861E-034
 -3.310000000000000E-002   -5.658835579620155E-034
 -3.300000000000000E-002   -8.365982175345659E-034
 -3.290000000000000E-002   -1.072099805106350E-033
 -3.280000000000000E-002   -1.101780129684221E-033
 -3.270000000000000E-002   -6.220850772352520E-034
 -3.260000000000000E-002    8.328570503416119E-034
 -3.250000000000000E-002    3.881433766250770E-033
 -3.240000000000000E-002    9.201931367283284E-033
 -3.230000000000000E-002    1.729929615304787E-032
 -3.220000000000000E-002    2.806888001565855E-032
 -3.210000000000000E-002    4.011222092558050E-032
 -3.200000000000000E-002    4.981618379116362E-032
 -3.190000000000000E-002    5.031925421701418E-032
 -3.180000000000000E-002    3.066948893698919E-032
 -3.170000000000000E-002   -2.427611531294608E-032
 -3.160000000000000E-002   -1.323850607915284E-031
 -3.150000000000000E-002   -3.101632163792027E-031
 -3.140000000000000E-002   -5.649562330921040E-031
 -3.130000000000000E-002   -8.826883256700235E-031
 -3.120000000000000E-002   -1.211347152070051E-030
 -3.110000000000000E-002   -1.442213530561284E-030
 -3.100000000000000E-002   -1.393557686439389E-030
 -3.090000000000000E-002   -8.050199395300213E-031
 -3.080000000000000E-002    6.453922914709374E-031
 -3.070000000000000E-002    3.287040014154167E-030
 -3.060000000000000E-002    7.350439296267840E-030
 -3.050000000000000E-002    1.279957200653520E-029
 -3.040000000000000E-002    1.910594945194404E-029
 -3.030000000000000E-002    2.499014183067396E-029
 -3.020000000000000E-002    2.818889505259828E-029
 -3.010000000000000E-002    2.534567211503170E-029
 -3.000000000000000E-002    1.216179980853348E-029
 -2.990000000000000E-002   -1.602834536351800E-029
 -2.980000000000000E-002   -6.310105315652007E-029
 -2.970000000000000E-002   -1.303098343009710E-028
 -2.960000000000000E-002   -2.138176966415491E-028
 -2.950000000000000E-002   -3.018682646086231E-028
 -2.940000000000000E-002   -3.721857022369061E-028
 -2.930000000000000E-002   -3.905640884375594E-028
 -2.920000000000000E-002   -3.119513625030730E-028
 -2.910000000000000E-002   -8.553270163680009E-029
 -2.900000000000000E-002    3.347950550685183E-028
 -2.890000000000000E-002    9.737712773143994E-028
 -2.880000000000000E-002    1.812416949265789E-027
 -2.870000000000000E-002    2.762441739033726E-027
 -2.860000000000000E-002    3.642498946270702E-027
 -2.850000000000000E-002    4.164294629275699E-027
 -2.840000000000000E-002    3.939103576654044E-027
 -2.830000000000000E-002    2.516495666014733E-027
 -2.820000000000000E-002   -5.342363025331779E-028
 -2.810000000000000E-002   -5.494545146712640E-027
 -2.800000000000000E-002   -1.232341220776158E-026
 -2.790000000000000E-002   -2.045966039153765E-026
 -2.780000000000000E-002   -2.863776507173552E-026
 -2.770000000000000E-002   -3.477503672601225E-026
 -2.760000000000000E-002   -3.600443805469338E-026
 -2.750000000000000E-002   -2.893354638138436E-026
 -2.740000000000000E-002   -1.019865377696465E-026
 -2.730000000000000E-002    2.265387908029265E-026
 -2.720000000000000E-002    6.999354514259255E-026
 -2.710000000000000E-002    1.287700165448217E-025
 -2.700000000000000E-002    1.912646777648847E-025
 -2.690000000000000E-002    2.442979774148343E-025
 -2.680000000000000E-002    2.693535674165169E-025
 -2.670000000000000E-002    2.441061105407246E-025
 -2.660000000000000E-002    1.457553130219061E-025
 -2.650000000000000E-002   -4.366473280574059E-026
 -2.640000000000000E-002   -3.302305814246026E-025
 -2.630000000000000E-002   -7.001184130446760E-025
 -2.620000000000000E-002   -1.112082647592566E-024
 -2.610000000000000E-002   -1.492514562072335E-024
 -2.600000000000000E-002   -1.735634412289688E-024
 -2.590000000000000E-002   -1.711450701830854E-024
 -2.580000000000000E-002   -1.283592938620073E-024
 -2.570000000000000E-002   -3.378215528565412E-025
 -2.560000000000000E-002    1.180122925225314E-024
 -2.550000000000000E-002    3.221562785859158E-024
 -2.540000000000000E-002    5.594345430870763E-024
 -2.530000000000000E-002    7.935360395750990E-024
 -2.520000000000000E-002    9.708836256011245E-024
 -2.510000000000000E-002    1.024324058791584E-023
 -2.500000000000000E-002    8.816707671448155E-024
 -2.490000000000000E-002    4.794412051732938E-024
 -2.480000000000000E-002   -2.189108160408823E-024
 -2.470000000000000E-002   -1.202315005654759E-023
 -2.460000000000000E-002   -2.392506727929931E-023
 -2.450000000000000E-002   -3.630447293776673E-023
 -2.440000000000000E-002   -4.674493654732788E-023
 -2.430000000000000E-002   -5.215962709339291E-023
 -2.420000000000000E-002   -4.916318808807682E-023
 -2.410000000000000E-002   -3.467220275915380E-023
 -2.400000000000000E-002   -6.700837512290108E-024
 -2.390000000000000E-002    3.473959744469623E-023
 -2.380000000000000E-002    8.679013253711941E-023
 -2.370000000000000E-002    1.431497871605970E-022
 -2.360000000000000E-002    1.939742996337658E-022
 -2.350000000000000E-002    2.264949925304223E-022
 -2.340000000000000E-002    2.265207071639566E-022
 -2.330000000000000E-002    1.808583812830834E-022
 -2.320000000000000E-002    8.050239974414586E-023
 -2.310000000000000E-002   -7.578557415032375E-023
 -2.300000000000000E-002   -2.781203006327047E-022
 -2.290000000000000E-002   -5.031697057073451E-022
 -2.280000000000000E-002   -7.137700271628453E-022
 -2.270000000000000E-002   -8.613208412494911E-022
 -2.260000000000000E-002   -8.915299176005252E-022
 -2.250000000000000E-002   -7.535774550174020E-022
 -2.240000000000000E-002   -4.120646489167743E-022
 -2.230000000000000E-002    1.397293490032995E-022
 -2.220000000000000E-002    8.675947586821903E-022
 -2.210000000000000E-002    1.688112729964294E-021
 -2.200000000000000E-002    2.467590614226438E-021
 -2.190000000000000E-002    3.031121362996233E-021
 -2.180000000000000E-002    3.183617236997966E-021
 -2.170000000000000E-002    2.742815586625227E-021
 -2.160000000000000E-002    1.581730620861554E-021
 -2.150000000000000E-002   -3.248687346206532E-022
 -2.140000000000000E-002   -2.858186889111313E-021
 -2.130000000000000E-002   -5.727641932180808E-021
 -2.120000000000000E-002   -8.468568996752466E-021
 -2.110000000000000E-002   -1.047495131446810E-020
 -2.100000000000000E-002   -1.107282194470961E-020
 -2.090000000000000E-002   -9.633580476051266E-021
 -2.080000000000000E-002   -5.717943153529156E-021
 -2.070000000000000E-002    7.682174992393185E-022
 -2.060000000000000E-002    9.433848794870551E-021
 -2.050000000000000E-002    1.931237181505808E-020
 -2.040000000000000E-002    2.885631604353932E-020
 -2.030000000000000E-002    3.604686254236959E-020
 -2.020000000000000E-002    3.863502951439865E-020
 -2.010000000000000E-002    3.451016551326821E-020
 -2.000000000000000E-002    2.216442736631019E-020
 -1.990000000000000E-002    1.192442975131370E-021
 -1.980000000000000E-002   -2.726167677687412E-020
 -1.970000000000000E-002   -6.021555241754961E-020
 -1.960000000000000E-002   -9.282620579505158E-020
 -1.950000000000000E-002   -1.187239765242056E-019
 -1.940000000000000E-002   -1.307509768381588E-019
 -1.930000000000000E-002   -1.220873532770919E-019
 -1.920000000000000E-002   -8.766783957167535E-020
 -1.910000000000000E-002   -2.570391388365381E-020
 -1.900000000000000E-002    6.095076692364559E-020
 -1.890000000000000E-002    1.639028729027826E-019
 -1.880000000000000E-002    2.691051636936819E-019
 -1.870000000000000E-002    3.577837546037907E-019
 -1.860000000000000E-002    4.085406952087179E-019
 -1.850000000000000E-002    4.005802856510363E-019
 -1.840000000000000E-002    3.177756919823978E-019
 -1.830000000000000E-002    1.530492880661262E-019
 -1.820000000000000E-002   -8.767146983766015E-020
 -1.810000000000000E-002   -3.827923828903514E-019
 -1.800000000000000E-002   -6.945558971347648E-019
 -1.790000000000000E-002   -9.714162616080345E-019
 -1.780000000000000E-002   -1.153648204091774E-018
 -1.770000000000000E-002   -1.182039625957137E-018
 -1.760000000000000E-002   -1.008900042928409E-018
 -1.750000000000000E-002   -6.099641675350124E-019
 -1.740000000000000E-002    4.777190808809015E-021
 -1.730000000000000E-002    7.836245987112705E-019
 -1.720000000000000E-002    1.631385699530464E-018
 -1.710000000000000E-002    2.415101374491756E-018
 -1.700000000000000E-002    2.978215948364683E-018
 -1.690000000000000E-002    3.162797219428105E-018
 -1.680000000000000E-002    2.837817370079290E-018
 -1.670000000000000E-002    1.929868208405997E-018
 -1.660000000000000E-002    4.512907617104970E-019
 -1.650000000000000E-002   -1.480095549809786E-018
 -1.640000000000000E-002   -3.635422773236755E-018
 -1.630000000000000E-002   -5.687960208057810E-018
 -1.620000000000000E-002   -7.247370797546989E-018
 -1.610000000000000E-002   -7.914059706936480E-018
 -1.600000000000000E-002   -7.348709005677357E-018
 -1.590000000000000E-002   -5.348120647007205E-018
 -1.580000000000000E-002   -1.915146390531066E-018
 -1.570000000000000E-002    2.691415562232063E-018
 -1.560000000000000E-002    7.940832297144502E-018
 -1.550000000000000E-002    1.305944373803949E-017
 -1.540000000000000E-002    1.711022319208533E-017
 -1.530000000000000E-002    1.912063801003051E-017
 -1.520000000000000E-002    1.824727127806504E-017
 -1.510000000000000E-002    1.395636498267692E-017
 -1.500000000000000E-002    6.191659796744254E-018
 -1.490000000000000E-002   -4.503422751517656E-018
 -1.480000000000000E-002   -1.694167668715615E-017
 -1.470000000000000E-002   -2.935193262247755E-017
 -1.460000000000000E-002   -3.955599955080067E-017
 -1.450000000000000E-002   -4.525808503153565E-017
 -1.440000000000000E-002   -4.442086840864807E-017
 -1.430000000000000E-002   -3.568130650272429E-017
 -1.420000000000000E-002   -1.874180420086292E-017
 -1.410000000000000E-002    5.337735256025946E-018
 -1.400000000000000E-002    3.402015122192912E-017
 -1.390000000000000E-002    6.340251647311587E-017
 -1.380000000000000E-002    8.859001816529059E-017
 -1.370000000000000E-002    1.043239779183022E-016
 -1.360000000000000E-002    1.058096379691774E-016
 -1.350000000000000E-002    8.964269253369644E-017
 -1.340000000000000E-002    5.469493102459638E-017
 -1.330000000000000E-002    2.797102511353799E-018
 -1.320000000000000E-002   -6.094183305039097E-017
 -1.310000000000000E-002   -1.283101955792143E-016
 -1.300000000000000E-002   -1.887367024246879E-016
 -1.290000000000000E-002   -2.305911932898475E-016
 -1.280000000000000E-002   -2.429347937487565E-016
 -1.270000000000000E-002   -2.175122918071582E-016
 -1.260000000000000E-002   -1.506961507871207E-016
 -1.250000000000000E-002   -4.504166452770293E-017
 -1.240000000000000E-002    8.988889406334166E-017
 -1.230000000000000E-002    2.377182945514522E-016
 -1.220000000000000E-002    3.766308705871017E-016
 -1.210000000000000E-002    4.819341265173276E-016
 -1.200000000000000E-002    5.296051116857602E-016
 -1.190000000000000E-002    5.004163642968596E-016
 -1.180000000000000E-002    3.840607869492568E-016
 -1.170000000000000E-002    1.825837543376586E-016
 -1.160000000000000E-002   -8.758270919573437E-017
 -1.150000000000000E-002   -3.955882038401516E-016
 -1.140000000000000E-002   -6.985161141183611E-016
 -1.130000000000000E-002   -9.461746515927103E-016
 -1.120000000000000E-002   -1.087982867382502E-015
 -1.110000000000000E-002   -1.081198432411963E-015
 -1.100000000000000E-002   -8.993706651084090E-016
 -1.090000000000000E-002   -5.396625581836079E-016
 -1.080000000000000E-002   -2.762937570199394E-017
 -1.070000000000000E-002    5.817943679778493E-016
 -1.060000000000000E-002    1.207942364052283E-015
 -1.050000000000000E-002    1.752927983822873E-015
 -1.040000000000000E-002    2.114486252831816E-015
 -1.030000000000000E-002    2.201811544048342E-015
 -1.020000000000000E-002    1.952325992153967E-015
 -1.010000000000000E-002    1.346799313170456E-015
 -1.000000000000000E-002    4.200689794332845E-016
 -9.899999999999999E-003   -7.351541995648305E-016
 -9.800000000000000E-003   -1.973208470455441E-015
 -9.699999999999999E-003   -3.109835668874292E-015
 -9.599999999999999E-003   -3.945255947884339E-015
 -9.500000000000000E-003   -4.293709600605676E-015
 -9.399999999999999E-003   -4.015781426246290E-015
 -9.299999999999999E-003   -3.048754292827435E-015
 -9.200000000000000E-003   -1.429744173594498E-015
 -9.099999999999999E-003    6.933239788243188E-016
 -8.999999999999999E-003    3.066718587263127E-015
 -8.900000000000000E-003    5.353746537630823E-015
 -8.799999999999999E-003    7.174744839127885E-015
 -8.699999999999999E-003    8.160642887639493E-015
 -8.600000000000000E-003    8.013742220529184E-015
 -8.499999999999999E-003    6.567175339631443E-015
 -8.399999999999999E-003    3.833275573951385E-015
 -8.300000000000000E-003    3.131988606218415E-017
 -8.199999999999999E-003   -4.413194570226699E-015
 -8.100000000000000E-003   -8.902267291088154E-015
 -8.000000000000000E-003   -1.273210498573062E-014
 -7.899999999999999E-003   -1.518756929800529E-014
 -7.800000000000000E-003   -1.565378785915852E-014
 -7.699999999999999E-003   -1.372998182024504E-014
 -7.599999999999999E-003   -9.327733840452187E-015
 -7.499999999999999E-003   -2.735587162578498E-015
 -7.399999999999999E-003    5.365678503512560E-015
 -7.299999999999999E-003    1.394743237030444E-014
 -7.199999999999999E-003    2.173971280085765E-014
 -7.100000000000000E-003    2.739291710611654E-014
 -6.999999999999999E-003    2.967783115145958E-014
 -6.899999999999999E-003    2.769839429705498E-014
 -6.800000000000000E-003    2.108557526475443E-014
 -6.699999999999999E-003    1.013872624238352E-014
 -6.599999999999999E-003   -4.116194656689940E-015
 -6.499999999999999E-003   -1.997375752067359E-014
 -6.399999999999999E-003   -3.521061591732825E-014
 -6.299999999999999E-003   -4.735382147942342E-014
 -6.199999999999999E-003   -5.403014512863698E-014
 -6.100000000000000E-003   -5.335392383183080E-014
 -5.999999999999999E-003   -4.429812731085125E-014
 -5.899999999999999E-003   -2.698762124938365E-014
 -5.800000000000000E-003   -2.856309556976208E-015
 -5.699999999999999E-003    2.537746256019415E-014
 -5.599999999999999E-003    5.394122200963269E-014
 -5.499999999999999E-003    7.843946633970898E-014
 -5.399999999999999E-003    9.444814555272754E-014
 -5.299999999999999E-003    9.820360687417623E-014
 -5.199999999999999E-003    8.729160096689976E-014
 -5.099999999999999E-003    6.122776634859979E-014
 -4.999999999999999E-003    2.182168010766285E-014
 -4.899999999999999E-003   -2.676535675094633E-014
 -4.799999999999999E-003   -7.832368863376641E-014
 -4.699999999999999E-003   -1.252657625997232E-013
 -4.599999999999999E-003   -1.596123680473325E-013
 -4.499999999999999E-003   -1.741857267427100E-013
 -4.399999999999999E-003   -1.638515634339334E-013
 -4.299999999999999E-003   -1.266214075241501E-013
 -4.199999999999999E-003   -6.442042088322171E-014
 -4.099999999999999E-003    1.664916619231508E-014
 -3.999999999999999E-003    1.066639115546627E-013
 -3.899999999999999E-003    1.928878425078473E-013
 -3.799999999999999E-003    2.613685242139908E-013
 -3.699999999999999E-003    2.989528157252377E-013
 -3.599999999999999E-003    2.954633994953471E-013
 -3.499999999999999E-003    2.457148757390120E-013
 -3.399999999999999E-003    1.510281043244214E-013
 -3.299999999999999E-003    1.993162322191728E-014
 -3.199999999999999E-003   -1.321747337463232E-013
 -3.099999999999999E-003   -2.844865203955086E-013
 -2.999999999999999E-003   -4.133168107410770E-013
 -2.899999999999999E-003   -4.954215883249306E-013
 -2.799999999999999E-003   -5.117125502234766E-013
 -2.699999999999999E-003   -4.508222860130088E-013
 -2.599999999999999E-003   -3.119370099236613E-013
 -2.499999999999999E-003   -1.063476305852711E-013
 -2.399999999999999E-003    1.427007010355371E-013
 -2.299999999999999E-003    4.020672292735009E-013
 -2.199999999999999E-003    6.326130041509816E-013
 -2.099999999999999E-003    7.945656599615995E-013
 -1.999999999999999E-003    8.536960703735864E-013
 -1.899999999999999E-003    7.874358986331407E-013
 -1.799999999999999E-003    5.899569235017317E-013
 -1.699999999999999E-003    2.752703389809972E-013
 -1.599999999999999E-003   -1.224058578789092E-013
 -1.499999999999999E-003   -5.514252667378930E-013
 -1.399999999999999E-003   -9.486058144006392E-013
 -1.299999999999999E-003   -1.247702798673768E-012
 -1.199999999999999E-003   -1.389451984713680E-012
 -1.099999999999999E-003   -1.331788954498832E-012
 -9.999999999999989E-004   -1.058647969623308E-012
 -8.999999999999990E-004   -5.857640668952000E-013
 -7.999999999999990E-004    3.781736713623654E-014
 -6.999999999999989E-004    7.333020974576076E-013
 -5.999999999999990E-004    1.400846741554195E-012
 -4.999999999999989E-004    1.932655385946963E-012
 -3.999999999999989E-004    2.228943760910653E-012
 -2.999999999999989E-004    2.214590882842555E-012
 -1.999999999999989E-004    1.853932895138513E-012
 -9.999999999999892E-005    1.161129583498404E-012
  1.084202172485504E-018    2.039333000054562E-013
  1.000000000000011E-004   -9.005263396688500E-013
  2.000000000000011E-004   -1.998226210591863E-012
  3.000000000000011E-004   -2.918007572757311E-012
  4.000000000000011E-004   -3.496346142993071E-012
  5.000000000000011E-004   -3.603810537728245E-012
  6.000000000000011E-004   -3.169231393096732E-012
  7.000000000000011E-004   -2.197508375506776E-012
  8.000000000000011E-004   -7.775205685332760E-013
  9.000000000000012E-004    9.222316904304387E-013
  1.000000000000001E-003    2.670954364163827E-012
  1.100000000000001E-003    4.204583576774148E-012
  1.200000000000001E-003    5.263244937443165E-012
  1.300000000000001E-003    5.632191410013707E-012
  1.400000000000001E-003    5.180163324604472E-012
  1.500000000000001E-003    3.888867446433609E-012
  1.600000000000001E-003    1.867973157440704E-012
  1.700000000000001E-003   -6.482849227550338E-013
  1.800000000000001E-003   -3.324335274443745E-012
  1.900000000000001E-003   -5.764792967868745E-012
  2.000000000000001E-003   -7.569696171571943E-012
  2.100000000000001E-003   -8.396228092155431E-012
  2.200000000000001E-003   -8.017930703052760E-012
  2.300000000000001E-003   -6.371860190776337E-012
  2.400000000000001E-003   -3.585056772238924E-012
  2.500000000000001E-003    2.593594442034029E-014
  2.600000000000001E-003    3.985165857743575E-012
  2.700000000000001E-003    7.715270567633333E-012
  2.800000000000001E-003    1.061710106875589E-011
  2.900000000000001E-003    1.216068049028094E-011
  3.000000000000001E-003    1.197439857977070E-011
  3.100000000000001E-003    9.918321401329938E-012
  3.200000000000001E-003    6.128606678473130E-012
  3.300000000000001E-003    1.023266375452322E-012
  3.400000000000001E-003   -4.735377146493605E-012
  3.500000000000001E-003   -1.031986745439067E-011
  3.600000000000001E-003   -1.485006188268012E-011
  3.700000000000001E-003   -1.752451154796480E-011
  3.800000000000001E-003   -1.775209999254895E-011
  3.900000000000001E-003   -1.526346438798704E-011
  4.000000000000001E-003   -1.018299010087470E-011
  4.100000000000001E-003   -3.046490570794066E-012
  4.200000000000001E-003    5.243205581351522E-012
  4.300000000000001E-003    1.352157134009432E-011
  4.400000000000001E-003    2.051784927586225E-011
  4.500000000000001E-003    2.504113811435335E-011
  4.600000000000002E-003    2.617099970175947E-011
  4.700000000000001E-003    2.342351847761626E-011
  4.800000000000001E-003    1.686491296986291E-011
  4.900000000000002E-003    7.150478620507518E-012
  5.000000000000001E-003   -4.523733397456408E-012
  5.100000000000001E-003   -1.655669270834394E-011
  5.200000000000001E-003   -2.715228282867020E-011
  5.300000000000002E-003   -3.457735409214346E-011
  5.400000000000001E-003   -3.743233546860931E-011
  5.500000000000001E-003   -3.489378916208446E-011
  5.600000000000002E-003   -2.688923270922779E-011
  5.700000000000001E-003   -1.417160336560825E-011
  5.800000000000001E-003    1.726435467960913E-012
  5.900000000000002E-003    1.866138504827939E-011
  6.000000000000001E-003    3.415523844408993E-011
  6.100000000000001E-003    4.574570795138875E-011
  6.200000000000002E-003    5.136270629832024E-011
  6.300000000000002E-003    4.967553910910495E-011
  6.400000000000001E-003    4.035530387419907E-011
  6.500000000000001E-003    2.420551161924519E-011
  6.600000000000002E-003    3.130430794875708E-012
  6.700000000000001E-003   -2.006685616943296E-011
  6.800000000000001E-003   -4.203933414090999E-011
  6.900000000000002E-003   -5.936169312969758E-011
  7.000000000000001E-003   -6.904437370436982E-011
  7.100000000000001E-003   -6.902134993740836E-011
  7.200000000000002E-003   -5.853540021638929E-011
  7.300000000000002E-003   -3.835426728598092E-011
  7.400000000000001E-003   -1.077190357344383E-011
  7.500000000000001E-003    2.062170563206182E-011
  7.600000000000002E-003    5.138468154618450E-011
  7.700000000000001E-003    7.682999414801778E-011
  7.800000000000001E-003    9.271488077079097E-011
  7.900000000000001E-003    9.591462348386147E-011
  8.000000000000002E-003    8.497729831473888E-011
  8.100000000000001E-003    6.046686709784692E-011
  8.200000000000001E-003    2.502713248443748E-011
  8.300000000000002E-003   -1.686337281785024E-011
  8.400000000000001E-003   -5.943085111586826E-011
  8.500000000000002E-003   -9.637969903198628E-011
  8.600000000000002E-003   -1.217999122851391E-010
  8.700000000000001E-003   -1.310809960740600E-010
  8.800000000000002E-003   -1.216950538127130E-010
  8.900000000000002E-003   -9.372178396450515E-011
  9.000000000000001E-003   -5.001832490276573E-011
  9.100000000000002E-003    4.016337316433356E-012
  9.200000000000002E-003    6.107481754906563E-011
  9.300000000000001E-003    1.129046289271843E-010
  9.400000000000002E-003    1.514789359476377E-010
  9.500000000000001E-003    1.702126122403682E-010
  9.600000000000001E-003    1.650439929162273E-010
  9.700000000000002E-003    1.352103804099950E-010
  9.800000000000001E-003    8.358045538911581E-011
  9.900000000000001E-003    1.646396467509257E-011
  1.000000000000000E-002   -5.710746538167643E-011
  1.010000000000000E-002   -1.265552363262791E-010
  1.020000000000000E-002   -1.812380317641223E-010
  1.030000000000000E-002   -2.120427415612200E-010
  1.040000000000000E-002   -2.128501813850916E-010
  1.050000000000000E-002   -1.816472420371480E-010
  1.060000000000000E-002   -1.210955591187445E-010
  1.070000000000000E-002   -3.843582917236025E-011
  1.080000000000000E-002    5.530080588528059E-011
  1.090000000000000E-002    1.467009695259267E-010
  1.100000000000000E-002    2.218257242896522E-010
  1.110000000000000E-002    2.682661983349172E-010
  1.120000000000000E-002    2.771030174264731E-010
  1.130000000000000E-002    2.444696617736878E-010
  1.140000000000000E-002    1.724607818098533E-010
  1.150000000000000E-002    6.920716456682589E-011
  1.160000000000000E-002   -5.194627523276853E-011
  1.170000000000000E-002   -1.740938959690794E-010
  1.180000000000000E-002   -2.790596279650996E-010
  1.190000000000000E-002   -3.500223609807218E-010
  1.200000000000000E-002   -3.741057188145279E-010
  1.210000000000000E-002   -3.445441102991700E-010
  1.220000000000000E-002   -2.620760473634620E-010
  1.230000000000000E-002   -1.353096126019854E-010
  1.240000000000000E-002    2.005746203148189E-011
  1.250000000000000E-002    1.831171493100086E-010
  1.260000000000000E-002    3.305172068058543E-010
  1.270000000000000E-002    4.397572072066199E-010
  1.280000000000000E-002    4.925565024979985E-010
  1.290000000000000E-002    4.777998022507329E-010
  1.300000000000000E-002    3.935980501058883E-010
  1.310000000000000E-002    2.481077896326759E-010
  1.320000000000000E-002    5.891540456369768E-011
  1.330000000000000E-002   -1.490054119139972E-010
  1.340000000000000E-002   -3.465425362175165E-010
  1.350000000000000E-002   -5.044886898573120E-010
  1.360000000000000E-002   -5.978252819613225E-010
  1.370000000000000E-002   -6.096278805156255E-010
  1.380000000000000E-002   -5.339933158421011E-010
  1.390000000000000E-002   -3.775030535713638E-010
  1.400000000000000E-002   -1.589253700970163E-010
  1.410000000000000E-002    9.289521791583505E-011
  1.420000000000000E-002    3.427472394493068E-010
  1.430000000000000E-002    5.538977444942251E-010
  1.440000000000000E-002    6.934179865217251E-010
  1.450000000000000E-002    7.372283767684212E-010
  1.460000000000000E-002    6.741006030188498E-010
  1.470000000000000E-002    5.079716013785544E-010
  1.480000000000000E-002    2.581384860397739E-010
  1.490000000000000E-002   -4.280317735226537E-011
  1.500000000000000E-002   -3.530900906400485E-010
  1.510000000000000E-002   -6.274853109029062E-010
  1.520000000000000E-002   -8.237730700155085E-010
  1.530000000000000E-002   -9.091343272383436E-010
  1.540000000000000E-002   -8.654532233470511E-010
  1.550000000000000E-002   -6.927154955782541E-010
  1.560000000000000E-002   -4.099006002780425E-010
  1.570000000000000E-002   -5.310989123109276E-011
  1.580000000000000E-002    3.289289502266830E-010
  1.590000000000000E-002    6.814457152528600E-010
  1.600000000000000E-002    9.514274834624714E-010
  1.610000000000000E-002    1.095539473376987E-009
  1.620000000000000E-002    1.086999264235301E-009
  1.630000000000000E-002    9.203347771737861E-010
  1.640000000000000E-002    6.132170418671648E-010
  1.650000000000000E-002    2.049533226161969E-010
  1.660000000000000E-002   -2.482998851470907E-010
  1.670000000000000E-002   -6.810557880095380E-010
  1.680000000000000E-002   -1.027767532894976E-009
  1.690000000000000E-002   -1.232563902638641E-009
  1.700000000000000E-002   -1.258031879436822E-009
  1.710000000000000E-002   -1.091700612625052E-009
  1.720000000000000E-002   -7.491557392732533E-010
  1.730000000000000E-002   -2.731587114924372E-010
  1.740000000000000E-002    2.712929354531750E-010
  1.750000000000000E-002    8.054347115388823E-010
  1.760000000000000E-002    1.247657878814095E-009
  1.770000000000000E-002    1.525396953800731E-009
  1.780000000000000E-002    1.586281370819539E-009
  1.790000000000000E-002    1.406881847121572E-009
  1.800000000000000E-002    9.976530783468223E-010
  1.810000000000000E-002    4.031710304044865E-010
  1.820000000000000E-002   -3.025880922343707E-010
  1.830000000000000E-002   -1.025467708427055E-009
  1.840000000000000E-002   -1.663708614687992E-009
  1.850000000000000E-002   -2.122203213855449E-009
  1.860000000000000E-002   -2.326427067117062E-009
  1.870000000000000E-002   -2.234005282594490E-009