 -4.000000000000000E-002    0.000000000000000E+000
 -3.990000000000000E-002    0.000000000000000E+000
 -3.980000000000000E-002    0.000000000000000E+000
 -3.970000000000000E-002    0.000000000000000E+000
 -3.960000000000000E-002    0.000000000000000E+000
 -3.950000000000000E-002    0.000000000000000E+000
 -3.940000000000000E-002    0.000000000000000E+000
 -3.930000000000000E-002   -3.020332016438168E-024
 -3.920000000000000E-002   -3.666189867438313E-023
 -3.910000000000000E-002   -2.258243980841275E-022
 -3.900000000000000E-002   -9.202226770457091E-022
 -3.890000000000000E-002   -2.677319630067816E-021
 -3.880000000000000E-002   -5.345218565390508E-021
 -3.870000000000000E-002   -4.497135267564877E-021
 -3.860000000000000E-002    1.766795927200688E-020
 -3.850000000000000E-002    1.101343098001481E-019
 -3.840000000000000E-002    3.803903987688621E-019
 -3.830000000000000E-002    1.024771142992143E-018
 -3.820000000000000E-002    2.341588704858895E-018
 -3.810000000000000E-002    4.687757145721875E-018
 -3.800000000000000E-002    8.321205356679166E-018
 -3.790000000000000E-002    1.306577628367879E-017
 -3.780000000000000E-002    1.775997931274505E-017
 -3.770000000000000E-002    1.952403207424731E-017
 -3.760000000000000E-002    1.301120694655394E-017
 -3.750000000000000E-002   -1.000986514006251E-017
 -3.740000000000000E-002   -6.020612547798064E-017
 -3.730000000000000E-002   -1.487074804981904E-016
 -3.720000000000000E-002   -2.830077852813412E-016
 -3.710000000000000E-002   -4.604787056987689E-016
 -3.700000000000000E-002   -6.599445994523337E-016
 -3.690000000000000E-002   -8.328327519770800E-016
 -3.680000000000000E-002   -8.966873328056407E-016
 -3.670000000000000E-002   -7.349981984793074E-016
 -3.660000000000000E-002   -2.078681531775769E-016
 -3.650000000000000E-002    8.225293623635296E-016
 -3.640000000000000E-002    2.449957224513693E-015
 -3.630000000000000E-002    4.667911921300366E-015
 -3.620000000000000E-002    7.307212485255119E-015
 -3.610000000000000E-002    9.981776722218669E-015
 -3.600000000000000E-002    1.206251975598695E-014
 -3.590000000000000E-002    1.270191004186984E-014
 -3.580000000000000E-002    1.092917027381254E-014
 -3.570000000000000E-002    5.826667153356796E-015
 -3.560000000000000E-002   -3.218832201628147E-015
 -3.550000000000000E-002   -1.621932801957974E-014
 -3.540000000000000E-002   -3.229789208788076E-014
 -3.530000000000000E-002   -4.948689525125064E-014
 -3.520000000000000E-002   -6.470028905745344E-014
 -3.510000000000000E-002   -7.396131591783110E-014
 -3.500000000000000E-002   -7.293665082597806E-014
 -3.490000000000000E-002   -5.777257326512315E-014
 -3.480000000000000E-002   -2.615289965860586E-014
 -3.470000000000000E-002    2.158635481663274E-014
 -3.460000000000000E-002    8.152637391231331E-014
 -3.450000000000000E-002    1.457045366891315E-013
 -3.440000000000000E-002    2.024004109976667E-013
 -3.430000000000000E-002    2.373689617503950E-013
 -3.420000000000000E-002    2.360703947686489E-013
 -3.410000000000000E-002    1.867333325882510E-013
 -3.400000000000000E-002    8.384379221699189E-014
 -3.390000000000000E-002   -6.857599735274103E-014
 -3.380000000000000E-002   -2.546897254687455E-013
 -3.370000000000000E-002   -4.463838038417282E-013
 -3.360000000000000E-002   -6.052802379869999E-013
 -3.350000000000000E-002   -6.875416542921724E-013
 -3.340000000000000E-002   -6.512707068673873E-013
 -3.330000000000000E-002   -4.656909542465771E-013
 -3.320000000000000E-002   -1.206877265069541E-013
 -3.310000000000000E-002    3.651770792202151E-013
 -3.300000000000000E-002    9.402468405427362E-013
 -3.290000000000000E-002    1.520808513027181E-012
 -3.280000000000000E-002    1.998793117208407E-012
 -3.270000000000000E-002    2.256272656239230E-012
 -3.260000000000000E-002    2.185533016849179E-012
 -3.250000000000000E-002    1.712074150181148E-012
 -3.240000000000000E-002    8.166845940076389E-013
 -3.230000000000000E-002   -4.479599834207099E-013
 -3.220000000000000E-002   -1.950648290230271E-012
 -3.210000000000000E-002   -3.488412143644242E-012
 -3.200000000000000E-002   -4.808312209650678E-012
 -3.190000000000000E-002   -5.643198865273481E-012
 -3.180000000000000E-002   -5.757495736174036E-012
 -3.170000000000000E-002   -4.996328220868204E-012
 -3.160000000000000E-002   -3.329388008142514E-012
 -3.150000000000000E-002   -8.802944023406996E-013
 -3.140000000000000E-002    2.066739974321527E-012
 -3.130000000000000E-002    5.088330834963208E-012
 -3.120000000000000E-002    7.672523051442847E-012
 -3.110000000000000E-002    9.294427353261438E-012
 -3.100000000000000E-002    9.507443878364660E-012
 -3.090000000000000E-002    8.036248491890998E-012
 -3.080000000000000E-002    4.855222584455614E-012
 -3.070000000000000E-002    2.361384759177627E-013
 -3.060000000000000E-002   -5.248005689291232E-012
 -3.050000000000000E-002   -1.077022719264763E-011
 -3.040000000000000E-002   -1.534719127617876E-011
 -3.030000000000000E-002   -1.797774198242093E-011
 -3.020000000000000E-002   -1.780467049347702E-011
 -3.010000000000000E-002   -1.427599769805882E-011
 -3.000000000000000E-002   -7.279438583955784E-012
 -2.990000000000000E-002    2.774742449991815E-012
 -2.980000000000000E-002    1.494139949916118E-011
 -2.970000000000000E-002    2.780814365384076E-011
 -2.960000000000000E-002    3.964062141830325E-011
 -2.950000000000000E-002    4.859088909229715E-011
 -2.940000000000000E-002    5.294359982316843E-011
 -2.930000000000000E-002    5.136737409534929E-011
 -2.920000000000000E-002    4.313594128639336E-011
 -2.910000000000000E-002    2.828607413316608E-011
 -2.900000000000000E-002    7.686605873368636E-012
 -2.890000000000000E-002   -1.699609228221840E-011
 -2.880000000000000E-002   -4.343755995262636E-011
 -2.870000000000000E-002   -6.888756178204810E-011
 -2.860000000000000E-002   -9.047120008749595E-011
 -2.850000000000000E-002   -1.055259878688784E-010
 -2.840000000000000E-002   -1.119367840106358E-010
 -2.830000000000000E-002   -1.084295548172876E-010
 -2.820000000000000E-002   -9.478769027975335E-011
 -2.810000000000000E-002   -7.196051296848926E-011
 -2.800000000000000E-002   -4.204219618575939E-011
 -2.790000000000000E-002   -8.110111380882988E-012
 -2.780000000000000E-002    2.607585641175863E-011
 -2.770000000000000E-002    5.649690111447550E-011
 -2.760000000000000E-002    7.938998333124501E-011
 -2.750000000000000E-002    9.180491139047187E-011
 -2.740000000000000E-002    9.213939268645602E-011
 -2.730000000000000E-002    8.057529577526323E-011
 -2.720000000000000E-002    5.933372288079156E-011
 -2.710000000000000E-002    3.267147103124720E-011
 -2.700000000000000E-002    6.560321507227125E-012
 -2.690000000000000E-002   -1.197536932998763E-011
 -2.680000000000000E-002   -1.583859532283398E-011
 -2.670000000000000E-002    9.258950375175189E-013
 -2.660000000000000E-002    4.182623594363581E-011
 -2.650000000000000E-002    1.067232771704115E-010
 -2.640000000000000E-002    1.909622960143283E-010
 -2.630000000000000E-002    2.850615033082243E-010
 -2.620000000000000E-002    3.751391658415817E-010
 -2.610000000000000E-002    4.441746108849723E-010
 -2.600000000000000E-002    4.740744015191995E-010
 -2.590000000000000E-002    4.483677746861048E-010
 -2.580000000000000E-002    3.552078381605564E-010
 -2.570000000000000E-002    1.902338631671522E-010
 -2.560000000000000E-002   -4.121522025543840E-011
 -2.550000000000000E-002   -3.230340018754381E-010
 -2.540000000000000E-002   -6.288231455820627E-010
 -2.530000000000000E-002   -9.241002940263571E-010
 -2.520000000000000E-002   -1.170182290292031E-009
 -2.510000000000000E-002   -1.329371627735785E-009
 -2.500000000000000E-002   -1.370793895819412E-009
 -2.490000000000000E-002   -1.276013137518160E-009
 -2.480000000000000E-002   -1.043455259815269E-009
 -2.470000000000000E-002   -6.907247418510904E-010
 -2.460000000000000E-002   -2.541294718803445E-010
 -2.450000000000000E-002    2.148895992074428E-010
 -2.440000000000000E-002    6.562362995569408E-010
 -2.430000000000000E-002    1.009827498110224E-009
 -2.420000000000000E-002    1.225262517392665E-009
 -2.410000000000000E-002    1.270975000432497E-009
 -2.400000000000000E-002    1.141245966248548E-009
 -2.390000000000000E-002    8.596239258886435E-010
 -2.380000000000000E-002    4.777438508196200E-010
 -2.370000000000000E-002    6.921335796520733E-011
 -2.360000000000000E-002   -2.809503611491563E-010
 -2.350000000000000E-002   -4.900205734076619E-010
 -2.340000000000000E-002   -4.923934263213696E-010
 -2.330000000000000E-002   -2.531280572516206E-010
 -2.320000000000000E-002    2.222747370084625E-010
 -2.310000000000000E-002    8.839423895074287E-010
 -2.300000000000000E-002    1.640850465087277E-009
 -2.290000000000000E-002    2.371400126493706E-009
 -2.280000000000000E-002    2.940320806416873E-009
 -2.270000000000000E-002    3.219681055242328E-009
 -2.260000000000000E-002    3.110870187817412E-009
 -2.250000000000000E-002    2.563951876547708E-009
 -2.240000000000000E-002    1.590899019901539E-009
 -2.230000000000000E-002    2.699368089181255E-010
 -2.220000000000000E-002   -1.260520142727572E-009
 -2.210000000000000E-002   -2.818231388810343E-009
 -2.200000000000000E-002   -4.201949550301016E-009
 -2.190000000000000E-002   -5.221282008590597E-009
 -2.180000000000000E-002   -5.727070240866920E-009
 -2.170000000000000E-002   -5.637331766572246E-009
 -2.160000000000000E-002   -4.954180326172744E-009
 -2.150000000000000E-002   -3.768310651799665E-009
 -2.140000000000000E-002   -2.249469830889019E-009
 -2.130000000000000E-002   -6.235471463071182E-010
 -2.120000000000000E-002    8.608195404405169E-010
 -2.110000000000000E-002    1.971305104400865E-009
 -2.100000000000000E-002    2.530574563312467E-009
 -2.090000000000000E-002    2.448221013869786E-009
 -2.080000000000000E-002    1.740343556539202E-009
 -2.070000000000000E-002    5.328586436449518E-010
 -2.060000000000000E-002   -9.529177513641984E-010
 -2.050000000000000E-002   -2.431055612416451E-009
 -2.040000000000000E-002   -3.594057527863751E-009
 -2.030000000000000E-002   -4.161862765632027E-009
 -2.020000000000000E-002   -3.929223177906166E-009
 -2.010000000000000E-002   -2.803769838976489E-009
 -2.000000000000000E-002   -8.282361226696821E-010
 -1.990000000000000E-002    1.817443271032087E-009
 -1.980000000000000E-002    4.835399416784796E-009
 -1.970000000000000E-002    7.848359580646224E-009
 -1.960000000000000E-002    1.045219544115099E-008
 -1.950000000000000E-002    1.227484877933524E-008
 -1.940000000000000E-002    1.303272653622660E-008
 -1.930000000000000E-002    1.257576677871061E-008
 -1.920000000000000E-002    1.091389057984367E-008
 -1.910000000000000E-002    8.220228515499876E-009
 -1.900000000000000E-002    4.810002375932372E-009
 -1.890000000000000E-002    1.097654891531300E-009
 -1.880000000000000E-002   -2.461769539525005E-009
 -1.870000000000000E-002   -5.438461622691339E-009
 -1.860000000000000E-002   -7.491114744165154E-009
 -1.850000000000000E-002   -8.418040303838933E-009
 -1.840000000000000E-002   -8.188247625967851E-009
 -1.830000000000000E-002   -6.947478354125107E-009
 -1.820000000000000E-002   -4.997879510402417E-009
 -1.810000000000000E-002   -2.753878738250914E-009
 -1.800000000000000E-002   -6.803827181347396E-010
 -1.790000000000000E-002    7.779428640251700E-010
 -1.780000000000000E-002    1.266180055410720E-009
 -1.770000000000000E-002    5.774306522438676E-010
 -1.760000000000000E-002   -1.308602728011128E-009
 -1.750000000000000E-002   -4.212388421207988E-009
 -1.740000000000000E-002   -7.768764790236050E-009
 -1.730000000000000E-002   -1.146673193313999E-008
 -1.720000000000000E-002   -1.470938391568500E-008
 -1.710000000000000E-002   -1.688565292466928E-008
 -1.700000000000000E-002   -1.744381940999952E-008
 -1.690000000000000E-002   -1.595642770404840E-008
 -1.680000000000000E-002   -1.216731973616549E-008
 -1.670000000000000E-002   -6.013871218919558E-009
 -1.660000000000000E-002    2.379196091764238E-009
 -1.650000000000000E-002    1.273423536278496E-008
 -1.640000000000000E-002    2.467929211803592E-008
 -1.630000000000000E-002    3.782353302470007E-008
 -1.620000000000000E-002    5.183969770968221E-008
 -1.610000000000000E-002    6.654253188214714E-008
 -1.600000000000000E-002    8.195239303295993E-008
 -1.590000000000000E-002    9.833492156599687E-008
 -1.580000000000000E-002    1.162104027974315E-007
 -1.570000000000000E-002    1.363303934545018E-007
 -1.560000000000000E-002    1.596235275357362E-007
 -1.550000000000000E-002    1.871163588961210E-007
 -1.540000000000000E-002    2.198391604011440E-007
 -1.530000000000000E-002    2.587287115215728E-007
 -1.520000000000000E-002    3.045415187526835E-007
 -1.510000000000000E-002    3.577896123205425E-007
 -1.500000000000000E-002    4.187095761700610E-007
 -1.490000000000000E-002    4.872701398973955E-007
 -1.480000000000000E-002    5.632194257338752E-007
 -1.470000000000000E-002    6.461675270033367E-007
 -1.460000000000000E-002    7.356937744085855E-007
 -1.450000000000000E-002    8.314653761590501E-007
 -1.440000000000000E-002    9.333497741603710E-007
 -1.430000000000000E-002    1.041505086709756E-006
 -1.420000000000000E-002    1.156433656074950E-006
 -1.410000000000000E-002    1.278988873871674E-006
 -1.400000000000000E-002    1.410331515865032E-006
 -1.390000000000000E-002    1.551841209119338E-006
 -1.380000000000000E-002    1.704990833085358E-006
 -1.370000000000000E-002    1.871204914184352E-006
 -1.360000000000000E-002    2.051719654994365E-006
 -1.350000000000000E-002    2.247468058585729E-006
 -1.340000000000000E-002    2.459008687093459E-006
 -1.330000000000000E-002    2.686511596119125E-006
 -1.320000000000000E-002    2.929807118234739E-006
 -1.310000000000000E-002    3.188492863380594E-006
 -1.300000000000000E-002    3.462087105538173E-006
 -1.290000000000000E-002    3.750207004816598E-006
 -1.280000000000000E-002    4.052745151453093E-006
 -1.270000000000000E-002    4.370018075635048E-006
 -1.260000000000000E-002    4.702864856763266E-006
 -1.250000000000000E-002    5.052677248958842E-006
 -1.240000000000000E-002    5.421354770186425E-006
 -1.230000000000000E-002    5.811193031215737E-006
 -1.220000000000000E-002    6.224713106680847E-006
 -1.210000000000000E-002    6.664469351670186E-006
 -1.200000000000000E-002    7.132853550494974E-006
 -1.190000000000000E-002    7.631934180104778E-006
 -1.180000000000000E-002    8.163354255751317E-006
 -1.170000000000000E-002    8.728308231522811E-006
 -1.160000000000000E-002    9.327602065625191E-006
 -1.150000000000000E-002    9.961789829971215E-006
 -1.140000000000000E-002    1.063136728773064E-005
 -1.130000000000000E-002    1.133699783906282E-005
 -1.120000000000000E-002    1.207972369229064E-005
 -1.110000000000000E-002    1.286114943516486E-005
 -1.100000000000000E-002    1.368354623973453E-005
 -1.090000000000000E-002    1.454987742006041E-005
 -1.080000000000000E-002    1.546372605661016E-005
 -1.070000000000000E-002    1.642914965521962E-005
 -1.060000000000000E-002    1.745046881963981E-005
 -1.050000000000000E-002    1.853203414225839E-005
 -1.040000000000000E-002    1.967800073857320E-005
 -1.030000000000000E-002    2.089215801583583E-005
 -1.020000000000000E-002    2.217782714729749E-005
 -1.010000000000000E-002    2.353785393038420E-005
 -1.000000000000000E-002    2.497470141133740E-005
 -9.899999999999999E-003    2.649062245553893E-005
 -9.800000000000000E-003    2.808789158768469E-005
 -9.699999999999999E-003    2.976906433176782E-005
 -9.599999999999999E-003    3.153721968208668E-005
 -9.500000000000000E-003    3.339616078832783E-005
 -9.399999999999999E-003    3.535053072944999E-005
 -9.299999999999999E-003    3.740584336018956E-005
 -9.200000000000000E-003    3.956841781347335E-005
 -9.099999999999999E-003    4.184524159334429E-005
 -8.999999999999999E-003    4.424376941246320E-005
 -8.900000000000000E-003    4.677170219451884E-005
 -8.799999999999999E-003    4.943679064062334E-005
 -8.699999999999999E-003    5.224666334389639E-005
 -8.600000000000000E-003    5.520874397721989E-005
 -8.499999999999999E-003    5.833023830713042E-005
 -8.399999999999999E-003    6.161821624605313E-005
 -8.300000000000000E-003    6.507974174955317E-005
 -8.199999999999999E-003    6.872206728696482E-005
 -8.100000000000000E-003    7.255284743384135E-005
 -8.000000000000000E-003    7.658031466124349E-005
 -7.899999999999999E-003    8.081344054136718E-005
 -7.800000000000000E-003    8.526204045139039E-005
 -7.699999999999999E-003    8.993677587719097E-005
 -7.599999999999999E-003    9.484914930418437E-005
 -7.499999999999999E-003    1.000113761374178E-004
 -7.399999999999999E-003    1.054362747546768E-004
 -7.299999999999999E-003    1.111371275729900E-004
 -7.199999999999999E-003    1.171275334393469E-004
 -7.100000000000000E-003    1.234213389341367E-004
 -6.999999999999999E-003    1.300325512606356E-004
 -6.899999999999999E-003    1.369753537565087E-004
 -6.800000000000000E-003    1.442641692059994E-004
 -6.699999999999999E-003    1.519137597724466E-004
 -6.599999999999999E-003    1.599393098342096E-004
 -6.499999999999999E-003    1.683566090581005E-004
 -6.399999999999999E-003    1.771821279826298E-004
 -6.299999999999999E-003    1.864331629316839E-004
 -6.199999999999999E-003    1.961278860524606E-004
 -6.100000000000000E-003    2.062854113368592E-004
 -5.999999999999999E-003    2.169257607495255E-004
 -5.899999999999999E-003    2.280698452546094E-004
 -5.800000000000000E-003    2.397394264023079E-004
 -5.699999999999999E-003    2.519570227976671E-004
 -5.599999999999999E-003    2.647459175810427E-004
 -5.499999999999999E-003    2.781300505274996E-004
 -5.399999999999999E-003    2.921340386764476E-004
 -5.299999999999999E-003    3.067831684750073E-004
 -5.199999999999999E-003    3.221034377015432E-004
 -5.099999999999999E-003    3.381216185736986E-004
 -4.999999999999999E-003    3.548653207764109E-004
 -4.899999999999999E-003    3.723631522395091E-004
 -4.799999999999999E-003    3.906448000548704E-004
 -4.699999999999999E-003    4.097410905482179E-004
 -4.599999999999999E-003    4.296841134498041E-004
 -4.499999999999999E-003    4.505072201377447E-004
 -4.399999999999999E-003    4.722451108129440E-004
 -4.299999999999999E-003    4.949338043056495E-004
 -4.199999999999999E-003    5.186105362693689E-004
 -4.099999999999999E-003    5.433137927197372E-004
 -3.999999999999999E-003    5.690831151252487E-004
 -3.899999999999999E-003    5.959591354553191E-004
 -3.799999999999999E-003    6.239834536146615E-004
 -3.699999999999999E-003    6.531986341329573E-004
 -3.599999999999999E-003    6.836481095410032E-004
 -3.499999999999999E-003    7.153764195836846E-004
 -3.399999999999999E-003    7.484291171014926E-004
 -3.299999999999999E-003    7.828530034906989E-004
 -3.199999999999999E-003    8.186961388076216E-004
 -3.099999999999999E-003    8.560082427848207E-004
 -2.999999999999999E-003    8.948407036043768E-004
 -2.899999999999999E-003    9.352465846511910E-004
 -2.799999999999999E-003    9.772809280017222E-004
 -2.699999999999999E-003    1.021000583802394E-003
 -2.599999999999999E-003    1.066464211531296E-003
 -2.499999999999999E-003    1.113732341830772E-003
 -2.399999999999999E-003    1.162866931417304E-003
 -2.299999999999999E-003    1.213931645857601E-003
 -2.199999999999999E-003    1.266991531832798E-003
 -2.099999999999999E-003    1.322112973936421E-003
 -1.999999999999999E-003    1.379363533055709E-003
 -1.899999999999999E-003    1.438812283863108E-003
 -1.799999999999999E-003    1.500529751298668E-003
 -1.699999999999999E-003    1.564587851376338E-003
 -1.599999999999999E-003    1.631060204926673E-003
 -1.499999999999999E-003    1.700022132023123E-003
 -1.399999999999999E-003    1.771550954440235E-003
 -1.299999999999999E-003    1.845725921804755E-003
 -1.199999999999999E-003    1.922627863835367E-003
 -1.099999999999999E-003    2.002339509900972E-003
 -9.999999999999989E-004    2.084945348875431E-003
 -8.999999999999990E-004    2.170531327479330E-003
 -7.999999999999990E-004    2.259184647253436E-003
 -6.999999999999989E-004    2.350993978668988E-003
 -5.999999999999990E-004    2.446048866113358E-003
 -4.999999999999989E-004    2.544440141381693E-003
 -3.999999999999989E-004    2.646259539018679E-003
 -2.999999999999989E-004    2.751600365425888E-003
 -1.999999999999989E-004    2.860557020824744E-003
 -9.999999999999892E-005    2.973225522829367E-003
  1.084202172485504E-018    3.089703160655880E-003
  1.000000000000011E-004    3.210088839413234E-003
  2.000000000000011E-004    3.334483556685904E-003
  3.000000000000011E-004    3.462989053968782E-003
  4.000000000000011E-004    3.595709160507297E-003
  5.000000000000011E-004    3.732748990749973E-003
  6.000000000000011E-004    3.874214166439239E-003
  7.000000000000011E-004    4.020211693921612E-003
  8.000000000000011E-004    4.170848798940392E-003
  9.000000000000012E-004    4.326233474940789E-003
  1.000000000000001E-003    4.486474638824944E-003
  1.100000000000001E-003    4.651681577256030E-003
  1.200000000000001E-003    4.821964134670040E-003
  1.300000000000001E-003    4.997433217788161E-003
  1.400000000000001E-003    5.178199919782127E-003
  1.500000000000001E-003    5.364377038844720E-003
  1.600000000000001E-003    5.556077220679865E-003
  1.700000000000001E-003    5.753414606704679E-003
  1.800000000000001E-003    5.956503664982666E-003
  1.900000000000001E-003    6.165459720036445E-003
  2.000000000000001E-003    6.380397364169552E-003
  2.100000000000001E-003    6.601431757812470E-003
  2.200000000000001E-003    6.828677666568778E-003
  2.300000000000001E-003    7.062250018131507E-003
  2.400000000000001E-003    7.302262592655460E-003
  2.500000000000001E-003    7.548828170546456E-003
  2.600000000000001E-003    7.802059713878200E-003
  2.700000000000001E-003    8.062069096995413E-003
  2.800000000000001E-003    8.328967156117075E-003
  2.900000000000001E-003    8.602864826724819E-003
  3.000000000000001E-003    8.883871112361623E-003
  3.100000000000001E-003    9.172094878230843E-003
  3.200000000000001E-003    9.467644037973753E-003
  3.300000000000001E-003    9.770624652280575E-003
  3.400000000000001E-003    1.008114014364552E-002
  3.500000000000001E-003    1.039929286232917E-002
  3.600000000000001E-003    1.072518364290490E-002
  3.700000000000001E-003    1.105890924088241E-002
  3.800000000000001E-003    1.140056448719544E-002
  3.900000000000001E-003    1.175024075559723E-002
  4.000000000000001E-003    1.210802768508388E-002
  4.100000000000001E-003    1.247401069384587E-002
  4.200000000000001E-003    1.284827185774192E-002
  4.300000000000001E-003    1.323089058769873E-002
  4.400000000000001E-003    1.362194158022875E-002
  4.500000000000001E-003    1.402149786218081E-002
  4.600000000000002E-003    1.442962507751615E-002
  4.700000000000001E-003    1.484638708955496E-002
  4.800000000000001E-003    1.527184242844276E-002
  4.900000000000002E-003    1.570604422647209E-002
  5.000000000000001E-003    1.614904064716582E-002
  5.100000000000001E-003    1.660087407785123E-002
  5.200000000000001E-003    1.706158396213854E-002
  5.300000000000002E-003    1.753120064112378E-002
  5.400000000000001E-003    1.800974857502855E-002
  5.500000000000001E-003    1.849724765521868E-002
  5.600000000000002E-003    1.899371037536668E-002
  5.700000000000001E-003    1.949914114037436E-002
  5.800000000000001E-003    2.001353711055368E-002
  5.900000000000002E-003    2.053688872785569E-002
  6.000000000000001E-003    2.106917671924962E-002
  6.100000000000001E-003    2.161037442579817E-002
  6.200000000000002E-003    2.216044524655127E-002
  6.300000000000002E-003    2.271934464024594E-002
  6.400000000000001E-003    2.328701959326360E-002
  6.500000000000001E-003    2.386340566133265E-002
  6.600000000000002E-003    2.444843070552200E-002
  6.700000000000001E-003    2.504201256108320E-002
  6.800000000000001E-003    2.564406105888846E-002
  6.900000000000002E-003    2.625447633094700E-002
  7.000000000000001E-003    2.687314719504491E-002
  7.100000000000001E-003    2.749995446473988E-002
  7.200000000000002E-003    2.813477009643914E-002
  7.300000000000002E-003    2.877744866061200E-002
  7.400000000000001E-003    2.942784321829250E-002
  7.500000000000001E-003    3.008578873596221E-002
  7.600000000000002E-003    3.075110927957059E-002
  7.700000000000001E-003    3.142361475996894E-002
  7.800000000000001E-003    3.210311180574987E-002
  7.900000000000001E-003    3.278938571132448E-002
  8.000000000000002E-003    3.348221449491152E-002
  8.100000000000001E-003    3.418136890707943E-002
  8.200000000000001E-003    3.488659853535336E-002
  8.300000000000002E-003    3.559765350936446E-002
  8.400000000000001E-003    3.631426418493533E-002
  8.500000000000002E-003    3.703615404210790E-002
  8.600000000000002E-003    3.776303206759343E-002
  8.700000000000001E-003    3.849459844863681E-002
  8.800000000000002E-003    3.923053897076308E-002
  8.900000000000002E-003    3.997052714550019E-002
  9.000000000000001E-003    4.071423030099307E-002
  9.100000000000002E-003    4.146129148097112E-002
  9.200000000000002E-003    4.221134934719938E-002
  9.300000000000001E-003    4.296402485378781E-002
  9.400000000000002E-003    4.371893189157336E-002
  9.500000000000001E-003    4.447566993815169E-002
  9.600000000000001E-003    4.523382836803930E-002
  9.700000000000002E-003    4.599298348130564E-002
  9.800000000000001E-003    4.675270677411642E-002
  9.900000000000001E-003    4.751255553916871E-002
  1.000000000000000E-002    4.827207697940866E-002
  1.010000000000000E-002    4.903080828726724E-002
  1.020000000000000E-002    4.978828173556529E-002
  1.030000000000000E-002    5.054401073011122E-002
  1.040000000000000E-002    5.129750321632989E-002
  1.050000000000000E-002    5.204825344408110E-002
  1.060000000000000E-002    5.279574757321205E-002
  1.070000000000000E-002    5.353945920084275E-002
  1.080000000000000E-002    5.427885760686624E-002
  1.090000000000000E-002    5.501340332954090E-002
  1.100000000000000E-002    5.574255148999786E-002
  1.110000000000000E-002    5.646574510960704E-002
  1.120000000000000E-002    5.718242584896858E-002
  1.130000000000000E-002    5.789202725149605E-002
  1.140000000000000E-002    5.859397944597561E-002
  1.150000000000000E-002    5.928770908652498E-002
  1.160000000000000E-002    5.997263767200270E-002
  1.170000000000000E-002    6.064817616917282E-002
  1.180000000000000E-002    6.131373855134954E-002
  1.190000000000000E-002    6.196873371584502E-002
  1.200000000000000E-002    6.261256453106485E-002
  1.210000000000000E-002    6.324462518272191E-002
  1.220000000000000E-002    6.386432483632964E-002
  1.230000000000000E-002    6.447105437119657E-002
  1.240000000000000E-002    6.506421421669625E-002
  1.250000000000000E-002    6.564321012956154E-002
  1.260000000000000E-002    6.620743687728443E-002
  1.270000000000000E-002    6.675630730770837E-002
  1.280000000000000E-002    6.728923194921788E-002
  1.290000000000000E-002    6.780563021605440E-002
  1.300000000000000E-002    6.830491285560017E-002
  1.310000000000000E-002    6.878651170686111E-002
  1.320000000000000E-002    6.924985217402126E-002
  1.330000000000000E-002    6.969437498200784E-002
  1.340000000000000E-002    7.011952403458681E-002
  1.350000000000000E-002    7.052475196581529E-002
  1.360000000000000E-002    7.090953239795723E-002
  1.370000000000000E-002    7.127333435728871E-002
  1.380000000000000E-002    7.161565488580801E-002
  1.390000000000000E-002    7.193599391559449E-002
  1.400000000000000E-002    7.223386756095687E-002
  1.410000000000000E-002    7.250881649443125E-002
  1.420000000000000E-002    7.276039505844309E-002
  1.430000000000000E-002    7.298817367647831E-002
  1.440000000000000E-002    7.319174355102968E-002
  1.450000000000000E-002    7.337070899101301E-002
  1.460000000000000E-002    7.352470096773890E-002
  1.470000000000000E-002    7.365337417841405E-002
  1.480000000000000E-002    7.375640354994405E-002
  1.490000000000000E-002    7.383347792779119E-002
  1.500000000000000E-002    7.388432141269416E-002
  1.510000000000000E-002    7.390868816091641E-002
  1.520000000000000E-002    7.390634378387131E-002
  1.530000000000000E-002    7.387709745355761E-002
  1.540000000000000E-002    7.382077915733468E-002
  1.550000000000000E-002    7.373725152625815E-002
  1.560000000000000E-002    7.362640336525797E-002
  1.570000000000000E-002    7.348816309472350E-002
  1.580000000000000E-002    7.332248231947945E-002
  1.590000000000000E-002    7.312936185086759E-002
  1.600000000000000E-002    7.290881264558094E-002
  1.610000000000000E-002    7.266089989677088E-002
  1.620000000000000E-002    7.238571301883512E-002
  1.630000000000000E-002    7.208338369672640E-002
  1.640000000000000E-002    7.175407437671169E-002
  1.650000000000000E-002    7.139799341308530E-002
  1.660000000000000E-002    7.101538799604293E-002
  1.670000000000000E-002    7.060654164483950E-002
  1.680000000000000E-002    7.017176510731218E-002
  1.690000000000000E-002    6.971143719219014E-002
  1.700000000000000E-002    6.922595419474763E-002
  1.710000000000000E-002    6.871576050489112E-002
  1.720000000000000E-002    6.818134690909053E-002
  1.730000000000000E-002    6.762324380897589E-002
  1.740000000000000E-002    6.704202555866522E-002
  1.750000000000000E-002    6.643830311697235E-002
  1.760000000000000E-002    6.581273219540515E-002
  1.770000000000000E-002    6.516601306612450E-002
  1.780000000000000E-002    6.449888672816920E-002
  1.790000000000000E-002    6.381213867604095E-002
  1.800000000000000E-002    6.310659971718334E-002
  1.810000000000000E-002    6.238314386964333E-002
  1.820000000000000E-002    6.164268349064318E-002
  1.830000000000000E-002    6.088617178683267E-002
  1.840000000000000E-002    6.011461509369594E-002
  1.850000000000000E-002    5.932904932201372E-002
  1.860000000000000E-002    5.853056155984397E-002
  1.870000000000000E-002    5.772027280620176E-002