 -4.000000000000000E-002    0.000000000000000E+000
 -3.990000000000000E-002    0.000000000000000E+000
 -3.980000000000000E-002   -2.288898329031885E-012
 -3.970000000000000E-002   -1.497271162784640E-011
 -3.960000000000000E-002   -5.745351349140878E-011
 -3.950000000000000E-002   -1.650825022356944E-010
 -3.940000000000000E-002   -3.897846831758085E-010
 -3.930000000000000E-002   -7.941877912218018E-010
 -3.920000000000000E-002   -1.438565362574535E-009
 -3.910000000000000E-002   -2.362258623751609E-009
 -3.900000000000000E-002   -3.563483273594024E-009
 -3.890000000000000E-002   -4.982826432111976E-009
 -3.880000000000000E-002   -6.495763493948023E-009
 -3.870000000000000E-002   -7.917971711616322E-009
 -3.860000000000000E-002   -9.024374270663683E-009
 -3.850000000000000E-002   -9.579351190612152E-009
 -3.840000000000000E-002   -9.372343999010548E-009
 -3.830000000000000E-002   -8.251077348612287E-009
 -3.820000000000000E-002   -6.144499267240439E-009
 -3.810000000000000E-002   -3.069542971518999E-009
 -3.800000000000000E-002    8.804085628346624E-010
 -3.790000000000000E-002    5.562806194298029E-009
 -3.780000000000000E-002    1.082195403712540E-008
 -3.770000000000000E-002    1.652382862554484E-008
 -3.760000000000000E-002    2.257923736319005E-008
 -3.750000000000000E-002    2.894710208874036E-008
 -3.740000000000000E-002    3.561438062960071E-008
 -3.730000000000000E-002    4.255527071436809E-008
 -3.720000000000000E-002    4.967847076270956E-008
 -3.710000000000000E-002    5.677568537888185E-008
 -3.700000000000000E-002    6.348603212569144E-008
 -3.690000000000000E-002    6.928881521797236E-008
 -3.680000000000000E-002    7.353154378409595E-008
 -3.670000000000000E-002    7.549212334253558E-008
 -3.660000000000000E-002    7.446575990701590E-008
 -3.650000000000000E-002    6.986029942514891E-008
 -3.640000000000000E-002    6.128036352612220E-008
 -3.630000000000000E-002    4.858198939957815E-008
 -3.620000000000000E-002    3.188535643857997E-008
 -3.610000000000000E-002    1.154278289066750E-008
 -3.600000000000000E-002   -1.192976070963785E-008
 -3.590000000000000E-002   -3.793969818484585E-008
 -3.580000000000000E-002   -6.589957677131768E-008
 -3.570000000000000E-002   -9.527927777505579E-008
 -3.560000000000000E-002   -1.256107991928151E-007
 -3.550000000000000E-002   -1.564393197949960E-007
 -3.540000000000000E-002   -1.872287381967350E-007
 -3.530000000000000E-002   -2.172441807530608E-007
 -3.520000000000000E-002   -2.454445236821679E-007
 -3.510000000000000E-002   -2.704205513999606E-007
 -3.500000000000000E-002   -2.904094661460993E-007
 -3.490000000000000E-002   -3.034019115365503E-007
 -3.480000000000000E-002   -3.073379460398115E-007
 -3.470000000000000E-002   -3.003659875749587E-007
 -3.460000000000000E-002   -2.811202953823522E-007
 -3.450000000000000E-002   -2.489608591990769E-007
 -3.440000000000000E-002   -2.041204162366796E-007
 -3.430000000000000E-002   -1.477161462942798E-007
 -3.420000000000000E-002   -8.160762326649932E-008
 -3.410000000000000E-002   -8.113902711701882E-009
 -3.400000000000000E-002    7.036596594683102E-008
 -3.390000000000000E-002    1.517592396570340E-007
 -3.380000000000000E-002    2.346700167660487E-007
 -3.370000000000000E-002    3.185957099077095E-007
 -3.360000000000000E-002    4.039518519371906E-007
 -3.350000000000000E-002    4.918837974121758E-007
 -3.340000000000000E-002    5.838873291543483E-007
 -3.330000000000000E-002    6.813029974065120E-007
 -3.320000000000000E-002    7.847824228867162E-007
 -3.310000000000000E-002    8.938388537599488E-007
 -3.300000000000000E-002    1.006588491470057E-006
 -3.290000000000000E-002    1.119757657807546E-006
 -3.280000000000000E-002    1.228983559141691E-006
 -3.270000000000000E-002    1.329378344605089E-006
 -3.260000000000000E-002    1.416270738676213E-006
 -3.250000000000000E-002    1.485997738719439E-006
 -3.240000000000000E-002    1.536598896556202E-006
 -3.230000000000000E-002    1.568277582913292E-006
 -3.220000000000000E-002    1.583529242394658E-006
 -3.210000000000000E-002    1.586898660738596E-006
 -3.200000000000000E-002    1.584398585784076E-006
 -3.190000000000000E-002    1.582691254161591E-006
 -3.180000000000000E-002    1.588184332291577E-006
 -3.170000000000000E-002    1.606217865016994E-006
 -3.160000000000000E-002    1.640505016098798E-006
 -3.150000000000000E-002    1.692946690176974E-006
 -3.140000000000000E-002    1.763866957749272E-006
 -3.130000000000000E-002    1.852634547560985E-006
 -3.120000000000000E-002    1.958554499882376E-006
 -3.110000000000000E-002    2.081855374348545E-006
 -3.100000000000000E-002    2.224572120187316E-006
 -3.090000000000000E-002    2.391136068641824E-006
 -3.080000000000000E-002    2.588538799289836E-006
 -3.070000000000000E-002    2.826015598034609E-006
 -3.060000000000000E-002    3.114290485581881E-006
 -3.050000000000000E-002    3.464512959957874E-006
 -3.040000000000000E-002    3.887086778119690E-006
 -3.030000000000000E-002    4.390612573453227E-006
 -3.020000000000000E-002    4.981157261485124E-006
 -3.010000000000000E-002    5.661997634176340E-006
 -3.000000000000000E-002    6.433896028460227E-006
 -2.990000000000000E-002    7.295868162176283E-006
 -2.980000000000000E-002    8.246289705029531E-006
 -2.970000000000000E-002    9.284130189191245E-006
 -2.960000000000000E-002    1.041007290805287E-005
 -2.950000000000000E-002    1.162729159868763E-005
 -2.940000000000000E-002    1.294172636840475E-005
 -2.930000000000000E-002    1.436180285157563E-005
 -2.920000000000000E-002    1.589764837051218E-005
 -2.910000000000000E-002    1.755995544676759E-005
 -2.900000000000000E-002    1.935873968941285E-005
 -2.890000000000000E-002    2.130223786755621E-005
 -2.880000000000000E-002    2.339617801934943E-005
 -2.870000000000000E-002    2.564358026061064E-005
 -2.860000000000000E-002    2.804514709836374E-005
 -2.850000000000000E-002    3.060015256627304E-005
 -2.840000000000000E-002    3.330766565506231E-005
 -2.830000000000000E-002    3.616785644439412E-005
 -2.820000000000000E-002    3.918309743046145E-005
 -2.810000000000000E-002    4.235864840538937E-005
 -2.800000000000000E-002    4.570275574946253E-005
 -2.790000000000000E-002    4.922613516450277E-005
 -2.780000000000000E-002    5.294096335234674E-005
 -2.770000000000000E-002    5.685952713672622E-005
 -2.760000000000000E-002    6.099288264587559E-005
 -2.750000000000000E-002    6.534975937955572E-005
 -2.740000000000000E-002    6.993596878083905E-005
 -2.730000000000000E-002    7.475447708890572E-005
 -2.720000000000000E-002    7.980615424190202E-005
 -2.710000000000000E-002    8.509104536580705E-005
 -2.700000000000000E-002    9.060995826370942E-005
 -2.690000000000000E-002    9.636603718264084E-005
 -2.680000000000000E-002    1.023660289191386E-004
 -2.670000000000000E-002    1.086209457166169E-004
 -2.660000000000000E-002    1.151460560809479E-004
 -2.650000000000000E-002    1.219601340150060E-004
 -2.640000000000000E-002    1.290841255017803E-004
 -2.630000000000000E-002    1.365396064093799E-004
 -2.620000000000000E-002    1.443472126965212E-004
 -2.610000000000000E-002    1.525255026968821E-004
 -2.600000000000000E-002    1.610904852399977E-004
 -2.590000000000000E-002    1.700559134157262E-004
 -2.580000000000000E-002    1.794343677545534E-004
 -2.570000000000000E-002    1.892389143651202E-004
 -2.560000000000000E-002    1.994850346473632E-004
 -2.550000000000000E-002    2.101924813446052E-004
 -2.540000000000000E-002    2.213865780741109E-004
 -2.530000000000000E-002    2.330988722496598E-004
 -2.520000000000000E-002    2.453667483145476E-004
 -2.510000000000000E-002    2.582322922863728E-004
 -2.500000000000000E-002    2.717404931597685E-004
 -2.490000000000000E-002    2.859370511954824E-004
 -2.480000000000000E-002    3.008663952677413E-004
 -2.470000000000000E-002    3.165701693103233E-004
 -2.460000000000000E-002    3.330865875014356E-004
 -2.450000000000000E-002    3.504507287207552E-004
 -2.440000000000000E-002    3.686957874578045E-004
 -2.430000000000000E-002    3.878551063738120E-004
 -2.420000000000000E-002    4.079644077568241E-004
 -2.410000000000000E-002    4.290641296790286E-004
 -2.400000000000000E-002    4.512009961451813E-004
 -2.390000000000000E-002    4.744288626772923E-004
 -2.380000000000000E-002    4.988085753106874E-004
 -2.370000000000000E-002    5.244065268553994E-004
 -2.360000000000000E-002    5.512928645265550E-004
 -2.350000000000000E-002    5.795389663171690E-004
 -2.340000000000000E-002    6.092151341238914E-004
 -2.330000000000000E-002    6.403888979235828E-004
 -2.320000000000000E-002    6.731242752773346E-004
 -2.310000000000000E-002    7.074819818759341E-004
 -2.300000000000000E-002    7.435207885163152E-004
 -2.290000000000000E-002    7.812998033909897E-004
 -2.280000000000000E-002    8.208811111222617E-004
 -2.270000000000000E-002    8.623323240685007E-004
 -2.260000000000000E-002    9.057285274041153E-004
 -2.250000000000000E-002    9.511536641209404E-004
 -2.240000000000000E-002    9.987002992100284E-004
 -2.230000000000000E-002    1.048468296295252E-003
 -2.220000000000000E-002    1.100563054034089E-003
 -2.210000000000000E-002    1.155092645108660E-003
 -2.200000000000000E-002    1.212165379946109E-003
 -2.190000000000000E-002    1.271887615869056E-003
 -2.180000000000000E-002    1.334362608371049E-003
 -2.170000000000000E-002    1.399690649856117E-003
 -2.160000000000000E-002    1.467970088725437E-003
 -2.150000000000000E-002    1.539299551913405E-003
 -2.140000000000000E-002    1.613780547899254E-003
 -2.130000000000000E-002    1.691520186436432E-003
 -2.120000000000000E-002    1.772633673243877E-003
 -2.110000000000000E-002    1.857245581417163E-003
 -2.100000000000000E-002    1.945490400663649E-003
 -2.090000000000000E-002    2.037511015411878E-003
 -2.080000000000000E-002    2.133457494831700E-003
 -2.070000000000000E-002    2.233484354187456E-003
 -2.060000000000000E-002    2.337747541112750E-003
 -2.050000000000000E-002    2.446402825523246E-003
 -2.040000000000000E-002    2.559603330760270E-003
 -2.030000000000000E-002    2.677500272774641E-003
 -2.020000000000000E-002    2.800242934998573E-003
 -2.010000000000000E-002    2.927980898583785E-003
 -2.000000000000000E-002    3.060866201029562E-003
 -1.990000000000000E-002    3.199056546475481E-003
 -1.980000000000000E-002    3.342717570021949E-003
 -1.970000000000000E-002    3.492024320816731E-003
 -1.960000000000000E-002    3.647162091818757E-003
 -1.950000000000000E-002    3.808326640756571E-003
 -1.940000000000000E-002    3.975721849052192E-003
 -1.930000000000000E-002    4.149557399410416E-003
 -1.920000000000000E-002    4.330046771513240E-003
 -1.910000000000000E-002    4.517404343946235E-003
 -1.900000000000000E-002    4.711843833486977E-003
 -1.890000000000000E-002    4.913577129639813E-003
 -1.880000000000000E-002    5.122813826483458E-003
 -1.870000000000000E-002    5.339763278847983E-003
 -1.860000000000000E-002    5.564635383923483E-003
 -1.850000000000000E-002    5.797643240081220E-003
 -1.840000000000000E-002    6.039005329158860E-003
 -1.830000000000000E-002    6.288946993739802E-003
 -1.820000000000000E-002    6.547701484431297E-003
 -1.810000000000000E-002    6.815508866982779E-003
 -1.800000000000000E-002    7.092616335328961E-003
 -1.790000000000000E-002    7.379275867966781E-003
 -1.780000000000000E-002    7.675741585096271E-003
 -1.770000000000000E-002    7.982267980261634E-003
 -1.760000000000000E-002    8.299107268739690E-003
 -1.750000000000000E-002    8.626507976924023E-003
 -1.740000000000000E-002    8.964713350670252E-003
 -1.730000000000000E-002    9.313964555446960E-003
 -1.720000000000000E-002    9.674497461129732E-003
 -1.710000000000000E-002    1.004654702172029E-002
 -1.700000000000000E-002    1.043034684632597E-002
 -1.690000000000000E-002    1.082613238560446E-002
 -1.680000000000000E-002    1.123414037951561E-002
 -1.670000000000000E-002    1.165460952464086E-002
 -1.660000000000000E-002    1.208778052518475E-002
 -1.650000000000000E-002    1.253389406475624E-002
 -1.640000000000000E-002    1.299318988558971E-002
 -1.630000000000000E-002    1.346590443359523E-002
 -1.620000000000000E-002    1.395226788187629E-002
 -1.610000000000000E-002    1.445250322606550E-002
 -1.600000000000000E-002    1.496682593663534E-002
 -1.590000000000000E-002    1.549543749208364E-002
 -1.580000000000000E-002    1.603853402342887E-002
 -1.570000000000000E-002    1.659629696802632E-002
 -1.560000000000000E-002    1.716890073909306E-002
 -1.550000000000000E-002    1.775651168189045E-002
 -1.540000000000000E-002    1.835928505849911E-002
 -1.530000000000000E-002    1.897736708673649E-002
 -1.520000000000000E-002    1.961089891363338E-002
 -1.510000000000000E-002    2.026000698422234E-002
 -1.500000000000000E-002    2.092481112251025E-002
 -1.490000000000000E-002    2.160541616258723E-002
 -1.480000000000000E-002    2.230191359266932E-002
 -1.470000000000000E-002    2.301437597847592E-002
 -1.460000000000000E-002    2.374285851989628E-002
 -1.450000000000000E-002    2.448739237748729E-002
 -1.440000000000000E-002    2.524799023663962E-002
 -1.430000000000000E-002    2.602463702524135E-002
 -1.420000000000000E-002    2.681729554466760E-002
 -1.410000000000000E-002    2.762590226027215E-002
 -1.400000000000000E-002    2.845036954926487E-002
 -1.390000000000000E-002    2.929058296829377E-002
 -1.380000000000000E-002    3.014640068563535E-002
 -1.370000000000000E-002    3.101765702113508E-002
 -1.360000000000000E-002    3.190415869944034E-002
 -1.350000000000000E-002    3.280568758948761E-002
 -1.340000000000000E-002    3.372198885874643E-002
 -1.330000000000000E-002    3.465277828533007E-002
 -1.320000000000000E-002    3.559774166494281E-002
 -1.310000000000000E-002    3.655652006253367E-002
 -1.300000000000000E-002    3.752871791755355E-002
 -1.290000000000000E-002    3.851390111996635E-002
 -1.280000000000000E-002    3.951158946978286E-002
 -1.270000000000000E-002    4.052125624868204E-002
 -1.260000000000000E-002    4.154232515468673E-002
 -1.250000000000000E-002    4.257417943407501E-002
 -1.240000000000000E-002    4.361614924947706E-002
 -1.230000000000000E-002    4.466751519362255E-002
 -1.220000000000000E-002    4.572751318474371E-002
 -1.210000000000000E-002    4.679532535332408E-002
 -1.200000000000000E-002    4.787008661809317E-002
 -1.190000000000000E-002    4.895087688859844E-002
 -1.180000000000000E-002    5.003672498538504E-002
 -1.170000000000000E-002    5.112659345363162E-002
 -1.160000000000000E-002    5.221939252477634E-002
 -1.150000000000000E-002    5.331396555979628E-002
 -1.140000000000000E-002    5.440908530085377E-002
 -1.130000000000000E-002    5.550345859752209E-002
 -1.120000000000000E-002    5.659572055086105E-002
 -1.110000000000000E-002    5.768443628117347E-002
 -1.100000000000000E-002    5.876809748125604E-002
 -1.090000000000000E-002    5.984511951131361E-002
 -1.080000000000000E-002    6.091384800156308E-002
 -1.070000000000000E-002    6.197255629131068E-002
 -1.060000000000000E-002    6.301944709076886E-002
 -1.050000000000000E-002    6.405264519335972E-002
 -1.040000000000000E-002    6.507020230467345E-002
 -1.030000000000000E-002    6.607009266791911E-002
 -1.020000000000000E-002    6.705020798285896E-002
 -1.010000000000000E-002    6.800836153890685E-002
 -1.000000000000000E-002    6.894227784138275E-002
 -9.899999999999999E-003    6.984959631130525E-002
 -9.800000000000000E-003    7.072786523657844E-002
 -9.699999999999999E-003    7.157454230691043E-002
 -9.599999999999999E-003    7.238699663902089E-002
 -9.500000000000000E-003    7.316250704341769E-002
 -9.399999999999999E-003    7.389826184885596E-002
 -9.299999999999999E-003    7.459136629773565E-002
 -9.200000000000000E-003    7.523883529235022E-002
 -9.099999999999999E-003    7.583759716826299E-002
 -8.999999999999999E-003    7.638449704819969E-002
 -8.900000000000000E-003    7.687629331367610E-002
 -8.799999999999999E-003    7.730965445810718E-002
 -8.699999999999999E-003    7.768116571085792E-002
 -8.600000000000000E-003    7.798731419985325E-002
 -8.499999999999999E-003    7.822449308831170E-002
 -8.399999999999999E-003    7.838900982756775E-002
 -8.300000000000000E-003    7.847707200095207E-002
 -8.199999999999999E-003    7.848480439560732E-002
 -8.100000000000000E-003    7.840823759438656E-002
 -8.000000000000000E-003    7.824331937051929E-002
 -7.899999999999999E-003    7.798590824118931E-002
 -7.800000000000000E-003    7.763178725664466E-002
 -7.699999999999999E-003    7.717666447309190E-002
 -7.599999999999999E-003    7.661616690089415E-002
 -7.499999999999999E-003    7.594585678541166E-002
 -7.399999999999999E-003    7.516121784133223E-002
 -7.299999999999999E-003    7.425766344863610E-002
 -7.199999999999999E-003    7.323054046352472E-002
 -7.100000000000000E-003    7.207512098406237E-002
 -6.999999999999999E-003    7.078661679448509E-002
 -6.899999999999999E-003    6.936017108905813E-002
 -6.800000000000000E-003    6.779087181617158E-002
 -6.699999999999999E-003    6.607374476598615E-002
 -6.599999999999999E-003    6.420376882075172E-002
 -6.499999999999999E-003    6.217587636934668E-002
 -6.399999999999999E-003    5.998496191377539E-002
 -6.299999999999999E-003    5.762588304409764E-002
 -6.199999999999999E-003    5.509347432379440E-002
 -6.100000000000000E-003    5.238254500344888E-002
 -5.999999999999999E-003    4.948788563703527E-002
 -5.899999999999999E-003    4.640426592383985E-002
 -5.800000000000000E-003    4.312645108852435E-002
 -5.699999999999999E-003    3.964919635599638E-002
 -5.599999999999999E-003    3.596725765137945E-002
 -5.499999999999999E-003    3.207539210986814E-002
 -5.399999999999999E-003    2.796837194948860E-002
 -5.299999999999999E-003    2.364098598736211E-002
 -5.199999999999999E-003    1.908804584737445E-002
 -5.099999999999999E-003    1.430440863859710E-002
 -4.999999999999999E-003    9.284964019765090E-003
 -4.899999999999999E-003    4.024657621974487E-003
 -4.799999999999999E-003   -1.481504433627297E-003
 -4.699999999999999E-003   -7.238450328698871E-003
 -4.599999999999999E-003   -1.325103082424469E-002
 -4.499999999999999E-003   -1.952401728557704E-002
 -4.399999999999999E-003   -2.606208946047117E-002
 -4.299999999999999E-003   -3.286982806085205E-002
 -4.199999999999999E-003   -3.995171647828716E-002
 -4.099999999999999E-003   -4.731211342399416E-002
 -3.999999999999999E-003   -5.495526525148015E-002
 -3.899999999999999E-003   -6.288527059991937E-002
 -3.799999999999999E-003   -7.110608723407930E-002
 -3.699999999999999E-003   -7.962152091708949E-002
 -3.599999999999999E-003   -8.843522077285973E-002
 -3.499999999999999E-003   -9.755064734548211E-002
 -3.399999999999999E-003   -0.106971080337340     
 -3.299999999999999E-003   -0.116699604118131     
 -3.199999999999999E-003   -0.126739103577372     
 -3.099999999999999E-003   -0.137092248498163     
 -2.999999999999999E-003   -0.147761472605022     
 -2.899999999999999E-003   -0.158749008490692     
 -2.799999999999999E-003   -0.170056807870133     
 -2.699999999999999E-003   -0.181686584142306     
 -2.599999999999999E-003   -0.193639810228305     
 -2.499999999999999E-003   -0.205917672672967     
 -2.399999999999999E-003   -0.218521080776225     
 -2.299999999999999E-003   -0.231450617415010     
 -2.199999999999999E-003   -0.244706597683829     
 -2.099999999999999E-003   -0.258289002798504     
 -1.999999999999999E-003   -0.272197515092532     
 -1.899999999999999E-003   -0.286431432757451     
 -1.799999999999999E-003   -0.300989789053773     
 -1.699999999999999E-003   -0.315871190374261     
 -1.599999999999999E-003   -0.331073934783996     
 -1.499999999999999E-003   -0.346595935096262     
 -1.399999999999999E-003   -0.362434731500741     
 -1.299999999999999E-003   -0.378587501113322     
 -1.199999999999999E-003   -0.395050972017084     
 -1.099999999999999E-003   -0.411821577527525     
 -9.999999999999989E-004   -0.428895234060436     
 -8.999999999999990E-004   -0.446267492130160     
 -7.999999999999990E-004   -0.463933470351212     
 -6.999999999999989E-004   -0.481887886481860     
 -5.999999999999990E-004   -0.500124995772990     
 -4.999999999999989E-004   -0.518638600897173     
 -3.999999999999989E-004   -0.537422073679159     
 -2.999999999999989E-004   -0.556468362156027     
 -1.999999999999989E-004   -0.575769963424081     
 -9.999999999999892E-005   -0.595318892117487     
  1.084202172485504E-018   -0.615106712189060     
  1.000000000000011E-004   -0.635124548238889     
  2.000000000000011E-004   -0.655363057238707     
  3.000000000000011E-004   -0.675812386772947     
  4.000000000000011E-004   -0.696462267890827     
  5.000000000000011E-004   -0.717301978347952     
  6.000000000000011E-004   -0.738320265403747     
  7.000000000000011E-004   -0.759505396150407     
  8.000000000000011E-004   -0.780845257419372     
  9.000000000000012E-004   -0.802327268456998     
  1.000000000000001E-003   -0.823938312026986     
  1.100000000000001E-003   -0.845664867867673     
  1.200000000000001E-003   -0.867492980247950     
  1.300000000000001E-003   -0.889408256975876     
  1.400000000000001E-003   -0.911395877919036     
  1.500000000000001E-003   -0.933440422815225     
  1.600000000000001E-003   -0.955526356032889     
  1.700000000000001E-003   -0.977637367831623     
  1.800000000000001E-003   -0.999756991672599     
  1.900000000000001E-003    -1.02186832271166     
  2.000000000000001E-003    -1.04395403804350     
  2.100000000000001E-003    -1.06599634425308     
  2.200000000000001E-003    -1.08797712741349     
  2.300000000000001E-003    -1.10987792970899     
  2.400000000000001E-003    -1.13167991453508     
  2.500000000000001E-003    -1.15336401992822     
  2.600000000000001E-003    -1.17491080044453     
  2.700000000000001E-003    -1.19630051368459     
  2.800000000000001E-003    -1.21751320076968     
  2.900000000000001E-003    -1.23852848944679     
  3.000000000000001E-003    -1.25932596152642     
  3.100000000000001E-003    -1.27988469546339     
  3.200000000000001E-003    -1.30018377091271     
  3.300000000000001E-003    -1.32020202321520     
  3.400000000000001E-003    -1.33991794792485     
  3.500000000000001E-003    -1.35931000363633     
  3.600000000000001E-003    -1.37835661049715     
  3.700000000000001E-003    -1.39703587463627     
  3.800000000000001E-003    -1.41532594087016     
  3.900000000000001E-003    -1.43320494522012     
  4.000000000000001E-003    -1.45065085102684     
  4.100000000000001E-003    -1.46764162655881     
  4.200000000000001E-003    -1.48415528398089     
  4.300000000000001E-003    -1.50016984263841     
  4.400000000000001E-003    -1.51566334984841     
  4.500000000000001E-003    -1.53061403338071     
  4.600000000000002E-003    -1.54500003034979     
  4.700000000000001E-003    -1.55879981755661     
  4.800000000000001E-003    -1.57199184245358     
  4.900000000000002E-003    -1.58455479560202     
  5.000000000000001E-003    -1.59646759798752     
  5.100000000000001E-003    -1.60770943953001     
  5.200000000000001E-003    -1.61825967828092     
  5.300000000000002E-003    -1.62809819009388     
  5.400000000000001E-003    -1.63720482884767     
  5.500000000000001E-003    -1.64556012133489     
  5.600000000000002E-003    -1.65314476439396     
  5.700000000000001E-003    -1.65993988391881     
  5.800000000000001E-003    -1.66592711459387     
  5.900000000000002E-003    -1.67108840347477     
  6.000000000000001E-003    -1.67540635263556     
  6.100000000000001E-003    -1.67886388550417     
  6.200000000000002E-003    -1.68144467827386     
  6.300000000000002E-003    -1.68313270808412     
  6.400000000000001E-003    -1.68391278825284     
  6.500000000000001E-003    -1.68377019847958     
  6.600000000000002E-003    -1.68269088146931     
  6.700000000000001E-003    -1.68066152536490     
  6.800000000000001E-003    -1.67766943737691     
  6.900000000000002E-003    -1.67370264385429     
  7.000000000000001E-003    -1.66874997587550     
  7.100000000000001E-003    -1.66280091428915     
  7.200000000000002E-003    -1.65584570951863     
  7.300000000000002E-003    -1.64787556463483     
  7.400000000000001E-003    -1.63888234022269     
  7.500000000000001E-003    -1.62885876930421     
  7.600000000000002E-003    -1.61779838405478     
  7.700000000000001E-003    -1.60569575437892     
  7.800000000000001E-003    -1.59254612695015     
  7.900000000000001E-003    -1.57834598027902     
  8.000000000000002E-003    -1.56309244629332     
  8.100000000000001E-003    -1.54678378206610     
  8.200000000000001E-003    -1.52941908241450     
  8.300000000000002E-003    -1.51099841748109     
  8.400000000000001E-003    -1.49152292294678     
  8.500000000000002E-003    -1.47099456619471     
  8.600000000000002E-003    -1.44941638347368     
  8.700000000000001E-003    -1.42679237217233     
  8.800000000000002E-003    -1.40312753223764     
  8.900000000000002E-003    -1.37842784378358     
  9.000000000000001E-003    -1.35270044953935     
  9.100000000000002E-003    -1.32595324714586     
  9.200000000000002E-003    -1.29819545606074     
  9.300000000000001E-003    -1.26943719404586     
  9.400000000000002E-003    -1.23968954006966     
  9.500000000000001E-003    -1.20896469272868     
  9.600000000000001E-003    -1.17727588473509     
  9.700000000000002E-003    -1.14463720840107     
  9.800000000000001E-003    -1.11106379230258     
  9.900000000000001E-003    -1.07657187137876     
  1.000000000000000E-002    -1.04117843734468     
  1.010000000000000E-002    -1.00490164498872     
  1.020000000000000E-002   -0.967760411788488     
  1.030000000000000E-002   -0.929774720107116     
  1.040000000000000E-002   -0.890965485668526     
  1.050000000000000E-002   -0.851354447505199     
  1.060000000000000E-002   -0.810964335518718     
  1.070000000000000E-002   -0.769818800288367     
  1.080000000000000E-002   -0.727942260087604     
  1.090000000000000E-002   -0.685360067557840     
  1.100000000000000E-002   -0.642098276539292     
  1.110000000000000E-002   -0.598183881248508     
  1.120000000000000E-002   -0.553644463824546     
  1.130000000000000E-002   -0.508508460447785     
  1.140000000000000E-002   -0.462804966565715     
  1.150000000000000E-002   -0.416563748876965     
  1.160000000000000E-002   -0.369815227227620     
  1.170000000000000E-002   -0.322590481620804     
  1.180000000000000E-002   -0.274921108895728     
  1.190000000000000E-002   -0.226839310073569     
  1.200000000000000E-002   -0.178377852795254     
  1.210000000000000E-002   -0.129570007987257     
  1.220000000000000E-002   -8.044947028066367E-002
  1.230000000000000E-002   -3.105045169984817E-002
  1.240000000000000E-002    1.859249389855860E-002
  1.250000000000000E-002    6.844445503197640E-002
  1.260000000000000E-002    0.118470178293237     
  1.270000000000000E-002    0.168634173238832     
  1.280000000000000E-002    0.218900653428927     
  1.290000000000000E-002    0.269233673524286     
  1.300000000000000E-002    0.319597096026187     
  1.310000000000000E-002    0.369954709651205     
  1.320000000000000E-002    0.420270240202707     
  1.330000000000000E-002    0.470507256041979     
  1.340000000000000E-002    0.520629400991528     
  1.350000000000000E-002    0.570600282470519     
  1.360000000000000E-002    0.620383624519893     
  1.370000000000000E-002    0.669943210014518     
  1.380000000000000E-002    0.719243020709323     
  1.390000000000000E-002    0.768247116015585     
  1.400000000000000E-002    0.816919892491293     
  1.410000000000000E-002    0.865225832173390     
  1.420000000000000E-002    0.913130017099538     
  1.430000000000000E-002    0.960597665198520     
  1.440000000000000E-002     1.00759438133672     
  1.450000000000000E-002     1.05408628819566     
  1.460000000000000E-002     1.10003995955314     
  1.470000000000000E-002     1.14542238836094     
  1.480000000000000E-002     1.19020108873573     
  1.490000000000000E-002     1.23434432470016     
  1.500000000000000E-002     1.27782074994961     
  1.510000000000000E-002     1.32059968719216     
  1.520000000000000E-002     1.36265108207988     
  1.530000000000000E-002     1.40394579442559     
  1.540000000000000E-002     1.44445509771970     
  1.550000000000000E-002     1.48415118014888     
  1.560000000000000E-002     1.52300704394792     
  1.570000000000000E-002     1.56099636530109     
  1.580000000000000E-002     1.59809382028614     
  1.590000000000000E-002     1.63427481777263     
  1.600000000000000E-002     1.66951573586186     
  1.610000000000000E-002     1.70379388385606     
  1.620000000000000E-002     1.73708750215368     
  1.630000000000000E-002     1.76937572839336     
  1.640000000000000E-002     1.80063880528443     
  1.650000000000000E-002     1.83085787310875     
  1.660000000000000E-002     1.86001518270526     
  1.670000000000000E-002     1.88809364335568     
  1.680000000000000E-002     1.91507765929042     
  1.690000000000000E-002     1.94095247981112     
  1.700000000000000E-002     1.96570460264075     
  1.710000000000000E-002     1.98932120555043     
  1.720000000000000E-002     2.01179074748948     
  1.730000000000000E-002     2.03310292601833     
  1.740000000000000E-002     2.05324837980423     
  1.750000000000000E-002     2.07221882634238     
  1.760000000000000E-002     2.09000730367242     
  1.770000000000000E-002     2.10660758391476     
  1.780000000000000E-002     2.12201493197057     
  1.790000000000000E-002     2.13622567354171     
  1.800000000000000E-002     2.14923700834371     
  1.810000000000000E-002     2.16104731892521     
  1.820000000000000E-002     2.17165622969810     
  1.830000000000000E-002     2.18106435796841     
  1.840000000000000E-002     2.18927326725438     
  1.850000000000000E-002     2.19628562000048     
  1.860000000000000E-002     2.20210543645809     
  1.870000000000000E-002     2.20673732874974     