 -4.000000000000000E-002    0.000000000000000E+000
 -3.990000000000000E-002    0.000000000000000E+000
 -3.980000000000000E-002    0.000000000000000E+000
 -3.970000000000000E-002    0.000000000000000E+000
 -3.960000000000000E-002    0.000000000000000E+000
 -3.950000000000000E-002    0.000000000000000E+000
 -3.940000000000000E-002    0.000000000000000E+000
 -3.930000000000000E-002    0.000000000000000E+000
 -3.920000000000000E-002    0.000000000000000E+000
 -3.910000000000000E-002    0.000000000000000E+000
 -3.900000000000000E-002    0.000000000000000E+000
 -3.890000000000000E-002    0.000000000000000E+000
 -3.880000000000000E-002    0.000000000000000E+000
 -3.870000000000000E-002    0.000000000000000E+000
 -3.860000000000000E-002    0.000000000000000E+000
 -3.850000000000000E-002    0.000000000000000E+000
 -3.840000000000000E-002    0.000000000000000E+000
 -3.830000000000000E-002    0.000000000000000E+000
 -3.820000000000000E-002    0.000000000000000E+000
 -3.810000000000000E-002    0.000000000000000E+000
 -3.800000000000000E-002    0.000000000000000E+000
 -3.790000000000000E-002    0.000000000000000E+000
 -3.780000000000000E-002    0.000000000000000E+000
 -3.770000000000000E-002    0.000000000000000E+000
 -3.760000000000000E-002    0.000000000000000E+000
 -3.750000000000000E-002    0.000000000000000E+000
 -3.740000000000000E-002    0.000000000000000E+000
 -3.730000000000000E-002    0.000000000000000E+000
 -3.720000000000000E-002    0.000000000000000E+000
 -3.710000000000000E-002    0.000000000000000E+000
 -3.700000000000000E-002    0.000000000000000E+000
 -3.690000000000000E-002    0.000000000000000E+000
 -3.680000000000000E-002    0.000000000000000E+000
 -3.670000000000000E-002    0.000000000000000E+000
 -3.660000000000000E-002    0.000000000000000E+000
 -3.650000000000000E-002    0.000000000000000E+000
 -3.640000000000000E-002    0.000000000000000E+000
 -3.630000000000000E-002    0.000000000000000E+000
 -3.620000000000000E-002    0.000000000000000E+000
 -3.610000000000000E-002    0.000000000000000E+000
 -3.600000000000000E-002    0.000000000000000E+000
 -3.590000000000000E-002    0.000000000000000E+000
 -3.580000000000000E-002    0.000000000000000E+000
 -3.570000000000000E-002    0.000000000000000E+000
 -3.560000000000000E-002    0.000000000000000E+000
 -3.550000000000000E-002    0.000000000000000E+000
 -3.540000000000000E-002    0.000000000000000E+000
 -3.530000000000000E-002    0.000000000000000E+000
 -3.520000000000000E-002    0.000000000000000E+000
 -3.510000000000000E-002    0.000000000000000E+000
 -3.500000000000000E-002    0.000000000000000E+000
 -3.490000000000000E-002    0.000000000000000E+000
 -3.480000000000000E-002    0.000000000000000E+000
 -3.470000000000000E-002    0.000000000000000E+000
 -3.460000000000000E-002    0.000000000000000E+000
 -3.450000000000000E-002    0.000000000000000E+000
 -3.440000000000000E-002    0.000000000000000E+000
 -3.430000000000000E-002    0.000000000000000E+000
 -3.420000000000000E-002    0.000000000000000E+000
 -3.410000000000000E-002    0.000000000000000E+000
 -3.400000000000000E-002    0.000000000000000E+000
 -3.390000000000000E-002    0.000000000000000E+000
 -3.380000000000000E-002    0.000000000000000E+000
 -3.370000000000000E-002    0.000000000000000E+000
 -3.360000000000000E-002    0.000000000000000E+000
 -3.350000000000000E-002    0.000000000000000E+000
 -3.340000000000000E-002    0.000000000000000E+000
 -3.330000000000000E-002    0.000000000000000E+000
 -3.320000000000000E-002    0.000000000000000E+000
 -3.310000000000000E-002    0.000000000000000E+000
 -3.300000000000000E-002    0.000000000000000E+000
 -3.290000000000000E-002    0.000000000000000E+000
 -3.280000000000000E-002    0.000000000000000E+000
 -3.270000000000000E-002    0.000000000000000E+000
 -3.260000000000000E-002    0.000000000000000E+000
 -3.250000000000000E-002    0.000000000000000E+000
 -3.240000000000000E-002    0.000000000000000E+000
 -3.230000000000000E-002    0.000000000000000E+000
 -3.220000000000000E-002    0.000000000000000E+000
 -3.210000000000000E-002    0.000000000000000E+000
 -3.200000000000000E-002    0.000000000000000E+000
 -3.190000000000000E-002    0.000000000000000E+000
 -3.180000000000000E-002    0.000000000000000E+000
 -3.170000000000000E-002    0.000000000000000E+000
 -3.160000000000000E-002    0.000000000000000E+000
 -3.150000000000000E-002    0.000000000000000E+000
 -3.140000000000000E-002    0.000000000000000E+000
 -3.130000000000000E-002    0.000000000000000E+000
 -3.120000000000000E-002    0.000000000000000E+000
 -3.110000000000000E-002    0.000000000000000E+000
 -3.100000000000000E-002    0.000000000000000E+000
 -3.090000000000000E-002    0.000000000000000E+000
 -3.080000000000000E-002    0.000000000000000E+000
 -3.070000000000000E-002    0.000000000000000E+000
 -3.060000000000000E-002    0.000000000000000E+000
 -3.050000000000000E-002    0.000000000000000E+000
 -3.040000000000000E-002    0.000000000000000E+000
 -3.030000000000000E-002    0.000000000000000E+000
 -3.020000000000000E-002    0.000000000000000E+000
 -3.010000000000000E-002    0.000000000000000E+000
 -3.000000000000000E-002    0.000000000000000E+000
 -2.990000000000000E-002    0.000000000000000E+000
 -2.980000000000000E-002    0.000000000000000E+000
 -2.970000000000000E-002    0.000000000000000E+000
 -2.960000000000000E-002    0.000000000000000E+000
 -2.950000000000000E-002    0.000000000000000E+000
 -2.940000000000000E-002    0.000000000000000E+000
 -2.930000000000000E-002    0.000000000000000E+000
 -2.920000000000000E-002    0.000000000000000E+000
 -2.910000000000000E-002    0.000000000000000E+000
 -2.900000000000000E-002    0.000000000000000E+000
 -2.890000000000000E-002    0.000000000000000E+000
 -2.880000000000000E-002    0.000000000000000E+000
 -2.870000000000000E-002    0.000000000000000E+000
 -2.860000000000000E-002    0.000000000000000E+000
 -2.850000000000000E-002    0.000000000000000E+000
 -2.840000000000000E-002    0.000000000000000E+000
 -2.830000000000000E-002    0.000000000000000E+000
 -2.820000000000000E-002    0.000000000000000E+000
 -2.810000000000000E-002    0.000000000000000E+000
 -2.800000000000000E-002    0.000000000000000E+000
 -2.790000000000000E-002    0.000000000000000E+000
 -2.780000000000000E-002    0.000000000000000E+000
 -2.770000000000000E-002    0.000000000000000E+000
 -2.760000000000000E-002    0.000000000000000E+000
 -2.750000000000000E-002    0.000000000000000E+000
 -2.740000000000000E-002    0.000000000000000E+000
 -2.730000000000000E-002    0.000000000000000E+000
 -2.720000000000000E-002    0.000000000000000E+000
 -2.710000000000000E-002    0.000000000000000E+000
 -2.700000000000000E-002    0.000000000000000E+000
 -2.690000000000000E-002    0.000000000000000E+000
 -2.680000000000000E-002    0.000000000000000E+000
 -2.670000000000000E-002    0.000000000000000E+000
 -2.660000000000000E-002    0.000000000000000E+000
 -2.650000000000000E-002    0.000000000000000E+000
 -2.640000000000000E-002    0.000000000000000E+000
 -2.630000000000000E-002    0.000000000000000E+000
 -2.620000000000000E-002    0.000000000000000E+000
 -2.610000000000000E-002    0.000000000000000E+000
 -2.600000000000000E-002    0.000000000000000E+000
 -2.590000000000000E-002    0.000000000000000E+000
 -2.580000000000000E-002    0.000000000000000E+000
 -2.570000000000000E-002    0.000000000000000E+000
 -2.560000000000000E-002    0.000000000000000E+000
 -2.550000000000000E-002    0.000000000000000E+000
 -2.540000000000000E-002    0.000000000000000E+000
 -2.530000000000000E-002    0.000000000000000E+000
 -2.520000000000000E-002    0.000000000000000E+000
 -2.510000000000000E-002    0.000000000000000E+000
 -2.500000000000000E-002    0.000000000000000E+000
 -2.490000000000000E-002    0.000000000000000E+000
 -2.480000000000000E-002    0.000000000000000E+000
 -2.470000000000000E-002    0.000000000000000E+000
 -2.460000000000000E-002    0.000000000000000E+000
 -2.450000000000000E-002    0.000000000000000E+000
 -2.440000000000000E-002    0.000000000000000E+000
 -2.430000000000000E-002    0.000000000000000E+000
 -2.420000000000000E-002    0.000000000000000E+000
 -2.410000000000000E-002    0.000000000000000E+000
 -2.400000000000000E-002    0.000000000000000E+000
 -2.390000000000000E-002    0.000000000000000E+000
 -2.380000000000000E-002    0.000000000000000E+000
 -2.370000000000000E-002    0.000000000000000E+000
 -2.360000000000000E-002    0.000000000000000E+000
 -2.350000000000000E-002    0.000000000000000E+000
 -2.340000000000000E-002    0.000000000000000E+000
 -2.330000000000000E-002    0.000000000000000E+000
 -2.320000000000000E-002    0.000000000000000E+000
 -2.310000000000000E-002    0.000000000000000E+000
 -2.300000000000000E-002    0.000000000000000E+000
 -2.290000000000000E-002    0.000000000000000E+000
 -2.280000000000000E-002    0.000000000000000E+000
 -2.270000000000000E-002    0.000000000000000E+000
 -2.260000000000000E-002    0.000000000000000E+000
 -2.250000000000000E-002    0.000000000000000E+000
 -2.240000000000000E-002    0.000000000000000E+000
 -2.230000000000000E-002    0.000000000000000E+000
 -2.220000000000000E-002    0.000000000000000E+000
 -2.210000000000000E-002    0.000000000000000E+000
 -2.200000000000000E-002    0.000000000000000E+000
 -2.190000000000000E-002    0.000000000000000E+000
 -2.180000000000000E-002    0.000000000000000E+000
 -2.170000000000000E-002    0.000000000000000E+000
 -2.160000000000000E-002    0.000000000000000E+000
 -2.150000000000000E-002    0.000000000000000E+000
 -2.140000000000000E-002    0.000000000000000E+000
 -2.130000000000000E-002    0.000000000000000E+000
 -2.120000000000000E-002    0.000000000000000E+000
 -2.110000000000000E-002    0.000000000000000E+000
 -2.100000000000000E-002    0.000000000000000E+000
 -2.090000000000000E-002    0.000000000000000E+000
 -2.080000000000000E-002    0.000000000000000E+000
 -2.070000000000000E-002    0.000000000000000E+000
 -2.060000000000000E-002    0.000000000000000E+000
 -2.050000000000000E-002    0.000000000000000E+000
 -2.040000000000000E-002    0.000000000000000E+000
 -2.030000000000000E-002    0.000000000000000E+000
 -2.020000000000000E-002    0.000000000000000E+000
 -2.010000000000000E-002    0.000000000000000E+000
 -2.000000000000000E-002    0.000000000000000E+000
 -1.990000000000000E-002    0.000000000000000E+000
 -1.980000000000000E-002    0.000000000000000E+000
 -1.970000000000000E-002    0.000000000000000E+000
 -1.960000000000000E-002    0.000000000000000E+000
 -1.950000000000000E-002    0.000000000000000E+000
 -1.940000000000000E-002    0.000000000000000E+000
 -1.930000000000000E-002    0.000000000000000E+000
 -1.920000000000000E-002    0.000000000000000E+000
 -1.910000000000000E-002    0.000000000000000E+000
 -1.900000000000000E-002    0.000000000000000E+000
 -1.890000000000000E-002    0.000000000000000E+000
 -1.880000000000000E-002    0.000000000000000E+000
 -1.870000000000000E-002    0.000000000000000E+000
 -1.860000000000000E-002    0.000000000000000E+000
 -1.850000000000000E-002    0.000000000000000E+000
 -1.840000000000000E-002    0.000000000000000E+000
 -1.830000000000000E-002    0.000000000000000E+000
 -1.820000000000000E-002    0.000000000000000E+000
 -1.810000000000000E-002    0.000000000000000E+000
 -1.800000000000000E-002    0.000000000000000E+000
 -1.790000000000000E-002    0.000000000000000E+000
 -1.780000000000000E-002    0.000000000000000E+000
 -1.770000000000000E-002    0.000000000000000E+000
 -1.760000000000000E-002    0.000000000000000E+000
 -1.750000000000000E-002    0.000000000000000E+000
 -1.740000000000000E-002    0.000000000000000E+000
 -1.730000000000000E-002    0.000000000000000E+000
 -1.720000000000000E-002    0.000000000000000E+000
 -1.710000000000000E-002    0.000000000000000E+000
 -1.700000000000000E-002    0.000000000000000E+000
 -1.690000000000000E-002    0.000000000000000E+000
 -1.680000000000000E-002    0.000000000000000E+000
 -1.670000000000000E-002    0.000000000000000E+000
 -1.660000000000000E-002    0.000000000000000E+000
 -1.650000000000000E-002    0.000000000000000E+000
 -1.640000000000000E-002    0.000000000000000E+000
 -1.630000000000000E-002    0.000000000000000E+000
 -1.620000000000000E-002    0.000000000000000E+000
 -1.610000000000000E-002    0.000000000000000E+000
 -1.600000000000000E-002    0.000000000000000E+000
 -1.590000000000000E-002    0.000000000000000E+000
 -1.580000000000000E-002    0.000000000000000E+000
 -1.570000000000000E-002    0.000000000000000E+000
 -1.560000000000000E-002    0.000000000000000E+000
 -1.550000000000000E-002    0.000000000000000E+000
 -1.540000000000000E-002    0.000000000000000E+000
 -1.530000000000000E-002    0.000000000000000E+000
 -1.520000000000000E-002    0.000000000000000E+000
 -1.510000000000000E-002    0.000000000000000E+000
 -1.500000000000000E-002    0.000000000000000E+000
 -1.490000000000000E-002    0.000000000000000E+000
 -1.480000000000000E-002    0.000000000000000E+000
 -1.470000000000000E-002    0.000000000000000E+000
 -1.460000000000000E-002    0.000000000000000E+000
 -1.450000000000000E-002    0.000000000000000E+000
 -1.440000000000000E-002    0.000000000000000E+000
 -1.430000000000000E-002    0.000000000000000E+000
 -1.420000000000000E-002    0.000000000000000E+000
 -1.410000000000000E-002    0.000000000000000E+000
 -1.400000000000000E-002    0.000000000000000E+000
 -1.390000000000000E-002    0.000000000000000E+000
 -1.380000000000000E-002    0.000000000000000E+000
 -1.370000000000000E-002    0.000000000000000E+000
 -1.360000000000000E-002    0.000000000000000E+000
 -1.350000000000000E-002    0.000000000000000E+000
 -1.340000000000000E-002    0.000000000000000E+000
 -1.330000000000000E-002    0.000000000000000E+000
 -1.320000000000000E-002    0.000000000000000E+000
 -1.310000000000000E-002    0.000000000000000E+000
 -1.300000000000000E-002    0.000000000000000E+000
 -1.290000000000000E-002    0.000000000000000E+000
 -1.280000000000000E-002    0.000000000000000E+000
 -1.270000000000000E-002    0.000000000000000E+000
 -1.260000000000000E-002    0.000000000000000E+000
 -1.250000000000000E-002    0.000000000000000E+000
 -1.240000000000000E-002    0.000000000000000E+000
 -1.230000000000000E-002    0.000000000000000E+000
 -1.220000000000000E-002    0.000000000000000E+000
 -1.210000000000000E-002    0.000000000000000E+000
 -1.200000000000000E-002    0.000000000000000E+000
 -1.190000000000000E-002    0.000000000000000E+000
 -1.180000000000000E-002    0.000000000000000E+000
 -1.170000000000000E-002    0.000000000000000E+000
 -1.160000000000000E-002    0.000000000000000E+000
 -1.150000000000000E-002    0.000000000000000E+000
 -1.140000000000000E-002    0.000000000000000E+000
 -1.130000000000000E-002    0.000000000000000E+000
 -1.120000000000000E-002    0.000000000000000E+000
 -1.110000000000000E-002    0.000000000000000E+000
 -1.100000000000000E-002    0.000000000000000E+000
 -1.090000000000000E-002    0.000000000000000E+000
 -1.080000000000000E-002    0.000000000000000E+000
 -1.070000000000000E-002    0.000000000000000E+000
 -1.060000000000000E-002    0.000000000000000E+000
 -1.050000000000000E-002    0.000000000000000E+000
 -1.040000000000000E-002    0.000000000000000E+000
 -1.030000000000000E-002    0.000000000000000E+000
 -1.020000000000000E-002    0.000000000000000E+000
 -1.010000000000000E-002    0.000000000000000E+000
 -1.000000000000000E-002    0.000000000000000E+000
 -9.899999999999999E-003    0.000000000000000E+000
 -9.800000000000000E-003    0.000000000000000E+000
 -9.699999999999999E-003    0.000000000000000E+000
 -9.599999999999999E-003    0.000000000000000E+000
 -9.500000000000000E-003    0.000000000000000E+000
 -9.399999999999999E-003    0.000000000000000E+000
 -9.299999999999999E-003    0.000000000000000E+000
 -9.200000000000000E-003    0.000000000000000E+000
 -9.099999999999999E-003    0.000000000000000E+000
 -8.999999999999999E-003    0.000000000000000E+000
 -8.900000000000000E-003    0.000000000000000E+000
 -8.799999999999999E-003    0.000000000000000E+000
 -8.699999999999999E-003    0.000000000000000E+000
 -8.600000000000000E-003    0.000000000000000E+000
 -8.499999999999999E-003   -6.414635304221270E-048
 -8.399999999999999E-003   -1.282927060844254E-047
 -8.300000000000000E-003    2.914641759724954E-047
 -8.199999999999999E-003    5.401641165835157E-047
 -8.100000000000000E-003    5.401641165835157E-047
 -8.000000000000000E-003    6.043104696257284E-047
 -7.899999999999999E-003    5.072874793232647E-047
 -7.800000000000000E-003    3.546709830508834E-047
 -7.699999999999999E-003    3.888301689043195E-048
 -7.599999999999999E-003   -6.552323469943943E-047
 -7.499999999999999E-003   -9.295908288222996E-047
 -7.399999999999999E-003   -1.363511732516592E-046
 -7.299999999999999E-003   -2.099400092841585E-047
 -7.199999999999999E-003    8.059749206348744E-047
 -7.100000000000000E-003    2.483400747627843E-046
 -6.999999999999999E-003    7.259626665901643E-046
 -6.899999999999999E-003    1.096313770306471E-045
 -6.800000000000000E-003    1.460717401578681E-045
 -6.699999999999999E-003    1.449210583632376E-045
 -6.599999999999999E-003    1.144862191126774E-045
 -6.499999999999999E-003    7.780162359464939E-047
 -6.399999999999999E-003   -3.639316658882321E-046
 -6.299999999999999E-003   -2.149622129973104E-045
 -6.199999999999999E-003   -4.205568169983494E-045
 -6.100000000000000E-003   -6.213939133755115E-045
 -5.999999999999999E-003   -7.447289731912193E-045
 -5.899999999999999E-003   -7.654161344239409E-045
 -5.800000000000000E-003   -6.582256768636058E-045
 -5.699999999999999E-003   -3.704624354494759E-045
 -5.599999999999999E-003    1.610630604679262E-045
 -5.499999999999999E-003    8.519558273136901E-045
 -5.399999999999999E-003    1.716582613998471E-044
 -5.299999999999999E-003    2.591834954356246E-044
 -5.199999999999999E-003    3.263701102492081E-044
 -5.099999999999999E-003    3.538672545978067E-044
 -4.999999999999999E-003    3.199801801136307E-044
 -4.899999999999999E-003    2.005398616568633E-044
 -4.799999999999999E-003   -2.342364335744931E-045
 -4.699999999999999E-003   -3.463210288941702E-044
 -4.599999999999999E-003   -7.373003880078250E-044
 -4.499999999999999E-003   -1.151688676261210E-043
 -4.399999999999999E-003   -1.494483889625129E-043
 -4.299999999999999E-003   -1.649272704965488E-043
 -4.199999999999999E-003   -1.504411820337161E-043
 -4.099999999999999E-003   -9.528356943274298E-044
 -3.999999999999999E-003    7.552824696201619E-045
 -3.899999999999999E-003    1.576391521629167E-043
 -3.799999999999999E-003    3.420281341548559E-043
 -3.699999999999999E-003    5.349504674233512E-043
 -3.599999999999999E-003    6.959760568628556E-043
 -3.499999999999999E-003    7.746596702899750E-043
 -3.399999999999999E-003    7.148769303469183E-043
 -3.299999999999999E-003    4.659753544707931E-043
 -3.199999999999999E-003   -1.746477432491728E-045
 -3.099999999999999E-003   -6.832330602430352E-043
 -2.999999999999999E-003   -1.522572453076669E-042
 -2.899999999999999E-003   -2.402549447965236E-042
 -2.799999999999999E-003   -3.144370560301311E-042
 -2.699999999999999E-003   -3.518664983686768E-042
 -2.599999999999999E-003   -3.275118713015085E-042
 -2.499999999999999E-003   -2.193519617012984E-042
 -2.399999999999999E-003   -1.380266828368759E-043
 -2.299999999999999E-003    2.864660517791322E-042
 -2.199999999999999E-003    6.567467666508920E-042
 -2.099999999999999E-003    1.045743193103166E-041
 -1.999999999999999E-003    1.375375404674631E-041
 -1.899999999999999E-003    1.546339812987162E-041
 -1.799999999999999E-003    1.451067386220941E-041
 -1.699999999999999E-003    9.941366612350224E-042
 -1.599999999999999E-003    1.187842408313551E-042
 -1.499999999999999E-003   -1.164121369617472E-041
 -1.399999999999999E-003   -2.748656817650407E-041
 -1.299999999999999E-003   -4.416829493140955E-041
 -1.199999999999999E-003   -5.838556262686956E-041
 -1.099999999999999E-003   -6.596351771986004E-041
 -9.999999999999989E-004   -6.240027939765750E-041
 -8.999999999999990E-004   -4.372176415538722E-041
 -7.999999999999990E-004   -7.574318743464197E-042
 -6.999999999999989E-004    4.557280818764776E-041
 -5.999999999999990E-004    1.113399318177893E-040
 -4.999999999999989E-004    1.807541371127837E-040
 -3.999999999999989E-004    2.402866820610097E-040
 -2.999999999999989E-004    2.729039337053881E-040
 -1.999999999999989E-004    2.603180925509251E-040
 -9.999999999999892E-005    1.864467030810046E-040
  1.084202172485504E-018    4.181413537329052E-041
  1.000000000000011E-004   -1.716696025757821E-040
  2.000000000000011E-004   -4.364498277524232E-040
  3.000000000000011E-004   -7.167187400360596E-040
  4.000000000000011E-004   -9.587026224616416E-040
  5.000000000000011E-004   -1.094954046435399E-039
  6.000000000000011E-004   -1.053331869864694E-039
  7.000000000000011E-004   -7.706220610882335E-040
  8.000000000000011E-004   -2.097071432432840E-040
  9.000000000000012E-004    6.219897301467245E-040
  1.000000000000001E-003    1.656271213491066E-039
  1.100000000000001E-003    2.754507390456510E-039
  1.200000000000001E-003    3.709234237089872E-039
  1.300000000000001E-003    4.261125640260141E-039
  1.400000000000001E-003    4.133747829750537E-039
  1.500000000000001E-003    3.085638484893704E-039
  1.600000000000001E-003    9.753459193510839E-040
  1.700000000000001E-003   -2.169397279655356E-039
  1.800000000000001E-003   -6.091526958679136E-039
  1.900000000000001E-003   -1.026985192983143E-038
  2.000000000000001E-003   -1.392680079085390E-038
  2.100000000000001E-003   -1.609349384780803E-038
  2.200000000000001E-003   -1.574031344882496E-038
  2.300000000000001E-003   -1.197042858143210E-038
  2.400000000000001E-003   -4.259295938679722E-039
  2.500000000000001E-003    7.292989137697122E-039
  2.600000000000001E-003    2.174494274693583E-038
  2.700000000000001E-003    3.719171778531631E-038
  2.800000000000001E-003    5.079941007277318E-038
  2.900000000000001E-003    5.904716808507524E-038
  3.000000000000001E-003    5.820412316397541E-038
  3.100000000000001E-003    4.502887645882406E-038
  3.200000000000001E-003    1.762764615403238E-038
  3.300000000000001E-003   -2.364961663920189E-038
  3.400000000000001E-003   -7.544857618260882E-038
  3.500000000000001E-003   -1.309943309537662E-037
  3.600000000000001E-003   -1.802333653203608E-037
  3.700000000000001E-003   -2.107091181637996E-037
  3.800000000000001E-003   -2.092570280092038E-037
  3.900000000000001E-003   -1.644658309944332E-037
  4.000000000000001E-003   -6.967248102903345E-038
  4.100000000000001E-003    7.393748951161007E-038
  4.200000000000001E-003    2.547283289203751E-037
  4.300000000000001E-003    4.492295117053487E-037
  4.400000000000001E-003    6.226930986003935E-037
  4.500000000000001E-003    7.321724615912983E-037
  4.600000000000002E-003    7.323898174854928E-037
  4.700000000000001E-003    5.841748244968559E-037
  4.800000000000001E-003    2.646532429120185E-037
  4.900000000000002E-003   -2.222923984073623E-037
  5.000000000000001E-003   -8.373411030510739E-037
  5.100000000000001E-003   -1.501239439742816E-036
  5.200000000000001E-003   -2.096887213624349E-036
  5.300000000000002E-003   -2.479875777620938E-036
  5.400000000000001E-003   -2.498278598676323E-036
  5.500000000000001E-003   -2.020868541995485E-036
  5.600000000000002E-003   -9.709286274845165E-037
  5.700000000000001E-003    6.393015953353962E-037
  5.800000000000001E-003    2.680337526199881E-036
  5.900000000000002E-003    4.891190700693306E-036
  6.000000000000001E-003    6.886849078528457E-036
  6.100000000000001E-003    8.193413058271542E-036
  6.200000000000002E-003    8.313183073529835E-036
  6.300000000000002E-003    6.816726147169540E-036
  6.400000000000001E-003    3.452401399663821E-036
  6.500000000000001E-003   -1.742855342621707E-036
  6.600000000000002E-003   -8.353444068485820E-036
  6.700000000000001E-003   -1.554083302282303E-035
  6.800000000000001E-003   -2.206938382929331E-035
  6.900000000000002E-003   -2.642046967219390E-035
  7.000000000000001E-003   -2.700137833154160E-035
  7.100000000000001E-003   -2.243853590769262E-035
  7.200000000000002E-003   -1.192408702252194E-035
  7.300000000000002E-003    4.435911296516550E-036
  7.400000000000001E-003    2.534094587501516E-035
  7.500000000000001E-003    4.816144605779674E-035
  7.600000000000002E-003    6.902474345065398E-035
  7.700000000000001E-003    8.317655971214744E-035
  7.800000000000001E-003    8.563547781826997E-035
  7.900000000000001E-003    7.210518792599049E-035
  8.000000000000002E-003    4.004641318295369E-035
  8.100000000000001E-003   -1.025314317026336E-035
  8.200000000000001E-003   -7.482394628115860E-035
  8.300000000000002E-003   -1.456133109695363E-034
  8.400000000000001E-003   -2.107626289046945E-034
  8.500000000000002E-003   -2.557242927084849E-034
  8.600000000000002E-003   -2.652646694061283E-034
  8.700000000000001E-003   -2.262382802194946E-034
  8.800000000000002E-003   -1.308291334794840E-034
  8.900000000000002E-003    2.023258340059061E-035
  9.000000000000001E-003    2.151200896723914E-034
  9.100000000000002E-003    4.297374601150717E-034
  9.200000000000002E-003    6.285857031294478E-034
  9.300000000000001E-003    7.681332667633053E-034
  9.400000000000002E-003    8.028077145499016E-034
  9.500000000000001E-003    6.932468365573048E-034
  9.600000000000001E-003    4.158887456329306E-034
  9.700000000000002E-003   -2.756193849116292E-035
  9.800000000000001E-003   -6.026821705097941E-034
  9.900000000000001E-003   -1.238966676033226E-033
  1.000000000000000E-002   -1.832458948938078E-033
  1.010000000000000E-002   -2.255692058552823E-033
  1.020000000000000E-002   -2.375220094508233E-033
  1.030000000000000E-002   -2.075632137236633E-033
  1.040000000000000E-002   -1.287336201872885E-033
  1.050000000000000E-002   -1.384351165269334E-035
  1.060000000000000E-002    1.646888569625662E-033
  1.070000000000000E-002    3.492982224274328E-033
  1.080000000000000E-002    5.226413655811539E-033
  1.090000000000000E-002    6.481683493876912E-033
  1.100000000000000E-002    6.876027211125426E-033
  1.110000000000000E-002    6.077866981731990E-033
  1.120000000000000E-002    3.885657247478239E-033
  1.130000000000000E-002    3.049807167151414E-034
  1.140000000000000E-002   -4.391495403118681E-033
  1.150000000000000E-002   -9.637776418579932E-033
  1.160000000000000E-002   -1.459691456836839E-032
  1.170000000000000E-002   -1.824189833678695E-032
  1.180000000000000E-002   -1.949650943200384E-032
  1.190000000000000E-002   -1.742648339621363E-032
  1.200000000000000E-002   -1.145889094435379E-032
  1.210000000000000E-002   -1.595789303899595E-033
  1.220000000000000E-002    1.142041034861229E-032
  1.230000000000000E-002    2.603534364145303E-032
  1.240000000000000E-002    3.994543361121268E-032
  1.250000000000000E-002    5.032120303737524E-032
  1.260000000000000E-002    5.419436401049393E-032
  1.270000000000000E-002    4.898126087638640E-032
  1.280000000000000E-002    3.308151638736028E-032
  1.290000000000000E-002    6.459159611893562E-033
  1.300000000000000E-002   -2.890926168935536E-032
  1.310000000000000E-002   -6.884206977765771E-032
  1.320000000000000E-002   -1.071235097454054E-031
  1.330000000000000E-002   -1.361074097519183E-031
  1.340000000000000E-002   -1.477595707447331E-031
  1.350000000000000E-002   -1.350633306514167E-031
  1.360000000000000E-002   -9.362252781575097E-032
  1.370000000000000E-002   -2.321358215264282E-032
  1.380000000000000E-002    7.102081928163220E-032
  1.390000000000000E-002    1.780601064109877E-031
  1.400000000000000E-002    2.814595649733941E-031
  1.410000000000000E-002    3.609479126644146E-031
  1.420000000000000E-002    3.951789859580257E-031
  1.430000000000000E-002    3.654336528203177E-031
  1.440000000000000E-002    2.598331580403070E-031
  1.450000000000000E-002    7.741058202229518E-032
  1.460000000000000E-002   -1.687619974387721E-031
  1.470000000000000E-002   -4.502308932774785E-031
  1.480000000000000E-002   -7.243330114467563E-031
  1.490000000000000E-002   -9.383349460742471E-031
  1.500000000000000E-002   -1.036555358009940E-030
  1.510000000000000E-002   -9.699329486710647E-031
  1.520000000000000E-002   -7.068990226192172E-031
  1.530000000000000E-002   -2.438719943108459E-031
  1.540000000000000E-002    3.866845587126083E-031
  1.550000000000000E-002    1.112782177303822E-030
  1.560000000000000E-002    1.825854246626993E-030
  1.570000000000000E-002    2.391263627157987E-030
  1.580000000000000E-002    2.666385018314763E-030
  1.590000000000000E-002    2.524878391068223E-030
  1.600000000000000E-002    1.884247947118230E-030
  1.610000000000000E-002    7.324276007292496E-031
  1.620000000000000E-002   -8.517883024096336E-031
  1.630000000000000E-002   -2.689835101499925E-030
  1.640000000000000E-002   -4.510597754608843E-030
  1.650000000000000E-002   -5.976548626763951E-030
  1.660000000000000E-002   -6.728807240326168E-030
  1.670000000000000E-002   -6.447616285521242E-030
  1.680000000000000E-002   -4.920979821418776E-030
  1.690000000000000E-002   -2.110890217309674E-030
  1.700000000000000E-002    1.795679103932793E-030
  1.710000000000000E-002    6.364244254609791E-030
  1.720000000000000E-002    1.093002784729176E-029
  1.730000000000000E-002    1.466173060117285E-029
  1.740000000000000E-002    1.667176236321603E-029
  1.750000000000000E-002    1.616427666309480E-029
  1.760000000000000E-002    1.260327785498270E-029
  1.770000000000000E-002    5.874907228065596E-030
  1.780000000000000E-002   -3.587209984821683E-030
  1.790000000000000E-002   -1.474563317960542E-029
  1.800000000000000E-002   -2.599906109064456E-029
  1.810000000000000E-002   -3.533490458486751E-029
  1.820000000000000E-002   -4.059417227378703E-029
  1.830000000000000E-002   -3.982769180764702E-029
  1.840000000000000E-002   -3.170099277034649E-029
  1.850000000000000E-002   -1.588584366885986E-029
  1.860000000000000E-002    6.636078443493758E-030
  1.870000000000000E-002    3.343388972025140E-029