 -4.000000000000000E-002    0.000000000000000E+000
 -3.990000000000000E-002    0.000000000000000E+000
 -3.980000000000000E-002    0.000000000000000E+000
 -3.970000000000000E-002    0.000000000000000E+000
 -3.960000000000000E-002    0.000000000000000E+000
 -3.950000000000000E-002    0.000000000000000E+000
 -3.940000000000000E-002    0.000000000000000E+000
 -3.930000000000000E-002    0.000000000000000E+000
 -3.920000000000000E-002    0.000000000000000E+000
 -3.910000000000000E-002    0.000000000000000E+000
 -3.900000000000000E-002    0.000000000000000E+000
 -3.890000000000000E-002    0.000000000000000E+000
 -3.880000000000000E-002    0.000000000000000E+000
 -3.870000000000000E-002    0.000000000000000E+000
 -3.860000000000000E-002    0.000000000000000E+000
 -3.850000000000000E-002    3.834920089019891E-044
 -3.840000000000000E-002    1.088750889227681E-042
 -3.830000000000000E-002    1.576526787516064E-041
 -3.820000000000000E-002    1.551124932648854E-040
 -3.810000000000000E-002    1.164167345854111E-039
 -3.800000000000000E-002    7.094992217399999E-039
 -3.790000000000000E-002    3.649350298012722E-038
 -3.780000000000000E-002    1.625382981023079E-037
 -3.770000000000000E-002    6.380701821087222E-037
 -3.760000000000000E-002    2.234965068803973E-036
 -3.750000000000000E-002    7.040839680188839E-036
 -3.740000000000000E-002    2.003058703152627E-035
 -3.730000000000000E-002    5.144323486404367E-035
 -3.720000000000000E-002    1.184744024373336E-034
 -3.710000000000000E-002    2.401955153819653E-034
 -3.700000000000000E-002    4.088201033872782E-034
 -3.690000000000000E-002    4.996368672623565E-034
 -3.680000000000000E-002    4.945854825188554E-035
 -3.670000000000000E-002   -2.202872348609075E-033
 -3.660000000000000E-002   -9.129211086028528E-033
 -3.650000000000000E-002   -2.639927797278477E-032
 -3.640000000000000E-002   -6.372581737596862E-032
 -3.630000000000000E-002   -1.350608056887089E-031
 -3.620000000000000E-002   -2.551648537587018E-031
 -3.610000000000000E-002   -4.277316213912282E-031
 -3.600000000000000E-002   -6.176094314391723E-031
 -3.590000000000000E-002   -6.979659793066735E-031
 -3.580000000000000E-002   -3.654220534331499E-031
 -3.570000000000000E-002    9.727538570792212E-031
 -3.560000000000000E-002    4.308502538034907E-030
 -3.550000000000000E-002    1.105954944460511E-029
 -3.540000000000000E-002    2.285763197555638E-029
 -3.530000000000000E-002    4.085258801920181E-029
 -3.520000000000000E-002    6.421181038551501E-029
 -3.510000000000000E-002    8.750198133274090E-029
 -3.500000000000000E-002    9.683637221508383E-029
 -3.490000000000000E-002    6.519574511705728E-029
 -3.480000000000000E-002   -5.167871685361691E-029
 -3.470000000000000E-002   -3.159060973970755E-028
 -3.460000000000000E-002   -7.997809542148023E-028
 -3.450000000000000E-002   -1.563159224112823E-027
 -3.440000000000000E-002   -2.608578797089685E-027
 -3.430000000000000E-002   -3.808715915488422E-027
 -3.420000000000000E-002   -4.807378142603237E-027
 -3.410000000000000E-002   -4.908478640723558E-027
 -3.400000000000000E-002   -2.988392918288907E-027
 -3.390000000000000E-002    2.505448315029306E-027
 -3.380000000000000E-002    1.337817154817573E-026
 -3.370000000000000E-002    3.122246908387952E-026
 -3.360000000000000E-002    5.656140045774364E-026
 -3.350000000000000E-002    8.755085721929039E-026
 -3.340000000000000E-002    1.183196933986574E-025
 -3.330000000000000E-002    1.372367665974044E-025
 -3.320000000000000E-002    1.256847421121388E-025
 -3.310000000000000E-002    5.824979548960227E-026
 -3.300000000000000E-002   -9.448507424936136E-026
 -3.290000000000000E-002   -3.592709611924810E-025
 -3.280000000000000E-002   -7.486754842599834E-025
 -3.270000000000000E-002   -1.244627647765026E-024
 -3.260000000000000E-002   -1.778557397965465E-024
 -3.250000000000000E-002   -2.212031780348730E-024
 -3.240000000000000E-002   -2.324668093480262E-024
 -3.230000000000000E-002   -1.818912772907950E-024
 -3.220000000000000E-002   -3.530154434648059E-025
 -3.210000000000000E-002    2.387129109068875E-024
 -3.200000000000000E-002    6.571154887378215E-024
 -3.190000000000000E-002    1.206602457729318E-023
 -3.180000000000000E-002    1.825544735716894E-023
 -3.170000000000000E-002    2.387593472414822E-023
 -3.160000000000000E-002    2.693012661392629E-023
 -3.150000000000000E-002    2.475554897280310E-023
 -3.140000000000000E-002    1.433249071705650E-023
 -3.130000000000000E-002   -7.101206851951718E-024
 -3.120000000000000E-002   -4.110664417669848E-023
 -3.110000000000000E-002   -8.683113261001668E-023
 -3.100000000000000E-002   -1.397000371273861E-022
 -3.090000000000000E-002   -1.903210319120087E-022
 -3.080000000000000E-002   -2.240356403787444E-022
 -3.070000000000000E-002   -2.216321740467701E-022
 -3.060000000000000E-002   -1.617159252805382E-022
 -3.050000000000000E-002   -2.506500226596067E-023
 -3.040000000000000E-002    1.990528058873914E-022
 -3.030000000000000E-002    5.051725789593781E-022
 -3.020000000000000E-002    8.637984828076382E-022
 -3.010000000000000E-002    1.215441120392003E-021
 -3.000000000000000E-002    1.469118705211485E-021
 -2.990000000000000E-002    1.508137460574271E-021
 -2.980000000000000E-002    1.205561322502155E-021
 -2.970000000000000E-002    4.505320514425617E-022
 -2.960000000000000E-002   -8.156017479192789E-022
 -2.950000000000000E-002   -2.557440894126199E-021
 -2.940000000000000E-002   -4.605614981271373E-021
 -2.930000000000000E-002   -6.629771431047182E-021
 -2.920000000000000E-002   -8.137668508610137E-021
 -2.910000000000000E-002   -8.513499072222483E-021
 -2.900000000000000E-002   -7.105177543079701E-021
 -2.890000000000000E-002   -3.362856323652979E-021
 -2.880000000000000E-002    2.980612847866314E-021
 -2.870000000000000E-002    1.171120231468836E-020
 -2.860000000000000E-002    2.195667444684687E-020
 -2.850000000000000E-002    3.208339452570920E-020
 -2.840000000000000E-002    3.972543631465841E-020
 -2.830000000000000E-002    4.199902677440801E-020
 -2.820000000000000E-002    3.593471791100811E-020
 -2.810000000000000E-002    1.912230176264340E-020
 -2.800000000000000E-002   -9.489010323868020E-021
 -2.790000000000000E-002   -4.875396275852959E-020
 -2.780000000000000E-002   -9.463629022899664E-020
 -2.770000000000000E-002   -1.398759917996600E-019
 -2.760000000000000E-002   -1.742477394252923E-019
 -2.750000000000000E-002   -1.855980067478240E-019
 -2.740000000000000E-002   -1.617466661280216E-019
 -2.730000000000000E-002   -9.317600849475708E-020
 -2.720000000000000E-002    2.377973862389292E-020
 -2.710000000000000E-002    1.837591956873638E-019
 -2.700000000000000E-002    3.699272905720058E-019
 -2.690000000000000E-002    5.530872690674521E-019
 -2.680000000000000E-002    6.931534656010822E-019
 -2.670000000000000E-002    7.435690198309986E-019
 -2.660000000000000E-002    6.588214726869568E-019
 -2.650000000000000E-002    4.045836402892677E-019
 -2.640000000000000E-002   -3.074610589113913E-020
 -2.630000000000000E-002   -6.250859415843175E-019
 -2.620000000000000E-002   -1.314873218620406E-018
 -2.610000000000000E-002   -1.993249044607835E-018
 -2.600000000000000E-002   -2.516761523183808E-018
 -2.590000000000000E-002   -2.722187611591582E-018
 -2.580000000000000E-002   -2.453463274243241E-018
 -2.570000000000000E-002   -1.596547727931655E-018
 -2.560000000000000E-002   -1.176113802112213E-019
 -2.550000000000000E-002    1.902336734682419E-018
 -2.540000000000000E-002    4.244835270972446E-018
 -2.530000000000000E-002    6.552116403247228E-018
 -2.520000000000000E-002    8.353287953772051E-018
 -2.510000000000000E-002    9.122353187477657E-018
 -2.500000000000000E-002    8.366457947134671E-018
 -2.490000000000000E-002    5.735962663097458E-018
 -2.480000000000000E-002    1.140733904769871E-018
 -2.470000000000000E-002   -5.149157919473653E-018
 -2.460000000000000E-002   -1.244375666830233E-017
 -2.450000000000000E-002   -1.963943100827965E-017
 -2.440000000000000E-002   -2.531001485908904E-017
 -2.430000000000000E-002   -2.789037542924849E-017
 -2.420000000000000E-002   -2.594335828794322E-017
 -2.410000000000000E-002   -1.848144972501498E-017
 -2.400000000000000E-002   -5.294929446159836E-018
 -2.390000000000000E-002    1.277716609845509E-017
 -2.380000000000000E-002    3.370402377718385E-017
 -2.370000000000000E-002    5.431342190344534E-017
 -2.360000000000000E-002    7.058103051403693E-017
 -2.350000000000000E-002    7.816938179926536E-017
 -2.340000000000000E-002    7.318060365974171E-017
 -2.330000000000000E-002    5.303458374018428E-017
 -2.320000000000000E-002    1.733491712207188E-017
 -2.310000000000000E-002   -3.145031538584352E-017
 -2.300000000000000E-002   -8.767653969196711E-017
 -2.290000000000000E-002   -1.427401733079296E-016
 -2.280000000000000E-002   -1.859257243127602E-016
 -2.270000000000000E-002   -2.058861207572330E-016
 -2.260000000000000E-002   -1.926377093663272E-016
 -2.250000000000000E-002   -1.398203276711319E-016
 -2.240000000000000E-002   -4.685687430706199E-017
 -2.230000000000000E-002    7.942761595985316E-017
 -2.220000000000000E-002    2.241754329746791E-016
 -2.210000000000000E-002    3.652256779307487E-016
 -2.200000000000000E-002    4.754076942726368E-016
 -2.190000000000000E-002    5.263550878565356E-016
 -2.180000000000000E-002    4.934959760810812E-016
 -2.170000000000000E-002    3.615689431420555E-016
 -2.160000000000000E-002    1.297562529728012E-016
 -2.150000000000000E-002   -1.846188741227948E-016
 -2.140000000000000E-002   -5.448654706455073E-016
 -2.130000000000000E-002   -8.969828251423090E-016
 -2.120000000000000E-002   -1.175394357770190E-015
 -2.110000000000000E-002   -1.312153785529133E-015
 -2.100000000000000E-002   -1.248728481652314E-015
 -2.090000000000000E-002   -9.487832186430717E-016
 -2.080000000000000E-002   -4.098497040407240E-016
 -2.070000000000000E-002    3.285012405322108E-016
 -2.060000000000000E-002    1.182250383835937E-015
 -2.050000000000000E-002    2.027990866425448E-015
 -2.040000000000000E-002    2.716173642537774E-015
 -2.030000000000000E-002    3.091914546662372E-015
 -2.020000000000000E-002    3.021236293908611E-015
 -2.010000000000000E-002    2.419187763758657E-015
 -2.000000000000000E-002    1.275201166044300E-015
 -1.990000000000000E-002   -3.294122497627396E-016
 -1.980000000000000E-002   -2.216562049860723E-015
 -1.970000000000000E-002   -4.122510653876215E-015
 -1.960000000000000E-002   -5.726306563980953E-015
 -1.950000000000000E-002   -6.693957017985133E-015
 -1.940000000000000E-002   -6.733680454341644E-015
 -1.930000000000000E-002   -5.654703649625956E-015
 -1.920000000000000E-002   -3.419989858912681E-015
 -1.910000000000000E-002   -1.825093021145849E-016
 -1.900000000000000E-002    3.704420131374721E-015
 -1.890000000000000E-002    7.709433209431988E-015
 -1.880000000000000E-002    1.118031468054559E-014
 -1.870000000000000E-002    1.343269460617841E-014
 -1.860000000000000E-002    1.386073098169698E-014
 -1.850000000000000E-002    1.205474816710459E-014
 -1.840000000000000E-002    7.906872042120603E-015
 -1.830000000000000E-002    1.684391531531690E-015
 -1.820000000000000E-002   -5.947464857772582E-015
 -1.810000000000000E-002   -1.396620232064365E-014
 -1.800000000000000E-002   -2.110043586857881E-014
 -1.790000000000000E-002   -2.599942174361741E-014
 -1.780000000000000E-002   -2.744567529718441E-014
 -1.770000000000000E-002   -2.458223079402089E-014
 -1.760000000000000E-002   -1.711878890772873E-014
 -1.750000000000000E-002   -5.478604334146779E-015
 -1.740000000000000E-002    9.148503702403712E-015
 -1.730000000000000E-002    2.487159295595619E-014
 -1.720000000000000E-002    3.929135307809891E-014
 -1.710000000000000E-002    4.980930324254969E-014
 -1.700000000000000E-002    5.402146909653873E-014
 -1.690000000000000E-002    5.014546148548748E-014
 -1.680000000000000E-002    3.741620321152219E-014
 -1.670000000000000E-002    1.638036314709822E-014
 -1.660000000000000E-002   -1.097489170420272E-014
 -1.650000000000000E-002   -4.130633963268442E-014
 -1.640000000000000E-002   -7.023258843711339E-014
 -1.630000000000000E-002   -9.287097524210962E-014
 -1.620000000000000E-002   -1.045413472770534E-013
 -1.610000000000000E-002   -1.015497106515175E-013
 -1.600000000000000E-002   -8.193847393591816E-014
 -1.590000000000000E-002   -4.607798050096285E-014
 -1.580000000000000E-002    3.019727049876139E-015
 -1.570000000000000E-002    5.975790581459722E-014
 -1.560000000000000E-002    1.164311347634183E-013
 -1.550000000000000E-002    1.641095715492180E-013
 -1.540000000000000E-002    1.938545221762522E-013
 -1.530000000000000E-002    1.981245458470290E-013
 -1.520000000000000E-002    1.721802079568164E-013
 -1.510000000000000E-002    1.152666068396255E-013
 -1.500000000000000E-002    3.135445919166861E-014
 -1.490000000000000E-002   -7.074374545197270E-014
 -1.480000000000000E-002   -1.779962633620071E-013
 -1.470000000000000E-002   -2.745290739152687E-013
 -1.460000000000000E-002   -3.436583538250910E-013
 -1.450000000000000E-002   -3.703623729899324E-013
 -1.440000000000000E-002   -3.438758111542357E-013
 -1.430000000000000E-002   -2.600221142786301E-013
 -1.420000000000000E-002   -1.228815632825011E-013
 -1.410000000000000E-002    5.456617872424749E-014
 -1.400000000000000E-002    2.510825732495839E-013
 -1.390000000000000E-002    4.391919915139757E-013
 -1.380000000000000E-002    5.884843585260079E-013
 -1.370000000000000E-002    6.698834194561989E-013
 -1.360000000000000E-002    6.603669595864007E-013
 -1.350000000000000E-002    5.474752379599838E-013
 -1.340000000000000E-002    3.328728803981152E-013
 -1.330000000000000E-002    3.426238067713157E-014
 -1.320000000000000E-002   -3.149054991550367E-013
 -1.310000000000000E-002   -6.682223332562630E-013
 -1.300000000000000E-002   -9.715672372014654E-013
 -1.290000000000000E-002   -1.170367704241224E-012
 -1.280000000000000E-002   -1.218052977191196E-012
 -1.270000000000000E-002   -1.084558102404497E-012
 -1.260000000000000E-002   -7.635495656278171E-013
 -1.250000000000000E-002   -2.770351676035384E-013
 -1.240000000000000E-002    3.237769914919943E-013
 -1.230000000000000E-002    9.620897318115389E-013
 -1.220000000000000E-002    1.543721670024786E-012
 -1.210000000000000E-002    1.969318611902343E-012
 -1.200000000000000E-002    2.149252640509267E-012
 -1.190000000000000E-002    2.019253809995242E-012
 -1.180000000000000E-002    1.554398002341685E-012
 -1.170000000000000E-002    7.789636056190549E-013
 -1.160000000000000E-002   -2.300531805584814E-013
 -1.150000000000000E-002   -1.347299608492461E-012
 -1.140000000000000E-002   -2.411807962557775E-012
 -1.130000000000000E-002   -3.247349456668790E-012
 -1.120000000000000E-002   -3.688281333523925E-012
 -1.110000000000000E-002   -3.607559211379814E-012
 -1.100000000000000E-002   -2.942725379324224E-012
 -1.090000000000000E-002   -1.715376107055217E-012
 -1.080000000000000E-002   -3.999002184414224E-014
 -1.070000000000000E-002    1.880889828888167E-012
 -1.060000000000000E-002    3.776359250961105E-012
 -1.050000000000000E-002    5.340741384421246E-012
 -1.040000000000000E-002    6.277648682203629E-012
 -1.030000000000000E-002    6.348896863911994E-012
 -1.020000000000000E-002    5.421037881981047E-012
 -1.010000000000000E-002    3.501614535136893E-012
 -1.000000000000000E-002    7.577796645701483E-013
 -9.899999999999999E-003   -2.488249160820017E-012
 -9.800000000000000E-003   -5.789426733688188E-012
 -9.699999999999999E-003   -8.628494698814418E-012
 -9.599999999999999E-003   -1.049148035641659E-011
 -9.500000000000000E-003   -1.095073780983709E-011
 -9.399999999999999E-003   -9.745327083376024E-012
 -9.299999999999999E-003   -6.845294415100765E-012
 -9.200000000000000E-003   -2.487223422113196E-012
 -9.099999999999999E-003    2.828578887840471E-012
 -8.999999999999999E-003    8.383902996645778E-012
 -8.900000000000000E-003    1.332968153965827E-011
 -8.799999999999999E-003    1.680547840277313E-011
 -8.699999999999999E-003    1.807620708238769E-011
 -8.600000000000000E-003    1.666604077023923E-011
 -8.499999999999999E-003    1.246737912682964E-011
 -8.399999999999999E-003    5.803989799795306E-012
 -8.300000000000000E-003   -2.567683121048738E-012
 -8.199999999999999E-003   -1.152695665998010E-011
 -8.100000000000000E-003   -1.972455800918275E-011
 -8.000000000000000E-003   -2.577166130303636E-011
 -7.899999999999999E-003   -2.845805830921988E-011
 -7.800000000000000E-003   -2.696751679701997E-011
 -7.699999999999999E-003   -2.105501935325512E-011
 -7.599999999999999E-003   -1.115258707044348E-011
 -7.499999999999999E-003    1.621833511474058E-012
 -7.399999999999999E-003    1.556512269517910E-011
 -7.299999999999999E-003    2.859563836865364E-011
 -7.199999999999999E-003    3.854432884434692E-011
 -7.100000000000000E-003    4.349264917791654E-011
 -6.999999999999999E-003    4.210777253738798E-011
 -6.899999999999999E-003    3.392049766009834E-011
 -6.800000000000000E-003    1.949452170673568E-011
 -6.699999999999999E-003    4.478631473163344E-013
 -6.599999999999999E-003   -2.069303480728987E-011
 -6.499999999999999E-003   -4.080086456334204E-011
 -6.399999999999999E-003   -5.658414786204015E-011
 -6.299999999999999E-003   -6.509610859486739E-011
 -6.199999999999999E-003   -6.424113228057586E-011
 -6.100000000000000E-003   -5.319684101513428E-011
 -5.999999999999999E-003   -3.267506188517994E-011
 -5.899999999999999E-003   -4.963310736243001E-012
 -5.800000000000000E-003    2.628201979164207E-011
 -5.699999999999999E-003    5.648224220052175E-011
 -5.599999999999999E-003    8.077461470399868E-011
 -5.499999999999999E-003    9.475841587689496E-011
 -5.399999999999999E-003    9.523957109994870E-011
 -5.299999999999999E-003    8.085410565104422E-011
 -5.199999999999999E-003    5.245895379274197E-011
 -5.099999999999999E-003    1.320546157668169E-011
 -4.999999999999999E-003   -3.174585479037052E-011
 -4.899999999999999E-003   -7.585699631678974E-011
 -4.799999999999999E-003   -1.121215044497654E-010
 -4.699999999999999E-003   -1.341308808278958E-010
 -4.599999999999999E-003   -1.371424194515988E-010
 -4.499999999999999E-003   -1.189784685306680E-010
 -4.399999999999999E-003   -8.059869654561364E-011
 -4.299999999999999E-003   -2.622574595653526E-011
 -4.199999999999999E-003    3.703470925170661E-011
 -4.099999999999999E-003    1.000627752374582E-010
 -3.999999999999999E-003    1.529859693551873E-010
 -3.899999999999999E-003    1.866669829771063E-010
 -3.799999999999999E-003    1.942009345695881E-010
 -3.699999999999999E-003    1.721862897030881E-010
 -3.599999999999999E-003    1.215496623684678E-010
 -3.499999999999999E-003    4.775828317455698E-011
 -3.399999999999999E-003   -3.966312099652478E-011
 -3.299999999999999E-003   -1.282905521045305E-010
 -3.199999999999999E-003   -2.045054517620803E-010
 -3.099999999999999E-003   -2.555210586215302E-010
 -2.999999999999999E-003   -2.714374415606908E-010
 -2.899999999999999E-003   -2.470054265696178E-010
 -2.799999999999999E-003   -1.828008999378228E-010
 -2.699999999999999E-003   -8.558161310337042E-011
 -2.599999999999999E-003    3.229051966564317E-011
 -2.499999999999999E-003    1.543406313362835E-010
 -2.399999999999999E-003    2.622202372313930E-010
 -2.299999999999999E-003    3.384004362106954E-010
 -2.199999999999999E-003    3.689330279676202E-010
 -2.099999999999999E-003    3.458554756105511E-010
 -1.999999999999999E-003    2.688417181118656E-010
 -1.899999999999999E-003    1.457904235004631E-010
 -1.799999999999999E-003   -7.813958207700823E-012
 -1.699999999999999E-003   -1.707523745455382E-010
 -1.599999999999999E-003   -3.189310352447039E-010
 -1.499999999999999E-003   -4.288764402979145E-010
 -1.399999999999999E-003   -4.813692754246052E-010
 -1.299999999999999E-003   -4.646664193860316E-010
 -1.199999999999999E-003   -3.767888894634991E-010
 -1.099999999999999E-003   -2.264628031815296E-010
 -9.999999999999989E-004   -3.248239243928223E-011
 -8.999999999999990E-004    1.785084352885975E-010
 -7.999999999999990E-004    3.755763496432811E-010
 -6.999999999999989E-004    5.279400632233723E-010
 -5.999999999999990E-004    6.096687465109275E-010
 -4.999999999999989E-004    6.039354134140336E-010
 -3.999999999999989E-004    5.061474450993562E-010
 -2.999999999999989E-004    3.254082799280686E-010
 -1.999999999999989E-004    8.398453759686760E-011
 -9.999999999999892E-005   -1.852611218874266E-010
  1.084202172485504E-018   -4.432044221509461E-010
  1.000000000000011E-004   -6.500086292898135E-010
  2.000000000000011E-004   -7.711182526545921E-010
  3.000000000000011E-004   -7.828148107918054E-010
  4.000000000000011E-004   -6.764655772506540E-010
  5.000000000000011E-004   -4.607448098354634E-010
  6.000000000000011E-004   -1.613718942242122E-010
  7.000000000000011E-004    1.817408197493629E-010
  8.000000000000011E-004    5.196503338212155E-010
  9.000000000000012E-004    8.012117300095961E-010
  1.000000000000001E-003    9.806403254943659E-010
  1.100000000000001E-003    1.024710952636651E-009
  1.200000000000001E-003    9.184891877624812E-010
  1.300000000000001E-003    6.686491573019403E-010
  1.400000000000001E-003    3.037407166357847E-010
  1.500000000000001E-003   -1.288078514661398E-010
  1.600000000000001E-003   -5.686872360331361E-010
  1.700000000000001E-003   -9.509760337112350E-010
  1.800000000000001E-003   -1.215569809195001E-009
  1.900000000000001E-003   -1.316424988810215E-009
  2.000000000000001E-003   -1.229223275898720E-009
  2.100000000000001E-003   -9.562232002884249E-010
  2.200000000000001E-003   -5.274173398340729E-010
  2.300000000000001E-003    2.382645398334877E-012
  2.400000000000001E-003    5.603224285390170E-010
  2.500000000000001E-003    1.065344670191607E-009
  2.600000000000001E-003    1.439791637849777E-009
  2.700000000000001E-003    1.621137745520312E-009
  2.800000000000001E-003    1.572109738778313E-009
  2.900000000000001E-003    1.287600024419398E-009
  3.000000000000001E-003    7.971684547224839E-010
  3.100000000000001E-003    1.625242414303368E-010
  3.200000000000001E-003   -5.299079153982118E-010
  3.300000000000001E-003   -1.180492795659455E-009
  3.400000000000001E-003   -1.690465613457369E-009
  3.500000000000001E-003   -1.976629472255647E-009
  3.600000000000001E-003   -1.984515640969814E-009
  3.700000000000001E-003   -1.697968114857573E-009
  3.800000000000001E-003   -1.143538847291334E-009
  3.900000000000001E-003   -3.887710340592236E-010
  4.000000000000001E-003    4.656911107698659E-010
  4.100000000000001E-003    1.299309622257560E-009
  4.200000000000001E-003    1.988484742793950E-009
  4.300000000000001E-003    2.424691545779275E-009
  4.400000000000001E-003    2.531287981565762E-009
  4.500000000000001E-003    2.276426741330892E-009
  4.600000000000002E-003    1.679954331039865E-009
  4.700000000000001E-003    8.129697224227760E-010
  4.800000000000001E-003   -2.102521397249692E-010
  4.900000000000002E-003   -1.247145243766699E-009
  5.000000000000001E-003   -2.146658588072692E-009
  5.100000000000001E-003   -2.771271320579236E-009
  5.200000000000001E-003   -3.018037810769174E-009
  5.300000000000002E-003   -2.835478538439218E-009
  5.400000000000001E-003   -2.233594967812749E-009
  5.500000000000001E-003   -1.285187571342171E-009
  5.600000000000002E-003   -1.178658311831512E-010
  5.700000000000001E-003    1.102494725234481E-009
  5.800000000000001E-003    2.194779734154834E-009
  5.900000000000002E-003    2.989009896357707E-009
  6.000000000000001E-003    3.352279043288173E-009
  6.100000000000001E-003    3.210358117601555E-009
  6.200000000000002E-003    2.561540079472384E-009
  6.300000000000002E-003    1.480300823970294E-009
  6.400000000000001E-003    1.097641523563718E-010
  6.500000000000001E-003   -1.356411561071851E-009
  6.600000000000002E-003   -2.700500544252041E-009
  6.700000000000001E-003   -3.711956724658416E-009
  6.800000000000001E-003   -4.218999096265173E-009
  6.900000000000002E-003   -4.115845897643679E-009
  7.000000000000001E-003   -3.381360269685477E-009
  7.100000000000001E-003   -2.085967030999956E-009
  7.200000000000002E-003   -3.853242110047626E-010
  7.300000000000002E-003    1.498862062082887E-009
  7.400000000000001E-003    3.308550766642967E-009
  7.500000000000001E-003    4.785620387726345E-009
  7.600000000000002E-003    5.709540885981926E-009
  7.700000000000001E-003    5.930928022862364E-009
  7.800000000000001E-003    5.395844897694946E-009
  7.900000000000001E-003    4.156896105134262E-009
  8.000000000000002E-003    2.368980823918562E-009
  8.100000000000001E-003    2.697787239053669E-010
  8.200000000000001E-003   -1.852674749385700E-009
  8.300000000000002E-003   -3.700954412642744E-009
  8.400000000000001E-003   -5.011945126996393E-009
  8.500000000000002E-003   -5.596839428156686E-009
  8.600000000000002E-003   -5.371314928104059E-009
  8.700000000000001E-003   -4.371000003090910E-009
  8.800000000000002E-003   -2.749348240101033E-009
  8.900000000000002E-003   -7.575423266902875E-010
  9.000000000000001E-003    1.291302860982225E-009
  9.100000000000002E-003    3.068966915610241E-009
  9.200000000000002E-003    4.283517646348125E-009
  9.300000000000001E-003    4.727921028181878E-009
  9.400000000000002E-003    4.318675596300219E-009
  9.500000000000001E-003    3.118522580069902E-009
  9.600000000000001E-003    1.339429639198749E-009
  9.700000000000002E-003   -6.751702949539749E-010
  9.800000000000001E-003   -2.486889911440282E-009
  9.900000000000001E-003   -3.612834620067329E-009
  1.000000000000000E-002   -3.582995944580714E-009
  1.010000000000000E-002   -1.996371318489434E-009
  1.020000000000000E-002    1.432450772194376E-009
  1.030000000000000E-002    6.843330846497898E-009
  1.040000000000000E-002    1.422208275176935E-008
  1.050000000000000E-002    2.341526906377985E-008
  1.060000000000000E-002    3.416674720564214E-008
  1.070000000000000E-002    4.617116588274860E-008
  1.080000000000000E-002    5.913704036035480E-008
  1.090000000000000E-002    7.285036206331812E-008
  1.100000000000000E-002    8.722939521978034E-008
  1.110000000000000E-002    1.023624983183334E-007
  1.120000000000000E-002    1.185227524415763E-007
  1.130000000000000E-002    1.361568304886304E-007
  1.140000000000000E-002    1.558488164719443E-007
  1.150000000000000E-002    1.782638255496798E-007
  1.160000000000000E-002    2.040789512828121E-007
  1.170000000000000E-002    2.339113292203884E-007
  1.180000000000000E-002    2.682538343123235E-007
  1.190000000000000E-002    3.074279887107393E-007
  1.200000000000000E-002    3.515613523063770E-007
  1.210000000000000E-002    4.005935598609717E-007
  1.220000000000000E-002    4.543107054196116E-007
  1.230000000000000E-002    5.124041450386492E-007
  1.240000000000000E-002    5.745455958420126E-007
  1.250000000000000E-002    6.404683923248206E-007
  1.260000000000000E-002    7.100430562349967E-007
  1.270000000000000E-002    7.833367599095556E-007
  1.280000000000000E-002    8.606469230502770E-007
  1.290000000000000E-002    9.425044689799172E-007
  1.300000000000000E-002    1.029645244851190E-006
  1.310000000000000E-002    1.122953206734470E-006
  1.320000000000000E-002    1.223383194582084E-006
  1.330000000000000E-002    1.331874128771426E-006
  1.340000000000000E-002    1.449265757943056E-006
  1.350000000000000E-002    1.576229999618194E-006
  1.360000000000000E-002    1.713229262593544E-006
  1.370000000000000E-002    1.860506673313937E-006
  1.380000000000000E-002    2.018112801383435E-006
  1.390000000000000E-002    2.185963420579962E-006
  1.400000000000000E-002    2.363923416125405E-006
  1.410000000000000E-002    2.551903513863169E-006
  1.420000000000000E-002    2.749957580689724E-006
  1.430000000000000E-002    2.958365540460992E-006
  1.440000000000000E-002    3.177691103257950E-006
  1.450000000000000E-002    3.408803557992359E-006
  1.460000000000000E-002    3.652862743687347E-006
  1.470000000000000E-002    3.911265384928354E-006
  1.480000000000000E-002    4.185563881949128E-006
  1.490000000000000E-002    4.477364487980736E-006
  1.500000000000000E-002    4.788224888617915E-006
  1.510000000000000E-002    5.119560129985385E-006
  1.520000000000000E-002    5.472578170700320E-006
  1.530000000000000E-002    5.848248543595530E-006
  1.540000000000000E-002    6.247313389923039E-006
  1.550000000000000E-002    6.670340981465794E-006
  1.560000000000000E-002    7.117813367333661E-006
  1.570000000000000E-002    7.590237009107669E-006
  1.580000000000000E-002    8.088262146715525E-006
  1.590000000000000E-002    8.612791076664314E-006
  1.600000000000000E-002    9.165064900732581E-006
  1.610000000000000E-002    9.746713444402715E-006
  1.620000000000000E-002    1.035975844554698E-005
  1.630000000000000E-002    1.100657535228398E-005
  1.640000000000000E-002    1.168981237036583E-005
  1.650000000000000E-002    1.241228721973626E-005
  1.660000000000000E-002    1.317686330311118E-005
  1.670000000000000E-002    1.398633948796011E-005
  1.680000000000000E-002    1.484336198342697E-005
  1.690000000000000E-002    1.575036658986364E-005
  1.700000000000000E-002    1.670957375104725E-005
  1.710000000000000E-002    1.772303178732946E-005
  1.720000000000000E-002    1.879270023855518E-005
  1.730000000000000E-002    1.992056858694923E-005
  1.740000000000000E-002    2.110878836906339E-005
  1.750000000000000E-002    2.235980797500504E-005
  1.760000000000000E-002    2.367648433432230E-005
  1.770000000000000E-002    2.506216030538085E-005
  1.780000000000000E-002    2.652068767130402E-005
  1.790000000000000E-002    2.805640833333764E-005
  1.800000000000000E-002    2.967409046147022E-005
  1.810000000000000E-002    3.137881009068209E-005
  1.820000000000000E-002    3.317583545676918E-005
  1.830000000000000E-002    3.507049436728390E-005
  1.840000000000000E-002    3.706806518245818E-005
  1.850000000000000E-002    3.917370088843813E-005
  1.860000000000000E-002    4.139240864317771E-005
  1.870000000000000E-002    4.372906987847961E-005