 -4.000000000000000E-002    0.000000000000000E+000
 -3.990000000000000E-002    0.000000000000000E+000
 -3.980000000000000E-002    0.000000000000000E+000
 -3.970000000000000E-002    0.000000000000000E+000
 -3.960000000000000E-002    0.000000000000000E+000
 -3.950000000000000E-002    0.000000000000000E+000
 -3.940000000000000E-002    0.000000000000000E+000
 -3.930000000000000E-002    0.000000000000000E+000
 -3.920000000000000E-002    0.000000000000000E+000
 -3.910000000000000E-002    0.000000000000000E+000
 -3.900000000000000E-002    0.000000000000000E+000
 -3.890000000000000E-002    0.000000000000000E+000
 -3.880000000000000E-002    0.000000000000000E+000
 -3.870000000000000E-002    0.000000000000000E+000
 -3.860000000000000E-002    0.000000000000000E+000
 -3.850000000000000E-002    0.000000000000000E+000
 -3.840000000000000E-002    0.000000000000000E+000
 -3.830000000000000E-002    0.000000000000000E+000
 -3.820000000000000E-002    0.000000000000000E+000
 -3.810000000000000E-002    0.000000000000000E+000
 -3.800000000000000E-002    0.000000000000000E+000
 -3.790000000000000E-002    0.000000000000000E+000
 -3.780000000000000E-002   -1.924390591266381E-047
 -3.770000000000000E-002    5.901464479883568E-047
 -3.760000000000000E-002    0.000000000000000E+000
 -3.750000000000000E-002    2.565854121688508E-047
 -3.740000000000000E-002   -4.708890380145984E-046
 -3.730000000000000E-002   -2.702660750099016E-045
 -3.720000000000000E-002   -1.033361262040603E-044
 -3.710000000000000E-002   -4.196802391796280E-044
 -3.700000000000000E-002   -1.524309111444041E-043
 -3.690000000000000E-002   -4.937863294788346E-043
 -3.680000000000000E-002   -1.430655897671366E-042
 -3.670000000000000E-002   -3.699060733578442E-042
 -3.660000000000000E-002   -8.354763269709561E-042
 -3.650000000000000E-002   -1.557277631877467E-041
 -3.640000000000000E-002   -1.940168156759541E-041
 -3.630000000000000E-002    8.735884195527705E-042
 -3.620000000000000E-002    1.634660272375400E-040
 -3.610000000000000E-002    7.050947393122706E-040
 -3.600000000000000E-002    2.260839489822414E-039
 -3.590000000000000E-002    6.177856361251154E-039
 -3.580000000000000E-002    1.503319801060797E-038
 -3.570000000000000E-002    3.312744848528651E-038
 -3.560000000000000E-002    6.632713733778596E-038
 -3.550000000000000E-002    1.196569868358686E-037
 -3.540000000000000E-002    1.893432466962242E-037
 -3.530000000000000E-002    2.435161453843350E-037
 -3.520000000000000E-002    1.830287832688966E-037
 -3.510000000000000E-002   -2.272619920315021E-037
 -3.500000000000000E-002   -1.461591168960255E-036
 -3.490000000000000E-002   -4.356908821290065E-036
 -3.480000000000000E-002   -1.019862222350181E-035
 -3.470000000000000E-002   -2.062514555661396E-035
 -3.460000000000000E-002   -3.707180632067174E-035
 -3.450000000000000E-002   -5.929413141137593E-035
 -3.440000000000000E-002   -8.233374912741203E-035
 -3.430000000000000E-002   -9.124108309846369E-035
 -3.420000000000000E-002   -5.318707713525141E-035
 -3.410000000000000E-002    9.234342510762854E-035
 -3.400000000000000E-002    4.422938163380512E-034
 -3.390000000000000E-002    1.130727119997750E-033
 -3.380000000000000E-002    2.308613808839004E-033
 -3.370000000000000E-002    4.082767467732791E-033
 -3.360000000000000E-002    6.387908967172303E-033
 -3.350000000000000E-002    8.765384844592742E-033
 -3.340000000000000E-002    1.003501951473714E-032
 -3.330000000000000E-002    7.883546562362820E-033
 -3.320000000000000E-002   -1.534011037456225E-033
 -3.310000000000000E-002   -2.376601621487940E-032
 -3.300000000000000E-002   -6.563520628385105E-032
 -3.290000000000000E-002   -1.336582498790281E-031
 -3.280000000000000E-002   -2.306320381676507E-031
 -3.270000000000000E-002   -3.497290872034894E-031
 -3.260000000000000E-002   -4.657926492090729E-031
 -3.250000000000000E-002   -5.243911102597125E-031
 -3.240000000000000E-002   -4.307769532299704E-031
 -3.230000000000000E-002   -4.328084367152524E-032
 -3.220000000000000E-002    8.212998612526213E-031
 -3.210000000000000E-002    2.359675111375365E-030
 -3.200000000000000E-002    4.718796737419137E-030
 -3.190000000000000E-002    7.885817556700921E-030
 -3.180000000000000E-002    1.152632504171361E-029
 -3.170000000000000E-002    1.478079730993503E-029
 -3.160000000000000E-002    1.605448179202060E-029
 -3.150000000000000E-002    1.287175474058514E-029
 -3.140000000000000E-002    1.908626736765552E-030
 -3.130000000000000E-002   -2.064264929813142E-029
 -3.120000000000000E-002   -5.820201420162116E-029
 -3.110000000000000E-002   -1.122708232789000E-028
 -3.100000000000000E-002   -1.801839928415068E-028
 -3.090000000000000E-002   -2.522834674789661E-028
 -3.080000000000000E-002   -3.089629267418941E-028
 -3.070000000000000E-002   -3.184535633843945E-028
 -3.060000000000000E-002   -2.366911416401249E-028
 -3.050000000000000E-002   -1.101262302194470E-029
 -3.040000000000000E-002    4.104073019938572E-028
 -3.030000000000000E-002    1.061796894719984E-027
 -3.020000000000000E-002    1.935208321854510E-027
 -3.010000000000000E-002    2.949683393143463E-027
 -3.000000000000000E-002    3.918853469343638E-027
 -2.990000000000000E-002    4.525639652066890E-027
 -2.980000000000000E-002    4.316943606605745E-027
 -2.970000000000000E-002    2.734570026548042E-027
 -2.960000000000000E-002   -8.005680174839797E-028
 -2.950000000000000E-002   -6.737556600783854E-027
 -2.940000000000000E-002   -1.517474368934093E-026
 -2.930000000000000E-002   -2.558412259154317E-026
 -2.920000000000000E-002   -3.652185933576975E-026
 -2.910000000000000E-002   -4.539771356292709E-026
 -2.900000000000000E-002   -4.840774426684752E-026
 -2.890000000000000E-002   -4.075762692643031E-026
 -2.880000000000000E-002   -1.730526528349413E-026
 -2.870000000000000E-002    2.628196910874033E-026
 -2.860000000000000E-002    9.184173697873435E-026
 -2.850000000000000E-002    1.766250444386265E-025
 -2.840000000000000E-002    2.711074030267005E-025
 -2.830000000000000E-002    3.572287506676494E-025
 -2.820000000000000E-002    4.077931332320051E-025
 -2.810000000000000E-002    3.878911622210029E-025
 -2.800000000000000E-002    2.591889785496795E-025
 -2.790000000000000E-002   -1.233116972884429E-026
 -2.780000000000000E-002   -4.451501254529869E-025
 -2.770000000000000E-002   -1.028371865842728E-024
 -2.760000000000000E-002   -1.707295137671604E-024
 -2.750000000000000E-002   -2.371724414419598E-024
 -2.740000000000000E-002   -2.851520960814975E-024
 -2.730000000000000E-002   -2.924554814072291E-024
 -2.720000000000000E-002   -2.341939433726669E-024
 -2.710000000000000E-002   -8.737541428863467E-025
 -2.700000000000000E-002    1.624897962193553E-024
 -2.690000000000000E-002    5.132763627431587E-024
 -2.680000000000000E-002    9.377983301556606E-024
 -2.670000000000000E-002    1.376898596692746E-023
 -2.660000000000000E-002    1.736532370688549E-023
 -2.650000000000000E-002    1.891602280838407E-023
 -2.640000000000000E-002    1.699070359273340E-023
 -2.630000000000000E-002    1.021927226565121E-023
 -2.620000000000000E-002   -2.361890414305888E-024
 -2.610000000000000E-002   -2.088555935815417E-023
 -2.600000000000000E-002   -4.421152865860019E-023
 -2.590000000000000E-002   -6.956024903622895E-023
 -2.580000000000000E-002   -9.234282235358308E-023
 -2.570000000000000E-002   -1.063193796631004E-022
 -2.560000000000000E-002   -1.042036847309729E-022
 -2.550000000000000E-002   -7.878442879128895E-023
 -2.540000000000000E-002   -2.454790825364033E-023
 -2.530000000000000E-002    6.033393094996994E-023
 -2.520000000000000E-002    1.719296061266147E-022
 -2.510000000000000E-002    2.988111481019936E-022
 -2.500000000000000E-002    4.211873174564555E-022
 -2.490000000000000E-002    5.114788975458224E-022
 -2.480000000000000E-002    5.368322017307103E-022
 -2.470000000000000E-002    4.638525631043414E-022
 -2.460000000000000E-002    2.654655993687491E-022
 -2.450000000000000E-002   -7.068945941099883E-023
 -2.440000000000000E-002   -5.335155157673220E-022
 -2.430000000000000E-002   -1.081105507161101E-021
 -2.420000000000000E-002   -1.636934245154274E-021
 -2.410000000000000E-002   -2.091845273066022E-021
 -2.400000000000000E-002   -2.313734485157857E-021
 -2.390000000000000E-002   -2.165922167508852E-021
 -2.380000000000000E-002   -1.533725869064961E-021
 -2.370000000000000E-002   -3.567992936764618E-022
 -2.360000000000000E-002    1.337392415987912E-021
 -2.350000000000000E-002    3.405602119546265E-021
 -2.340000000000000E-002    5.574349130028633E-021
 -2.330000000000000E-002    7.447161170617710E-021
 -2.320000000000000E-002    8.540142025943487E-021
 -2.310000000000000E-002    8.349004802591424E-021
 -2.300000000000000E-002    6.445169092123301E-021
 -2.290000000000000E-002    2.591535918800040E-021
 -2.280000000000000E-002   -3.139031696160086E-021
 -2.270000000000000E-002   -1.026628376135689E-020
 -2.260000000000000E-002   -1.785410051405509E-020
 -2.250000000000000E-002   -2.453864834422907E-020
 -2.240000000000000E-002   -2.865474119738880E-020
 -2.230000000000000E-002   -2.846915527866710E-020
 -2.220000000000000E-002   -2.251048434677202E-020
 -2.210000000000000E-002   -9.961430835738571E-021
 -2.200000000000000E-002    8.945375118663974E-021
 -2.190000000000000E-002    3.260812281012906E-020
 -2.180000000000000E-002    5.790499709721877E-020
 -2.170000000000000E-002    8.030050642659785E-020
 -2.160000000000000E-002    9.427521067248173E-020
 -2.150000000000000E-002    9.410140535752445E-020
 -2.140000000000000E-002    7.492432500178716E-020
 -2.130000000000000E-002    3.403289709391109E-020
 -2.120000000000000E-002   -2.787272822492210E-020
 -2.110000000000000E-002   -1.056728121159704E-019
 -2.100000000000000E-002   -1.893661408532992E-019
 -2.090000000000000E-002   -2.644261330908361E-019
 -2.080000000000000E-002   -3.131697308803441E-019
 -2.070000000000000E-002   -3.171956634822204E-019
 -2.060000000000000E-002   -2.607527456821169E-019
 -2.050000000000000E-002   -1.346712698346832E-019
 -2.040000000000000E-002    5.973622365803422E-020
 -2.030000000000000E-002    3.075777449125633E-019
 -2.020000000000000E-002    5.789425865244399E-019
 -2.010000000000000E-002    8.299125527733696E-019
 -2.000000000000000E-002    1.006581076008877E-018
 -1.990000000000000E-002    1.052219385208525E-018
 -1.980000000000000E-002    9.171637951975627E-019
 -1.970000000000000E-002    5.703428786240984E-019
 -1.960000000000000E-002    1.073045571824445E-020
 -1.950000000000000E-002   -7.234796076934286E-019
 -1.940000000000000E-002   -1.550385384578282E-018
 -1.930000000000000E-002   -2.346784394493758E-018
 -1.920000000000000E-002   -2.959004651906307E-018
 -1.910000000000000E-002   -3.222524352040293E-018
 -1.900000000000000E-002   -2.989183196439221E-018
 -1.890000000000000E-002   -2.159020191999660E-018
 -1.880000000000000E-002   -7.120849955633014E-019
 -1.870000000000000E-002    1.265710112147745E-018
 -1.860000000000000E-002    3.569125900001624E-018
 -1.850000000000000E-002    5.878376567799978E-018
 -1.840000000000000E-002    7.786171835253490E-018
 -1.830000000000000E-002    8.847984277235594E-018
 -1.820000000000000E-002    8.652415774202143E-018
 -1.810000000000000E-002    6.904043051880229E-018
 -1.800000000000000E-002    3.506787664797455E-018
 -1.790000000000000E-002   -1.367299891435811E-018
 -1.780000000000000E-002   -7.240132733864227E-018
 -1.770000000000000E-002   -1.333532947990988E-017
 -1.760000000000000E-002   -1.864172625298776E-017
 -1.750000000000000E-002   -2.203509497299754E-017
 -1.740000000000000E-002   -2.245049276600047E-017
 -1.730000000000000E-002   -1.908654204384466E-017
 -1.720000000000000E-002   -1.161256990835039E-017
 -1.710000000000000E-002   -3.419016081042086E-019
 -1.700000000000000E-002    1.366807443416038E-017
 -1.690000000000000E-002    2.862469323995906E-017
 -1.680000000000000E-002    4.214206640490916E-017
 -1.670000000000000E-002    5.152250309428488E-017
 -1.660000000000000E-002    5.415983953594923E-017
 -1.650000000000000E-002    4.802102610095461E-017
 -1.640000000000000E-002    3.213829688400608E-017
 -1.630000000000000E-002    7.026594445964733E-018
 -1.620000000000000E-002   -2.506516089403753E-017
 -1.610000000000000E-002   -6.015159356863281E-017
 -1.600000000000000E-002   -9.281419802601469E-017
 -1.590000000000000E-002   -1.168257367937118E-016
 -1.580000000000000E-002   -1.260575286467169E-016
 -1.570000000000000E-002   -1.155726370573317E-016
 -1.560000000000000E-002   -8.275366857667705E-017
 -1.550000000000000E-002   -2.827458946220569E-017
 -1.540000000000000E-002    4.328824916936598E-017
 -1.530000000000000E-002    1.233915084296089E-016
 -1.520000000000000E-002    2.001364972040881E-016
 -1.510000000000000E-002    2.595960996078472E-016
 -1.500000000000000E-002    2.877792581731061E-016
 -1.490000000000000E-002    2.730273420320274E-016
 -1.480000000000000E-002    2.085186685111012E-016
 -1.470000000000000E-002    9.447033703220639E-017
 -1.460000000000000E-002   -6.040597263610174E-017
 -1.450000000000000E-002   -2.386002417787432E-016
 -1.440000000000000E-002   -4.149425773279118E-016
 -1.430000000000000E-002   -5.592853311404806E-016
 -1.420000000000000E-002   -6.405848315188879E-016
 -1.410000000000000E-002   -6.319696670638579E-016
 -1.400000000000000E-002   -5.161313175507815E-016
 -1.390000000000000E-002   -2.901859429904061E-016
 -1.380000000000000E-002    3.092391243443695E-017
 -1.370000000000000E-002    4.133503322209955E-016
 -1.360000000000000E-002    8.062242778245497E-016
 -1.350000000000000E-002    1.146763387704504E-015
 -1.340000000000000E-002    1.368370851603076E-015
 -1.330000000000000E-002    1.410944483632735E-015
 -1.320000000000000E-002    1.232095182844251E-015
 -1.310000000000000E-002    8.175733013549991E-016
 -1.300000000000000E-002    1.890179410755687E-016
 -1.290000000000000E-002   -5.927624442326910E-016
 -1.280000000000000E-002   -1.430357157949008E-015
 -1.270000000000000E-002   -2.198827499000902E-015
 -1.260000000000000E-002   -2.760989518424293E-015
 -1.250000000000000E-002   -2.987522240055105E-015
 -1.240000000000000E-002   -2.779471953738647E-015
 -1.230000000000000E-002   -2.089890539237565E-015
 -1.220000000000000E-002   -9.409050876443097E-016
 -1.210000000000000E-002    5.673905224150053E-016
 -1.200000000000000E-002    2.259128404346106E-015
 -1.190000000000000E-002    3.897542864481796E-015
 -1.180000000000000E-002    5.212339194585204E-015
 -1.170000000000000E-002    5.937286131351638E-015
 -1.160000000000000E-002    5.853713148511698E-015
 -1.150000000000000E-002    4.833886379845405E-015
 -1.140000000000000E-002    2.877219680025107E-015
 -1.130000000000000E-002    1.322535199144329E-016
 -1.120000000000000E-002   -3.101571939428792E-015
 -1.110000000000000E-002   -6.396058073339770E-015
 -1.100000000000000E-002   -9.240777891114095E-015
 -1.090000000000000E-002   -1.111060815656502E-014
 -1.080000000000000E-002   -1.154694814170634E-014
 -1.070000000000000E-002   -1.024187162969270E-014
 -1.060000000000000E-002   -7.112234485050094E-015
 -1.050000000000000E-002   -2.350210130498659E-015
 -1.040000000000000E-002    3.561704958670393E-015
 -1.030000000000000E-002    9.879453004710282E-015
 -1.020000000000000E-002    1.567251386533363E-014
 -1.010000000000000E-002    1.994094475370230E-014
 -1.000000000000000E-002    2.176256543143025E-014
 -9.899999999999999E-003    2.045173114239780E-014
 -9.800000000000000E-003    1.570636447835930E-014
 -9.699999999999999E-003    7.717976574557528E-015
 -9.599999999999999E-003   -2.778760343985990E-015
 -9.500000000000000E-003   -1.453445491748916E-014
 -9.399999999999999E-003   -2.589946975048549E-014
 -9.299999999999999E-003   -3.502006849095817E-014
 -9.200000000000000E-003   -4.009823958303909E-014
 -9.099999999999999E-003   -3.968421509537091E-014
 -8.999999999999999E-003   -3.296068755159620E-014
 -8.900000000000000E-003   -1.997243742412369E-014
 -8.799999999999999E-003   -1.756491866013801E-015
 -8.699999999999999E-003    1.966348394624298E-014
 -8.600000000000000E-003    4.143912129669063E-014
 -8.499999999999999E-003    6.021463098438581E-014
 -8.399999999999999E-003    7.257396909647632E-014
 -8.300000000000000E-003    7.556762698231442E-014
 -8.199999999999999E-003    6.724870101810220E-014
 -8.100000000000000E-003    4.713511877846720E-014
 -8.000000000000000E-003    1.651386152180170E-014
 -7.899999999999999E-003   -2.148536649669273E-014
 -7.800000000000000E-003   -6.209428838872082E-014
 -7.699999999999999E-003   -9.939900075541954E-014
 -7.599999999999999E-003   -1.270886593065839E-013
 -7.499999999999999E-003   -1.393816491385557E-013
 -7.399999999999999E-003   -1.320107372632467E-013
 -7.299999999999999E-003   -1.031213584599275E-013
 -7.199999999999999E-003   -5.392857491674847E-014
 -7.100000000000000E-003    1.100747968561744E-014
 -6.999999999999999E-003    8.398878474580793E-014
 -6.899999999999999E-003    1.549098757041453E-013
 -6.800000000000000E-003    2.124753903121045E-013
 -6.699999999999999E-003    2.457868977954545E-013
 -6.599999999999999E-003    2.461043260900541E-013
 -6.499999999999999E-003    2.085311329354613E-013
 -6.399999999999999E-003    1.333468024506887E-013
 -6.299999999999999E-003    2.672439889126597E-014
 -6.199999999999999E-003   -9.937059503768164E-014
 -6.100000000000000E-003   -2.282050289614172E-013
 -5.999999999999999E-003   -3.402003267696536E-013
 -5.899999999999999E-003   -4.155811369627887E-013
 -5.800000000000000E-003   -4.374383851632801E-013
 -5.699999999999999E-003   -3.947846627573499E-013
 -5.599999999999999E-003   -2.851186576519317E-013
 -5.499999999999999E-003   -1.160242836027013E-013
 -5.399999999999999E-003    9.458665466748101E-014
 -5.299999999999999E-003    3.198195601599224E-013
 -5.199999999999999E-003    5.267438142904700E-013
 -5.099999999999999E-003    6.807020905232025E-013
 -4.999999999999999E-003    7.504943886622779E-013
 -4.899999999999999E-003    7.137408050200143E-013
 -4.799999999999999E-003    5.616009810660512E-013
 -4.699999999999999E-003    3.020154953563125E-013
 -4.599999999999999E-003   -3.924666716428207E-014
 -4.499999999999999E-003   -4.202020647830104E-013
 -4.399999999999999E-003   -7.870372730821326E-013
 -4.299999999999999E-003   -1.080947238237076E-012
 -4.199999999999999E-003   -1.246679609180959E-012
 -4.099999999999999E-003   -1.241662579191710E-012
 -3.999999999999999E-003   -1.044353032734678E-012
 -3.899999999999999E-003   -6.603782684492872E-013
 -3.799999999999999E-003   -1.252088971521990E-013
 -3.699999999999999E-003    4.975178607588632E-013
 -3.599999999999999E-003    1.122329365287149E-012
 -3.499999999999999E-003    1.652508962580792E-012
 -3.399999999999999E-003    1.993824337299727E-012
 -3.299999999999999E-003    2.069622974076309E-012
 -3.199999999999999E-003    1.835082144412953E-012
 -3.099999999999999E-003    1.288249197062497E-012
 -2.999999999999999E-003    4.757164469831301E-013
 -2.899999999999999E-003   -5.086449333285284E-013
 -2.799999999999999E-003   -1.532562816130296E-012
 -2.699999999999999E-003   -2.441398782168702E-012
 -2.599999999999999E-003   -3.079688586594201E-012
 -2.499999999999999E-003   -3.315458398006201E-012
 -2.399999999999999E-003   -3.063809449334629E-012
 -2.299999999999999E-003   -2.305942403175556E-012
 -2.199999999999999E-003   -1.100063985112026E-012
 -2.099999999999999E-003    4.185372216628188E-013
 -1.999999999999999E-003    2.049555958628723E-012
 -1.899999999999999E-003    3.551419763273830E-012
 -1.799999999999999E-003    4.674350189923374E-012
 -1.699999999999999E-003    5.198615398522091E-012
 -1.599999999999999E-003    4.972529389679064E-012
 -1.499999999999999E-003    3.944166575428087E-012
 -1.399999999999999E-003    2.181055581030174E-012
 -1.299999999999999E-003   -1.266481030055325E-013
 -1.199999999999999E-003   -2.681903894758606E-012
 -1.099999999999999E-003   -5.115116241356993E-012
 -9.999999999999989E-004   -7.033743106268015E-012
 -8.999999999999990E-004   -8.081088726551491E-012
 -7.999999999999990E-004   -7.996046287163551E-012
 -6.999999999999989E-004   -6.664494081099427E-012
 -5.999999999999990E-004   -4.153340720546503E-012
 -4.999999999999989E-004   -7.199650579746207E-013
 -3.999999999999989E-004    3.207109086566138E-012
 -2.999999999999989E-004    7.076373720865681E-012
 -1.999999999999989E-004    1.028587294807010E-011
 -9.999999999999892E-005    1.227133674368594E-011
  1.084202172485504E-018    1.259773344768210E-011
  1.000000000000011E-004    1.104029292241188E-011
  2.000000000000011E-004    7.641192257209881E-012
  3.000000000000011E-004    2.730539016631106E-012
  4.000000000000011E-004   -3.095291262246888E-012
  5.000000000000011E-004   -9.038918583313988E-012
  6.000000000000011E-004   -1.420503897584041E-011
  7.000000000000011E-004   -1.772900137420464E-011
  8.000000000000011E-004   -1.891339003939136E-011
  9.000000000000012E-004   -1.735206668486714E-011
  1.000000000000001E-003   -1.302115303360854E-011
  1.100000000000001E-003   -6.319524537842931E-012
  1.200000000000001E-003    1.952337430027029E-012
  1.300000000000001E-003    1.067775365962720E-011
  1.400000000000001E-003    1.856633645577706E-011
  1.500000000000001E-003    2.433679630508999E-011
  1.600000000000001E-003    2.691541472764981E-011
  1.700000000000001E-003    2.562080343047673E-011
  1.800000000000001E-003    2.030495828861277E-011
  1.900000000000001E-003    1.142470725796041E-011
  2.000000000000001E-003    2.607021439718622E-014
  2.100000000000001E-003   -1.236392455310367E-011
  2.200000000000001E-003   -2.392955770188852E-011
  2.300000000000001E-003   -3.282059479361942E-011
  2.400000000000001E-003   -3.743444918103273E-011
  2.500000000000001E-003   -3.668507781297486E-011
  2.600000000000001E-003   -3.021588159014969E-011
  2.700000000000001E-003   -1.851868370710567E-011
  2.800000000000001E-003   -2.932236561033416E-012
  2.900000000000001E-003    1.448996448123767E-011
  3.000000000000001E-003    3.123340270420274E-011
  3.100000000000001E-003    4.466907758824586E-011
  3.200000000000001E-003    5.244724717114126E-011
  3.300000000000001E-003    5.288182676612723E-011
  3.400000000000001E-003    4.526532987134277E-011
  3.500000000000001E-003    3.006014130385117E-011
  3.600000000000001E-003    8.926380419122061E-012
  3.700000000000001E-003   -1.543140487629658E-011
  3.800000000000001E-003   -3.959009988159721E-011
  3.900000000000001E-003   -5.987056801929143E-011
  4.000000000000001E-003   -7.287708302413682E-011
  4.100000000000001E-003   -7.603725095256192E-011
  4.200000000000001E-003   -6.805981731069316E-011
  4.300000000000001E-003   -4.923394914779555E-011
  4.400000000000001E-003   -2.151160509469665E-011
  4.500000000000001E-003    1.165659517169522E-011
  4.600000000000002E-003    4.572616457687831E-011
  4.700000000000001E-003    7.566125943889107E-011
  4.800000000000001E-003    9.665833948547652E-011
  4.900000000000002E-003    1.048901783804645E-010
  5.000000000000001E-003    9.815857204356353E-011
  5.100000000000001E-003    7.634969247110384E-011
  5.200000000000001E-003    4.160806666298189E-011
  5.300000000000002E-003   -1.818213620812196E-012
  5.400000000000001E-003   -4.806201663499257E-011
  5.500000000000001E-003   -9.040226621629545E-011
  5.600000000000002E-003   -1.222143040517049E-010
  5.700000000000001E-003   -1.379751198043224E-010
  5.800000000000001E-003   -1.341753463753573E-010
  5.900000000000002E-003   -1.099931737170309E-010
  6.000000000000001E-003   -6.761149704432608E-011
  6.100000000000001E-003   -1.210459920815189E-011
  6.200000000000002E-003    4.911890912658747E-011
  6.300000000000002E-003    1.072643681962480E-010
  6.400000000000001E-003    1.533749085067374E-010
  6.500000000000001E-003    1.796658420279133E-010
  6.600000000000002E-003    1.807761433605060E-010
  6.700000000000001E-003    1.547428774131664E-010
  6.800000000000001E-003    1.035329353967495E-010
  6.900000000000002E-003    3.302154033923146E-011
  7.000000000000001E-003   -4.761698713541909E-011
  7.100000000000001E-003   -1.270546504070312E-010
  7.200000000000002E-003   -1.933556766364552E-010
  7.300000000000002E-003   -2.357181837573818E-010
  7.400000000000001E-003   -2.461632673085407E-010
  7.500000000000001E-003   -2.209153426203552E-010
  7.600000000000002E-003   -1.612461330856271E-010
  7.700000000000001E-003   -7.362117481047794E-011
  7.800000000000001E-003    3.091908392181224E-011
  7.900000000000001E-003    1.381007400630451E-010
  8.000000000000002E-003    2.323267233579301E-010
  8.100000000000001E-003    2.989070485564548E-010
  8.200000000000001E-003    3.262967248500640E-010
  8.300000000000002E-003    3.080074516928851E-010
  8.400000000000001E-003    2.438873554456328E-010
  8.500000000000002E-003    1.405381098992551E-010
  8.600000000000002E-003    1.075340081129845E-011
  8.700000000000001E-003   -1.279984894609821E-010
  8.800000000000002E-003   -2.558806551557726E-010
  8.900000000000002E-003   -3.534867792683068E-010
  9.000000000000001E-003   -4.047464481098824E-010
  9.100000000000002E-003   -3.995094908100127E-010
  9.200000000000002E-003   -3.354050553164046E-010
  9.300000000000001E-003   -2.186537638842668E-010
  9.400000000000002E-003   -6.364897499156102E-011
  9.500000000000001E-003    1.087042912038171E-010
  9.600000000000001E-003    2.737195339393325E-010
  9.700000000000002E-003    4.063846694350514E-010
  9.800000000000001E-003    4.850712314108331E-010
  9.900000000000001E-003    4.949589909252691E-010
  1.000000000000000E-002    4.306478349952745E-010
  1.010000000000000E-002    2.975194694844989E-010
  1.020000000000000E-002    1.115718220057955E-010
  1.030000000000000E-002   -1.023397456667871E-010
  1.040000000000000E-002   -3.136857239267525E-010
  1.050000000000000E-002   -4.904803623531989E-010
  1.060000000000000E-002   -6.039660825925664E-010
  1.070000000000000E-002   -6.330949640612994E-010
  1.080000000000000E-002   -5.681273573554635E-010
  1.090000000000000E-002   -4.127621884504469E-010
  1.100000000000000E-002   -1.843954790946482E-010
  1.110000000000000E-002    8.763919553742581E-011
  1.120000000000000E-002    3.657040173950110E-010
  1.130000000000000E-002    6.089327877861370E-010
  1.140000000000000E-002    7.790796432411728E-010
  1.150000000000000E-002    8.463186579043230E-010
  1.160000000000000E-002    7.941329568780725E-010
  1.170000000000000E-002    6.225198450490116E-010
  1.180000000000000E-002    3.489445316205037E-010
  1.190000000000000E-002    6.777472405886349E-012
  1.200000000000000E-002   -3.586925797423686E-010
  1.210000000000000E-002   -6.962133146413616E-010
  1.220000000000000E-002   -9.557202937694264E-010
  1.230000000000000E-002   -1.095695980909633E-009
  1.240000000000000E-002   -1.089664711329083E-009
  1.250000000000000E-002   -9.308237422875016E-010
  1.260000000000000E-002   -6.340326837321663E-010
  1.270000000000000E-002   -2.347360030926548E-010
  1.280000000000000E-002    2.151794861533081E-010
  1.290000000000000E-002    6.541346720233949E-010
  1.300000000000000E-002    1.019353647010125E-009
  1.310000000000000E-002    1.255940396480648E-009
  1.320000000000000E-002    1.325231601562592E-009
  1.330000000000000E-002    1.211161186348764E-009
  1.340000000000000E-002    9.236070117588858E-010
  1.350000000000000E-002    4.980836147003026E-010
  1.360000000000000E-002   -8.344839209232650E-012
  1.370000000000000E-002   -5.245067959140909E-010
  1.380000000000000E-002   -9.749801208570154E-010
  1.390000000000000E-002   -1.291022827602233E-009
  1.400000000000000E-002   -1.421015181480116E-009
  1.410000000000000E-002   -1.338850929546217E-009
  1.420000000000000E-002   -1.048946029037241E-009
  1.430000000000000E-002   -5.869681326844590E-010
  1.440000000000000E-002   -1.598388809811060E-011
  1.450000000000000E-002    5.816196354522708E-010
  1.460000000000000E-002    1.115442071142060E-009
  1.470000000000000E-002    1.500087701701360E-009
  1.480000000000000E-002    1.668055183150860E-009
  1.490000000000000E-002    1.580597013689266E-009
  1.500000000000000E-002    1.234858608310020E-009
  1.510000000000000E-002    6.660820658594188E-010
  1.520000000000000E-002   -5.567005484628209E-011
  1.530000000000000E-002   -8.340335950887513E-010
  1.540000000000000E-002   -1.559085221148883E-009
  1.550000000000000E-002   -2.122625499901982E-009
  1.560000000000000E-002   -2.433876289243459E-009
  1.570000000000000E-002   -2.433308994650935E-009
  1.580000000000000E-002   -2.102510301697435E-009
  1.590000000000000E-002   -1.468472875858536E-009
  1.600000000000000E-002   -6.014607669133940E-010
  1.610000000000000E-002    3.934964077875060E-010
  1.620000000000000E-002    1.390488573985700E-009
  1.630000000000000E-002    2.260163744868439E-009
  1.640000000000000E-002    2.888301331418902E-009
  1.650000000000000E-002    3.192832843222048E-009
  1.660000000000000E-002    3.136742696523587E-009
  1.670000000000000E-002    2.734786136861444E-009
  1.680000000000000E-002    2.052780468990027E-009
  1.690000000000000E-002    1.199275239589568E-009
  1.700000000000000E-002    3.105163512331474E-010
  1.710000000000000E-002   -4.693563621757932E-010
  1.720000000000000E-002   -1.010152315342179E-009
  1.730000000000000E-002   -1.216374880521033E-009
  1.740000000000000E-002   -1.043756419138301E-009
  1.750000000000000E-002   -5.089508434878620E-010
  1.760000000000000E-002    3.093586891672569E-010
  1.770000000000000E-002    1.278508536135783E-009
  1.780000000000000E-002    2.228322848303042E-009
  1.790000000000000E-002    2.974020430424910E-009
  1.800000000000000E-002    3.342569596764609E-009
  1.810000000000000E-002    3.198888371987291E-009
  1.820000000000000E-002    2.468179454686588E-009
  1.830000000000000E-002    1.151110543071668E-009
  1.840000000000000E-002   -6.705340327135269E-010
  1.850000000000000E-002   -2.838812691707725E-009
  1.860000000000000E-002   -5.134780106934059E-009
  1.870000000000000E-002   -7.301934766904128E-009