 -4.000000000000000E-002    0.000000000000000E+000
 -3.990000000000000E-002    0.000000000000000E+000
 -3.980000000000000E-002    0.000000000000000E+000
 -3.970000000000000E-002    0.000000000000000E+000
 -3.960000000000000E-002    0.000000000000000E+000
 -3.950000000000000E-002    0.000000000000000E+000
 -3.940000000000000E-002    0.000000000000000E+000
 -3.930000000000000E-002    0.000000000000000E+000
 -3.920000000000000E-002    0.000000000000000E+000
 -3.910000000000000E-002    0.000000000000000E+000
 -3.900000000000000E-002    0.000000000000000E+000
 -3.890000000000000E-002    0.000000000000000E+000
 -3.880000000000000E-002    0.000000000000000E+000
 -3.870000000000000E-002    0.000000000000000E+000
 -3.860000000000000E-002    0.000000000000000E+000
 -3.850000000000000E-002    0.000000000000000E+000
 -3.840000000000000E-002    0.000000000000000E+000
 -3.830000000000000E-002    0.000000000000000E+000
 -3.820000000000000E-002    0.000000000000000E+000
 -3.810000000000000E-002    0.000000000000000E+000
 -3.800000000000000E-002    0.000000000000000E+000
 -3.790000000000000E-002    0.000000000000000E+000
 -3.780000000000000E-002    0.000000000000000E+000
 -3.770000000000000E-002    0.000000000000000E+000
 -3.760000000000000E-002    0.000000000000000E+000
 -3.750000000000000E-002    0.000000000000000E+000
 -3.740000000000000E-002    0.000000000000000E+000
 -3.730000000000000E-002    0.000000000000000E+000
 -3.720000000000000E-002    0.000000000000000E+000
 -3.710000000000000E-002    0.000000000000000E+000
 -3.700000000000000E-002    0.000000000000000E+000
 -3.690000000000000E-002    0.000000000000000E+000
 -3.680000000000000E-002    0.000000000000000E+000
 -3.670000000000000E-002    0.000000000000000E+000
 -3.660000000000000E-002    0.000000000000000E+000
 -3.650000000000000E-002    0.000000000000000E+000
 -3.640000000000000E-002    0.000000000000000E+000
 -3.630000000000000E-002    0.000000000000000E+000
 -3.620000000000000E-002    0.000000000000000E+000
 -3.610000000000000E-002    0.000000000000000E+000
 -3.600000000000000E-002    0.000000000000000E+000
 -3.590000000000000E-002    0.000000000000000E+000
 -3.580000000000000E-002    0.000000000000000E+000
 -3.570000000000000E-002    0.000000000000000E+000
 -3.560000000000000E-002    0.000000000000000E+000
 -3.550000000000000E-002    0.000000000000000E+000
 -3.540000000000000E-002    0.000000000000000E+000
 -3.530000000000000E-002    0.000000000000000E+000
 -3.520000000000000E-002    0.000000000000000E+000
 -3.510000000000000E-002    0.000000000000000E+000
 -3.500000000000000E-002    0.000000000000000E+000
 -3.490000000000000E-002    0.000000000000000E+000
 -3.480000000000000E-002    0.000000000000000E+000
 -3.470000000000000E-002    0.000000000000000E+000
 -3.460000000000000E-002    0.000000000000000E+000
 -3.450000000000000E-002    0.000000000000000E+000
 -3.440000000000000E-002    0.000000000000000E+000
 -3.430000000000000E-002    0.000000000000000E+000
 -3.420000000000000E-002    0.000000000000000E+000
 -3.410000000000000E-002    0.000000000000000E+000
 -3.400000000000000E-002    0.000000000000000E+000
 -3.390000000000000E-002    0.000000000000000E+000
 -3.380000000000000E-002    0.000000000000000E+000
 -3.370000000000000E-002    0.000000000000000E+000
 -3.360000000000000E-002    0.000000000000000E+000
 -3.350000000000000E-002    0.000000000000000E+000
 -3.340000000000000E-002    0.000000000000000E+000
 -3.330000000000000E-002    0.000000000000000E+000
 -3.320000000000000E-002    0.000000000000000E+000
 -3.310000000000000E-002    0.000000000000000E+000
 -3.300000000000000E-002    0.000000000000000E+000
 -3.290000000000000E-002    0.000000000000000E+000
 -3.280000000000000E-002    0.000000000000000E+000
 -3.270000000000000E-002    0.000000000000000E+000
 -3.260000000000000E-002    0.000000000000000E+000
 -3.250000000000000E-002    0.000000000000000E+000
 -3.240000000000000E-002    0.000000000000000E+000
 -3.230000000000000E-002    0.000000000000000E+000
 -3.220000000000000E-002    0.000000000000000E+000
 -3.210000000000000E-002    0.000000000000000E+000
 -3.200000000000000E-002    0.000000000000000E+000
 -3.190000000000000E-002    0.000000000000000E+000
 -3.180000000000000E-002    0.000000000000000E+000
 -3.170000000000000E-002    0.000000000000000E+000
 -3.160000000000000E-002    0.000000000000000E+000
 -3.150000000000000E-002    0.000000000000000E+000
 -3.140000000000000E-002    0.000000000000000E+000
 -3.130000000000000E-002    0.000000000000000E+000
 -3.120000000000000E-002    0.000000000000000E+000
 -3.110000000000000E-002    0.000000000000000E+000
 -3.100000000000000E-002    0.000000000000000E+000
 -3.090000000000000E-002    0.000000000000000E+000
 -3.080000000000000E-002    0.000000000000000E+000
 -3.070000000000000E-002    0.000000000000000E+000
 -3.060000000000000E-002    0.000000000000000E+000
 -3.050000000000000E-002    0.000000000000000E+000
 -3.040000000000000E-002    0.000000000000000E+000
 -3.030000000000000E-002    0.000000000000000E+000
 -3.020000000000000E-002    0.000000000000000E+000
 -3.010000000000000E-002    0.000000000000000E+000
 -3.000000000000000E-002    0.000000000000000E+000
 -2.990000000000000E-002    0.000000000000000E+000
 -2.980000000000000E-002    0.000000000000000E+000
 -2.970000000000000E-002    0.000000000000000E+000
 -2.960000000000000E-002    0.000000000000000E+000
 -2.950000000000000E-002    0.000000000000000E+000
 -2.940000000000000E-002    0.000000000000000E+000
 -2.930000000000000E-002    0.000000000000000E+000
 -2.920000000000000E-002    0.000000000000000E+000
 -2.910000000000000E-002    0.000000000000000E+000
 -2.900000000000000E-002    0.000000000000000E+000
 -2.890000000000000E-002    0.000000000000000E+000
 -2.880000000000000E-002    0.000000000000000E+000
 -2.870000000000000E-002    0.000000000000000E+000
 -2.860000000000000E-002    0.000000000000000E+000
 -2.850000000000000E-002    0.000000000000000E+000
 -2.840000000000000E-002    0.000000000000000E+000
 -2.830000000000000E-002    0.000000000000000E+000
 -2.820000000000000E-002    0.000000000000000E+000
 -2.810000000000000E-002    0.000000000000000E+000
 -2.800000000000000E-002    0.000000000000000E+000
 -2.790000000000000E-002    0.000000000000000E+000
 -2.780000000000000E-002    0.000000000000000E+000
 -2.770000000000000E-002    0.000000000000000E+000
 -2.760000000000000E-002    0.000000000000000E+000
 -2.750000000000000E-002    0.000000000000000E+000
 -2.740000000000000E-002    0.000000000000000E+000
 -2.730000000000000E-002    0.000000000000000E+000
 -2.720000000000000E-002    0.000000000000000E+000
 -2.710000000000000E-002    0.000000000000000E+000
 -2.700000000000000E-002    0.000000000000000E+000
 -2.690000000000000E-002    0.000000000000000E+000
 -2.680000000000000E-002    0.000000000000000E+000
 -2.670000000000000E-002    0.000000000000000E+000
 -2.660000000000000E-002    0.000000000000000E+000
 -2.650000000000000E-002    0.000000000000000E+000
 -2.640000000000000E-002    0.000000000000000E+000
 -2.630000000000000E-002    0.000000000000000E+000
 -2.620000000000000E-002    0.000000000000000E+000
 -2.610000000000000E-002    0.000000000000000E+000
 -2.600000000000000E-002    0.000000000000000E+000
 -2.590000000000000E-002    0.000000000000000E+000
 -2.580000000000000E-002    0.000000000000000E+000
 -2.570000000000000E-002    0.000000000000000E+000
 -2.560000000000000E-002    0.000000000000000E+000
 -2.550000000000000E-002    0.000000000000000E+000
 -2.540000000000000E-002    0.000000000000000E+000
 -2.530000000000000E-002    0.000000000000000E+000
 -2.520000000000000E-002    0.000000000000000E+000
 -2.510000000000000E-002    0.000000000000000E+000
 -2.500000000000000E-002    0.000000000000000E+000
 -2.490000000000000E-002    0.000000000000000E+000
 -2.480000000000000E-002    0.000000000000000E+000
 -2.470000000000000E-002    0.000000000000000E+000
 -2.460000000000000E-002    0.000000000000000E+000
 -2.450000000000000E-002    0.000000000000000E+000
 -2.440000000000000E-002    0.000000000000000E+000
 -2.430000000000000E-002    0.000000000000000E+000
 -2.420000000000000E-002    0.000000000000000E+000
 -2.410000000000000E-002    0.000000000000000E+000
 -2.400000000000000E-002    0.000000000000000E+000
 -2.390000000000000E-002    0.000000000000000E+000
 -2.380000000000000E-002    0.000000000000000E+000
 -2.370000000000000E-002    0.000000000000000E+000
 -2.360000000000000E-002    0.000000000000000E+000
 -2.350000000000000E-002    0.000000000000000E+000
 -2.340000000000000E-002    0.000000000000000E+000
 -2.330000000000000E-002    0.000000000000000E+000
 -2.320000000000000E-002    0.000000000000000E+000
 -2.310000000000000E-002    0.000000000000000E+000
 -2.300000000000000E-002    0.000000000000000E+000
 -2.290000000000000E-002    0.000000000000000E+000
 -2.280000000000000E-002    0.000000000000000E+000
 -2.270000000000000E-002    0.000000000000000E+000
 -2.260000000000000E-002    0.000000000000000E+000
 -2.250000000000000E-002    0.000000000000000E+000
 -2.240000000000000E-002    0.000000000000000E+000
 -2.230000000000000E-002    0.000000000000000E+000
 -2.220000000000000E-002    0.000000000000000E+000
 -2.210000000000000E-002    0.000000000000000E+000
 -2.200000000000000E-002    0.000000000000000E+000
 -2.190000000000000E-002    0.000000000000000E+000
 -2.180000000000000E-002    0.000000000000000E+000
 -2.170000000000000E-002    0.000000000000000E+000
 -2.160000000000000E-002    0.000000000000000E+000
 -2.150000000000000E-002    0.000000000000000E+000
 -2.140000000000000E-002    0.000000000000000E+000
 -2.130000000000000E-002    0.000000000000000E+000
 -2.120000000000000E-002    0.000000000000000E+000
 -2.110000000000000E-002    0.000000000000000E+000
 -2.100000000000000E-002    0.000000000000000E+000
 -2.090000000000000E-002    0.000000000000000E+000
 -2.080000000000000E-002   -6.414635304221270E-048
 -2.070000000000000E-002   -1.282927060844254E-047
 -2.060000000000000E-002   -1.924390591266381E-047
 -2.050000000000000E-002   -1.924390591266381E-047
 -2.040000000000000E-002   -1.282927060844254E-047
 -2.030000000000000E-002    6.414635304221270E-048
 -2.020000000000000E-002    2.223740238796707E-047
 -2.010000000000000E-002   -3.915518733979217E-048
 -2.000000000000000E-002   -6.673755144645491E-050
 -1.990000000000000E-002    3.782043631086307E-048
 -1.980000000000000E-002   -1.480679022868736E-047
 -1.970000000000000E-002    1.448644947226612E-046
 -1.960000000000000E-002    2.058967016726096E-046
 -1.950000000000000E-002    2.644570090972519E-046
 -1.940000000000000E-002    5.315460929380640E-046
 -1.930000000000000E-002    7.684727823265680E-046
 -1.920000000000000E-002    8.727486960544738E-046
 -1.910000000000000E-002    5.756306979590292E-046
 -1.900000000000000E-002   -2.028652405743030E-046
 -1.890000000000000E-002   -4.854760540059866E-046
 -1.880000000000000E-002   -2.391628708731682E-045
 -1.870000000000000E-002   -4.528788319471080E-045
 -1.860000000000000E-002   -6.261028942952660E-045
 -1.850000000000000E-002   -7.111831431342781E-045
 -1.840000000000000E-002   -6.932424714240038E-045
 -1.830000000000000E-002   -4.852471605781611E-045
 -1.820000000000000E-002   -2.692199397340615E-046
 -1.810000000000000E-002    8.272396473480130E-045
 -1.800000000000000E-002    1.969094723919867E-044
 -1.790000000000000E-002    3.454911457217791E-044
 -1.780000000000000E-002    4.964682176969873E-044
 -1.770000000000000E-002    6.079429516267296E-044
 -1.760000000000000E-002    6.300296378115771E-044
 -1.750000000000000E-002    5.058566816497070E-044
 -1.740000000000000E-002    1.661076954709548E-044
 -1.730000000000000E-002   -4.336865346029320E-044
 -1.720000000000000E-002   -1.318518832570330E-043
 -1.710000000000000E-002   -2.420002656384722E-043
 -1.700000000000000E-002   -3.594496781674619E-043
 -1.690000000000000E-002   -4.575191939771293E-043
 -1.680000000000000E-002   -4.979220964810117E-043
 -1.670000000000000E-002   -4.323973969856052E-043
 -1.660000000000000E-002   -2.124834336086099E-043
 -1.650000000000000E-002    2.013669572457512E-043
 -1.640000000000000E-002    8.233085849388577E-043
 -1.630000000000000E-002    1.619447182858916E-042
 -1.620000000000000E-002    2.491359231714018E-042
 -1.610000000000000E-002    3.260715966014584E-042
 -1.600000000000000E-002    3.663485230979960E-042
 -1.590000000000000E-002    3.373104534852671E-042
 -1.580000000000000E-002    2.043989014746648E-042
 -1.570000000000000E-002   -6.109875375361949E-043
 -1.560000000000000E-002   -4.708302204963932E-042
 -1.550000000000000E-002   -1.006450260097442E-041
 -1.540000000000000E-002   -1.606443932022428E-041
 -1.530000000000000E-002   -2.156865481918457E-041
 -1.520000000000000E-002   -2.489408191963842E-041
 -1.510000000000000E-002   -2.392611183509936E-041
 -1.500000000000000E-002   -1.640903374005347E-041
 -1.490000000000000E-002   -4.329565490460619E-043
 -1.480000000000000E-002    2.488358818753158E-041
 -1.470000000000000E-002    5.858591770443599E-041
 -1.460000000000000E-002    9.707681459219185E-041
 -1.450000000000000E-002    1.335292773518794E-040
 -1.440000000000000E-002    1.577729779206358E-040
 -1.430000000000000E-002    1.569572317944071E-040
 -1.420000000000000E-002    1.172560661194669E-040
 -1.410000000000000E-002    2.674660161299873E-041
 -1.400000000000000E-002   -1.205891971513995E-040
 -1.390000000000000E-002   -3.201420779502296E-040
 -1.380000000000000E-002   -5.520043780232242E-040
 -1.370000000000000E-002   -7.775371440529228E-040
 -1.360000000000000E-002   -9.386843308165381E-040
 -1.350000000000000E-002   -9.616799029491545E-040
 -1.340000000000000E-002   -7.665690978281339E-040
 -1.330000000000000E-002   -2.833032915044877E-040
 -1.320000000000000E-002    5.260586509613071E-040
 -1.310000000000000E-002    1.641243653997079E-039
 -1.300000000000000E-002    2.958056082745031E-039
 -1.290000000000000E-002    4.269503810353568E-039
 -1.280000000000000E-002    5.261856019036965E-039
 -1.270000000000000E-002    5.534277672951193E-039
 -1.260000000000000E-002    4.649400380013478E-039
 -1.250000000000000E-002    2.218494721700438E-039
 -1.240000000000000E-002   -1.981595724170739E-039
 -1.230000000000000E-002   -7.871586068218494E-039
 -1.220000000000000E-002   -1.493553589770292E-038
 -1.210000000000000E-002   -2.212248170911757E-038
 -1.200000000000000E-002   -2.782510863859245E-038
 -1.190000000000000E-002   -2.997867829911918E-038
 -1.180000000000000E-002   -2.631624805021473E-038
 -1.170000000000000E-002   -1.479690633689283E-038
 -1.160000000000000E-002    5.808912617316465E-039
 -1.150000000000000E-002    3.523765550826402E-038
 -1.140000000000000E-002    7.106700238772550E-038
 -1.130000000000000E-002    1.082294280926908E-037
 -1.120000000000000E-002    1.389038497860268E-037
 -1.110000000000000E-002    1.529913981033103E-037
 -1.100000000000000E-002    1.393430403072728E-037
 -1.090000000000000E-002    8.781026754114088E-038
 -1.080000000000000E-002   -7.964668629779909E-039
 -1.070000000000000E-002   -1.473158160645030E-037
 -1.060000000000000E-002   -3.194126418563602E-037
 -1.050000000000000E-002   -5.009743623674424E-037
 -1.040000000000000E-002   -6.557576016368395E-037
 -1.030000000000000E-002   -7.367512338789069E-037
 -1.020000000000000E-002   -6.918213498220952E-037
 -1.010000000000000E-002   -4.730958836091687E-037
 -1.000000000000000E-002   -4.966123159892851E-038
 -9.899999999999999E-003    5.778063273871903E-037
 -9.800000000000000E-003    1.362910845905647E-036
 -9.699999999999999E-003    2.203320070970467E-036
 -9.599999999999999E-003    2.938514339182927E-036
 -9.500000000000000E-003    3.359549841533698E-036
 -9.399999999999999E-003    3.233961384929685E-036
 -9.299999999999999E-003    2.346919916837408E-036
 -9.200000000000000E-003    5.565624961822435E-037
 -9.099999999999999E-003   -2.142642787040296E-036
 -8.999999999999999E-003   -5.559122188261225E-036
 -8.900000000000000E-003   -9.260651618081591E-036
 -8.799999999999999E-003   -1.256516228414647E-035
 -8.699999999999999E-003   -1.458270996381895E-035
 -8.600000000000000E-003   -1.432124512316465E-035
 -8.499999999999999E-003   -1.086004093641981E-035
 -8.399999999999999E-003   -3.581300063004606E-036
 -8.300000000000000E-003    7.566441029633276E-036
 -8.199999999999999E-003    2.181763594186810E-035
 -8.100000000000000E-003    3.741208637171022E-035
 -8.000000000000000E-003    5.155985492424787E-035
 -7.899999999999999E-003    6.061586168695371E-035
 -7.800000000000000E-003    6.051298246303360E-035
 -7.699999999999999E-003    4.746604031677400E-035
 -7.599999999999999E-003    1.890526311176449E-035
 -7.499999999999999E-003   -2.546993196602968E-035
 -7.399999999999999E-003   -8.269604743713542E-035
 -7.299999999999999E-003   -1.458491324420324E-034
 -7.199999999999999E-003   -2.039187609959233E-034
 -7.100000000000000E-003   -2.425095783873449E-034
 -6.999999999999999E-003   -2.455527169868109E-034
 -6.899999999999999E-003   -1.980629921166438E-034
 -6.800000000000000E-003   -8.976722061288945E-035
 -6.699999999999999E-003    8.082872081749641E-035
 -6.599999999999999E-003    3.026314335621049E-034
 -6.499999999999999E-003    5.493264661915611E-034
 -6.399999999999999E-003    7.789458915957075E-034
 -6.299999999999999E-003    9.365884341270450E-034
 -6.199999999999999E-003    9.609464721736097E-034
 -6.100000000000000E-003    7.947311549999753E-034
 -5.999999999999999E-003    3.982931952587564E-034
 -5.899999999999999E-003   -2.352143367545632E-034
 -5.800000000000000E-003   -1.065745995912038E-033
 -5.699999999999999E-003   -1.996731548301182E-033
 -5.599999999999999E-003   -2.873637051748611E-033
 -5.499999999999999E-003   -3.494131905669483E-033
 -5.399999999999999E-003   -3.632114427440510E-033
 -5.299999999999999E-003   -3.075789513487836E-033
 -5.199999999999999E-003   -1.677084643494922E-033
 -5.099999999999999E-003    5.936893151341479E-034
 -4.999999999999999E-003    3.597399732949989E-033
 -4.899999999999999E-003    6.991961034713080E-033
 -4.799999999999999E-003    1.022766524749332E-032
 -4.699999999999999E-003    1.258377619063158E-032
 -4.599999999999999E-003    1.325398083125116E-032
 -4.499999999999999E-003    1.148078339860411E-032
 -4.399999999999999E-003    6.728886356070666E-033
 -4.299999999999999E-003   -1.124130735342258E-033
 -4.199999999999999E-003   -1.161299646032030E-032
 -4.099999999999999E-003   -2.356752650960036E-032
 -3.999999999999999E-003   -3.509774844209577E-032
 -3.899999999999999E-003   -4.372111389862274E-032
 -3.799999999999999E-003   -4.665613044228015E-032
 -3.699999999999999E-003   -4.128143543036024E-032
 -3.599999999999999E-003   -2.572462872712530E-032
 -3.499999999999999E-003    4.937491822126676E-034
 -3.399999999999999E-003    3.587312987833222E-032
 -3.299999999999999E-003    7.654249631692876E-032
 -3.199999999999999E-003    1.162143184801239E-031
 -3.099999999999999E-003    1.466118189661462E-031
 -2.999999999999999E-003    1.584465144134085E-031
 -2.899999999999999E-003    1.429367039940117E-031
 -2.799999999999999E-003    9.374553515909299E-032
 -2.699999999999999E-003    9.089709958214872E-033
 -2.599999999999999E-003   -1.063489623872004E-031
 -2.499999999999999E-003   -2.401615749239520E-031
 -2.399999999999999E-003   -3.720737984183386E-031
 -2.299999999999999E-003   -4.753371982091640E-031
 -2.199999999999999E-003   -5.198839815381056E-031
 -2.099999999999999E-003   -4.772011096671736E-031
 -1.999999999999999E-003   -3.265205553429566E-031
 -1.899999999999999E-003   -6.152159242399341E-032
 -1.799999999999999E-003    3.036251735977298E-031
 -1.699999999999999E-003    7.302960462427392E-031
 -1.599999999999999E-003    1.155009947218358E-030
 -1.499999999999999E-003    1.493825746015578E-030
 -1.399999999999999E-003    1.652231526248203E-030
 -1.299999999999999E-003    1.540345199246775E-030
 -1.199999999999999E-003    1.092129127470739E-030
 -1.099999999999999E-003    2.860998907805867E-031
 -9.999999999999989E-004   -8.360840734975487E-031
 -8.999999999999990E-004   -2.157520467190581E-030
 -7.999999999999990E-004   -3.484903408528682E-030
 -6.999999999999989E-004   -4.562020159661032E-030
 -5.999999999999990E-004   -5.099901339557902E-030
 -4.999999999999989E-004   -4.822926320241320E-030
 -3.999999999999989E-004   -3.526867778891288E-030
 -2.999999999999989E-004   -1.141196483425687E-030
 -1.999999999999989E-004    2.215239822729627E-030
 -9.999999999999892E-005    6.198141749461450E-030
  1.084202172485504E-018    1.023445589707644E-029
  1.000000000000011E-004    1.356262806334337E-029
  2.000000000000011E-004    1.532198344040054E-029
  3.000000000000011E-004    1.468893245298553E-029
  4.000000000000011E-004    1.104776570983246E-029
  5.000000000000011E-004    4.173376399452340E-030
  6.000000000000011E-004   -5.605998469457041E-030
  7.000000000000011E-004   -1.730369955232391E-029
  8.000000000000011E-004   -2.926504058443586E-029
  9.000000000000012E-004   -3.928386460445246E-029
  1.000000000000001E-003   -4.486048019530603E-029
  1.100000000000001E-003   -4.359359274974532E-029
  1.200000000000001E-003   -3.367035151921712E-029
  1.300000000000001E-003   -1.438921216215074E-029
  1.400000000000001E-003    1.337539219109441E-029
  1.500000000000001E-003    4.687330647609839E-029
  1.600000000000001E-003    8.144988154227566E-029
  1.700000000000001E-003    1.108733823389184E-028
  1.800000000000001E-003    1.280596907573173E-028
  1.900000000000001E-003    1.261714236962265E-028
  2.000000000000001E-003    9.998963182819063E-029
  2.100000000000001E-003    4.737489849725251E-029
  2.200000000000001E-003   -2.943550607424028E-029
  2.300000000000001E-003   -1.229889760384637E-028
  2.400000000000001E-003   -2.205288203589294E-028
  2.500000000000001E-003   -3.048859618355434E-028
  2.600000000000001E-003   -3.564614903515692E-028
  2.700000000000001E-003   -3.562317584111329E-028
  2.800000000000001E-003   -2.894966099707231E-028
  2.900000000000001E-003   -1.498682297676597E-028
  3.000000000000001E-003    5.718536573137990E-029
  3.100000000000001E-003    3.120381000462948E-028
  3.200000000000001E-003    5.806248442206371E-028
  3.300000000000001E-003    8.167978497334267E-028
  3.400000000000001E-003    9.676059790665907E-028
  3.500000000000001E-003    9.813106671081651E-028
  3.600000000000001E-003    8.173855603207869E-028
  3.700000000000001E-003    4.571635404345965E-028
  3.800000000000001E-003   -8.668808525470680E-029
  3.900000000000001E-003   -7.639602315673807E-028
  4.000000000000001E-003   -1.486011766594056E-027
  4.100000000000001E-003   -2.131801002636296E-027
  4.200000000000001E-003   -2.561582967220115E-027
  4.300000000000001E-003   -2.637770935784571E-027
  4.400000000000001E-003   -2.250997952921470E-027
  4.500000000000001E-003   -1.347909551138400E-027
  4.600000000000002E-003    4.402011740154092E-029
  4.700000000000001E-003    1.800052138828673E-027
  4.800000000000001E-003    3.695388160552456E-027
  4.900000000000002E-003    5.420143249997946E-027
  5.000000000000001E-003    6.613954949472676E-027
  5.100000000000001E-003    6.918992133902640E-027
  5.200000000000001E-003    6.046335464347218E-027
  5.300000000000002E-003    3.846962734473209E-027
  5.400000000000001E-003    3.754274396893813E-028
  5.500000000000001E-003   -4.067394143424267E-027
  5.600000000000002E-003   -8.925741528652608E-027
  5.700000000000001E-003   -1.342493899306736E-026
  5.800000000000001E-003   -1.665669509971833E-026
  5.900000000000002E-003   -1.771060211783169E-026
  6.000000000000001E-003   -1.583949502273892E-026
  6.100000000000001E-003   -1.063692090657040E-026
  6.200000000000002E-003   -2.197297399481682E-027
  6.300000000000002E-003    8.774880596554982E-027
  6.400000000000001E-003    2.093951786029990E-026
  6.500000000000001E-003    3.240466842356187E-026
  6.600000000000002E-003    4.093143465433429E-026
  6.700000000000001E-003    4.425286776127033E-026
  6.800000000000001E-003    4.047700592671864E-026
  6.900000000000002E-003    2.852143942533015E-026
  7.000000000000001E-003    8.508402026442094E-027
  7.100000000000001E-003   -1.796118322588228E-026
  7.200000000000002E-003   -4.773384821783343E-026
  7.300000000000002E-003   -7.629206758358344E-026
  7.400000000000001E-003   -9.823474094350752E-026
  7.500000000000001E-003   -1.080333016580687E-025
  7.600000000000002E-003   -1.009935659427247E-025
  7.700000000000001E-003   -7.429905679729482E-026
  7.800000000000001E-003   -2.796726012519445E-026
  7.900000000000001E-003    3.447415499650143E-026
  8.000000000000002E-003    1.057797861695291E-025
  8.100000000000001E-003    1.753959994055498E-025
  8.200000000000001E-003    2.305599247873217E-025
  8.300000000000002E-003    2.580538543402738E-025
  8.400000000000001E-003    2.464544946618445E-025
  8.500000000000002E-003    1.885896714433393E-025
  8.600000000000002E-003    8.381224122698650E-026
  8.700000000000001E-003   -6.035901699779832E-026
  8.800000000000002E-003   -2.276706485122462E-025
  8.900000000000002E-003   -3.939889115775462E-025
  9.000000000000001E-003   -5.297528241907425E-025
  9.100000000000002E-003   -6.039575418131070E-025
  9.200000000000002E-003   -5.893092984510439E-025
  9.300000000000001E-003   -4.679044736620492E-025
  9.400000000000002E-003   -2.365432128114272E-025
  9.500000000000001E-003    8.934961313415124E-026
  9.600000000000001E-003    4.742058026568765E-025
  9.700000000000002E-003    8.640105403799426E-025
  9.800000000000001E-003    1.191638156170367E-024
  9.900000000000001E-003    1.385701572176518E-024
  1.000000000000000E-002    1.382136497969715E-024
  1.010000000000000E-002    1.137089832594523E-024
  1.020000000000000E-002    6.391265716320053E-025
  1.030000000000000E-002   -8.154603523466926E-026
  1.040000000000000E-002   -9.491175970996003E-025
  1.050000000000000E-002   -1.845340403075277E-024
  1.060000000000000E-002   -2.620824018873084E-024
  1.070000000000000E-002   -3.114264725707204E-024
  1.080000000000000E-002   -3.177965651158891E-024
  1.090000000000000E-002   -2.706549448620037E-024
  1.100000000000000E-002   -1.664527704567569E-024
  1.110000000000000E-002   -1.076598429211251E-025
  1.120000000000000E-002    1.806976032378243E-024
  1.130000000000000E-002    3.826377923538511E-024
  1.140000000000000E-002    5.624865285660874E-024
  1.150000000000000E-002    6.844932489146823E-024
  1.160000000000000E-002    7.152357912781856E-024
  1.170000000000000E-002    6.298992491137668E-024
  1.180000000000000E-002    4.183959994499279E-024
  1.190000000000000E-002    9.022855947673968E-025
  1.200000000000000E-002   -3.230121871833938E-024
  1.210000000000000E-002   -7.684430752629168E-024
  1.220000000000000E-002   -1.176532434072330E-023
  1.230000000000000E-002   -1.469585901269953E-023
  1.240000000000000E-002   -1.573411857809851E-023
  1.250000000000000E-002   -1.430803373376257E-023
  1.260000000000000E-002   -1.014887964925765E-023
  1.270000000000000E-002   -3.400122093698469E-024
  1.280000000000000E-002    5.322214792365602E-024
  1.290000000000000E-002    1.493799192306832E-023
  1.300000000000000E-002    2.399285448116729E-023
  1.310000000000000E-002    3.083068528837293E-023
  1.320000000000000E-002    3.383571543010937E-023
  1.330000000000000E-002    3.171690734148032E-023
  1.340000000000000E-002    2.379424300332957E-023
  1.350000000000000E-002    1.023823270374022E-023
  1.360000000000000E-002   -7.787802231268291E-024
  1.370000000000000E-002   -2.812654798716306E-023
  1.380000000000000E-002   -4.779497658275067E-023
  1.390000000000000E-002   -6.332715291973573E-023
  1.400000000000000E-002   -7.126754388326306E-023
  1.410000000000000E-002   -6.876053752807416E-023
  1.420000000000000E-002   -5.415448512946840E-023
  1.430000000000000E-002   -2.752019234275747E-023
  1.440000000000000E-002    9.021390490317017E-024
  1.450000000000000E-002    5.125546720303579E-023
  1.460000000000000E-002    9.317663629624043E-023
  1.470000000000000E-002    1.276553580128107E-022
  1.480000000000000E-002    1.474247332431228E-022
  1.490000000000000E-002    1.462826083520834E-022
  1.500000000000000E-002    1.203464154465563E-022
  1.510000000000000E-002    6.915824603997987E-023
  1.520000000000000E-002   -3.576044043166631E-024
  1.530000000000000E-002   -8.980879689808089E-023
  1.540000000000000E-002   -1.776718258529682E-022
  1.550000000000000E-002   -2.527417121847215E-022
  1.560000000000000E-002   -2.999780493019080E-022
  1.570000000000000E-002   -3.061345233953111E-022
  1.580000000000000E-002   -2.623263036545926E-022
  1.590000000000000E-002   -1.663502047297639E-022
  1.600000000000000E-002   -2.432003523684730E-023
  1.610000000000000E-002    1.487869440846428E-022
  1.620000000000000E-002    3.299684899165388E-022
  1.630000000000000E-002    4.905402394103835E-022
  1.640000000000000E-002    5.998685400743599E-022
  1.650000000000000E-002    6.301272300234141E-022
  1.660000000000000E-002    5.614698164378627E-022
  1.670000000000000E-002    3.868266634273288E-022
  1.680000000000000E-002    1.154549244153718E-022
  1.690000000000000E-002   -2.255835491593640E-022
  1.700000000000000E-002   -5.926441239351937E-022
  1.710000000000000E-002   -9.297123661878096E-022
  1.720000000000000E-002   -1.175451453977050E-021
  1.730000000000000E-002   -1.272423798546894E-021
  1.740000000000000E-002   -1.177344476080815E-021
  1.750000000000000E-002   -8.708442377674808E-022
  1.760000000000000E-002   -3.650250243757942E-022
  1.770000000000000E-002    2.928479219111275E-022
  1.780000000000000E-002    1.021827958743505E-021
  1.790000000000000E-002    1.714625454007865E-021
  1.800000000000000E-002    2.250634513230320E-021
  1.810000000000000E-002    2.513495808452730E-021
  1.820000000000000E-002    2.411094238486426E-021
  1.830000000000000E-002    1.895097387555056E-021
  1.840000000000000E-002    9.767202462159035E-022
  1.850000000000000E-002   -2.645739374858601E-022
  1.860000000000000E-002   -1.682115170900080E-021
  1.870000000000000E-002   -3.074365438006719E-021