 -4.000000000000000E-002    0.000000000000000E+000
 -3.990000000000000E-002    0.000000000000000E+000
 -3.980000000000000E-002    0.000000000000000E+000
 -3.970000000000000E-002    0.000000000000000E+000
 -3.960000000000000E-002    0.000000000000000E+000
 -3.950000000000000E-002    0.000000000000000E+000
 -3.940000000000000E-002    0.000000000000000E+000
 -3.930000000000000E-002    0.000000000000000E+000
 -3.920000000000000E-002    0.000000000000000E+000
 -3.910000000000000E-002    0.000000000000000E+000
 -3.900000000000000E-002    0.000000000000000E+000
 -3.890000000000000E-002    0.000000000000000E+000
 -3.880000000000000E-002    0.000000000000000E+000
 -3.870000000000000E-002    0.000000000000000E+000
 -3.860000000000000E-002    0.000000000000000E+000
 -3.850000000000000E-002    0.000000000000000E+000
 -3.840000000000000E-002    0.000000000000000E+000
 -3.830000000000000E-002    0.000000000000000E+000
 -3.820000000000000E-002    0.000000000000000E+000
 -3.810000000000000E-002    0.000000000000000E+000
 -3.800000000000000E-002    0.000000000000000E+000
 -3.790000000000000E-002    0.000000000000000E+000
 -3.780000000000000E-002    0.000000000000000E+000
 -3.770000000000000E-002    0.000000000000000E+000
 -3.760000000000000E-002    0.000000000000000E+000
 -3.750000000000000E-002    0.000000000000000E+000
 -3.740000000000000E-002    0.000000000000000E+000
 -3.730000000000000E-002    0.000000000000000E+000
 -3.720000000000000E-002    0.000000000000000E+000
 -3.710000000000000E-002    0.000000000000000E+000
 -3.700000000000000E-002    0.000000000000000E+000
 -3.690000000000000E-002    0.000000000000000E+000
 -3.680000000000000E-002    0.000000000000000E+000
 -3.670000000000000E-002    0.000000000000000E+000
 -3.660000000000000E-002    0.000000000000000E+000
 -3.650000000000000E-002    0.000000000000000E+000
 -3.640000000000000E-002    0.000000000000000E+000
 -3.630000000000000E-002    0.000000000000000E+000
 -3.620000000000000E-002    0.000000000000000E+000
 -3.610000000000000E-002    0.000000000000000E+000
 -3.600000000000000E-002    0.000000000000000E+000
 -3.590000000000000E-002    0.000000000000000E+000
 -3.580000000000000E-002    0.000000000000000E+000
 -3.570000000000000E-002    0.000000000000000E+000
 -3.560000000000000E-002    0.000000000000000E+000
 -3.550000000000000E-002    0.000000000000000E+000
 -3.540000000000000E-002    0.000000000000000E+000
 -3.530000000000000E-002    0.000000000000000E+000
 -3.520000000000000E-002    0.000000000000000E+000
 -3.510000000000000E-002    0.000000000000000E+000
 -3.500000000000000E-002    0.000000000000000E+000
 -3.490000000000000E-002    0.000000000000000E+000
 -3.480000000000000E-002    0.000000000000000E+000
 -3.470000000000000E-002    0.000000000000000E+000
 -3.460000000000000E-002    0.000000000000000E+000
 -3.450000000000000E-002    0.000000000000000E+000
 -3.440000000000000E-002    0.000000000000000E+000
 -3.430000000000000E-002    0.000000000000000E+000
 -3.420000000000000E-002    0.000000000000000E+000
 -3.410000000000000E-002    0.000000000000000E+000
 -3.400000000000000E-002    0.000000000000000E+000
 -3.390000000000000E-002    0.000000000000000E+000
 -3.380000000000000E-002    0.000000000000000E+000
 -3.370000000000000E-002    0.000000000000000E+000
 -3.360000000000000E-002    0.000000000000000E+000
 -3.350000000000000E-002    0.000000000000000E+000
 -3.340000000000000E-002    0.000000000000000E+000
 -3.330000000000000E-002    0.000000000000000E+000
 -3.320000000000000E-002    0.000000000000000E+000
 -3.310000000000000E-002    0.000000000000000E+000
 -3.300000000000000E-002    0.000000000000000E+000
 -3.290000000000000E-002    0.000000000000000E+000
 -3.280000000000000E-002    0.000000000000000E+000
 -3.270000000000000E-002    0.000000000000000E+000
 -3.260000000000000E-002    0.000000000000000E+000
 -3.250000000000000E-002    0.000000000000000E+000
 -3.240000000000000E-002    0.000000000000000E+000
 -3.230000000000000E-002    0.000000000000000E+000
 -3.220000000000000E-002    0.000000000000000E+000
 -3.210000000000000E-002    0.000000000000000E+000
 -3.200000000000000E-002    0.000000000000000E+000
 -3.190000000000000E-002    0.000000000000000E+000
 -3.180000000000000E-002    0.000000000000000E+000
 -3.170000000000000E-002    0.000000000000000E+000
 -3.160000000000000E-002    0.000000000000000E+000
 -3.150000000000000E-002    0.000000000000000E+000
 -3.140000000000000E-002    0.000000000000000E+000
 -3.130000000000000E-002    0.000000000000000E+000
 -3.120000000000000E-002    0.000000000000000E+000
 -3.110000000000000E-002    0.000000000000000E+000
 -3.100000000000000E-002    0.000000000000000E+000
 -3.090000000000000E-002    0.000000000000000E+000
 -3.080000000000000E-002    0.000000000000000E+000
 -3.070000000000000E-002    0.000000000000000E+000
 -3.060000000000000E-002    0.000000000000000E+000
 -3.050000000000000E-002    0.000000000000000E+000
 -3.040000000000000E-002    0.000000000000000E+000
 -3.030000000000000E-002    0.000000000000000E+000
 -3.020000000000000E-002    0.000000000000000E+000
 -3.010000000000000E-002    0.000000000000000E+000
 -3.000000000000000E-002    0.000000000000000E+000
 -2.990000000000000E-002    0.000000000000000E+000
 -2.980000000000000E-002    0.000000000000000E+000
 -2.970000000000000E-002    0.000000000000000E+000
 -2.960000000000000E-002    0.000000000000000E+000
 -2.950000000000000E-002    0.000000000000000E+000
 -2.940000000000000E-002    0.000000000000000E+000
 -2.930000000000000E-002    0.000000000000000E+000
 -2.920000000000000E-002    0.000000000000000E+000
 -2.910000000000000E-002    0.000000000000000E+000
 -2.900000000000000E-002    0.000000000000000E+000
 -2.890000000000000E-002    0.000000000000000E+000
 -2.880000000000000E-002    0.000000000000000E+000
 -2.870000000000000E-002    0.000000000000000E+000
 -2.860000000000000E-002    0.000000000000000E+000
 -2.850000000000000E-002    0.000000000000000E+000
 -2.840000000000000E-002    0.000000000000000E+000
 -2.830000000000000E-002    0.000000000000000E+000
 -2.820000000000000E-002    0.000000000000000E+000
 -2.810000000000000E-002    0.000000000000000E+000
 -2.800000000000000E-002    0.000000000000000E+000
 -2.790000000000000E-002    0.000000000000000E+000
 -2.780000000000000E-002    0.000000000000000E+000
 -2.770000000000000E-002    0.000000000000000E+000
 -2.760000000000000E-002    0.000000000000000E+000
 -2.750000000000000E-002    0.000000000000000E+000
 -2.740000000000000E-002    0.000000000000000E+000
 -2.730000000000000E-002    0.000000000000000E+000
 -2.720000000000000E-002    0.000000000000000E+000
 -2.710000000000000E-002    0.000000000000000E+000
 -2.700000000000000E-002    0.000000000000000E+000
 -2.690000000000000E-002    0.000000000000000E+000
 -2.680000000000000E-002    0.000000000000000E+000
 -2.670000000000000E-002    0.000000000000000E+000
 -2.660000000000000E-002    0.000000000000000E+000
 -2.650000000000000E-002    0.000000000000000E+000
 -2.640000000000000E-002    0.000000000000000E+000
 -2.630000000000000E-002    0.000000000000000E+000
 -2.620000000000000E-002    0.000000000000000E+000
 -2.610000000000000E-002    0.000000000000000E+000
 -2.600000000000000E-002    0.000000000000000E+000
 -2.590000000000000E-002    0.000000000000000E+000
 -2.580000000000000E-002    0.000000000000000E+000
 -2.570000000000000E-002    0.000000000000000E+000
 -2.560000000000000E-002    0.000000000000000E+000
 -2.550000000000000E-002    0.000000000000000E+000
 -2.540000000000000E-002    0.000000000000000E+000
 -2.530000000000000E-002    0.000000000000000E+000
 -2.520000000000000E-002    0.000000000000000E+000
 -2.510000000000000E-002    0.000000000000000E+000
 -2.500000000000000E-002    0.000000000000000E+000
 -2.490000000000000E-002    0.000000000000000E+000
 -2.480000000000000E-002    0.000000000000000E+000
 -2.470000000000000E-002    0.000000000000000E+000
 -2.460000000000000E-002    0.000000000000000E+000
 -2.450000000000000E-002    0.000000000000000E+000
 -2.440000000000000E-002    0.000000000000000E+000
 -2.430000000000000E-002    0.000000000000000E+000
 -2.420000000000000E-002    0.000000000000000E+000
 -2.410000000000000E-002    0.000000000000000E+000
 -2.400000000000000E-002    0.000000000000000E+000
 -2.390000000000000E-002    0.000000000000000E+000
 -2.380000000000000E-002    0.000000000000000E+000
 -2.370000000000000E-002    0.000000000000000E+000
 -2.360000000000000E-002    0.000000000000000E+000
 -2.350000000000000E-002    0.000000000000000E+000
 -2.340000000000000E-002    0.000000000000000E+000
 -2.330000000000000E-002    0.000000000000000E+000
 -2.320000000000000E-002    0.000000000000000E+000
 -2.310000000000000E-002    0.000000000000000E+000
 -2.300000000000000E-002    0.000000000000000E+000
 -2.290000000000000E-002    0.000000000000000E+000
 -2.280000000000000E-002    0.000000000000000E+000
 -2.270000000000000E-002    0.000000000000000E+000
 -2.260000000000000E-002    0.000000000000000E+000
 -2.250000000000000E-002    0.000000000000000E+000
 -2.240000000000000E-002    0.000000000000000E+000
 -2.230000000000000E-002    0.000000000000000E+000
 -2.220000000000000E-002    0.000000000000000E+000
 -2.210000000000000E-002    0.000000000000000E+000
 -2.200000000000000E-002    0.000000000000000E+000
 -2.190000000000000E-002    0.000000000000000E+000
 -2.180000000000000E-002    0.000000000000000E+000
 -2.170000000000000E-002    0.000000000000000E+000
 -2.160000000000000E-002    0.000000000000000E+000
 -2.150000000000000E-002    0.000000000000000E+000
 -2.140000000000000E-002    0.000000000000000E+000
 -2.130000000000000E-002    0.000000000000000E+000
 -2.120000000000000E-002    0.000000000000000E+000
 -2.110000000000000E-002    0.000000000000000E+000
 -2.100000000000000E-002    0.000000000000000E+000
 -2.090000000000000E-002    0.000000000000000E+000
 -2.080000000000000E-002    0.000000000000000E+000
 -2.070000000000000E-002    0.000000000000000E+000
 -2.060000000000000E-002    0.000000000000000E+000
 -2.050000000000000E-002    0.000000000000000E+000
 -2.040000000000000E-002    0.000000000000000E+000
 -2.030000000000000E-002    0.000000000000000E+000
 -2.020000000000000E-002    0.000000000000000E+000
 -2.010000000000000E-002    0.000000000000000E+000
 -2.000000000000000E-002    0.000000000000000E+000
 -1.990000000000000E-002    0.000000000000000E+000
 -1.980000000000000E-002    0.000000000000000E+000
 -1.970000000000000E-002    0.000000000000000E+000
 -1.960000000000000E-002    0.000000000000000E+000
 -1.950000000000000E-002    0.000000000000000E+000
 -1.940000000000000E-002    0.000000000000000E+000
 -1.930000000000000E-002    0.000000000000000E+000
 -1.920000000000000E-002    0.000000000000000E+000
 -1.910000000000000E-002    0.000000000000000E+000
 -1.900000000000000E-002    0.000000000000000E+000
 -1.890000000000000E-002    0.000000000000000E+000
 -1.880000000000000E-002    0.000000000000000E+000
 -1.870000000000000E-002    0.000000000000000E+000
 -1.860000000000000E-002    0.000000000000000E+000
 -1.850000000000000E-002    0.000000000000000E+000
 -1.840000000000000E-002    0.000000000000000E+000
 -1.830000000000000E-002    0.000000000000000E+000
 -1.820000000000000E-002    0.000000000000000E+000
 -1.810000000000000E-002    0.000000000000000E+000
 -1.800000000000000E-002    0.000000000000000E+000
 -1.790000000000000E-002    0.000000000000000E+000
 -1.780000000000000E-002    0.000000000000000E+000
 -1.770000000000000E-002    0.000000000000000E+000
 -1.760000000000000E-002    0.000000000000000E+000
 -1.750000000000000E-002    0.000000000000000E+000
 -1.740000000000000E-002    0.000000000000000E+000
 -1.730000000000000E-002    0.000000000000000E+000
 -1.720000000000000E-002    0.000000000000000E+000
 -1.710000000000000E-002    0.000000000000000E+000
 -1.700000000000000E-002    0.000000000000000E+000
 -1.690000000000000E-002    0.000000000000000E+000
 -1.680000000000000E-002    0.000000000000000E+000
 -1.670000000000000E-002    0.000000000000000E+000
 -1.660000000000000E-002    0.000000000000000E+000
 -1.650000000000000E-002    0.000000000000000E+000
 -1.640000000000000E-002    0.000000000000000E+000
 -1.630000000000000E-002    0.000000000000000E+000
 -1.620000000000000E-002    0.000000000000000E+000
 -1.610000000000000E-002    0.000000000000000E+000
 -1.600000000000000E-002    0.000000000000000E+000
 -1.590000000000000E-002    0.000000000000000E+000
 -1.580000000000000E-002    0.000000000000000E+000
 -1.570000000000000E-002    0.000000000000000E+000
 -1.560000000000000E-002    0.000000000000000E+000
 -1.550000000000000E-002    0.000000000000000E+000
 -1.540000000000000E-002    0.000000000000000E+000
 -1.530000000000000E-002    0.000000000000000E+000
 -1.520000000000000E-002    0.000000000000000E+000
 -1.510000000000000E-002    0.000000000000000E+000
 -1.500000000000000E-002   -1.924390591266381E-047
 -1.490000000000000E-002   -3.848781182532762E-047
 -1.480000000000000E-002   -5.773171773799143E-047
 -1.470000000000000E-002   -5.773171773799143E-047
 -1.460000000000000E-002   -3.848781182532762E-047
 -1.450000000000000E-002    0.000000000000000E+000
 -1.440000000000000E-002    2.221465941803953E-046
 -1.430000000000000E-002    6.343666060200795E-046
 -1.420000000000000E-002    1.072245159076649E-045
 -1.410000000000000E-002    1.661909530621519E-045
 -1.400000000000000E-002    2.187227336469837E-045
 -1.390000000000000E-002    2.300325130478470E-045
 -1.380000000000000E-002    1.766227047858582E-045
 -1.370000000000000E-002   -8.071553633972478E-046
 -1.360000000000000E-002   -4.366465915850993E-045
 -1.350000000000000E-002   -8.863314285992741E-045
 -1.340000000000000E-002   -1.405671039903811E-044
 -1.330000000000000E-002   -1.902210640005537E-044
 -1.320000000000000E-002   -2.155929096034654E-044
 -1.310000000000000E-002   -1.922962853055095E-044
 -1.300000000000000E-002   -1.213928961038346E-044
 -1.290000000000000E-002    2.084932059223973E-045
 -1.280000000000000E-002    2.454727317292387E-044
 -1.270000000000000E-002    5.330295835713435E-044
 -1.260000000000000E-002    8.474783240676836E-044
 -1.250000000000000E-002    1.120284519966660E-043
 -1.240000000000000E-002    1.260824761456996E-043
 -1.230000000000000E-002    1.157855813168855E-043
 -1.220000000000000E-002    7.122653691087196E-044
 -1.210000000000000E-002   -1.691550566164347E-044
 -1.200000000000000E-002   -1.508799473816754E-043
 -1.190000000000000E-002   -3.222325597866249E-043
 -1.180000000000000E-002   -5.083259269661527E-043
 -1.170000000000000E-002   -6.711054079847480E-043
 -1.160000000000000E-002   -7.555953228634131E-043
 -1.150000000000000E-002   -6.987674144272269E-043
 -1.140000000000000E-002   -4.368024854210677E-043
 -1.130000000000000E-002    7.807865839154859E-044
 -1.120000000000000E-002    8.569344518447581E-043
 -1.110000000000000E-002    1.847937342714088E-042
 -1.100000000000000E-002    2.920141561916357E-042
 -1.090000000000000E-002    3.854181733832935E-042
 -1.080000000000000E-002    4.344900447532509E-042
 -1.070000000000000E-002    4.034966348165329E-042
 -1.060000000000000E-002    2.573832093939182E-042
 -1.050000000000000E-002   -2.890294195487156E-043
 -1.040000000000000E-002   -4.594952564151375E-042
 -1.030000000000000E-002   -1.005119105271526E-041
 -1.020000000000000E-002   -1.593110074236785E-041
 -1.010000000000000E-002   -2.102885284085153E-041
 -1.000000000000000E-002   -2.370451035274106E-041
 -9.899999999999999E-003   -2.206044650924534E-041
 -9.800000000000000E-003   -1.427162895489142E-041
 -9.699999999999999E-003    9.322025896665209E-043
 -9.599999999999999E-003    2.367987979696742E-041
 -9.500000000000000E-003    5.234903208134485E-041
 -9.399999999999999E-003    8.307332371433016E-041
 -9.299999999999999E-003    1.095495127147584E-040
 -9.200000000000000E-003    1.233380821021215E-040
 -9.099999999999999E-003    1.148205422528992E-040
 -8.999999999999999E-003    7.491899539586157E-041
 -8.900000000000000E-003   -2.464015646498690E-042
 -8.799999999999999E-003   -1.175311366333665E-040
 -8.699999999999999E-003   -2.616490213303100E-040
 -8.600000000000000E-003   -4.150946885881548E-040
 -8.499999999999999E-003   -5.463419537051310E-040
 -8.399999999999999E-003   -6.138130938097334E-040
 -8.300000000000000E-003   -5.708535219326926E-040
 -8.199999999999999E-003   -3.742975004881378E-040
 -8.100000000000000E-003    3.711934097513794E-042
 -8.000000000000000E-003    5.618810111927122E-040
 -7.899999999999999E-003    1.256247220611391E-039
 -7.800000000000000E-003    1.990296239284091E-039
 -7.699999999999999E-003    2.612772396005102E-039
 -7.599999999999999E-003    2.927275439114505E-039
 -7.499999999999999E-003    2.716878920639578E-039
 -7.399999999999999E-003    1.784974504747422E-039
 -7.299999999999999E-003    1.027394221389694E-041
 -7.199999999999999E-003   -2.590341750814041E-039
 -7.100000000000000E-003   -5.802182218231163E-039
 -6.999999999999999E-003   -9.171640971303002E-039
 -6.899999999999999E-003   -1.200160134992412E-038
 -6.800000000000000E-003   -1.340095072504884E-038
 -6.699999999999999E-003   -1.240117819490185E-038
 -6.599999999999999E-003   -8.143289174811663E-039
 -6.499999999999999E-003   -1.234473527142482E-040
 -6.399999999999999E-003    1.153297342232585E-038
 -6.299999999999999E-003    2.581926339849669E-038
 -6.199999999999999E-003    4.068469274016303E-038
 -6.100000000000000E-003    5.303801672284346E-038
 -5.999999999999999E-003    5.898939148722715E-038
 -5.899999999999999E-003    5.437998954590692E-038
 -5.800000000000000E-003    3.560414338251891E-038
 -5.699999999999999E-003    6.642794232348016E-040
 -5.599999999999999E-003   -4.968007807486024E-038
 -5.499999999999999E-003   -1.108891248925651E-037
 -5.399999999999999E-003   -1.740311005427221E-037
 -5.299999999999999E-003   -2.258966780858587E-037
 -5.199999999999999E-003   -2.501236417645139E-037
 -5.099999999999999E-003   -2.295082596432293E-037
 -4.999999999999999E-003   -1.494866065564046E-037
 -4.899999999999999E-003   -2.498210021036034E-039
 -4.799999999999999E-003    2.073750176819111E-037
 -4.699999999999999E-003    4.604174579885026E-037
 -4.599999999999999E-003    7.190988572308352E-037
 -4.499999999999999E-003    9.289443173262859E-037
 -4.399999999999999E-003    1.023527073033726E-036
 -4.299999999999999E-003    9.341777929424436E-037
 -4.199999999999999E-003    6.041966186884936E-037
 -4.099999999999999E-003    6.264041118985628E-039
 -3.999999999999999E-003   -8.394968325146056E-037
 -3.899999999999999E-003   -1.850535838812824E-036
 -3.799999999999999E-003   -2.874527320391301E-036
 -3.699999999999999E-003   -3.694370400738190E-036
 -3.599999999999999E-003   -4.049416224300614E-036
 -3.499999999999999E-003   -3.674781460606188E-036
 -3.399999999999999E-003   -2.357359570825112E-036
 -3.299999999999999E-003   -2.921571500137594E-039
 -3.199999999999999E-003    3.295971194709295E-036
 -3.099999999999999E-003    7.205762761122137E-036
 -2.999999999999999E-003    1.112865197882352E-035
 -2.899999999999999E-003    1.422754917845548E-035
 -2.799999999999999E-003    1.551272632812033E-035
 -2.699999999999999E-003    1.399544426311069E-035
 -2.599999999999999E-003    8.901329246973187E-036
 -2.499999999999999E-003   -7.954758813277395E-038
 -2.399999999999999E-003   -1.254579158684273E-035
 -2.299999999999999E-003   -2.719559473049339E-035
 -2.199999999999999E-003   -4.175844588345145E-035
 -2.099999999999999E-003   -5.310863352745884E-035
 -1.999999999999999E-003   -5.760549836552485E-035
 -1.899999999999999E-003   -5.167361323515030E-035
 -1.799999999999999E-003   -3.258931330438158E-035
 -1.699999999999999E-003    6.169952451299801E-037
 -1.599999999999999E-003    4.629225302273279E-035
 -1.499999999999999E-003    9.952422153829378E-035
 -1.399999999999999E-003    1.519596489266370E-034
 -1.299999999999999E-003    1.922853861797980E-034
 -1.199999999999999E-003    2.075164003940643E-034
 -1.099999999999999E-003    1.851155324049139E-034
 -9.999999999999989E-004    1.158019495888746E-034
 -8.999999999999990E-004   -3.293953791827975E-036
 -7.999999999999990E-004   -1.656702906614526E-034
 -6.999999999999989E-004   -3.533852490431232E-034
 -5.999999999999990E-004   -5.366421890280228E-034
 -4.999999999999989E-004   -6.757157442131760E-034
 -3.999999999999989E-004   -7.256599634296738E-034
 -2.999999999999989E-004   -6.438108593624043E-034
 -1.999999999999989E-004   -3.995104215168617E-034
 -9.999999999999892E-005    1.519304058221112E-035
  1.084202172485504E-018    5.757629686828304E-034
  1.000000000000011E-004    1.218685912002060E-033
  2.000000000000011E-004    1.840800648573739E-033
  3.000000000000011E-004    2.306641452701178E-033
  4.000000000000011E-004    2.465087223816279E-033
  5.000000000000011E-004    2.175113833932226E-033
  6.000000000000011E-004    1.338478067529929E-033
  7.000000000000011E-004   -6.504337029120974E-035
  8.000000000000011E-004   -1.946287147494546E-033
  9.000000000000012E-004   -4.087054659013343E-033
  1.000000000000001E-003   -6.140299363744157E-033
  1.100000000000001E-003   -7.656941600225401E-033
  1.200000000000001E-003   -8.142909337942686E-033
  1.300000000000001E-003   -7.144974456186191E-033
  1.400000000000001E-003   -4.357505068498673E-033
  1.500000000000001E-003    2.647333846061802E-034
  1.600000000000001E-003    6.408879755633350E-033
  1.700000000000001E-003    1.334656110089169E-032
  1.800000000000001E-003    1.994209439168068E-032
  1.900000000000001E-003    2.474665507126600E-032
  2.000000000000001E-003    2.618788740071359E-032
  2.100000000000001E-003    2.284801262957616E-032
  2.200000000000001E-003    1.380303346642878E-032
  2.300000000000001E-003   -1.025934848408022E-033
  2.400000000000001E-003   -2.057681151274064E-032
  2.500000000000001E-003   -4.248468574373530E-032
  2.600000000000001E-003   -6.313085280077083E-032
  2.700000000000001E-003   -7.796179634760461E-032
  2.800000000000001E-003   -8.210144182024431E-032
  2.900000000000001E-003   -7.122794838737434E-032
  3.000000000000001E-003   -4.262324230411057E-032
  3.100000000000001E-003    3.761182014609508E-033
  3.200000000000001E-003    6.443230038721884E-032
  3.300000000000001E-003    1.319156812072438E-031
  3.400000000000001E-003    1.949747521096577E-031
  3.500000000000001E-003    2.396553563161094E-031
  3.600000000000001E-003    2.512081155134959E-031
  3.700000000000001E-003    2.167805686600764E-031
  3.800000000000001E-003    1.285821709904618E-031
  3.900000000000001E-003   -1.296368439957563E-032
  4.000000000000001E-003   -1.967160228347318E-031
  4.100000000000001E-003   -3.996652424629734E-031
  4.200000000000001E-003   -5.877871779337613E-031
  4.300000000000001E-003   -7.193559632087011E-031
  4.400000000000001E-003   -7.508179851847570E-031
  4.500000000000001E-003   -6.448487389180522E-031
  4.600000000000002E-003   -3.796622333364789E-031
  4.700000000000001E-003    4.189358385194692E-032
  4.800000000000001E-003    5.853273581206209E-031
  4.900000000000002E-003    1.181609686487202E-030
  5.000000000000001E-003    1.730220824477186E-030
  5.100000000000001E-003    2.109341741164763E-030
  5.200000000000001E-003    2.193335473078648E-030
  5.300000000000002E-003    1.876264632689286E-030
  5.400000000000001E-003    1.098618256655081E-030
  5.500000000000001E-003   -1.270610654171009E-031
  5.600000000000002E-003   -1.697027239984239E-030
  5.700000000000001E-003   -3.409358736609725E-030
  5.800000000000001E-003   -4.974156308914200E-030
  5.900000000000002E-003   -6.043993593781559E-030
  6.000000000000001E-003   -6.264629342740397E-030
  6.100000000000001E-003   -5.342003201734370E-030
  6.200000000000002E-003   -3.117180900772694E-030
  6.300000000000002E-003    3.630954215378601E-031
  6.400000000000001E-003    4.795317914161386E-030
  6.500000000000001E-003    9.603227069956923E-030
  6.600000000000002E-003    1.397022534535306E-029
  6.700000000000001E-003    1.692786907209999E-029
  6.800000000000001E-003    1.749937015174727E-029
  6.900000000000002E-003    1.488600453432504E-029
  7.000000000000001E-003    8.672492615079320E-030
  7.100000000000001E-003   -9.831014451730123E-031
  7.200000000000002E-003   -1.321619414404773E-029
  7.300000000000002E-003   -2.642113650732421E-029
  7.400000000000001E-003   -3.834990108112024E-029
  7.500000000000001E-003   -4.636250326206479E-029
  7.600000000000002E-003   -4.782344379991502E-029
  7.700000000000001E-003   -4.060860387868740E-029
  7.800000000000001E-003   -2.365569390514582E-029
  7.900000000000001E-003    2.535665190037446E-030
  8.000000000000002E-003    3.556448608791757E-029
  8.100000000000001E-003    7.105939868644507E-029
  8.200000000000001E-003    1.029679992645233E-028
  8.300000000000002E-003    1.242477473793838E-028
  8.400000000000001E-003    1.279360814746944E-028
  8.500000000000002E-003    1.084985286760065E-028
  8.600000000000002E-003    6.327253585935517E-029
  8.700000000000001E-003   -6.243099699330267E-030
  8.800000000000002E-003   -9.354153440085753E-029
  8.900000000000002E-003   -1.869853529967106E-028
  9.000000000000001E-003   -2.706267820452717E-028
  9.100000000000002E-003   -3.260678349329568E-028
  9.200000000000002E-003   -3.352848590723787E-028
  9.300000000000001E-003   -2.841377233580109E-028
  9.400000000000002E-003   -1.660790819520079E-028
  9.500000000000001E-003    1.458774513167315E-029
  9.600000000000001E-003    2.406400444289874E-028
  9.700000000000002E-003    4.817623272763927E-028
  9.800000000000001E-003    6.968001631437665E-028
  9.900000000000001E-003    8.386520219962630E-028
  1.000000000000000E-002    8.615639795256194E-028
  1.010000000000000E-002    7.300767398825435E-028
  1.020000000000000E-002    4.283654200421083E-028
  1.030000000000000E-002   -3.168745554364378E-029
  1.040000000000000E-002   -6.055347445736099E-028
  1.050000000000000E-002   -1.215859894844462E-027
  1.060000000000000E-002   -1.758592140508500E-027
  1.070000000000000E-002   -2.115479918497902E-027
  1.080000000000000E-002   -2.172537325914724E-027
  1.090000000000000E-002   -1.842399602625435E-027
  1.100000000000000E-002   -1.087388662966103E-027
  1.110000000000000E-002    6.085035716363887E-029
  1.120000000000000E-002    1.489683858545065E-027
  1.130000000000000E-002    3.005984299173320E-027
  1.140000000000000E-002    4.351744842140585E-027
  1.150000000000000E-002    5.235685827025780E-027
  1.160000000000000E-002    5.378947597564847E-027
  1.170000000000000E-002    4.569863865371207E-027
  1.180000000000000E-002    2.719865933923547E-027
  1.190000000000000E-002   -8.959981620942532E-029
  1.200000000000000E-002   -3.580079654192576E-027
  1.210000000000000E-002   -7.278960288165830E-027
  1.220000000000000E-002   -1.055894605604105E-026
  1.230000000000000E-002   -1.271579727367162E-026
  1.240000000000000E-002   -1.307926203547148E-026
  1.250000000000000E-002   -1.114472591381946E-026
  1.260000000000000E-002   -6.706262922194148E-027
  1.270000000000000E-002    3.317353328125198E-029
  1.280000000000000E-002    8.400264217456157E-027
  1.290000000000000E-002    1.726158830624551E-026
  1.300000000000000E-002    2.512092833426451E-026
  1.310000000000000E-002    3.030647790988612E-026
  1.320000000000000E-002    3.123489647493642E-026
  1.330000000000000E-002    2.672190798948496E-026
  1.340000000000000E-002    1.629337418650576E-026
  1.350000000000000E-002    4.398516511578400E-028
  1.360000000000000E-002   -1.924535889468690E-026
  1.370000000000000E-002   -4.009731353439866E-026
  1.380000000000000E-002   -5.861354316658078E-026
  1.390000000000000E-002   -7.089569668497853E-026
  1.400000000000000E-002   -7.326620402308318E-026
  1.410000000000000E-002   -6.298785666738950E-026
  1.420000000000000E-002   -3.897874851061918E-026
  1.430000000000000E-002   -2.391078453128694E-027
  1.440000000000000E-002    4.308301315475064E-026
  1.450000000000000E-002    9.129678798282022E-026
  1.460000000000000E-002    1.341993331370024E-025
  1.470000000000000E-002    1.628568972141503E-025
  1.480000000000000E-002    1.688665573337072E-025
  1.490000000000000E-002    1.459944527387439E-025
  1.500000000000000E-002    9.179195319945397E-026
  1.510000000000000E-002    8.891971258689537E-027
  1.520000000000000E-002   -9.432142930349392E-026
  1.530000000000000E-002   -2.039315335222411E-025
  1.540000000000000E-002   -3.017545061065212E-025
  1.550000000000000E-002   -3.676562579947168E-025
  1.560000000000000E-002   -3.827357830132798E-025
  1.570000000000000E-002   -3.329921925334733E-025
  1.580000000000000E-002   -2.129212024563511E-025
  1.590000000000000E-002   -2.837730808409721E-026
  1.600000000000000E-002    2.019747583439583E-025
  1.610000000000000E-002    4.471892204118074E-025
  1.620000000000000E-002    6.668864048719293E-025
  1.630000000000000E-002    8.164107625995933E-025
  1.640000000000000E-002    8.538758563577978E-025
  1.650000000000000E-002    7.482406365272846E-025
  1.660000000000000E-002    4.871928162324085E-025
  1.670000000000000E-002    8.338551415879681E-026
  1.680000000000000E-002   -4.224420915381239E-025
  1.690000000000000E-002   -9.626848253401592E-025
  1.700000000000000E-002   -1.449140954065877E-024
  1.710000000000000E-002   -1.784286120707797E-024
  1.720000000000000E-002   -1.876602581641054E-024
  1.730000000000000E-002   -1.658089509727419E-024
  1.740000000000000E-002   -1.101295413933000E-024
  1.750000000000000E-002   -2.327406148019941E-025
  1.760000000000000E-002    8.604147863765854E-025
  1.770000000000000E-002    2.033056827263899E-024
  1.780000000000000E-002    3.095630836947068E-024
  1.790000000000000E-002    3.838339018367947E-024
  1.800000000000000E-002    4.063947445343381E-024
  1.810000000000000E-002    3.625172444149680E-024
  1.820000000000000E-002    2.460972598593986E-024
  1.830000000000000E-002    6.250995131109311E-025
  1.840000000000000E-002   -1.699726784523835E-024
  1.850000000000000E-002   -4.207463960707853E-024
  1.860000000000000E-002   -6.497264032884609E-024
  1.870000000000000E-002   -8.124482894329159E-024