 -4.000000000000000E-002    0.000000000000000E+000
 -3.990000000000000E-002    0.000000000000000E+000
 -3.980000000000000E-002    0.000000000000000E+000
 -3.970000000000000E-002    0.000000000000000E+000
 -3.960000000000000E-002    0.000000000000000E+000
 -3.950000000000000E-002    0.000000000000000E+000
 -3.940000000000000E-002    0.000000000000000E+000
 -3.930000000000000E-002    0.000000000000000E+000
 -3.920000000000000E-002    0.000000000000000E+000
 -3.910000000000000E-002    0.000000000000000E+000
 -3.900000000000000E-002    0.000000000000000E+000
 -3.890000000000000E-002    0.000000000000000E+000
 -3.880000000000000E-002    0.000000000000000E+000
 -3.870000000000000E-002    0.000000000000000E+000
 -3.860000000000000E-002    0.000000000000000E+000
 -3.850000000000000E-002    0.000000000000000E+000
 -3.840000000000000E-002    0.000000000000000E+000
 -3.830000000000000E-002    0.000000000000000E+000
 -3.820000000000000E-002    0.000000000000000E+000
 -3.810000000000000E-002    0.000000000000000E+000
 -3.800000000000000E-002    0.000000000000000E+000
 -3.790000000000000E-002    0.000000000000000E+000
 -3.780000000000000E-002    0.000000000000000E+000
 -3.770000000000000E-002    0.000000000000000E+000
 -3.760000000000000E-002    0.000000000000000E+000
 -3.750000000000000E-002    0.000000000000000E+000
 -3.740000000000000E-002    0.000000000000000E+000
 -3.730000000000000E-002    0.000000000000000E+000
 -3.720000000000000E-002    0.000000000000000E+000
 -3.710000000000000E-002    0.000000000000000E+000
 -3.700000000000000E-002    0.000000000000000E+000
 -3.690000000000000E-002    0.000000000000000E+000
 -3.680000000000000E-002    0.000000000000000E+000
 -3.670000000000000E-002    0.000000000000000E+000
 -3.660000000000000E-002    0.000000000000000E+000
 -3.650000000000000E-002    0.000000000000000E+000
 -3.640000000000000E-002    0.000000000000000E+000
 -3.630000000000000E-002    0.000000000000000E+000
 -3.620000000000000E-002    0.000000000000000E+000
 -3.610000000000000E-002    0.000000000000000E+000
 -3.600000000000000E-002    0.000000000000000E+000
 -3.590000000000000E-002    0.000000000000000E+000
 -3.580000000000000E-002    0.000000000000000E+000
 -3.570000000000000E-002    0.000000000000000E+000
 -3.560000000000000E-002    0.000000000000000E+000
 -3.550000000000000E-002    0.000000000000000E+000
 -3.540000000000000E-002    0.000000000000000E+000
 -3.530000000000000E-002    0.000000000000000E+000
 -3.520000000000000E-002    0.000000000000000E+000
 -3.510000000000000E-002    0.000000000000000E+000
 -3.500000000000000E-002    0.000000000000000E+000
 -3.490000000000000E-002    0.000000000000000E+000
 -3.480000000000000E-002    0.000000000000000E+000
 -3.470000000000000E-002    0.000000000000000E+000
 -3.460000000000000E-002    0.000000000000000E+000
 -3.450000000000000E-002    0.000000000000000E+000
 -3.440000000000000E-002    0.000000000000000E+000
 -3.430000000000000E-002    0.000000000000000E+000
 -3.420000000000000E-002    0.000000000000000E+000
 -3.410000000000000E-002    0.000000000000000E+000
 -3.400000000000000E-002    0.000000000000000E+000
 -3.390000000000000E-002    0.000000000000000E+000
 -3.380000000000000E-002    0.000000000000000E+000
 -3.370000000000000E-002    0.000000000000000E+000
 -3.360000000000000E-002    0.000000000000000E+000
 -3.350000000000000E-002    0.000000000000000E+000
 -3.340000000000000E-002    0.000000000000000E+000
 -3.330000000000000E-002    0.000000000000000E+000
 -3.320000000000000E-002    0.000000000000000E+000
 -3.310000000000000E-002    0.000000000000000E+000
 -3.300000000000000E-002    0.000000000000000E+000
 -3.290000000000000E-002    0.000000000000000E+000
 -3.280000000000000E-002    0.000000000000000E+000
 -3.270000000000000E-002    0.000000000000000E+000
 -3.260000000000000E-002    0.000000000000000E+000
 -3.250000000000000E-002    0.000000000000000E+000
 -3.240000000000000E-002    0.000000000000000E+000
 -3.230000000000000E-002    0.000000000000000E+000
 -3.220000000000000E-002    0.000000000000000E+000
 -3.210000000000000E-002    0.000000000000000E+000
 -3.200000000000000E-002    0.000000000000000E+000
 -3.190000000000000E-002    0.000000000000000E+000
 -3.180000000000000E-002    0.000000000000000E+000
 -3.170000000000000E-002    0.000000000000000E+000
 -3.160000000000000E-002    0.000000000000000E+000
 -3.150000000000000E-002    0.000000000000000E+000
 -3.140000000000000E-002    0.000000000000000E+000
 -3.130000000000000E-002    0.000000000000000E+000
 -3.120000000000000E-002    0.000000000000000E+000
 -3.110000000000000E-002    0.000000000000000E+000
 -3.100000000000000E-002    0.000000000000000E+000
 -3.090000000000000E-002    0.000000000000000E+000
 -3.080000000000000E-002    0.000000000000000E+000
 -3.070000000000000E-002    0.000000000000000E+000
 -3.060000000000000E-002    0.000000000000000E+000
 -3.050000000000000E-002    0.000000000000000E+000
 -3.040000000000000E-002    0.000000000000000E+000
 -3.030000000000000E-002    0.000000000000000E+000
 -3.020000000000000E-002    0.000000000000000E+000
 -3.010000000000000E-002    0.000000000000000E+000
 -3.000000000000000E-002    0.000000000000000E+000
 -2.990000000000000E-002    0.000000000000000E+000
 -2.980000000000000E-002    0.000000000000000E+000
 -2.970000000000000E-002    0.000000000000000E+000
 -2.960000000000000E-002    0.000000000000000E+000
 -2.950000000000000E-002    0.000000000000000E+000
 -2.940000000000000E-002    0.000000000000000E+000
 -2.930000000000000E-002    0.000000000000000E+000
 -2.920000000000000E-002    0.000000000000000E+000
 -2.910000000000000E-002    0.000000000000000E+000
 -2.900000000000000E-002    0.000000000000000E+000
 -2.890000000000000E-002    0.000000000000000E+000
 -2.880000000000000E-002    0.000000000000000E+000
 -2.870000000000000E-002    0.000000000000000E+000
 -2.860000000000000E-002    0.000000000000000E+000
 -2.850000000000000E-002    0.000000000000000E+000
 -2.840000000000000E-002    0.000000000000000E+000
 -2.830000000000000E-002    0.000000000000000E+000
 -2.820000000000000E-002    0.000000000000000E+000
 -2.810000000000000E-002    0.000000000000000E+000
 -2.800000000000000E-002    0.000000000000000E+000
 -2.790000000000000E-002    0.000000000000000E+000
 -2.780000000000000E-002    0.000000000000000E+000
 -2.770000000000000E-002    0.000000000000000E+000
 -2.760000000000000E-002    0.000000000000000E+000
 -2.750000000000000E-002    0.000000000000000E+000
 -2.740000000000000E-002    0.000000000000000E+000
 -2.730000000000000E-002    0.000000000000000E+000
 -2.720000000000000E-002    0.000000000000000E+000
 -2.710000000000000E-002    0.000000000000000E+000
 -2.700000000000000E-002    0.000000000000000E+000
 -2.690000000000000E-002    0.000000000000000E+000
 -2.680000000000000E-002    0.000000000000000E+000
 -2.670000000000000E-002    0.000000000000000E+000
 -2.660000000000000E-002    0.000000000000000E+000
 -2.650000000000000E-002    0.000000000000000E+000
 -2.640000000000000E-002    0.000000000000000E+000
 -2.630000000000000E-002    0.000000000000000E+000
 -2.620000000000000E-002    0.000000000000000E+000
 -2.610000000000000E-002    0.000000000000000E+000
 -2.600000000000000E-002    0.000000000000000E+000
 -2.590000000000000E-002    0.000000000000000E+000
 -2.580000000000000E-002    0.000000000000000E+000
 -2.570000000000000E-002    0.000000000000000E+000
 -2.560000000000000E-002    0.000000000000000E+000
 -2.550000000000000E-002    0.000000000000000E+000
 -2.540000000000000E-002    0.000000000000000E+000
 -2.530000000000000E-002    0.000000000000000E+000
 -2.520000000000000E-002    0.000000000000000E+000
 -2.510000000000000E-002    0.000000000000000E+000
 -2.500000000000000E-002    0.000000000000000E+000
 -2.490000000000000E-002    0.000000000000000E+000
 -2.480000000000000E-002    0.000000000000000E+000
 -2.470000000000000E-002    0.000000000000000E+000
 -2.460000000000000E-002    0.000000000000000E+000
 -2.450000000000000E-002    0.000000000000000E+000
 -2.440000000000000E-002    0.000000000000000E+000
 -2.430000000000000E-002    0.000000000000000E+000
 -2.420000000000000E-002    0.000000000000000E+000
 -2.410000000000000E-002    0.000000000000000E+000
 -2.400000000000000E-002    0.000000000000000E+000
 -2.390000000000000E-002    0.000000000000000E+000
 -2.380000000000000E-002    0.000000000000000E+000
 -2.370000000000000E-002    0.000000000000000E+000
 -2.360000000000000E-002    0.000000000000000E+000
 -2.350000000000000E-002    0.000000000000000E+000
 -2.340000000000000E-002    0.000000000000000E+000
 -2.330000000000000E-002    0.000000000000000E+000
 -2.320000000000000E-002    0.000000000000000E+000
 -2.310000000000000E-002    0.000000000000000E+000
 -2.300000000000000E-002    0.000000000000000E+000
 -2.290000000000000E-002    0.000000000000000E+000
 -2.280000000000000E-002    0.000000000000000E+000
 -2.270000000000000E-002    0.000000000000000E+000
 -2.260000000000000E-002    0.000000000000000E+000
 -2.250000000000000E-002    0.000000000000000E+000
 -2.240000000000000E-002    0.000000000000000E+000
 -2.230000000000000E-002    0.000000000000000E+000
 -2.220000000000000E-002    0.000000000000000E+000
 -2.210000000000000E-002    0.000000000000000E+000
 -2.200000000000000E-002    0.000000000000000E+000
 -2.190000000000000E-002    0.000000000000000E+000
 -2.180000000000000E-002    0.000000000000000E+000
 -2.170000000000000E-002    0.000000000000000E+000
 -2.160000000000000E-002    0.000000000000000E+000
 -2.150000000000000E-002    0.000000000000000E+000
 -2.140000000000000E-002    0.000000000000000E+000
 -2.130000000000000E-002    0.000000000000000E+000
 -2.120000000000000E-002    0.000000000000000E+000
 -2.110000000000000E-002    0.000000000000000E+000
 -2.100000000000000E-002    0.000000000000000E+000
 -2.090000000000000E-002    0.000000000000000E+000
 -2.080000000000000E-002    0.000000000000000E+000
 -2.070000000000000E-002    0.000000000000000E+000
 -2.060000000000000E-002    0.000000000000000E+000
 -2.050000000000000E-002    0.000000000000000E+000
 -2.040000000000000E-002    0.000000000000000E+000
 -2.030000000000000E-002    0.000000000000000E+000
 -2.020000000000000E-002    0.000000000000000E+000
 -2.010000000000000E-002    0.000000000000000E+000
 -2.000000000000000E-002    0.000000000000000E+000
 -1.990000000000000E-002    0.000000000000000E+000
 -1.980000000000000E-002    0.000000000000000E+000
 -1.970000000000000E-002    0.000000000000000E+000
 -1.960000000000000E-002    0.000000000000000E+000
 -1.950000000000000E-002    0.000000000000000E+000
 -1.940000000000000E-002    0.000000000000000E+000
 -1.930000000000000E-002    0.000000000000000E+000
 -1.920000000000000E-002    0.000000000000000E+000
 -1.910000000000000E-002    0.000000000000000E+000
 -1.900000000000000E-002    0.000000000000000E+000
 -1.890000000000000E-002    0.000000000000000E+000
 -1.880000000000000E-002    0.000000000000000E+000
 -1.870000000000000E-002    0.000000000000000E+000
 -1.860000000000000E-002    0.000000000000000E+000
 -1.850000000000000E-002    0.000000000000000E+000
 -1.840000000000000E-002    0.000000000000000E+000
 -1.830000000000000E-002    0.000000000000000E+000
 -1.820000000000000E-002    0.000000000000000E+000
 -1.810000000000000E-002    0.000000000000000E+000
 -1.800000000000000E-002    0.000000000000000E+000
 -1.790000000000000E-002    0.000000000000000E+000
 -1.780000000000000E-002    0.000000000000000E+000
 -1.770000000000000E-002    0.000000000000000E+000
 -1.760000000000000E-002    0.000000000000000E+000
 -1.750000000000000E-002    0.000000000000000E+000
 -1.740000000000000E-002    0.000000000000000E+000
 -1.730000000000000E-002    0.000000000000000E+000
 -1.720000000000000E-002    0.000000000000000E+000
 -1.710000000000000E-002    0.000000000000000E+000
 -1.700000000000000E-002    0.000000000000000E+000
 -1.690000000000000E-002    0.000000000000000E+000
 -1.680000000000000E-002    0.000000000000000E+000
 -1.670000000000000E-002    0.000000000000000E+000
 -1.660000000000000E-002    0.000000000000000E+000
 -1.650000000000000E-002    0.000000000000000E+000
 -1.640000000000000E-002    0.000000000000000E+000
 -1.630000000000000E-002    0.000000000000000E+000
 -1.620000000000000E-002    0.000000000000000E+000
 -1.610000000000000E-002    0.000000000000000E+000
 -1.600000000000000E-002    0.000000000000000E+000
 -1.590000000000000E-002    0.000000000000000E+000
 -1.580000000000000E-002    0.000000000000000E+000
 -1.570000000000000E-002    0.000000000000000E+000
 -1.560000000000000E-002    0.000000000000000E+000
 -1.550000000000000E-002    0.000000000000000E+000
 -1.540000000000000E-002    0.000000000000000E+000
 -1.530000000000000E-002    0.000000000000000E+000
 -1.520000000000000E-002    0.000000000000000E+000
 -1.510000000000000E-002    0.000000000000000E+000
 -1.500000000000000E-002    0.000000000000000E+000
 -1.490000000000000E-002    0.000000000000000E+000
 -1.480000000000000E-002    0.000000000000000E+000
 -1.470000000000000E-002    0.000000000000000E+000
 -1.460000000000000E-002    0.000000000000000E+000
 -1.450000000000000E-002    0.000000000000000E+000
 -1.440000000000000E-002    0.000000000000000E+000
 -1.430000000000000E-002    0.000000000000000E+000
 -1.420000000000000E-002    0.000000000000000E+000
 -1.410000000000000E-002    0.000000000000000E+000
 -1.400000000000000E-002    0.000000000000000E+000
 -1.390000000000000E-002    0.000000000000000E+000
 -1.380000000000000E-002    0.000000000000000E+000
 -1.370000000000000E-002    0.000000000000000E+000
 -1.360000000000000E-002    0.000000000000000E+000
 -1.350000000000000E-002    0.000000000000000E+000
 -1.340000000000000E-002    0.000000000000000E+000
 -1.330000000000000E-002    0.000000000000000E+000
 -1.320000000000000E-002    0.000000000000000E+000
 -1.310000000000000E-002    0.000000000000000E+000
 -1.300000000000000E-002    0.000000000000000E+000
 -1.290000000000000E-002    0.000000000000000E+000
 -1.280000000000000E-002    0.000000000000000E+000
 -1.270000000000000E-002    0.000000000000000E+000
 -1.260000000000000E-002    0.000000000000000E+000
 -1.250000000000000E-002    0.000000000000000E+000
 -1.240000000000000E-002    0.000000000000000E+000
 -1.230000000000000E-002    0.000000000000000E+000
 -1.220000000000000E-002    0.000000000000000E+000
 -1.210000000000000E-002    0.000000000000000E+000
 -1.200000000000000E-002    0.000000000000000E+000
 -1.190000000000000E-002    0.000000000000000E+000
 -1.180000000000000E-002    0.000000000000000E+000
 -1.170000000000000E-002    0.000000000000000E+000
 -1.160000000000000E-002    0.000000000000000E+000
 -1.150000000000000E-002    0.000000000000000E+000
 -1.140000000000000E-002    0.000000000000000E+000
 -1.130000000000000E-002    0.000000000000000E+000
 -1.120000000000000E-002    0.000000000000000E+000
 -1.110000000000000E-002    0.000000000000000E+000
 -1.100000000000000E-002    0.000000000000000E+000
 -1.090000000000000E-002    0.000000000000000E+000
 -1.080000000000000E-002    0.000000000000000E+000
 -1.070000000000000E-002    0.000000000000000E+000
 -1.060000000000000E-002    0.000000000000000E+000
 -1.050000000000000E-002    0.000000000000000E+000
 -1.040000000000000E-002    0.000000000000000E+000
 -1.030000000000000E-002    0.000000000000000E+000
 -1.020000000000000E-002    0.000000000000000E+000
 -1.010000000000000E-002    0.000000000000000E+000
 -1.000000000000000E-002    0.000000000000000E+000
 -9.899999999999999E-003    0.000000000000000E+000
 -9.800000000000000E-003    0.000000000000000E+000
 -9.699999999999999E-003    0.000000000000000E+000
 -9.599999999999999E-003    0.000000000000000E+000
 -9.500000000000000E-003    0.000000000000000E+000
 -9.399999999999999E-003    0.000000000000000E+000
 -9.299999999999999E-003    0.000000000000000E+000
 -9.200000000000000E-003    0.000000000000000E+000
 -9.099999999999999E-003    0.000000000000000E+000
 -8.999999999999999E-003    0.000000000000000E+000
 -8.900000000000000E-003    0.000000000000000E+000
 -8.799999999999999E-003    0.000000000000000E+000
 -8.699999999999999E-003    1.924390591266381E-047
 -8.600000000000000E-003    3.848781182532762E-047
 -8.499999999999999E-003    5.773171773799143E-047
 -8.399999999999999E-003    5.773171773799143E-047
 -8.300000000000000E-003    3.848781182532762E-047
 -8.199999999999999E-003   -1.924390591266381E-047
 -8.100000000000000E-003   -2.478051353972804E-046
 -8.000000000000000E-003   -6.407812413243008E-046
 -7.899999999999999E-003   -1.033757347251321E-045
 -7.800000000000000E-003   -1.388245641353014E-045
 -7.699999999999999E-003   -1.520587341274312E-045
 -7.599999999999999E-003   -1.259952935268589E-045
 -7.499999999999999E-003   -4.162690056765564E-046
 -7.399999999999999E-003    2.060693663361615E-045
 -7.299999999999999E-003    4.979222974491060E-045
 -7.199999999999999E-003    8.378167644339274E-045
 -7.100000000000000E-003    1.046937566390013E-044
 -6.999999999999999E-003    1.188131463031136E-044
 -6.899999999999999E-003    1.076128575621594E-044
 -6.800000000000000E-003    6.949123371662688E-045
 -6.699999999999999E-003   -5.211077370791665E-046
 -6.599999999999999E-003   -1.105380168635922E-044
 -6.499999999999999E-003   -2.515939678881230E-044
 -6.399999999999999E-003   -3.939505296126048E-044
 -6.299999999999999E-003   -5.174016269299585E-044
 -6.199999999999999E-003   -5.774795726028421E-044
 -6.100000000000000E-003   -5.286030196131403E-044
 -5.999999999999999E-003   -3.345793129748955E-044
 -5.899999999999999E-003    3.480155432035727E-045
 -5.800000000000000E-003    5.853039834120376E-044
 -5.699999999999999E-003    1.262782132930268E-043
 -5.599999999999999E-003    1.968861622059177E-043
 -5.499999999999999E-003    2.560593017246799E-043
 -5.399999999999999E-003    2.836802202686349E-043
 -5.299999999999999E-003    2.587311011279358E-043
 -5.199999999999999E-003    1.606831837927848E-043
 -5.099999999999999E-003   -2.268739849561829E-044
 -4.999999999999999E-003   -2.904467928917584E-043
 -4.899999999999999E-003   -6.192167179517106E-043
 -4.799999999999999E-003   -9.617040086466713E-043
 -4.699999999999999E-003   -1.244651542184227E-042
 -4.599999999999999E-003   -1.374465676191643E-042
 -4.499999999999999E-003   -1.248691279004959E-042
 -4.399999999999999E-003   -7.738321217148814E-043
 -4.299999999999999E-003    1.027857954935514E-043
 -4.199999999999999E-003    1.367196807847217E-042
 -4.099999999999999E-003    2.909614583807571E-042
 -3.999999999999999E-003    4.504744041790788E-042
 -3.899999999999999E-003    5.810788015777785E-042
 -3.799999999999999E-003    6.392946364825196E-042
 -3.699999999999999E-003    5.784534388710576E-042
 -3.599999999999999E-003    3.578096035990743E-042
 -3.499999999999999E-003   -4.545410713133219E-043
 -3.399999999999999E-003   -6.227235743885899E-042
 -3.299999999999999E-003   -1.321760266455821E-041
 -3.199999999999999E-003   -2.038691984619903E-041
 -3.099999999999999E-003   -2.618860322138310E-041
 -2.999999999999999E-003   -2.869248911523945E-041
 -2.899999999999999E-003   -2.585113140591003E-041
 -2.799999999999999E-003   -1.591585186808334E-041
 -2.699999999999999E-003    2.032529023464897E-042
 -2.599999999999999E-003    2.750943300799986E-041
 -2.499999999999999E-003    5.811441313889124E-041
 -2.399999999999999E-003    8.923293109364513E-041
 -2.299999999999999E-003    1.141079477670823E-040
 -2.199999999999999E-003    1.244273887838486E-040
 -2.099999999999999E-003    1.115222544368720E-040
 -1.999999999999999E-003    6.815804392209771E-041
 -1.899999999999999E-003   -9.211234123440447E-042
 -1.799999999999999E-003   -1.180626750855513E-040
 -1.699999999999999E-003   -2.477545489735487E-040
 -1.599999999999999E-003   -3.784296346026416E-040
 -1.499999999999999E-003   -4.815104639681169E-040
 -1.399999999999999E-003   -5.223684097286748E-040
 -1.299999999999999E-003   -4.654677186275875E-040
 -1.199999999999999E-003   -2.818895096955027E-040
 -1.099999999999999E-003    4.145065322473771E-041
 -9.999999999999989E-004    4.922379522330462E-040
 -8.999999999999990E-004    1.024846202155213E-039
 -7.999999999999990E-004    1.556508752716041E-039
 -6.999999999999989E-004    1.970150589147743E-039
 -5.999999999999990E-004    2.125975273462745E-039
 -4.999999999999989E-004    1.882875865426487E-039
 -3.999999999999989E-004    1.128950018950583E-039
 -2.999999999999989E-004   -1.818973156730476E-040
 -1.999999999999989E-004   -1.992863065370376E-039
 -9.999999999999892E-005   -4.114656181608778E-039
  1.084202172485504E-018   -6.212969362766771E-039
  1.000000000000011E-004   -7.822688135037646E-039
  2.000000000000011E-004   -8.396489173550410E-039
  3.000000000000011E-004   -7.391005318833662E-039
  4.000000000000011E-004   -4.386720862611921E-039
  5.000000000000011E-004    7.711567773492603E-040
  6.000000000000011E-004    7.833297772087968E-039
  7.000000000000011E-004    1.603934012783864E-038
  8.000000000000011E-004    2.407964333670096E-038
  9.000000000000012E-004    3.016113744433779E-038
  1.000000000000001E-003    3.220390694851287E-038
  1.100000000000001E-003    2.817708968709151E-038
  1.200000000000001E-003    1.655569849058426E-038
  1.300000000000001E-003   -3.153467907907483E-039
  1.400000000000001E-003   -2.990375461621789E-038
  1.500000000000001E-003   -6.073513781118963E-038
  1.600000000000001E-003   -9.066782000619508E-038
  1.700000000000001E-003   -1.129887337950381E-037
  1.800000000000001E-003   -1.200200340672493E-037
  1.900000000000001E-003   -1.043887595263047E-037
  2.000000000000001E-003   -6.071619576844542E-038
  2.100000000000001E-003    1.247581645430923E-038
  2.200000000000001E-003    1.109677613800155E-037
  2.300000000000001E-003    2.235802527867060E-037
  2.400000000000001E-003    3.319180057919955E-037
  2.500000000000001E-003    4.115525500481482E-037
  2.600000000000001E-003    4.349303437785397E-037
  2.700000000000001E-003    3.760310898265634E-037
  2.800000000000001E-003    2.164371124413338E-037
  2.900000000000001E-003   -4.795202153879561E-038
  3.000000000000001E-003   -4.007453319787155E-037
  3.100000000000001E-003   -8.009346354476110E-037
  3.200000000000001E-003   -1.182443446503762E-036
  3.300000000000001E-003   -1.458792955757884E-036
  3.400000000000001E-003   -1.533770064944550E-036
  3.500000000000001E-003   -1.318033786945916E-036
  3.600000000000001E-003   -7.503193785550913E-037
  3.700000000000001E-003    1.795582529598907E-037
  3.800000000000001E-003    1.410086047565104E-036
  3.900000000000001E-003    2.795008464804478E-036
  4.000000000000001E-003    4.103311154441960E-036
  4.100000000000001E-003    5.036898692805959E-036
  4.200000000000001E-003    5.268581046133442E-036
  4.300000000000001E-003    4.499652269909638E-036
  4.400000000000001E-003    2.531991132159915E-036
  4.500000000000001E-003   -6.552211400819183E-037
  4.600000000000002E-003   -4.838518407967249E-036
  4.700000000000001E-003   -9.510267484878037E-036
  4.800000000000001E-003   -1.388367438928893E-035
  4.900000000000002E-003   -1.695732940728796E-035
  5.000000000000001E-003   -1.764665137009968E-035
  5.100000000000001E-003   -1.497823649970948E-035
  5.200000000000001E-003   -8.328687050127036E-036
  5.300000000000002E-003    2.326106930011159E-036
  5.400000000000001E-003    1.619911135922572E-035
  5.500000000000001E-003    3.157428235354995E-035
  5.600000000000002E-003    4.583916265097493E-035
  5.700000000000001E-003    5.571261557013529E-035
  5.800000000000001E-003    5.768726267267912E-035
  5.900000000000002E-003    4.866863780281918E-035
  6.000000000000001E-003    2.674643430947687E-035
  6.100000000000001E-003   -8.015665435391179E-036
  6.200000000000002E-003   -5.292711624812309E-035
  6.300000000000002E-003   -1.023340919895299E-034
  6.400000000000001E-003   -1.477741743700225E-034
  6.500000000000001E-003   -1.787543804441935E-034
  6.600000000000002E-003   -1.842011834935703E-034
  6.700000000000001E-003   -1.545099622919542E-034
  6.800000000000001E-003   -8.397501463764804E-035
  6.900000000000002E-003    2.676857941952850E-035
  7.000000000000001E-003    1.687832396046994E-034
  7.100000000000001E-003    3.239029250176094E-034
  7.200000000000002E-003    4.653691770354107E-034
  7.300000000000002E-003    5.604097199049814E-034
  7.400000000000001E-003    5.748691043631617E-034
  7.500000000000001E-003    4.796209395712479E-034
  7.600000000000002E-003    2.580425957024428E-034
  7.700000000000001E-003   -8.661284059706733E-035
  7.800000000000001E-003   -5.254661028511467E-034
  7.900000000000001E-003   -1.001559703022908E-033
  8.000000000000002E-003   -1.432251887825132E-033
  8.100000000000001E-003   -1.717519238411935E-033
  8.200000000000001E-003   -1.754378954506042E-033
  8.300000000000002E-003   -1.456477001182252E-033
  8.400000000000001E-003   -7.765505228736329E-034
  8.500000000000002E-003    2.718268098978141E-034
  8.600000000000002E-003    1.597789263501613E-033
  8.700000000000001E-003    3.026957882886949E-033
  8.800000000000002E-003    4.309892061190629E-033
  8.900000000000002E-003    5.148098730068330E-033
  9.000000000000001E-003    5.237871265545031E-033
  9.100000000000002E-003    4.328756576546277E-033
  9.200000000000002E-003    2.289540952843216E-033
  9.300000000000001E-003   -8.290352938397966E-034
  9.400000000000002E-003   -4.748286725249990E-033
  9.500000000000001E-003   -8.946554830548060E-033
  9.600000000000001E-003   -1.268757907929504E-032
  9.700000000000002E-003   -1.509986266088504E-032
  9.800000000000001E-003   -1.530683280492128E-032
  9.900000000000001E-003   -1.259745808432046E-032
  1.000000000000000E-002   -6.615870041646092E-033
  1.010000000000000E-002    2.461685276559944E-033
  1.020000000000000E-002    1.380123062376106E-032
  1.030000000000000E-002    2.587687627986341E-032
  1.040000000000000E-002    3.656210461937744E-032
  1.050000000000000E-002    4.336595335372644E-032
  1.060000000000000E-002    4.381074213887258E-032
  1.070000000000000E-002    3.591921363930939E-032
  1.080000000000000E-002    1.874789810661709E-032
  1.090000000000000E-002   -7.124096964864036E-033
  1.100000000000000E-002   -3.925957855461153E-032
  1.110000000000000E-002   -7.329152496312190E-032
  1.120000000000000E-002   -1.032061556748209E-031
  1.130000000000000E-002   -1.220289647081235E-031
  1.140000000000000E-002   -1.228969844469542E-031
  1.150000000000000E-002   -1.004203507516981E-031
  1.160000000000000E-002   -5.215178948869472E-032
  1.170000000000000E-002    2.009065483636235E-032
  1.180000000000000E-002    1.093467489734535E-031
  1.190000000000000E-002    2.033810489995523E-031
  1.200000000000000E-002    2.855320342051602E-031
  1.210000000000000E-002    3.366587294141664E-031
  1.220000000000000E-002    3.381198503704338E-031
  1.230000000000000E-002    2.755018042442792E-031
  1.240000000000000E-002    1.425864917408583E-031
  1.250000000000000E-002   -5.513955261903033E-032
  1.260000000000000E-002   -2.982409895203746E-031
  1.270000000000000E-002   -5.531413950818710E-031
  1.280000000000000E-002   -7.745938409279174E-031
  1.290000000000000E-002   -9.110810609217663E-031
  1.300000000000000E-002   -9.129212273239066E-031
  1.310000000000000E-002   -7.422718075656463E-031
  1.320000000000000E-002   -3.836361846581906E-031
  1.330000000000000E-002    1.470044279217217E-031
  1.340000000000000E-002    7.965616748539262E-031
  1.350000000000000E-002    1.474752510666050E-030
  1.360000000000000E-002    2.061085790048709E-030
  1.370000000000000E-002    2.419516660099939E-030
  1.380000000000000E-002    2.420055309474505E-030
  1.390000000000000E-002    1.965091677557886E-030
  1.400000000000000E-002    1.016691522567560E-030
  1.410000000000000E-002   -3.800769856886569E-031
  1.420000000000000E-002   -2.083295224710084E-030
  1.430000000000000E-002   -3.855004088616565E-030
  1.440000000000000E-002   -5.380440570981691E-030
  1.450000000000000E-002   -6.306963761335322E-030
  1.460000000000000E-002   -6.300526840417856E-030
  1.470000000000000E-002   -5.113634760429218E-030
  1.480000000000000E-002   -2.654959079105696E-030
  1.490000000000000E-002    9.521423853109229E-031
  1.500000000000000E-002    5.336191834829502E-030
  1.510000000000000E-002    9.882151653742583E-030
  1.520000000000000E-002    1.378307011644356E-029
  1.530000000000000E-002    1.614135718753353E-029
  1.540000000000000E-002    1.611352227524989E-029
  1.550000000000000E-002    1.308238100404594E-029
  1.560000000000000E-002    6.831416332675701E-030
  1.570000000000000E-002   -2.310951541169646E-030
  1.580000000000000E-002   -1.339208160093639E-029
  1.590000000000000E-002   -2.485239940006217E-029
  1.600000000000000E-002   -3.466077161532042E-029
  1.610000000000000E-002   -4.057274536088951E-029
  1.620000000000000E-002   -4.049457591727317E-029
  1.630000000000000E-002   -3.291174803339666E-029
  1.640000000000000E-002   -1.731813435997680E-029
  1.650000000000000E-002    5.434300227014550E-030
  1.660000000000000E-002    3.295066526177231E-029
  1.670000000000000E-002    6.134915145679847E-029
  1.680000000000000E-002    8.560784645786495E-029
  1.690000000000000E-002    1.002104704381209E-028
  1.700000000000000E-002    1.000452881414972E-028
  1.710000000000000E-002    8.145282481487451E-029
  1.720000000000000E-002    4.326443844545437E-029
  1.730000000000000E-002   -1.236364544892681E-029
  1.740000000000000E-002   -7.952624761286215E-029
  1.750000000000000E-002   -1.487347861222663E-028
  1.760000000000000E-002   -2.077865127338445E-028
  1.770000000000000E-002   -2.433487881340820E-028
  1.780000000000000E-002   -2.431394992667775E-028
  1.790000000000000E-002   -1.984453418062400E-028
  1.800000000000000E-002   -1.065943564020938E-028
  1.810000000000000E-002    2.708540310293585E-029
  1.820000000000000E-002    1.883069428574905E-028
  1.830000000000000E-002    3.542831448879608E-028
  1.840000000000000E-002    4.958597233924092E-028
  1.850000000000000E-002    5.813305545509215E-028
  1.860000000000000E-002    5.816353316753502E-028
  1.870000000000000E-002    4.763129740618906E-028