 -4.000000000000000E-002    0.000000000000000E+000
 -3.990000000000000E-002    0.000000000000000E+000
 -3.980000000000000E-002    0.000000000000000E+000
 -3.970000000000000E-002    0.000000000000000E+000
 -3.960000000000000E-002    0.000000000000000E+000
 -3.950000000000000E-002    0.000000000000000E+000
 -3.940000000000000E-002    4.343977395528221E-022
 -3.930000000000000E-002    5.230240941806059E-021
 -3.920000000000000E-002    3.339774995669787E-020
 -3.910000000000000E-002    1.497864418622050E-019
 -3.900000000000000E-002    5.273525123243413E-019
 -3.890000000000000E-002    1.544433705198984E-018
 -3.880000000000000E-002    3.891885596973902E-018
 -3.870000000000000E-002    8.610664782314712E-018
 -3.860000000000000E-002    1.690602005016300E-017
 -3.850000000000000E-002    2.951493212022141E-017
 -3.840000000000000E-002    4.538752844046472E-017
 -3.830000000000000E-002    5.954750833871581E-017
 -3.820000000000000E-002    6.028558574053759E-017
 -3.810000000000000E-002    2.634148407013721E-017
 -3.800000000000000E-002   -7.460663985574937E-017
 -3.790000000000000E-002   -2.841656994540257E-016
 -3.780000000000000E-002   -6.458124908571248E-016
 -3.770000000000000E-002   -1.189773747384778E-015
 -3.760000000000000E-002   -1.909434373505914E-015
 -3.750000000000000E-002   -2.731011361143985E-015
 -3.740000000000000E-002   -3.481808598918848E-015
 -3.730000000000000E-002   -3.866412693942721E-015
 -3.720000000000000E-002   -3.463607800026116E-015
 -3.710000000000000E-002   -1.758083209840187E-015
 -3.700000000000000E-002    1.781357277893601E-015
 -3.690000000000000E-002    7.572563293833680E-015
 -3.680000000000000E-002    1.574745149837488E-014
 -3.670000000000000E-002    2.595968147428988E-014
 -3.660000000000000E-002    3.721298449158292E-014
 -3.650000000000000E-002    4.776371774320188E-014
 -3.640000000000000E-002    5.515569218874214E-014
 -3.630000000000000E-002    5.643618833840684E-014
 -3.620000000000000E-002    4.857671452189301E-014
 -3.610000000000000E-002    2.908085967946304E-014
 -3.600000000000000E-002   -3.290397873257589E-015
 -3.590000000000000E-002   -4.779869297561834E-014
 -3.580000000000000E-002   -1.011779091198203E-013
 -3.570000000000000E-002   -1.574335452299971E-013
 -3.560000000000000E-002   -2.081496395971480E-013
 -3.550000000000000E-002   -2.433957014035449E-013
 -3.540000000000000E-002   -2.532190090474953E-013
 -3.530000000000000E-002   -2.295743521592196E-013
 -3.520000000000000E-002   -1.684055083377554E-013
 -3.510000000000000E-002   -7.148332682971878E-014
 -3.500000000000000E-002    5.244606230264416E-014
 -3.490000000000000E-002    1.876154534747264E-013
 -3.480000000000000E-002    3.125744812960196E-013
 -3.470000000000000E-002    4.029718682052432E-013
 -3.460000000000000E-002    4.355605172463525E-013
 -3.450000000000000E-002    3.929077023157757E-013
 -3.440000000000000E-002    2.680444866776249E-013
 -3.430000000000000E-002    6.814713067339440E-014
 -3.420000000000000E-002   -1.836408942907555E-013
 -3.410000000000000E-002   -4.489424972669825E-013
 -3.400000000000000E-002   -6.777690254843301E-013
 -3.390000000000000E-002   -8.148797295163915E-013
 -3.380000000000000E-002   -8.082029341132070E-013
 -3.370000000000000E-002   -6.181758765676158E-013
 -3.360000000000000E-002   -2.265490148094070E-013
 -3.350000000000000E-002    3.568794212089000E-013
 -3.340000000000000E-002    1.090943159709132E-012
 -3.330000000000000E-002    1.904102824900920E-012
 -3.320000000000000E-002    2.700019361003632E-012
 -3.310000000000000E-002    3.367261256517284E-012
 -3.300000000000000E-002    3.792025766215607E-012
 -3.290000000000000E-002    3.872263480720919E-012
 -3.280000000000000E-002    3.531355373327973E-012
 -3.270000000000000E-002    2.729563310507102E-012
 -3.260000000000000E-002    1.471812116493271E-012
 -3.250000000000000E-002   -1.891080786279389E-013
 -3.240000000000000E-002   -2.154207564001401E-012
 -3.230000000000000E-002   -4.284563594064499E-012
 -3.220000000000000E-002   -6.411507635439648E-012
 -3.210000000000000E-002   -8.349832769004530E-012
 -3.200000000000000E-002   -9.913081440516178E-012
 -3.190000000000000E-002   -1.093003967611339E-011
 -3.180000000000000E-002   -1.126161090924420E-011
 -3.170000000000000E-002   -1.081716938616897E-011
 -3.160000000000000E-002   -9.569229674093359E-012
 -3.150000000000000E-002   -7.564835971397960E-012
 -3.140000000000000E-002   -4.931566685714293E-012
 -3.130000000000000E-002   -1.875711211110945E-012
 -3.120000000000000E-002    1.329783201528718E-012
 -3.110000000000000E-002    4.369320272509989E-012
 -3.100000000000000E-002    6.920928306965727E-012
 -3.090000000000000E-002    8.702956490958706E-012
 -3.080000000000000E-002    9.526691462934035E-012
 -3.070000000000000E-002    9.347758619305086E-012
 -3.060000000000000E-002    8.307036517860316E-012
 -3.050000000000000E-002    6.750926483509558E-012
 -3.040000000000000E-002    5.221687834649356E-012
 -3.030000000000000E-002    4.411421670160707E-012
 -3.020000000000000E-002    5.078230910263373E-012
 -3.010000000000000E-002    7.929422538604382E-012
 -3.000000000000000E-002    1.348362186411857E-011
 -2.990000000000000E-002    2.192995527103520E-011
 -2.980000000000000E-002    3.300686774049487E-011
 -2.970000000000000E-002    4.592430456644697E-011
 -2.960000000000000E-002    5.935043122082433E-011
 -2.950000000000000E-002    7.147711300474039E-011
 -2.940000000000000E-002    8.016840746813541E-011
 -2.930000000000000E-002    8.318354204897683E-011
 -2.920000000000000E-002    7.845330995367346E-011
 -2.910000000000000E-002    6.437764546318143E-011
 -2.900000000000000E-002    4.010506011971631E-011
 -2.890000000000000E-002    5.752744566643509E-012
 -2.880000000000000E-002   -3.746896600023329E-011
 -2.870000000000000E-002   -8.725394479907543E-011
 -2.860000000000000E-002   -1.403299929862405E-010
 -2.850000000000000E-002   -1.927136023119941E-010
 -2.840000000000000E-002   -2.400646478080065E-010
 -2.830000000000000E-002   -2.781008341136518E-010
 -2.820000000000000E-002   -3.030220943793588E-010
 -2.810000000000000E-002   -3.118924780413692E-010
 -2.800000000000000E-002   -3.029319433768838E-010
 -2.790000000000000E-002   -2.756822062136782E-010
 -2.780000000000000E-002   -2.310270675492010E-010
 -2.770000000000000E-002   -1.710678900185551E-010
 -2.760000000000000E-002   -9.887256465081097E-011
 -2.750000000000000E-002   -1.813316700620245E-011
 -2.740000000000000E-002    6.722214627069632E-011
 -2.730000000000000E-002    1.534131096883317E-010
 -2.720000000000000E-002    2.371395207728645E-010
 -2.710000000000000E-002    3.158214494503249E-010
 -2.700000000000000E-002    3.877199782986094E-010
 -2.690000000000000E-002    4.519251034078150E-010
 -2.680000000000000E-002    5.082124138556849E-010
 -2.670000000000000E-002    5.567853351271494E-010
 -2.660000000000000E-002    5.979306967658042E-010
 -2.650000000000000E-002    6.316270165873748E-010
 -2.640000000000000E-002    6.571512777985573E-010
 -2.630000000000000E-002    6.727360306872448E-010
 -2.620000000000000E-002    6.753295963195025E-010
 -2.610000000000000E-002    6.605112315689504E-010
 -2.600000000000000E-002    6.226065710688121E-010
 -2.590000000000000E-002    5.550365963822294E-010
 -2.580000000000000E-002    4.509132595774562E-010
 -2.570000000000000E-002    3.038700945386150E-010
 -2.560000000000000E-002    1.090819121016160E-010
 -2.550000000000000E-002   -1.356063957494532E-010
 -2.540000000000000E-002   -4.285591437937732E-010
 -2.530000000000000E-002   -7.633815173328094E-010
 -2.520000000000000E-002   -1.128264410235998E-009
 -2.510000000000000E-002   -1.505800207495705E-009
 -2.500000000000000E-002   -1.873399797029876E-009
 -2.490000000000000E-002   -2.204391526853951E-009
 -2.480000000000000E-002   -2.469806734782260E-009
 -2.470000000000000E-002   -2.640765916166033E-009
 -2.460000000000000E-002   -2.691284977602138E-009
 -2.450000000000000E-002   -2.601228894211271E-009
 -2.440000000000000E-002   -2.359073699160695E-009
 -2.430000000000000E-002   -1.964108280470244E-009
 -2.420000000000000E-002   -1.427722600919888E-009
 -2.410000000000000E-002   -7.734982182239609E-010
 -2.400000000000000E-002   -3.593816643251095E-011
 -2.390000000000000E-002    7.421655267692669E-010
 -2.380000000000000E-002    1.513542655611304E-009
 -2.370000000000000E-002    2.231066320358672E-009
 -2.360000000000000E-002    2.852658421419940E-009
 -2.350000000000000E-002    3.345853264842558E-009
 -2.340000000000000E-002    3.691366618667498E-009
 -2.330000000000000E-002    3.885090559528779E-009
 -2.320000000000000E-002    3.938093980428446E-009
 -2.310000000000000E-002    3.874460110178284E-009
 -2.300000000000000E-002    3.727092456221171E-009
 -2.290000000000000E-002    3.531945308069088E-009
 -2.280000000000000E-002    3.321427057063021E-009
 -2.270000000000000E-002    3.117940667731250E-009
 -2.260000000000000E-002    2.928620024329399E-009
 -2.250000000000000E-002    2.742258966111945E-009
 -2.240000000000000E-002    2.529211970279612E-009
 -2.230000000000000E-002    2.244664862920819E-009
 -2.220000000000000E-002    1.835187363335275E-009
 -2.210000000000000E-002    1.247946253303594E-009
 -2.200000000000000E-002    4.414401788137889E-010
 -2.190000000000000E-002   -6.037796718622730E-010
 -2.180000000000000E-002   -1.876136437828664E-009
 -2.170000000000000E-002   -3.327503787332923E-009
 -2.160000000000000E-002   -4.872504875652967E-009
 -2.150000000000000E-002   -6.393427962777252E-009
 -2.140000000000000E-002   -7.750774122196153E-009
 -2.130000000000000E-002   -8.798565380311985E-009
 -2.120000000000000E-002   -9.402697536836165E-009
 -2.110000000000000E-002   -9.459927971396968E-009
 -2.100000000000000E-002   -8.914719695995389E-009
 -2.090000000000000E-002   -7.771174212276945E-009
 -2.080000000000000E-002   -6.097745486698086E-009
 -2.070000000000000E-002   -4.023309629295567E-009
 -2.060000000000000E-002   -1.724364217948737E-009
 -2.050000000000000E-002    5.955132496465970E-010
 -2.040000000000000E-002    2.731494729077280E-009
 -2.030000000000000E-002    4.505109255814138E-009
 -2.020000000000000E-002    5.789536797351596E-009
 -2.010000000000000E-002    6.528502569650848E-009
 -2.000000000000000E-002    6.745369028011267E-009
 -1.990000000000000E-002    6.540315148794439E-009
 -1.980000000000000E-002    6.075254747828440E-009
 -1.970000000000000E-002    5.548111426704969E-009
 -1.960000000000000E-002    5.159945895395554E-009
 -1.950000000000000E-002    5.079914826158382E-009
 -1.940000000000000E-002    5.413803093460371E-009
 -1.930000000000000E-002    6.181788201028735E-009
 -1.920000000000000E-002    7.310076841913092E-009
 -1.910000000000000E-002    8.639130370074906E-009
 -1.900000000000000E-002    9.948795419234854E-009
 -1.890000000000000E-002    1.099784585718366E-008
 -1.880000000000000E-002    1.157299387114945E-008
 -1.870000000000000E-002    1.154042646053983E-008
 -1.860000000000000E-002    1.089203720276703E-008
 -1.850000000000000E-002    9.778741634254758E-009
 -1.840000000000000E-002    8.524728689641540E-009
 -1.830000000000000E-002    7.619145323089099E-009
 -1.820000000000000E-002    7.684955786106795E-009
 -1.810000000000000E-002    9.428240088185176E-009
 -1.800000000000000E-002    1.357449677742849E-008
 -1.790000000000000E-002    2.080082976117229E-008
 -1.780000000000000E-002    3.167410238955890E-008
 -1.770000000000000E-002    4.660460430593544E-008
 -1.760000000000000E-002    6.582286287399069E-008
 -1.750000000000000E-002    8.938411427320075E-008
 -1.740000000000000E-002    1.172006749515244E-007
 -1.730000000000000E-002    1.490982865173576E-007
 -1.720000000000000E-002    1.848886283250454E-007
 -1.710000000000000E-002    2.244476102228170E-007
 -1.700000000000000E-002    2.677873253566633E-007
 -1.690000000000000E-002    3.151108760328321E-007
 -1.680000000000000E-002    3.668405545839845E-007
 -1.670000000000000E-002    4.236152486707542E-007
 -1.660000000000000E-002    4.862553310799491E-007
 -1.650000000000000E-002    5.557008541476345E-007
 -1.640000000000000E-002    6.329305861471484E-007
 -1.630000000000000E-002    7.188743679412731E-007
 -1.620000000000000E-002    8.143315848407715E-007
 -1.610000000000000E-002    9.199085513331003E-007
 -1.600000000000000E-002    1.035984374393781E-006
 -1.590000000000000E-002    1.162711344108829E-006
 -1.580000000000000E-002    1.300051150518989E-006
 -1.570000000000000E-002    1.447841547583456E-006
 -1.560000000000000E-002    1.605886066754444E-006
 -1.550000000000000E-002    1.774052528505899E-006
 -1.540000000000000E-002    1.952368269611779E-006
 -1.530000000000000E-002    2.141096946182231E-006
 -1.520000000000000E-002    2.340787478166856E-006
 -1.510000000000000E-002    2.552286182290948E-006
 -1.500000000000000E-002    2.776712425054215E-006
 -1.490000000000000E-002    3.015398788424122E-006
 -1.480000000000000E-002    3.269805319032160E-006
 -1.470000000000000E-002    3.541420284554948E-006
 -1.460000000000000E-002    3.831660470546143E-006
 -1.450000000000000E-002    4.141787085714723E-006
 -1.440000000000000E-002    4.472846353055026E-006
 -1.430000000000000E-002    4.825647710059283E-006
 -1.420000000000000E-002    5.200780176127492E-006
 -1.410000000000000E-002    5.598667739848852E-006
 -1.400000000000000E-002    6.019656300495638E-006
 -1.390000000000000E-002    6.464120040488687E-006
 -1.380000000000000E-002    6.932575976221340E-006
 -1.370000000000000E-002    7.425787060609590E-006
 -1.360000000000000E-002    7.944846142079214E-006
 -1.350000000000000E-002    8.491222787962622E-006
 -1.340000000000000E-002    9.066773951246173E-006
 -1.330000000000000E-002    9.673706829425626E-006
 -1.320000000000000E-002    1.031451101936788E-005
 -1.310000000000000E-002    1.099185951655606E-005
 -1.300000000000000E-002    1.170849960999871E-005
 -1.290000000000000E-002    1.246714027305799E-005
 -1.280000000000000E-002    1.327036615159417E-005
 -1.270000000000000E-002    1.412058003883503E-005
 -1.260000000000000E-002    1.501999028735264E-005
 -1.250000000000000E-002    1.597064287363788E-005
 -1.240000000000000E-002    1.697450484421317E-005
 -1.230000000000000E-002    1.803357150466782E-005
 -1.220000000000000E-002    1.915000451502563E-005
 -1.210000000000000E-002    2.032627142365697E-005
 -1.200000000000000E-002    2.156526921940059E-005
 -1.190000000000000E-002    2.287040756844745E-005
 -1.180000000000000E-002    2.424565186745226E-005
 -1.170000000000000E-002    2.569551514627888E-005
 -1.160000000000000E-002    2.722498498084413E-005
 -1.150000000000000E-002    2.883941634470384E-005
 -1.140000000000000E-002    3.054439159008923E-005
 -1.130000000000000E-002    3.234557692173731E-005
 -1.120000000000000E-002    3.424858379498269E-005
 -1.110000000000000E-002    3.625888159742873E-005
 -1.100000000000000E-002    3.838175278313538E-005
 -1.090000000000000E-002    4.062231549123006E-005
 -1.080000000000000E-002    4.298561188645449E-005
 -1.070000000000000E-002    4.547674106143671E-005
 -1.060000000000000E-002    4.810104001847998E-005
 -1.050000000000000E-002    5.086426898303534E-005
 -1.040000000000000E-002    5.377277697127215E-005
 -1.030000000000000E-002    5.683364466981642E-005
 -1.020000000000000E-002    6.005474499828633E-005
 -1.010000000000000E-002    6.344475009212246E-005
 -1.000000000000000E-002    6.701305460511550E-005
 -9.899999999999999E-003    7.076963458644187E-005
 -9.800000000000000E-003    7.472487891334062E-005
 -9.699999999999999E-003    7.888939255622191E-005
 -9.599999999999999E-003    8.327381565865276E-005
 -9.500000000000000E-003    8.788869007395151E-005
 -9.399999999999999E-003    9.274441042632793E-005
 -9.299999999999999E-003    9.785120781956479E-005
 -9.200000000000000E-003    1.032192769806220E-004
 -9.099999999999999E-003    1.088589507414395E-004
 -8.999999999999999E-003    1.147808982013825E-004
 -8.900000000000000E-003    1.209963900978805E-004
 -8.799999999999999E-003    1.275175328726398E-004
 -8.699999999999999E-003    1.343574560181581E-004
 -8.600000000000000E-003    1.415304517246847E-004
 -8.499999999999999E-003    1.490520015238505E-004
 -8.399999999999999E-003    1.569387612875854E-004
 -8.300000000000000E-003    1.652083892838064E-004
 -8.199999999999999E-003    1.738794421649772E-004
 -8.100000000000000E-003    1.829710909363090E-004
 -8.000000000000000E-003    1.925029801972962E-004
 -7.899999999999999E-003    2.024950447036569E-004
 -7.800000000000000E-003    2.129673950951240E-004
 -7.699999999999999E-003    2.239403569918135E-004
 -7.599999999999999E-003    2.354344748659689E-004
 -7.499999999999999E-003    2.474706523268673E-004
 -7.399999999999999E-003    2.600704708727959E-004
 -7.299999999999999E-003    2.732562604596139E-004
 -7.199999999999999E-003    2.870514665934409E-004
 -7.100000000000000E-003    3.014807782625634E-004
 -6.999999999999999E-003    3.165702954359938E-004
 -6.899999999999999E-003    3.323475809084761E-004
 -6.800000000000000E-003    3.488416918964350E-004
 -6.699999999999999E-003    3.660829970617989E-004
 -6.599999999999999E-003    3.841031326593897E-004
 -6.499999999999999E-003    4.029347462559477E-004
 -6.399999999999999E-003    4.226113649126116E-004
 -6.299999999999999E-003    4.431672494675079E-004
 -6.199999999999999E-003    4.646372712485094E-004
 -6.100000000000000E-003    4.870569805923362E-004
 -5.999999999999999E-003    5.104626445370835E-004
 -5.899999999999999E-003    5.348913485246647E-004
 -5.800000000000000E-003    5.603812907169535E-004
 -5.699999999999999E-003    5.869719787250647E-004
 -5.599999999999999E-003    6.147044195326921E-004
 -5.499999999999999E-003    6.436213325696253E-004
 -5.399999999999999E-003    6.737673007813979E-004
 -5.299999999999999E-003    7.051887314983749E-004
 -5.199999999999999E-003    7.379339944445867E-004
 -5.099999999999999E-003    7.720531028174065E-004
 -4.999999999999999E-003    8.075976763146972E-004
 -4.899999999999999E-003    8.446206965630343E-004
 -4.799999999999999E-003    8.831764017550685E-004
 -4.699999999999999E-003    9.233199210076136E-004
 -4.599999999999999E-003    9.651074485285539E-004
 -4.499999999999999E-003    1.008596072374075E-003
 -4.399999999999999E-003    1.053844026132554E-003
 -4.299999999999999E-003    1.100910549354461E-003
 -4.199999999999999E-003    1.149856203429163E-003
 -4.099999999999999E-003    1.200743297782283E-003
 -3.999999999999999E-003    1.253635727996398E-003
 -3.899999999999999E-003    1.308599262356817E-003
 -3.799999999999999E-003    1.365701768070041E-003
 -3.699999999999999E-003    1.425012998626508E-003
 -3.599999999999999E-003    1.486604452313949E-003
 -3.499999999999999E-003    1.550549463215643E-003
 -3.399999999999999E-003    1.616922828663958E-003
 -3.299999999999999E-003    1.685800929835403E-003
 -3.199999999999999E-003    1.757261346658476E-003
 -3.099999999999999E-003    1.831382791224897E-003
 -2.999999999999999E-003    1.908245214810660E-003
 -2.899999999999999E-003    1.987929722026568E-003
 -2.799999999999999E-003    2.070519339732540E-003
 -2.699999999999999E-003    2.156098018904869E-003
 -2.599999999999999E-003    2.244752155870434E-003
 -2.499999999999999E-003    2.336569673935877E-003
 -2.399999999999999E-003    2.431640605110787E-003
 -2.299999999999999E-003    2.530056933196700E-003
 -2.199999999999999E-003    2.631912651515552E-003
 -2.099999999999999E-003    2.737303760539914E-003
 -1.999999999999999E-003    2.846327940495170E-003
 -1.899999999999999E-003    2.959084146765058E-003
 -1.799999999999999E-003    3.075672682842351E-003
 -1.699999999999999E-003    3.196195481176238E-003
 -1.599999999999999E-003    3.320755149744981E-003
 -1.499999999999999E-003    3.449455933203546E-003
 -1.399999999999999E-003    3.582403105614463E-003
 -1.299999999999999E-003    3.719703628894173E-003
 -1.199999999999999E-003    3.861465713451785E-003
 -1.099999999999999E-003    4.007799629167383E-003
 -9.999999999999989E-004    4.158816993994966E-003
 -8.999999999999990E-004    4.314631448912693E-003
 -7.999999999999990E-004    4.475357750929030E-003
 -6.999999999999989E-004    4.641112925050787E-003
 -5.999999999999990E-004    4.812014661234117E-003
 -4.999999999999989E-004    4.988181546399801E-003
 -3.999999999999989E-004    5.169733098280411E-003
 -2.999999999999989E-004    5.356789834110482E-003
 -1.999999999999989E-004    5.549472089743756E-003
 -9.999999999999892E-005    5.747900906985354E-003
  1.084202172485504E-018    5.952197606580171E-003
  1.000000000000011E-004    6.162484276084922E-003
  2.000000000000011E-004    6.378882887608844E-003
  3.000000000000011E-004    6.601516181382699E-003
  4.000000000000011E-004    6.830507558782112E-003
  5.000000000000011E-004    7.065980030584028E-003
  6.000000000000011E-004    7.308057183234637E-003
  7.000000000000011E-004    7.556863226251638E-003
  8.000000000000011E-004    7.812521319996105E-003
  9.000000000000012E-004    8.075153589545180E-003
  1.000000000000001E-003    8.344883751624949E-003
  1.100000000000001E-003    8.621831240203156E-003
  1.200000000000001E-003    8.906116614060414E-003
  1.300000000000001E-003    9.197858682448766E-003
  1.400000000000001E-003    9.497175807773747E-003
  1.500000000000001E-003    9.804183271439820E-003
  1.600000000000001E-003    1.011899669485711E-002
  1.700000000000001E-003    1.044172889790753E-002
  1.800000000000001E-003    1.077249052683255E-002
  1.900000000000001E-003    1.111139262363780E-002
  2.000000000000001E-003    1.145854070202717E-002
  2.100000000000001E-003    1.181403955116766E-002
  2.200000000000001E-003    1.217799010704681E-002
  2.300000000000001E-003    1.255048928718530E-002
  2.400000000000001E-003    1.293163071250217E-002
  2.500000000000001E-003    1.332150396360498E-002
  2.600000000000001E-003    1.372019567431330E-002
  2.700000000000001E-003    1.412778562888707E-002
  2.800000000000001E-003    1.454435114712131E-002
  2.900000000000001E-003    1.496996560351502E-002
  3.000000000000001E-003    1.540469658403795E-002
  3.100000000000001E-003    1.584860697843293E-002
  3.200000000000001E-003    1.630175672132709E-002
  3.300000000000001E-003    1.676419984799613E-002
  3.400000000000001E-003    1.723598347625567E-002
  3.500000000000001E-003    1.771714908698427E-002
  3.600000000000001E-003    1.820773224830014E-002
  3.700000000000001E-003    1.870776231462197E-002
  3.800000000000001E-003    1.921726006939668E-002
  3.900000000000001E-003    1.973623996559767E-002
  4.000000000000001E-003    2.026470865647876E-002
  4.100000000000001E-003    2.080266717081193E-002
  4.200000000000001E-003    2.135010703139350E-002
  4.300000000000001E-003    2.190701771645744E-002
  4.400000000000001E-003    2.247337534664923E-002
  4.500000000000001E-003    2.304915317319747E-002
  4.600000000000002E-003    2.363431551861939E-002
  4.700000000000001E-003    2.422881723778443E-002
  4.800000000000001E-003    2.483260809292713E-002
  4.900000000000002E-003    2.544562724994303E-002
  5.000000000000001E-003    2.606780338696377E-002
  5.100000000000001E-003    2.669905661087129E-002
  5.200000000000001E-003    2.733929768516413E-002
  5.300000000000002E-003    2.798842645453264E-002
  5.400000000000001E-003    2.864633032293866E-002
  5.500000000000001E-003    2.931288846051449E-002
  5.600000000000002E-003    2.998797180546536E-002
  5.700000000000001E-003    3.067143893400331E-002
  5.800000000000001E-003    3.136314208905429E-002
  5.900000000000002E-003    3.206292248451510E-002
  6.000000000000001E-003    3.277061135630555E-002
  6.100000000000001E-003    3.348602768024802E-002
  6.200000000000002E-003    3.420898252949242E-002
  6.300000000000002E-003    3.493927806195397E-002
  6.400000000000001E-003    3.567670123200174E-002
  6.500000000000001E-003    3.642102713020918E-002
  6.600000000000002E-003    3.717202208969887E-002
  6.700000000000001E-003    3.792943452378954E-002
  6.800000000000001E-003    3.869300392978130E-002
  6.900000000000002E-003    3.946245919784719E-002
  7.000000000000001E-003    4.023751625789481E-002
  7.100000000000001E-003    4.101788073015705E-002
  7.200000000000002E-003    4.180325059563429E-002
  7.300000000000002E-003    4.259330953651902E-002
  7.400000000000001E-003    4.338773177520623E-002
  7.500000000000001E-003    4.418618343179548E-002
  7.600000000000002E-003    4.498831771958424E-002
  7.700000000000001E-003    4.579377686921830E-002
  7.800000000000001E-003    4.660219151024011E-002
  7.900000000000001E-003    4.741318206541349E-002
  8.000000000000002E-003    4.822635736226484E-002
  8.100000000000001E-003    4.904131540490597E-002
  8.200000000000001E-003    4.985763591396811E-002
  8.300000000000002E-003    5.067489835393947E-002
  8.400000000000001E-003    5.149266679839561E-002
  8.500000000000002E-003    5.231049478578474E-002
  8.600000000000002E-003    5.312793109567920E-002
  8.700000000000001E-003    5.394450989372685E-002
  8.800000000000002E-003    5.475976191857241E-002
  8.900000000000002E-003    5.557320630572671E-002
  9.000000000000001E-003    5.638436211198598E-002
  9.100000000000002E-003    5.719273038981502E-002
  9.200000000000002E-003    5.799781512736411E-002
  9.300000000000001E-003    5.879910051903362E-002
  9.400000000000002E-003    5.959607188029174E-002
  9.500000000000001E-003    6.038820681089498E-002
  9.600000000000001E-003    6.117497361204894E-002
  9.700000000000002E-003    6.195583937358561E-002
  9.800000000000001E-003    6.273026539368123E-002
  9.900000000000001E-003    6.349770379525155E-002
  1.000000000000000E-002    6.425760837016031E-002
  1.010000000000000E-002    6.500943356593333E-002
  1.020000000000000E-002    6.575262531398028E-002
  1.030000000000000E-002    6.648663679221790E-002
  1.040000000000000E-002    6.721091241626397E-002
  1.050000000000000E-002    6.792490408984123E-002
  1.060000000000000E-002    6.862805540762498E-002
  1.070000000000000E-002    6.931982658549050E-002
  1.080000000000000E-002    6.999966600812488E-002
  1.090000000000000E-002    7.066703532914001E-002
  1.100000000000000E-002    7.132139437537732E-002
  1.110000000000000E-002    7.196220944478841E-002
  1.120000000000000E-002    7.258895360918294E-002
  1.130000000000000E-002    7.320111014375791E-002
  1.140000000000000E-002    7.379816247909531E-002
  1.150000000000000E-002    7.437961019950420E-002
  1.160000000000000E-002    7.494495840101939E-002
  1.170000000000000E-002    7.549372066742878E-002
  1.180000000000000E-002    7.602542820727634E-002
  1.190000000000000E-002    7.653961602624154E-002
  1.200000000000000E-002    7.703584314047507E-002
  1.210000000000000E-002    7.751367163157090E-002
  1.220000000000000E-002    7.797268892671003E-002
  1.230000000000000E-002    7.841249835141190E-002
  1.240000000000000E-002    7.883271161415055E-002
  1.250000000000000E-002    7.923297118570588E-002
  1.260000000000000E-002    7.961292134234872E-002
  1.270000000000000E-002    7.997224473382490E-002
  1.280000000000000E-002    8.031062871323218E-002
  1.290000000000000E-002    8.062779117668802E-002
  1.300000000000000E-002    8.092348020533363E-002
  1.310000000000000E-002    8.119744900738303E-002
  1.320000000000000E-002    8.144948352795001E-002
  1.330000000000000E-002    8.167940477819548E-002
  1.340000000000000E-002    8.188704384402092E-002
  1.350000000000000E-002    8.207226687154408E-002
  1.360000000000000E-002    8.223497228585033E-002
  1.370000000000000E-002    8.237508174885085E-002
  1.380000000000000E-002    8.249255452675201E-002
  1.390000000000000E-002    8.258737148248280E-002
  1.400000000000000E-002    8.265955580940409E-002
  1.410000000000000E-002    8.270915289338859E-002
  1.420000000000000E-002    8.273624670346164E-002
  1.430000000000000E-002    8.274095111800217E-002
  1.440000000000000E-002    8.272341588864332E-002
  1.450000000000000E-002    8.268382236164261E-002
  1.460000000000000E-002    8.262239177926076E-002
  1.470000000000000E-002    8.253937154341670E-002
  1.480000000000000E-002    8.243505842885064E-002
  1.490000000000000E-002    8.230977093254205E-002
  1.500000000000000E-002    8.216387576581449E-002
  1.510000000000000E-002    8.199777735593519E-002
  1.520000000000000E-002    8.181191064485478E-002
  1.530000000000000E-002    8.160675701551560E-002
  1.540000000000000E-002    8.138283035505967E-002
  1.550000000000000E-002    8.114068426024028E-002
  1.560000000000000E-002    8.088090879354727E-002
  1.570000000000000E-002    8.060413474398734E-002
  1.580000000000000E-002    8.031101804105319E-002
  1.590000000000000E-002    8.000226919766359E-002
  1.600000000000000E-002    7.967862387197275E-002
  1.610000000000000E-002    7.934085388141025E-002
  1.620000000000000E-002    7.898977690696865E-002
  1.630000000000000E-002    7.862623347406766E-002
  1.640000000000000E-002    7.825111919860923E-002
  1.650000000000000E-002    7.786534876012452E-002
  1.660000000000000E-002    7.746988211745647E-002
  1.670000000000000E-002    7.706571330990331E-002
  1.680000000000000E-002    7.665385719487820E-002
  1.690000000000000E-002    7.623537562986114E-002
  1.700000000000000E-002    7.581135291851600E-002
  1.710000000000000E-002    7.538291113351715E-002
  1.720000000000000E-002    7.495118521004773E-002
  1.730000000000000E-002    7.451734785733177E-002
  1.740000000000000E-002    7.408259325220359E-002
  1.750000000000000E-002    7.364814278264412E-002
  1.760000000000000E-002    7.321524371685617E-002
  1.770000000000000E-002    7.278516115213998E-002
  1.780000000000000E-002    7.235918114182854E-002
  1.790000000000000E-002    7.193861323873586E-002
  1.800000000000000E-002    7.152477584561792E-002
  1.810000000000000E-002    7.111901418446950E-002
  1.820000000000000E-002    7.072267559814815E-002
  1.830000000000000E-002    7.033711829710514E-002
  1.840000000000000E-002    6.996370698668752E-002
  1.850000000000000E-002    6.960382082952982E-002
  1.860000000000000E-002    6.925882888739096E-002
  1.870000000000000E-002    6.893010934700676E-002