 -4.000000000000000E-002    0.000000000000000E+000
 -3.990000000000000E-002    0.000000000000000E+000
 -3.980000000000000E-002    0.000000000000000E+000
 -3.970000000000000E-002    0.000000000000000E+000
 -3.960000000000000E-002    0.000000000000000E+000
 -3.950000000000000E-002    0.000000000000000E+000
 -3.940000000000000E-002    0.000000000000000E+000
 -3.930000000000000E-002    0.000000000000000E+000
 -3.920000000000000E-002    0.000000000000000E+000
 -3.910000000000000E-002    0.000000000000000E+000
 -3.900000000000000E-002    0.000000000000000E+000
 -3.890000000000000E-002    0.000000000000000E+000
 -3.880000000000000E-002    0.000000000000000E+000
 -3.870000000000000E-002    0.000000000000000E+000
 -3.860000000000000E-002    0.000000000000000E+000
 -3.850000000000000E-002    0.000000000000000E+000
 -3.840000000000000E-002    0.000000000000000E+000
 -3.830000000000000E-002    0.000000000000000E+000
 -3.820000000000000E-002    0.000000000000000E+000
 -3.810000000000000E-002    0.000000000000000E+000
 -3.800000000000000E-002    0.000000000000000E+000
 -3.790000000000000E-002    0.000000000000000E+000
 -3.780000000000000E-002    0.000000000000000E+000
 -3.770000000000000E-002    0.000000000000000E+000
 -3.760000000000000E-002    0.000000000000000E+000
 -3.750000000000000E-002    0.000000000000000E+000
 -3.740000000000000E-002    0.000000000000000E+000
 -3.730000000000000E-002    0.000000000000000E+000
 -3.720000000000000E-002    0.000000000000000E+000
 -3.710000000000000E-002    0.000000000000000E+000
 -3.700000000000000E-002    0.000000000000000E+000
 -3.690000000000000E-002    0.000000000000000E+000
 -3.680000000000000E-002    0.000000000000000E+000
 -3.670000000000000E-002    0.000000000000000E+000
 -3.660000000000000E-002    0.000000000000000E+000
 -3.650000000000000E-002    0.000000000000000E+000
 -3.640000000000000E-002    0.000000000000000E+000
 -3.630000000000000E-002    0.000000000000000E+000
 -3.620000000000000E-002    0.000000000000000E+000
 -3.610000000000000E-002    0.000000000000000E+000
 -3.600000000000000E-002    0.000000000000000E+000
 -3.590000000000000E-002    0.000000000000000E+000
 -3.580000000000000E-002    0.000000000000000E+000
 -3.570000000000000E-002    0.000000000000000E+000
 -3.560000000000000E-002    0.000000000000000E+000
 -3.550000000000000E-002    0.000000000000000E+000
 -3.540000000000000E-002    0.000000000000000E+000
 -3.530000000000000E-002    0.000000000000000E+000
 -3.520000000000000E-002    0.000000000000000E+000
 -3.510000000000000E-002    0.000000000000000E+000
 -3.500000000000000E-002    0.000000000000000E+000
 -3.490000000000000E-002    0.000000000000000E+000
 -3.480000000000000E-002    0.000000000000000E+000
 -3.470000000000000E-002    0.000000000000000E+000
 -3.460000000000000E-002    0.000000000000000E+000
 -3.450000000000000E-002    0.000000000000000E+000
 -3.440000000000000E-002    0.000000000000000E+000
 -3.430000000000000E-002    0.000000000000000E+000
 -3.420000000000000E-002    0.000000000000000E+000
 -3.410000000000000E-002    0.000000000000000E+000
 -3.400000000000000E-002    0.000000000000000E+000
 -3.390000000000000E-002    0.000000000000000E+000
 -3.380000000000000E-002    0.000000000000000E+000
 -3.370000000000000E-002    0.000000000000000E+000
 -3.360000000000000E-002    0.000000000000000E+000
 -3.350000000000000E-002    0.000000000000000E+000
 -3.340000000000000E-002    0.000000000000000E+000
 -3.330000000000000E-002    0.000000000000000E+000
 -3.320000000000000E-002    0.000000000000000E+000
 -3.310000000000000E-002    0.000000000000000E+000
 -3.300000000000000E-002    0.000000000000000E+000
 -3.290000000000000E-002    0.000000000000000E+000
 -3.280000000000000E-002    0.000000000000000E+000
 -3.270000000000000E-002    0.000000000000000E+000
 -3.260000000000000E-002    0.000000000000000E+000
 -3.250000000000000E-002    0.000000000000000E+000
 -3.240000000000000E-002    0.000000000000000E+000
 -3.230000000000000E-002    0.000000000000000E+000
 -3.220000000000000E-002    0.000000000000000E+000
 -3.210000000000000E-002    0.000000000000000E+000
 -3.200000000000000E-002    0.000000000000000E+000
 -3.190000000000000E-002    0.000000000000000E+000
 -3.180000000000000E-002    0.000000000000000E+000
 -3.170000000000000E-002    0.000000000000000E+000
 -3.160000000000000E-002    0.000000000000000E+000
 -3.150000000000000E-002    0.000000000000000E+000
 -3.140000000000000E-002    0.000000000000000E+000
 -3.130000000000000E-002    0.000000000000000E+000
 -3.120000000000000E-002    0.000000000000000E+000
 -3.110000000000000E-002    0.000000000000000E+000
 -3.100000000000000E-002    0.000000000000000E+000
 -3.090000000000000E-002    0.000000000000000E+000
 -3.080000000000000E-002    0.000000000000000E+000
 -3.070000000000000E-002    0.000000000000000E+000
 -3.060000000000000E-002    0.000000000000000E+000
 -3.050000000000000E-002    0.000000000000000E+000
 -3.040000000000000E-002    0.000000000000000E+000
 -3.030000000000000E-002    0.000000000000000E+000
 -3.020000000000000E-002    0.000000000000000E+000
 -3.010000000000000E-002    0.000000000000000E+000
 -3.000000000000000E-002    0.000000000000000E+000
 -2.990000000000000E-002    0.000000000000000E+000
 -2.980000000000000E-002    0.000000000000000E+000
 -2.970000000000000E-002    0.000000000000000E+000
 -2.960000000000000E-002    0.000000000000000E+000
 -2.950000000000000E-002    0.000000000000000E+000
 -2.940000000000000E-002    0.000000000000000E+000
 -2.930000000000000E-002    0.000000000000000E+000
 -2.920000000000000E-002    0.000000000000000E+000
 -2.910000000000000E-002    0.000000000000000E+000
 -2.900000000000000E-002    0.000000000000000E+000
 -2.890000000000000E-002    0.000000000000000E+000
 -2.880000000000000E-002    0.000000000000000E+000
 -2.870000000000000E-002    0.000000000000000E+000
 -2.860000000000000E-002    0.000000000000000E+000
 -2.850000000000000E-002    0.000000000000000E+000
 -2.840000000000000E-002    0.000000000000000E+000
 -2.830000000000000E-002    0.000000000000000E+000
 -2.820000000000000E-002    0.000000000000000E+000
 -2.810000000000000E-002    0.000000000000000E+000
 -2.800000000000000E-002    0.000000000000000E+000
 -2.790000000000000E-002    0.000000000000000E+000
 -2.780000000000000E-002    0.000000000000000E+000
 -2.770000000000000E-002    0.000000000000000E+000
 -2.760000000000000E-002    0.000000000000000E+000
 -2.750000000000000E-002    0.000000000000000E+000
 -2.740000000000000E-002    0.000000000000000E+000
 -2.730000000000000E-002    0.000000000000000E+000
 -2.720000000000000E-002    0.000000000000000E+000
 -2.710000000000000E-002    0.000000000000000E+000
 -2.700000000000000E-002    0.000000000000000E+000
 -2.690000000000000E-002    0.000000000000000E+000
 -2.680000000000000E-002    0.000000000000000E+000
 -2.670000000000000E-002    0.000000000000000E+000
 -2.660000000000000E-002    0.000000000000000E+000
 -2.650000000000000E-002    0.000000000000000E+000
 -2.640000000000000E-002    0.000000000000000E+000
 -2.630000000000000E-002    0.000000000000000E+000
 -2.620000000000000E-002    0.000000000000000E+000
 -2.610000000000000E-002    0.000000000000000E+000
 -2.600000000000000E-002    0.000000000000000E+000
 -2.590000000000000E-002    0.000000000000000E+000
 -2.580000000000000E-002    0.000000000000000E+000
 -2.570000000000000E-002    0.000000000000000E+000
 -2.560000000000000E-002    0.000000000000000E+000
 -2.550000000000000E-002    0.000000000000000E+000
 -2.540000000000000E-002    0.000000000000000E+000
 -2.530000000000000E-002    0.000000000000000E+000
 -2.520000000000000E-002    0.000000000000000E+000
 -2.510000000000000E-002    0.000000000000000E+000
 -2.500000000000000E-002    0.000000000000000E+000
 -2.490000000000000E-002    0.000000000000000E+000
 -2.480000000000000E-002    0.000000000000000E+000
 -2.470000000000000E-002    0.000000000000000E+000
 -2.460000000000000E-002    0.000000000000000E+000
 -2.450000000000000E-002    0.000000000000000E+000
 -2.440000000000000E-002    0.000000000000000E+000
 -2.430000000000000E-002    0.000000000000000E+000
 -2.420000000000000E-002    0.000000000000000E+000
 -2.410000000000000E-002    0.000000000000000E+000
 -2.400000000000000E-002    0.000000000000000E+000
 -2.390000000000000E-002    0.000000000000000E+000
 -2.380000000000000E-002    0.000000000000000E+000
 -2.370000000000000E-002    0.000000000000000E+000
 -2.360000000000000E-002    0.000000000000000E+000
 -2.350000000000000E-002    0.000000000000000E+000
 -2.340000000000000E-002    0.000000000000000E+000
 -2.330000000000000E-002    0.000000000000000E+000
 -2.320000000000000E-002    0.000000000000000E+000
 -2.310000000000000E-002    0.000000000000000E+000
 -2.300000000000000E-002    0.000000000000000E+000
 -2.290000000000000E-002    0.000000000000000E+000
 -2.280000000000000E-002    0.000000000000000E+000
 -2.270000000000000E-002    0.000000000000000E+000
 -2.260000000000000E-002    0.000000000000000E+000
 -2.250000000000000E-002    0.000000000000000E+000
 -2.240000000000000E-002    0.000000000000000E+000
 -2.230000000000000E-002    0.000000000000000E+000
 -2.220000000000000E-002    0.000000000000000E+000
 -2.210000000000000E-002    0.000000000000000E+000
 -2.200000000000000E-002    0.000000000000000E+000
 -2.190000000000000E-002    0.000000000000000E+000
 -2.180000000000000E-002    0.000000000000000E+000
 -2.170000000000000E-002    0.000000000000000E+000
 -2.160000000000000E-002    0.000000000000000E+000
 -2.150000000000000E-002    0.000000000000000E+000
 -2.140000000000000E-002    0.000000000000000E+000
 -2.130000000000000E-002    0.000000000000000E+000
 -2.120000000000000E-002    0.000000000000000E+000
 -2.110000000000000E-002    0.000000000000000E+000
 -2.100000000000000E-002    0.000000000000000E+000
 -2.090000000000000E-002    0.000000000000000E+000
 -2.080000000000000E-002    0.000000000000000E+000
 -2.070000000000000E-002    0.000000000000000E+000
 -2.060000000000000E-002    0.000000000000000E+000
 -2.050000000000000E-002    0.000000000000000E+000
 -2.040000000000000E-002    0.000000000000000E+000
 -2.030000000000000E-002    0.000000000000000E+000
 -2.020000000000000E-002    0.000000000000000E+000
 -2.010000000000000E-002    0.000000000000000E+000
 -2.000000000000000E-002    0.000000000000000E+000
 -1.990000000000000E-002    0.000000000000000E+000
 -1.980000000000000E-002    0.000000000000000E+000
 -1.970000000000000E-002    0.000000000000000E+000
 -1.960000000000000E-002    0.000000000000000E+000
 -1.950000000000000E-002    0.000000000000000E+000
 -1.940000000000000E-002    0.000000000000000E+000
 -1.930000000000000E-002    0.000000000000000E+000
 -1.920000000000000E-002    0.000000000000000E+000
 -1.910000000000000E-002    0.000000000000000E+000
 -1.900000000000000E-002    0.000000000000000E+000
 -1.890000000000000E-002    0.000000000000000E+000
 -1.880000000000000E-002    0.000000000000000E+000
 -1.870000000000000E-002    0.000000000000000E+000
 -1.860000000000000E-002    0.000000000000000E+000
 -1.850000000000000E-002    0.000000000000000E+000
 -1.840000000000000E-002    0.000000000000000E+000
 -1.830000000000000E-002    0.000000000000000E+000
 -1.820000000000000E-002    0.000000000000000E+000
 -1.810000000000000E-002    0.000000000000000E+000
 -1.800000000000000E-002    0.000000000000000E+000
 -1.790000000000000E-002    0.000000000000000E+000
 -1.780000000000000E-002    0.000000000000000E+000
 -1.770000000000000E-002    0.000000000000000E+000
 -1.760000000000000E-002    0.000000000000000E+000
 -1.750000000000000E-002    0.000000000000000E+000
 -1.740000000000000E-002    0.000000000000000E+000
 -1.730000000000000E-002    0.000000000000000E+000
 -1.720000000000000E-002    0.000000000000000E+000
 -1.710000000000000E-002    0.000000000000000E+000
 -1.700000000000000E-002    0.000000000000000E+000
 -1.690000000000000E-002    0.000000000000000E+000
 -1.680000000000000E-002    0.000000000000000E+000
 -1.670000000000000E-002    0.000000000000000E+000
 -1.660000000000000E-002    0.000000000000000E+000
 -1.650000000000000E-002    0.000000000000000E+000
 -1.640000000000000E-002    0.000000000000000E+000
 -1.630000000000000E-002    0.000000000000000E+000
 -1.620000000000000E-002    0.000000000000000E+000
 -1.610000000000000E-002    0.000000000000000E+000
 -1.600000000000000E-002    0.000000000000000E+000
 -1.590000000000000E-002    0.000000000000000E+000
 -1.580000000000000E-002    0.000000000000000E+000
 -1.570000000000000E-002    0.000000000000000E+000
 -1.560000000000000E-002    0.000000000000000E+000
 -1.550000000000000E-002    0.000000000000000E+000
 -1.540000000000000E-002    0.000000000000000E+000
 -1.530000000000000E-002    0.000000000000000E+000
 -1.520000000000000E-002    0.000000000000000E+000
 -1.510000000000000E-002    0.000000000000000E+000
 -1.500000000000000E-002    0.000000000000000E+000
 -1.490000000000000E-002    0.000000000000000E+000
 -1.480000000000000E-002    0.000000000000000E+000
 -1.470000000000000E-002    0.000000000000000E+000
 -1.460000000000000E-002    0.000000000000000E+000
 -1.450000000000000E-002    0.000000000000000E+000
 -1.440000000000000E-002    0.000000000000000E+000
 -1.430000000000000E-002    0.000000000000000E+000
 -1.420000000000000E-002    0.000000000000000E+000
 -1.410000000000000E-002    0.000000000000000E+000
 -1.400000000000000E-002    0.000000000000000E+000
 -1.390000000000000E-002    0.000000000000000E+000
 -1.380000000000000E-002    0.000000000000000E+000
 -1.370000000000000E-002    0.000000000000000E+000
 -1.360000000000000E-002    0.000000000000000E+000
 -1.350000000000000E-002    0.000000000000000E+000
 -1.340000000000000E-002    0.000000000000000E+000
 -1.330000000000000E-002    0.000000000000000E+000
 -1.320000000000000E-002    0.000000000000000E+000
 -1.310000000000000E-002    0.000000000000000E+000
 -1.300000000000000E-002    0.000000000000000E+000
 -1.290000000000000E-002    0.000000000000000E+000
 -1.280000000000000E-002    0.000000000000000E+000
 -1.270000000000000E-002    0.000000000000000E+000
 -1.260000000000000E-002    0.000000000000000E+000
 -1.250000000000000E-002    0.000000000000000E+000
 -1.240000000000000E-002    0.000000000000000E+000
 -1.230000000000000E-002    0.000000000000000E+000
 -1.220000000000000E-002    0.000000000000000E+000
 -1.210000000000000E-002    0.000000000000000E+000
 -1.200000000000000E-002    0.000000000000000E+000
 -1.190000000000000E-002    0.000000000000000E+000
 -1.180000000000000E-002    0.000000000000000E+000
 -1.170000000000000E-002    0.000000000000000E+000
 -1.160000000000000E-002    0.000000000000000E+000
 -1.150000000000000E-002    0.000000000000000E+000
 -1.140000000000000E-002    0.000000000000000E+000
 -1.130000000000000E-002    0.000000000000000E+000
 -1.120000000000000E-002    0.000000000000000E+000
 -1.110000000000000E-002    0.000000000000000E+000
 -1.100000000000000E-002    0.000000000000000E+000
 -1.090000000000000E-002    0.000000000000000E+000
 -1.080000000000000E-002    0.000000000000000E+000
 -1.070000000000000E-002    0.000000000000000E+000
 -1.060000000000000E-002    0.000000000000000E+000
 -1.050000000000000E-002    0.000000000000000E+000
 -1.040000000000000E-002    0.000000000000000E+000
 -1.030000000000000E-002   -1.924390591266381E-047
 -1.020000000000000E-002   -1.924390591266381E-047
 -1.010000000000000E-002   -1.924390591266381E-047
 -1.000000000000000E-002    0.000000000000000E+000
 -9.899999999999999E-003    3.848781182532762E-047
 -9.800000000000000E-003   -6.819534687908482E-047
 -9.699999999999999E-003   -8.487339867006012E-047
 -9.599999999999999E-003   -1.143807210694780E-046
 -9.500000000000000E-003   -1.796097885181955E-047
 -9.399999999999999E-003   -3.720488476448336E-047
 -9.299999999999999E-003   -6.542928010305695E-047
 -9.200000000000000E-003   -4.105366594701613E-047
 -9.099999999999999E-003    1.050229215859830E-045
 -8.999999999999999E-003    1.063058486468272E-045
 -8.900000000000000E-003    1.221058727606455E-045
 -8.799999999999999E-003    1.407283364083211E-045
 -8.699999999999999E-003    5.757795984800760E-046
 -8.600000000000000E-003   -8.471475716441330E-046
 -8.499999999999999E-003   -2.403426453111353E-045
 -8.399999999999999E-003   -4.157476314602928E-045
 -8.300000000000000E-003   -5.638462929883799E-045
 -8.199999999999999E-003   -6.926400899924996E-045
 -8.100000000000000E-003   -7.266255399407405E-045
 -8.000000000000000E-003   -5.243397463629682E-045
 -7.899999999999999E-003   -1.047727504452148E-045
 -7.800000000000000E-003    6.587070592230024E-045
 -7.699999999999999E-003    1.655114546264778E-044
 -7.599999999999999E-003    2.935441083976929E-044
 -7.499999999999999E-003    4.195992351085616E-044
 -7.399999999999999E-003    5.077287861319938E-044
 -7.299999999999999E-003    5.299925801505242E-044
 -7.199999999999999E-003    4.372155533116423E-044
 -7.100000000000000E-003    1.918294419273048E-044
 -6.999999999999999E-003   -2.250553825919238E-044
 -6.899999999999999E-003   -8.084601253272591E-044
 -6.800000000000000E-003   -1.508184724423788E-043
 -6.699999999999999E-003   -2.203705083430998E-043
 -6.599999999999999E-003   -2.747410772230622E-043
 -6.499999999999999E-003   -2.913015254547789E-043
 -6.399999999999999E-003   -2.490093024501356E-043
 -6.299999999999999E-003   -1.269930985892256E-043
 -6.199999999999999E-003    8.396246149395595E-044
 -6.100000000000000E-003    3.802513933292428E-043
 -5.999999999999999E-003    7.340911882834260E-043
 -5.899999999999999E-003    1.092695066843479E-042
 -5.800000000000000E-003    1.374318628939500E-042
 -5.699999999999999E-003    1.477708470629861E-042
 -5.599999999999999E-003    1.292072585896248E-042
 -5.499999999999999E-003    7.195121320262327E-043
 -5.399999999999999E-003   -2.927895424694269E-043
 -5.299999999999999E-003   -1.722541398646723E-042
 -5.199999999999999E-003   -3.441411686034893E-042
 -5.099999999999999E-003   -5.192801781339058E-042
 -4.999999999999999E-003   -6.590561526843934E-042
 -4.899999999999999E-003   -7.148758949382854E-042
 -4.799999999999999E-003   -6.344007919956775E-042
 -4.699999999999999E-003   -3.721997999612537E-042
 -4.599999999999999E-003    9.701157711397359E-043
 -4.499999999999999E-003    7.630153659780070E-042
 -4.399999999999999E-003    1.565955704782151E-041
 -4.299999999999999E-003    2.386996286369320E-041
 -4.199999999999999E-003    3.048549541810056E-041
 -4.099999999999999E-003    3.327722867412693E-041
 -3.999999999999999E-003    2.986189245170328E-041
 -3.899999999999999E-003    1.817452570417877E-041
 -3.799999999999999E-003   -2.917410008497817E-042
 -3.699999999999999E-003   -3.293904526664158E-041
 -3.599999999999999E-003   -6.918284560710710E-041
 -3.499999999999999E-003   -1.063230998619252E-040
 -3.399999999999999E-003   -1.364379535195188E-040
 -3.299999999999999E-003   -1.496392748881013E-040
 -3.199999999999999E-003   -1.354174433102551E-040
 -3.099999999999999E-003   -8.472881929762440E-041
 -2.999999999999999E-003    7.322590761186202E-042
 -2.899999999999999E-003    1.385609699679787E-040
 -2.799999999999999E-003    2.971075977830865E-040
 -2.699999999999999E-003    4.597822277216759E-040
 -2.599999999999999E-003    5.923324023562564E-040
 -2.499999999999999E-003    6.522403919604280E-040
 -2.399999999999999E-003    5.945909518756024E-040
 -2.299999999999999E-003    3.810181680910185E-040
 -2.199999999999999E-003   -8.957785774073397E-042
 -2.099999999999999E-003   -5.656883331649928E-040
 -1.999999999999999E-003   -1.238604230029561E-039
 -1.899999999999999E-003   -1.929883104668811E-039
 -1.799999999999999E-003   -2.495880346686107E-039
 -1.699999999999999E-003   -2.759293244988950E-039
 -1.599999999999999E-003   -2.533908103759721E-039
 -1.499999999999999E-003   -1.661731251002750E-039
 -1.399999999999999E-003   -5.952461951341636E-041
 -1.299999999999999E-003    2.231590833409272E-039
 -1.199999999999999E-003    5.003111823855262E-039
 -1.099999999999999E-003    7.854888494526074E-039
 -9.999999999999989E-004    1.020272671244149E-038
 -8.999999999999990E-004    1.132933942046532E-038
 -7.999999999999990E-004    1.048534052032750E-038
 -6.999999999999989E-004    7.038724146784759E-039
 -5.999999999999990E-004    6.600315879684687E-040
 -4.999999999999989E-004   -8.482597235227186E-039
 -3.999999999999989E-004   -1.955693034876164E-038
 -2.999999999999989E-004   -3.097647744142393E-038
 -1.999999999999989E-004   -4.043697899415214E-038
 -9.999999999999892E-005   -4.512265873957773E-038
  1.084202172485504E-018   -4.210563052386493E-038
  1.000000000000011E-004   -2.892939573206425E-038
  2.000000000000011E-004   -4.323812426092837E-039
  3.000000000000011E-004    3.105029602903423E-038
  4.000000000000011E-004    7.397545570549510E-038
  5.000000000000011E-004    1.183521724948207E-037
  6.000000000000011E-004    1.553619583943236E-037
  7.000000000000011E-004    1.742749932422100E-037
  8.000000000000011E-004    1.639820976996135E-037
  9.000000000000012E-004    1.152049794712745E-037
  1.000000000000001E-003    2.317678020189533E-038
  1.100000000000001E-003   -1.095965952114056E-037
  1.200000000000001E-003   -2.710515721453244E-037
  1.300000000000001E-003   -4.384273115379615E-037
  1.400000000000001E-003   -5.789527673480703E-037
  1.500000000000001E-003   -6.529128417100509E-037
  1.600000000000001E-003   -6.193508765972155E-037
  1.700000000000001E-003   -4.442016608962778E-037
  1.800000000000001E-003   -1.100583938044766E-037
  1.900000000000001E-003    3.738738265942607E-037
  2.000000000000001E-003    9.636635222225530E-037
  2.100000000000001E-003    1.576776720344078E-036
  2.200000000000001E-003    2.094839030990866E-036
  2.300000000000001E-003    2.374929783154529E-036
  2.400000000000001E-003    2.270212028717770E-036
  2.500000000000001E-003    1.659032157456802E-036
  2.600000000000001E-003    4.795302573204341E-037
  2.700000000000001E-003   -1.235443652775483E-036
  2.800000000000001E-003   -3.330287084982364E-036
  2.900000000000001E-003   -5.513833913012557E-036
  3.000000000000001E-003   -7.370001929081850E-036
  3.100000000000001E-003   -8.398220346531829E-036
  3.200000000000001E-003   -8.086029736004988E-036
  3.300000000000001E-003   -6.010417676426285E-036
  3.400000000000001E-003   -1.957240810093298E-036
  3.500000000000001E-003    3.959484978838296E-036
  3.600000000000001E-003    1.120315743527567E-035
  3.700000000000001E-003    1.877340861690799E-035
  3.800000000000001E-003    2.524562002320225E-035
  3.900000000000001E-003    2.891164614501934E-035
  4.000000000000001E-003    2.802857015267705E-035
  4.100000000000001E-003    2.116251008238369E-035
  4.200000000000001E-003    7.590207467762512E-036
  4.300000000000001E-003   -1.230362106029974E-035
  4.400000000000001E-003   -3.671619388768660E-035
  4.500000000000001E-003   -6.229766541550132E-035
  4.600000000000002E-003   -8.429256517754609E-035
  4.700000000000001E-003   -9.701655096449665E-035
  4.800000000000001E-003   -9.468700961077797E-035
  4.900000000000002E-003   -7.256009788911776E-035
  5.000000000000001E-003   -2.824816136644127E-035
  5.100000000000001E-003    3.698880606779377E-035
  5.200000000000001E-003    1.172487316567395E-034
  5.300000000000002E-003    2.015930686588660E-034
  5.400000000000001E-003    2.745358007690496E-034
  5.500000000000001E-003    3.176162469209777E-034
  5.600000000000002E-003    3.121026349283366E-034
  5.700000000000001E-003    2.426614476408204E-034
  5.800000000000001E-003    1.015751480436326E-034
  5.900000000000002E-003   -1.071581693067742E-034
  6.000000000000001E-003   -3.647080801005255E-034
  6.100000000000001E-003   -6.362319407244251E-034
  6.200000000000002E-003   -8.725109405392493E-034
  6.300000000000002E-003   -1.015004449665251E-033
  6.400000000000001E-003   -1.004434383224350E-033
  6.500000000000001E-003   -7.923422161921584E-034
  6.600000000000002E-003   -3.542767531101355E-034
  6.700000000000001E-003    2.974879211443528E-034
  6.800000000000001E-003    1.104398640980786E-033
  6.900000000000002E-003    1.958165804821745E-033
  7.000000000000001E-003    2.706063924594162E-033
  7.100000000000001E-003    3.166762794340997E-033
  7.200000000000002E-003    3.156929730464797E-033
  7.300000000000002E-003    2.526772907152391E-033
  7.400000000000001E-003    1.200334491340541E-033
  7.500000000000001E-003   -7.859403659703479E-034
  7.600000000000002E-003   -3.254544465793684E-033
  7.700000000000001E-003   -5.876971418872303E-033
  7.800000000000001E-003   -8.190384007951702E-033
  7.900000000000001E-003   -9.645975087673144E-033
  8.000000000000002E-003   -9.689460576489619E-033
  8.100000000000001E-003   -7.867884880385021E-033
  8.200000000000001E-003   -3.949959837783933E-033
  8.300000000000002E-003    1.959533755907862E-033
  8.400000000000001E-003    9.335591262568063E-033
  8.500000000000002E-003    1.720496762594725E-032
  8.600000000000002E-003    2.419711868957158E-032
  8.700000000000001E-003    2.868844814199432E-032
  8.800000000000002E-003    2.904023420912282E-032
  8.900000000000002E-003    2.391243138320506E-032
  9.000000000000001E-003    1.261516166169644E-032
  9.100000000000002E-003   -4.559231913188133E-033
  9.200000000000002E-003   -2.609421506898866E-032
  9.300000000000001E-003   -4.917154897806351E-032
  9.400000000000002E-003   -6.982296843754447E-032
  9.500000000000001E-003   -8.335049659746370E-032
  9.600000000000001E-003   -8.501428335592213E-032
  9.700000000000002E-003   -7.093444143931700E-032
  9.800000000000001E-003   -3.909587131732604E-032
  9.900000000000001E-003    9.708058412233258E-033
  1.000000000000000E-002    7.119380196875937E-032
  1.010000000000000E-002    1.373772067454084E-031
  1.020000000000000E-002    1.970140386351481E-031
  1.030000000000000E-002    2.367977105353268E-031
  1.040000000000000E-002    2.433052297393071E-031
  1.050000000000000E-002    2.055350085639511E-031
  1.060000000000000E-002    1.177202910176587E-031
  1.070000000000000E-002   -1.804290010289925E-032
  1.080000000000000E-002   -1.899125193848829E-031
  1.090000000000000E-002   -3.757388930533288E-031
  1.100000000000000E-002   -5.443134515018282E-031
  1.110000000000000E-002   -6.587092169091041E-031
  1.120000000000000E-002   -6.816723533661185E-031
  1.130000000000000E-002   -5.826192378447870E-031
  1.140000000000000E-002   -3.453580507212556E-031
  1.150000000000000E-002    2.473377864978514E-032
  1.160000000000000E-002    4.956022123415019E-031
  1.170000000000000E-002    1.007038655515022E-030
  1.180000000000000E-002    1.474136590770991E-030
  1.190000000000000E-002    1.796411149842331E-030
  1.200000000000000E-002    1.872437522032918E-030
  1.210000000000000E-002    1.618762982349957E-030
  1.220000000000000E-002    9.906964635437519E-031
  1.230000000000000E-002    1.548010407139275E-033
  1.240000000000000E-002   -1.263757426746882E-030
  1.250000000000000E-002   -2.644831577281518E-030
  1.260000000000000E-002   -3.915156565734463E-030
  1.270000000000000E-002   -4.806468578640386E-030
  1.280000000000000E-002   -5.047701129958019E-030
  1.290000000000000E-002   -4.415126667496300E-030
  1.300000000000000E-002   -2.787281143452395E-030
  1.310000000000000E-002   -1.956204228048970E-031
  1.320000000000000E-002    3.139786928466911E-030
  1.330000000000000E-002    6.800305877078601E-030
  1.340000000000000E-002    1.019332504430275E-029
  1.350000000000000E-002    1.261607061493807E-029
  1.360000000000000E-002    1.335718546688188E-029
  1.370000000000000E-002    1.182712180669734E-029
  1.380000000000000E-002    7.700582616040361E-030
  1.390000000000000E-002    1.047574380285116E-030
  1.400000000000000E-002   -7.574512468068002E-030
  1.410000000000000E-002   -1.709528266957108E-029
  1.420000000000000E-002   -2.599452742862001E-029
  1.430000000000000E-002   -3.246575745803446E-029
  1.440000000000000E-002   -3.467594484174082E-029
  1.450000000000000E-002   -3.109821591295932E-029
  1.460000000000000E-002   -2.087455213520275E-029
  1.470000000000000E-002   -4.148911655285969E-030
  1.480000000000000E-002    1.769892253201130E-029
  1.490000000000000E-002    4.198782527481982E-029
  1.500000000000000E-002    6.489375315307401E-029
  1.510000000000000E-002    8.186030244123272E-029
  1.520000000000000E-002    8.825003450541072E-029
  1.530000000000000E-002    8.017753777254569E-029
  1.540000000000000E-002    5.541643737827309E-029
  1.550000000000000E-002    1.423150563539731E-029
  1.560000000000000E-002   -4.003681967658547E-029
  1.570000000000000E-002   -1.008061522139581E-028
  1.580000000000000E-002   -1.586401849127509E-028
  1.590000000000000E-002   -2.022589104975708E-028
  1.600000000000000E-002   -2.201413750999360E-028
  1.610000000000000E-002   -2.025737945552541E-028
  1.620000000000000E-002   -1.438778545519876E-028
  1.630000000000000E-002   -4.445446984205527E-029
  1.640000000000000E-002    8.777831392415576E-029
  1.650000000000000E-002    2.369667305540645E-028
  1.660000000000000E-002    3.802507939905819E-028
  1.670000000000000E-002    4.902027090601204E-028
  1.680000000000000E-002    5.386990775493616E-028
  1.690000000000000E-002    5.018689666159294E-028
  1.700000000000000E-002    3.654753035481099E-028
  1.710000000000000E-002    1.298527264336514E-028
  1.720000000000000E-002   -1.866073222829325E-028
  1.730000000000000E-002   -5.464127555306913E-028
  1.740000000000000E-002   -8.951482431711675E-028
  1.750000000000000E-002   -1.167251918014428E-027
  1.760000000000000E-002   -1.295206824835836E-027
  1.770000000000000E-002   -1.221292492767207E-027
  1.780000000000000E-002   -9.103709333883627E-028
  1.790000000000000E-002   -3.616340725467056E-028
  1.800000000000000E-002    3.830699506720024E-028
  1.810000000000000E-002    1.236651611725239E-027
  1.820000000000000E-002    2.071761722598308E-027
  1.830000000000000E-002    2.734226103997075E-027
  1.840000000000000E-002    3.064487435428095E-027
  1.850000000000000E-002    2.925055879608745E-027
  1.860000000000000E-002    2.230415479887162E-027
  1.870000000000000E-002    9.745558900102611E-028