 -4.000000000000000E-002    0.000000000000000E+000
 -3.990000000000000E-002    0.000000000000000E+000
 -3.980000000000000E-002    0.000000000000000E+000
 -3.970000000000000E-002    0.000000000000000E+000
 -3.960000000000000E-002    0.000000000000000E+000
 -3.950000000000000E-002    0.000000000000000E+000
 -3.940000000000000E-002    0.000000000000000E+000
 -3.930000000000000E-002    0.000000000000000E+000
 -3.920000000000000E-002   -2.472573847077054E-029
 -3.910000000000000E-002   -1.932435987863866E-028
 -3.900000000000000E-002    5.974387772623178E-029
 -3.890000000000000E-002    9.787703708891958E-027
 -3.880000000000000E-002    8.463040923241744E-026
 -3.870000000000000E-002    4.549471825413968E-025
 -3.860000000000000E-002    1.850275138143319E-024
 -3.850000000000000E-002    6.121239572318919E-024
 -3.840000000000000E-002    1.704432983524799E-023
 -3.830000000000000E-002    4.049343128559410E-023
 -3.820000000000000E-002    8.166116340627641E-023
 -3.810000000000000E-002    1.346164273802662E-022
 -3.800000000000000E-002    1.567801407166277E-022
 -3.790000000000000E-002    1.978769655398401E-023
 -3.780000000000000E-002   -5.676188652873320E-022
 -3.770000000000000E-002   -2.154301845268905E-021
 -3.760000000000000E-002   -5.617858747426603E-021
 -3.750000000000000E-002   -1.212192673166064E-020
 -3.740000000000000E-002   -2.280807593683509E-020
 -3.730000000000000E-002   -3.801768702498679E-020
 -3.720000000000000E-002   -5.583347066556974E-020
 -3.710000000000000E-002   -6.982959144166622E-020
 -3.700000000000000E-002   -6.618701285680130E-020
 -3.690000000000000E-002   -2.081516953293522E-020
 -3.680000000000000E-002    1.021824165099809E-019
 -3.670000000000000E-002    3.485587109064258E-019
 -3.660000000000000E-002    7.656787712186442E-019
 -3.650000000000000E-002    1.385018940759060E-018
 -3.640000000000000E-002    2.193324194560248E-018
 -3.630000000000000E-002    3.092737455639961E-018
 -3.620000000000000E-002    3.854482242332059E-018
 -3.610000000000000E-002    4.076685825029693E-018
 -3.600000000000000E-002    3.163900707857551E-018
 -3.590000000000000E-002    3.521794190060704E-019
 -3.580000000000000E-002   -5.193450618415084E-018
 -3.570000000000000E-002   -1.418558012845058E-017
 -3.560000000000000E-002   -2.691445800010698E-017
 -3.550000000000000E-002   -4.285522799789798E-017
 -3.540000000000000E-002   -6.023186469257276E-017
 -3.530000000000000E-002   -7.563055515585638E-017
 -3.520000000000000E-002   -8.379804130585033E-017
 -3.510000000000000E-002   -7.779030293858134E-017
 -3.500000000000000E-002   -4.963858373186396E-017
 -3.490000000000000E-002    8.342150299237453E-018
 -3.480000000000000E-002    1.015747475233971E-016
 -3.470000000000000E-002    2.306976574319472E-016
 -3.460000000000000E-002    3.888250953859623E-016
 -3.450000000000000E-002    5.591311541806596E-016
 -3.440000000000000E-002    7.134820967688427E-016
 -3.430000000000000E-002    8.129348975526576E-016
 -3.420000000000000E-002    8.108539519624488E-016
 -3.410000000000000E-002    6.591265190832158E-016
 -3.400000000000000E-002    3.174535258295338E-016
 -3.390000000000000E-002   -2.350173728347874E-016
 -3.380000000000000E-002   -9.872858596727938E-016
 -3.370000000000000E-002   -1.885701657018732E-015
 -3.360000000000000E-002   -2.827746285939865E-015
 -3.350000000000000E-002   -3.663516151362934E-015
 -3.340000000000000E-002   -4.207531814700970E-015
 -3.330000000000000E-002   -4.262233197650568E-015
 -3.320000000000000E-002   -3.652491357564514E-015
 -3.310000000000000E-002   -2.267847286152313E-015
 -3.300000000000000E-002   -1.063653400410786E-016
 -3.290000000000000E-002    2.688502679892330E-015
 -3.280000000000000E-002    5.808129598025648E-015
 -3.270000000000000E-002    8.785919368622183E-015
 -3.260000000000000E-002    1.103910189463904E-014
 -3.250000000000000E-002    1.194798374065955E-014
 -3.240000000000000E-002    1.096868132609937E-014
 -3.230000000000000E-002    7.767194061481651E-015
 -3.220000000000000E-002    2.354392908502633E-015
 -3.210000000000000E-002   -4.805152463505789E-015
 -3.200000000000000E-002   -1.274071780021767E-014
 -3.190000000000000E-002   -2.000757132894933E-014
 -3.180000000000000E-002   -2.482374868902552E-014
 -3.170000000000000E-002   -2.531672746735221E-014
 -3.160000000000000E-002   -1.986560093164139E-014
 -3.150000000000000E-002   -7.501328359773924E-015
 -3.140000000000000E-002    1.169400019410874E-014
 -3.130000000000000E-002    3.626473324890450E-014
 -3.120000000000000E-002    6.321857159656801E-014
 -3.110000000000000E-002    8.809834634010753E-014
 -3.100000000000000E-002    1.053416832662330E-013
 -3.090000000000000E-002    1.089429067665891E-013
 -3.080000000000000E-002    9.338123718747144E-014
 -3.070000000000000E-002    5.472278004105387E-014
 -3.060000000000000E-002   -8.249900750322150E-015
 -3.050000000000000E-002   -9.306746220424581E-014
 -3.040000000000000E-002   -1.929667235913567E-013
 -3.030000000000000E-002   -2.968371716280443E-013
 -3.020000000000000E-002   -3.898611648150146E-013
 -3.010000000000000E-002   -4.549047207706911E-013
 -3.000000000000000E-002   -4.746026529372805E-013
 -2.990000000000000E-002   -4.339588862687860E-013
 -2.980000000000000E-002   -3.231590314285288E-013
 -2.970000000000000E-002   -1.401984792712264E-013
 -2.960000000000000E-002    1.071209575352530E-013
 -2.950000000000000E-002    4.002610400446471E-013
 -2.940000000000000E-002    7.104334047844571E-013
 -2.930000000000000E-002    1.000699210360759E-012
 -2.920000000000000E-002    1.229662957188834E-012
 -2.910000000000000E-002    1.356496372220737E-012
 -2.900000000000000E-002    1.346777913765413E-012
 -2.890000000000000E-002    1.178421451906791E-012
 -2.880000000000000E-002    8.468313748836595E-013
 -2.870000000000000E-002    3.683935255195787E-013
 -2.860000000000000E-002   -2.184856211949095E-013
 -2.850000000000000E-002   -8.553415977192821E-013
 -2.840000000000000E-002   -1.468812030963103E-012
 -2.830000000000000E-002   -1.978744023329788E-012
 -2.820000000000000E-002   -2.308524436405907E-012
 -2.810000000000000E-002   -2.396472290818567E-012
 -2.800000000000000E-002   -2.206784215369692E-012
 -2.790000000000000E-002   -1.738360912249695E-012
 -2.780000000000000E-002   -1.029881866780235E-012
 -2.770000000000000E-002   -1.597952221932545E-013
 -2.760000000000000E-002    7.595831779065157E-013
 -2.750000000000000E-002    1.593929258774097E-012
 -2.740000000000000E-002    2.203929072255181E-012
 -2.730000000000000E-002    2.465779517811012E-012
 -2.720000000000000E-002    2.292691471076837E-012
 -2.710000000000000E-002    1.654370808938814E-012
 -2.700000000000000E-002    5.912308377986007E-013
 -2.690000000000000E-002   -7.796752628011324E-013
 -2.680000000000000E-002   -2.269315346801545E-012
 -2.670000000000000E-002   -3.633075346781467E-012
 -2.660000000000000E-002   -4.598502230854227E-012
 -2.650000000000000E-002   -4.902262651142281E-012
 -2.640000000000000E-002   -4.332445202315705E-012
 -2.630000000000000E-002   -2.770859660238952E-012
 -2.620000000000000E-002   -2.290485582197686E-013
 -2.610000000000000E-002    3.128456897726242E-012
 -2.600000000000000E-002    6.979359630214530E-012
 -2.590000000000000E-002    1.086128938231371E-011
 -2.580000000000000E-002    1.421332619437283E-011
 -2.570000000000000E-002    1.643942174424974E-011
 -2.560000000000000E-002    1.698819879097096E-011
 -2.550000000000000E-002    1.544023294521420E-011
 -2.540000000000000E-002    1.159127232408354E-011
 -2.530000000000000E-002    5.518506768352669E-012
 -2.520000000000000E-002   -2.382645590297444E-012
 -2.510000000000000E-002   -1.140150733642835E-011
 -2.500000000000000E-002   -2.056085194123457E-011
 -2.490000000000000E-002   -2.871158041271662E-011
 -2.480000000000000E-002   -3.466676581467937E-011
 -2.470000000000000E-002   -3.736154800087210E-011
 -2.460000000000000E-002   -3.601944943571482E-011
 -2.450000000000000E-002   -3.030172858461671E-011
 -2.440000000000000E-002   -2.041537842813212E-011
 -2.430000000000000E-002   -7.157913499820694E-012
 -2.420000000000000E-002    8.116685224434592E-012
 -2.410000000000000E-002    2.361699890354788E-011
 -2.400000000000000E-002    3.731245091482412E-011
 -2.390000000000000E-002    4.719250202486674E-011
 -2.380000000000000E-002    5.155672700024865E-011
 -2.370000000000000E-002    4.929705017182016E-011
 -2.360000000000000E-002    4.012926279048138E-011
 -2.350000000000000E-002    2.473300181062349E-011
 -2.340000000000000E-002    4.767495384808093E-012
 -2.330000000000000E-002   -1.725499454318594E-011
 -2.320000000000000E-002   -3.823730647474104E-011
 -2.310000000000000E-002   -5.488475033478466E-011
 -2.300000000000000E-002   -6.416908538671154E-011
 -2.290000000000000E-002   -6.380908100054068E-011
 -2.280000000000000E-002   -5.269843253325263E-011
 -2.270000000000000E-002   -3.121068513668563E-011
 -2.260000000000000E-002   -1.321107454397305E-012
 -2.250000000000000E-002    3.349439146206200E-011
 -2.240000000000000E-002    6.859461779406719E-011
 -2.230000000000000E-002    9.872043948818190E-011
 -2.220000000000000E-002    1.186972269168895E-010
 -2.210000000000000E-002    1.242063282030134E-010
 -2.200000000000000E-002    1.125189550344859E-010
 -2.190000000000000E-002    8.307981610152839E-011
 -2.180000000000000E-002    3.783721623314912E-011
 -2.170000000000000E-002   -1.875732357204610E-011
 -2.160000000000000E-002   -8.011609406690473E-011
 -2.150000000000000E-002   -1.382352024518441E-010
 -2.140000000000000E-002   -1.846995875420624E-010
 -2.130000000000000E-002   -2.118559741288497E-010
 -2.120000000000000E-002   -2.139993410733901E-010
 -2.110000000000000E-002   -1.884000199240592E-010
 -2.100000000000000E-002   -1.360041109383769E-010
 -2.090000000000000E-002   -6.167002311358929E-011
 -2.080000000000000E-002    2.614094585454268E-011
 -2.070000000000000E-002    1.162315920994629E-010
 -2.060000000000000E-002    1.960227985940658E-010
 -2.050000000000000E-002    2.532456483741637E-010
 -2.040000000000000E-002    2.777577453225639E-010
 -2.030000000000000E-002    2.632299719674383E-010
 -2.020000000000000E-002    2.084426715209139E-010
 -2.010000000000000E-002    1.179622143093820E-010
 -2.000000000000000E-002    2.035726068885173E-012
 -1.990000000000000E-002   -1.243582062258837E-010
 -1.980000000000000E-002   -2.432476833819007E-010
 -1.970000000000000E-002   -3.360180189697565E-010
 -1.960000000000000E-002   -3.860894582701875E-010
 -1.950000000000000E-002   -3.815607999959893E-010
 -1.940000000000000E-002   -3.174264046579694E-010
 -1.930000000000000E-002   -1.969980277182944E-010
 -1.920000000000000E-002   -3.224314610284810E-011
 -1.910000000000000E-002    1.571169916682965E-010
 -1.900000000000000E-002    3.457389986504227E-010
 -1.890000000000000E-002    5.058253692344623E-010
 -1.880000000000000E-002    6.109648585248421E-010
 -1.870000000000000E-002    6.401445179577436E-010
 -1.860000000000000E-002    5.813599081927986E-010
 -1.850000000000000E-002    4.342537339787932E-010
 -1.840000000000000E-002    2.113010165135908E-010
 -1.830000000000000E-002   -6.277244738029531E-011
 -1.820000000000000E-002   -3.534198614210206E-010
 -1.810000000000000E-002   -6.203685687114342E-010
 -1.800000000000000E-002   -8.229347912398163E-010
 -1.790000000000000E-002   -9.258899969796511E-010
 -1.780000000000000E-002   -9.050692522116533E-010
 -1.770000000000000E-002   -7.518765067063865E-010
 -1.760000000000000E-002   -4.759280470157572E-010
 -1.750000000000000E-002   -1.052834246099537E-010
 -1.740000000000000E-002    3.159772352826884E-010
 -1.730000000000000E-002    7.327031328239731E-010
 -1.720000000000000E-002    1.085636342650524E-009
 -1.710000000000000E-002    1.319538079349536E-009
 -1.700000000000000E-002    1.391382858888611E-009
 -1.690000000000000E-002    1.277430142127868E-009
 -1.680000000000000E-002    9.780545780485499E-010
 -1.670000000000000E-002    5.194583909874967E-010
 -1.660000000000000E-002   -4.821103859952466E-011
 -1.650000000000000E-002   -6.563207610845627E-010
 -1.640000000000000E-002   -1.226239378958122E-009
 -1.630000000000000E-002   -1.679810370167775E-009
 -1.620000000000000E-002   -1.950400545027162E-009
 -1.610000000000000E-002   -1.992930932499699E-009
 -1.600000000000000E-002   -1.791337336544547E-009
 -1.590000000000000E-002   -1.362190067976949E-009
 -1.580000000000000E-002   -7.536894933444468E-010
 -1.570000000000000E-002   -3.990430737245820E-011
 -1.560000000000000E-002    6.891819709862160E-010
 -1.550000000000000E-002    1.340572332719454E-009
 -1.540000000000000E-002    1.832340048979959E-009
 -1.530000000000000E-002    2.106835102053719E-009
 -1.520000000000000E-002    2.140948588925712E-009
 -1.510000000000000E-002    1.951683826011737E-009
 -1.500000000000000E-002    1.595879790108447E-009
 -1.490000000000000E-002    1.163731453621099E-009
 -1.480000000000000E-002    7.666773017034386E-010
 -1.470000000000000E-002    5.210926048439056E-010
 -1.460000000000000E-002    5.299611770078183E-010
 -1.450000000000000E-002    8.651272360915997E-010
 -1.440000000000000E-002    1.552813832917641E-009
 -1.430000000000000E-002    2.564771146934556E-009
 -1.420000000000000E-002    3.816727282083547E-009
 -1.410000000000000E-002    5.174850120083758E-009
 -1.400000000000000E-002    6.469794563624410E-009
 -1.390000000000000E-002    7.516785677229164E-009
 -1.380000000000000E-002    8.139249581987068E-009
 -1.370000000000000E-002    8.192867351955577E-009
 -1.360000000000000E-002    7.586751977639185E-009
 -1.350000000000000E-002    6.298709686561619E-009
 -1.340000000000000E-002    4.382324828846463E-009
 -1.330000000000000E-002    1.964695951359165E-009
 -1.320000000000000E-002   -7.650038195697199E-010
 -1.310000000000000E-002   -3.574605743176001E-009
 -1.300000000000000E-002   -6.212953986577645E-009
 -1.290000000000000E-002   -8.435263718629137E-009
 -1.280000000000000E-002   -1.002593980705027E-008
 -1.270000000000000E-002   -1.081517850701027E-008
 -1.260000000000000E-002   -1.068642981297342E-008
 -1.250000000000000E-002   -9.573066542894134E-009
 -1.240000000000000E-002   -7.444114654416977E-009
 -1.230000000000000E-002   -4.280505119080274E-009
 -1.220000000000000E-002   -4.483639226388443E-011
 -1.210000000000000E-002    5.351375674339327E-009
 -1.200000000000000E-002    1.207832871613501E-008
 -1.190000000000000E-002    2.041196337382469E-008
 -1.180000000000000E-002    3.074768817001976E-008
 -1.170000000000000E-002    4.360134480351660E-008
 -1.160000000000000E-002    5.959682583437609E-008
 -1.150000000000000E-002    7.944142049110298E-008
 -1.140000000000000E-002    1.038920430985949E-007
 -1.130000000000000E-002    1.337166552851304E-007
 -1.120000000000000E-002    1.696562657224688E-007
 -1.110000000000000E-002    2.123927285759355E-007
 -1.100000000000000E-002    2.625272032288639E-007
 -1.090000000000000E-002    3.205725587865515E-007
 -1.080000000000000E-002    3.869612482535681E-007
 -1.070000000000000E-002    4.620678249231285E-007
 -1.060000000000000E-002    5.462434413254487E-007
 -1.050000000000000E-002    6.398574126506458E-007
 -1.040000000000000E-002    7.433400564880795E-007
 -1.030000000000000E-002    8.572206928446611E-007
 -1.020000000000000E-002    9.821548858892351E-007
 -1.010000000000000E-002    1.118936282312979E-006
 -1.000000000000000E-002    1.268491517942568E-006
 -9.899999999999999E-003    1.431857412030580E-006
 -9.800000000000000E-003    1.610143766672349E-006
 -9.699999999999999E-003    1.804487165798649E-006
 -9.599999999999999E-003    2.016001306031681E-006
 -9.500000000000000E-003    2.245733372147666E-006
 -9.399999999999999E-003    2.494631054651781E-006
 -9.299999999999999E-003    2.763528841637959E-006
 -9.200000000000000E-003    3.053155115991465E-006
 -9.099999999999999E-003    3.364161345060616E-006
 -8.999999999999999E-003    3.697171863823214E-006
 -8.900000000000000E-003    4.052846613857290E-006
 -8.799999999999999E-003    4.431950756198013E-006
 -8.699999999999999E-003    4.835422785142613E-006
 -8.600000000000000E-003    5.264429163269718E-006
 -8.499999999999999E-003    5.720400769299925E-006
 -8.399999999999999E-003    6.205044034024625E-006
 -8.300000000000000E-003    6.720323628264442E-006
 -8.199999999999999E-003    7.268421821040354E-006
 -8.100000000000000E-003    7.851675454424892E-006
 -8.000000000000000E-003    8.472504457261236E-006
 -7.899999999999999E-003    9.133334099382653E-006
 -7.800000000000000E-003    9.836535225865656E-006
 -7.699999999999999E-003    1.058437771420163E-005
 -7.599999999999999E-003    1.137901532784798E-005
 -7.499999999999999E-003    1.222250200066652E-005
 -7.399999999999999E-003    1.311684270679189E-005
 -7.299999999999999E-003    1.406406500741271E-005
 -7.199999999999999E-003    1.506631885354121E-005
 -7.100000000000000E-003    1.612597079808051E-005
 -6.999999999999999E-003    1.724570659196208E-005
 -6.899999999999999E-003    1.842860028497736E-005
 -6.800000000000000E-003    1.967816850094847E-005
 -6.699999999999999E-003    2.099838330795626E-005
 -6.599999999999999E-003    2.239364804802273E-005
 -6.499999999999999E-003    2.386874414587767E-005
 -6.399999999999999E-003    2.542874971035723E-005
 -6.299999999999999E-003    2.707895132007966E-005
 -6.199999999999999E-003    2.882474966171265E-005
 -6.100000000000000E-003    3.067158820754405E-005
 -5.999999999999999E-003    3.262490421686938E-005
 -5.899999999999999E-003    3.469011484060218E-005
 -5.800000000000000E-003    3.687264637523664E-005
 -5.699999999999999E-003    3.917799925216462E-005
 -5.599999999999999E-003    4.161184237507537E-005
 -5.499999999999999E-003    4.418012668147043E-005
 -5.399999999999999E-003    4.688920322633470E-005
 -5.299999999999999E-003    4.974593616374859E-005
 -5.199999999999999E-003    5.275779067149485E-005
 -5.099999999999999E-003    5.593289560055732E-005
 -4.999999999999999E-003    5.928005043867881E-005
 -4.899999999999999E-003    6.280871738741615E-005
 -4.799999999999999E-003    6.652897970917644E-005
 -4.699999999999999E-003    7.045146132411033E-005
 -4.599999999999999E-003    7.458726109380854E-005
 -4.499999999999999E-003    7.894786094989655E-005
 -4.399999999999999E-003    8.354510211155519E-005
 -4.299999999999999E-003    8.839113274724426E-005
 -4.199999999999999E-003    9.349842353028695E-005
 -4.099999999999999E-003    9.887981490230223E-005
 -3.999999999999999E-003    1.045485642413805E-004
 -3.899999999999999E-003    1.105184532482988E-004
 -3.799999999999999E-003    1.168038833861350E-004
 -3.699999999999999E-003    1.234199611183378E-004
 -3.599999999999999E-003    1.303825840016682E-004
 -3.499999999999999E-003    1.377085048277347E-004
 -3.399999999999999E-003    1.454153221022547E-004
 -3.299999999999999E-003    1.535215125776473E-004
 -3.199999999999999E-003    1.620463934098980E-004
 -3.099999999999999E-003    1.710100966628130E-004
 -2.999999999999999E-003    1.804335087660277E-004
 -2.899999999999999E-003    1.903382598774845E-004
 -2.799999999999999E-003    2.007467172893191E-004
 -2.699999999999999E-003    2.116820106377250E-004
 -2.599999999999999E-003    2.231680666765313E-004
 -2.499999999999999E-003    2.352297531441723E-004
 -2.399999999999999E-003    2.478929340698762E-004
 -2.299999999999999E-003    2.611846490680874E-004
 -2.199999999999999E-003    2.751332355134691E-004
 -2.099999999999999E-003    2.897683985009417E-004
 -1.999999999999999E-003    3.051213346569322E-004
 -1.899999999999999E-003    3.212248052718519E-004
 -1.799999999999999E-003    3.381130945760820E-004
 -1.699999999999999E-003    3.558220177042859E-004
 -1.599999999999999E-003    3.743887685329708E-004
 -1.499999999999999E-003    3.938519372891473E-004
 -1.399999999999999E-003    4.142513003383508E-004
 -1.299999999999999E-003    4.356278775822376E-004
 -1.199999999999999E-003    4.580237471121449E-004
 -1.099999999999999E-003    4.814820946740386E-004
 -9.999999999999989E-004    5.060472965131440E-004
 -8.999999999999990E-004    5.317649694821778E-004
 -7.999999999999990E-004    5.586821506343269E-004
 -6.999999999999989E-004    5.868474409486970E-004
 -5.999999999999990E-004    6.163113158760682E-004
 -4.999999999999989E-004    6.471262336688266E-004
 -3.999999999999989E-004    6.793468451541690E-004
 -2.999999999999989E-004    7.130302660596415E-004
 -1.999999999999989E-004    7.482359408245633E-004
 -9.999999999999892E-005    7.850258421858831E-004
  1.084202172485504E-018    8.234644987671043E-004
  1.000000000000011E-004    8.636187239828155E-004
  2.000000000000011E-004    9.055576724438482E-004
  3.000000000000011E-004    9.493526592685201E-004
  4.000000000000011E-004    9.950769632656119E-004
  5.000000000000011E-004    1.042805869677446E-003
  6.000000000000011E-004    1.092616518277702E-003
  7.000000000000011E-004    1.144588001949764E-003
  8.000000000000011E-004    1.198801280172079E-003
  9.000000000000012E-004    1.255339361243281E-003
  1.000000000000001E-003    1.314287693079579E-003
  1.100000000000001E-003    1.375734069105184E-003
  1.200000000000001E-003    1.439768896050778E-003
  1.300000000000001E-003    1.506485740673399E-003
  1.400000000000001E-003    1.575981011082932E-003
  1.500000000000001E-003    1.648354399449197E-003
  1.600000000000001E-003    1.723709019970174E-003
  1.700000000000001E-003    1.802151174939731E-003
  1.800000000000001E-003    1.883790560599780E-003
  1.900000000000001E-003    1.968739981130824E-003
  2.000000000000001E-003    2.057115522757586E-003
  2.100000000000001E-003    2.149036284954118E-003
  2.200000000000001E-003    2.244624135896365E-003
  2.300000000000001E-003    2.344004095903328E-003
  2.400000000000001E-003    2.447303864656257E-003
  2.500000000000001E-003    2.554654156084032E-003
  2.600000000000001E-003    2.666188312521744E-003
  2.700000000000001E-003    2.782042880641052E-003
  2.800000000000001E-003    2.902357190712728E-003
  2.900000000000001E-003    3.027274379798094E-003
  3.000000000000001E-003    3.156939899451535E-003
  3.100000000000001E-003    3.291503125846797E-003
  3.200000000000001E-003    3.431116541667118E-003
  3.300000000000001E-003    3.575936452816565E-003
  3.400000000000001E-003    3.726121912132939E-003
  3.500000000000001E-003    3.881836100841540E-003
  3.600000000000001E-003    4.043244953049040E-003
  3.700000000000001E-003    4.210518007667091E-003
  3.800000000000001E-003    4.383828136605786E-003
  3.900000000000001E-003    4.563351050879101E-003
  4.000000000000001E-003    4.749266158058981E-003
  4.100000000000001E-003    4.941755560808034E-003
  4.200000000000001E-003    5.141005013007252E-003
  4.300000000000001E-003    5.347202929254433E-003
  4.400000000000001E-003    5.560540985770815E-003
  4.500000000000001E-003    5.781214591725605E-003
  4.600000000000002E-003    6.009421522273354E-003
  4.700000000000001E-003    6.245362705284384E-003
  4.800000000000001E-003    6.489241864657215E-003
  4.900000000000002E-003    6.741266159842049E-003
  5.000000000000001E-003    7.001645147862673E-003
  5.100000000000001E-003    7.270590471734258E-003
  5.200000000000001E-003    7.548317285554261E-003
  5.300000000000002E-003    7.835041867750334E-003
  5.400000000000001E-003    8.130983666834932E-003
  5.500000000000001E-003    8.436363500324048E-003
  5.600000000000002E-003    8.751405173678712E-003
  5.700000000000001E-003    9.076332786725138E-003
  5.800000000000001E-003    9.411372987933105E-003
  5.900000000000002E-003    9.756753371175941E-003
  6.000000000000001E-003    1.011270297099954E-002
  6.100000000000001E-003    1.047945186535959E-002
  6.200000000000002E-003    1.085723139218802E-002
  6.300000000000002E-003    1.124627348519409E-002
  6.400000000000001E-003    1.164681053800830E-002
  6.500000000000001E-003    1.205907448837391E-002
  6.600000000000002E-003    1.248329916949992E-002
  6.700000000000001E-003    1.291971719582398E-002
  6.800000000000001E-003    1.336855990484711E-002
  6.900000000000002E-003    1.383005946228720E-002
  7.000000000000001E-003    1.430444539032056E-002
  7.100000000000001E-003    1.479194838102746E-002
  7.200000000000002E-003    1.529279642177871E-002
  7.300000000000002E-003    1.580721612246068E-002
  7.400000000000001E-003    1.633543358144762E-002
  7.500000000000001E-003    1.687767219891853E-002
  7.600000000000002E-003    1.743415166165102E-002
  7.700000000000001E-003    1.800509032564341E-002
  7.800000000000001E-003    1.859070432934590E-002
  7.900000000000001E-003    1.919120430745853E-002
  8.000000000000002E-003    1.980679728337224E-002
  8.100000000000001E-003    2.043768575609163E-002
  8.200000000000001E-003    2.108406713957021E-002
  8.300000000000002E-003    2.174613310406315E-002
  8.400000000000001E-003    2.242406915403641E-002
  8.500000000000002E-003    2.311805239605434E-002
  8.600000000000002E-003    2.382825387523623E-002
  8.700000000000001E-003    2.455483879985832E-002
  8.800000000000002E-003    2.529795990427468E-002
  8.900000000000002E-003    2.605776391800228E-002
  9.000000000000001E-003    2.683439097060001E-002
  9.100000000000002E-003    2.762797095129289E-002
  9.200000000000002E-003    2.843862313016496E-002
  9.300000000000001E-003    2.926645673159105E-002
  9.400000000000002E-003    3.011157450935327E-002
  9.500000000000001E-003    3.097406449965535E-002
  9.600000000000001E-003    3.185400617720623E-002
  9.700000000000002E-003    3.275146750440269E-002
  9.800000000000001E-003    3.366650159649576E-002
  9.900000000000001E-003    3.459915442464747E-002
  1.000000000000000E-002    3.554944935502021E-002
  1.010000000000000E-002    3.651740265045612E-002
  1.020000000000000E-002    3.750300929013634E-002
  1.030000000000000E-002    3.850625085583197E-002
  1.040000000000000E-002    3.952709385588493E-002
  1.050000000000000E-002    4.056548687561351E-002
  1.060000000000000E-002    4.162136028262541E-002
  1.070000000000000E-002    4.269462341980170E-002
  1.080000000000000E-002    4.378517053113169E-002
  1.090000000000000E-002    4.489287321883892E-002
  1.100000000000000E-002    4.601758574561744E-002
  1.110000000000000E-002    4.715913757044052E-002
  1.120000000000000E-002    4.831734317727628E-002
  1.130000000000000E-002    4.949198942947733E-002
  1.140000000000000E-002    5.068284773758196E-002
  1.150000000000000E-002    5.188965841417475E-002
  1.160000000000000E-002    5.311214749249123E-002
  1.170000000000000E-002    5.435001305035533E-002
  1.180000000000000E-002    5.560293087464897E-002
  1.190000000000000E-002    5.687054874511155E-002
  1.200000000000000E-002    5.815249043097797E-002
  1.210000000000000E-002    5.944835459170972E-002
  1.220000000000000E-002    6.075771511796092E-002
  1.230000000000000E-002    6.208011421808911E-002
  1.240000000000000E-002    6.341506673205216E-002
  1.250000000000000E-002    6.476206717162097E-002
  1.260000000000000E-002    6.612057706912261E-002
  1.270000000000000E-002    6.749002626728370E-002
  1.280000000000000E-002    6.886981837718334E-002
  1.290000000000000E-002    7.025932420834896E-002
  1.300000000000000E-002    7.165788948130140E-002
  1.310000000000000E-002    7.306482351280616E-002
  1.320000000000000E-002    7.447941016217167E-002
  1.330000000000000E-002    7.590089776010117E-002
  1.340000000000000E-002    7.732850169646423E-002
  1.350000000000000E-002    7.876140734416540E-002
  1.360000000000000E-002    8.019877095747185E-002
  1.370000000000000E-002    8.163971693104188E-002
  1.380000000000000E-002    8.308332815212988E-002
  1.390000000000000E-002    8.452866823740343E-002
  1.400000000000000E-002    8.597476244944802E-002
  1.410000000000000E-002    8.742060291112269E-002
  1.420000000000000E-002    8.886515885737001E-002
  1.430000000000000E-002    9.030735158977794E-002
  1.440000000000000E-002    9.174608507361080E-002
  1.450000000000000E-002    9.318022496156818E-002
  1.460000000000000E-002    9.460860591095990E-002
  1.470000000000000E-002    9.603002766461270E-002
  1.480000000000000E-002    9.744326091118907E-002
  1.490000000000000E-002    9.884704727842310E-002
  1.500000000000000E-002    0.100240090540413     
  1.510000000000000E-002    0.101621072474940     
  1.520000000000000E-002    0.102988637951985     
  1.530000000000000E-002    0.104341402189912     
  1.540000000000000E-002    0.105677950538375     
  1.550000000000000E-002    0.106996843080955     
  1.560000000000000E-002    0.108296614034628     
  1.570000000000000E-002    0.109575766728862     
  1.580000000000000E-002    0.110832773734105     
  1.590000000000000E-002    0.112066093771004     
  1.600000000000000E-002    0.113274147469020     
  1.610000000000000E-002    0.114455338768157     
  1.620000000000000E-002    0.115608041761014     
  1.630000000000000E-002    0.116730613789524     
  1.640000000000000E-002    0.117821392412525     
  1.650000000000000E-002    0.118878694896517     
  1.660000000000000E-002    0.119900811024402     
  1.670000000000000E-002    0.120886012970021     
  1.680000000000000E-002    0.121832568091362     
  1.690000000000000E-002    0.122738718767272     
  1.700000000000000E-002    0.123602693530443     
  1.710000000000000E-002    0.124422715976277     
  1.720000000000000E-002    0.125196984475847     
  1.730000000000000E-002    0.125923706797829     
  1.740000000000000E-002    0.126601054861383     
  1.750000000000000E-002    0.127227227426428     
  1.760000000000000E-002    0.127800397229956     
  1.770000000000000E-002    0.128318737165933     
  1.780000000000000E-002    0.128780417158580     
  1.790000000000000E-002    0.129183611364452     
  1.800000000000000E-002    0.129526497069066     
  1.810000000000000E-002    0.129807250586405     
  1.820000000000000E-002    0.130024052920919     
  1.830000000000000E-002    0.130175093975528     
  1.840000000000000E-002    0.130258576980965     
  1.850000000000000E-002    0.130272711330368     
  1.860000000000000E-002    0.130215733412615     
  1.870000000000000E-002    0.130085873975310     