 -4.000000000000000E-002    0.000000000000000E+000
 -3.990000000000000E-002    0.000000000000000E+000
 -3.980000000000000E-002    0.000000000000000E+000
 -3.970000000000000E-002    0.000000000000000E+000
 -3.960000000000000E-002    0.000000000000000E+000
 -3.950000000000000E-002    0.000000000000000E+000
 -3.940000000000000E-002    0.000000000000000E+000
 -3.930000000000000E-002    0.000000000000000E+000
 -3.920000000000000E-002    0.000000000000000E+000
 -3.910000000000000E-002    0.000000000000000E+000
 -3.900000000000000E-002    0.000000000000000E+000
 -3.890000000000000E-002    0.000000000000000E+000
 -3.880000000000000E-002    0.000000000000000E+000
 -3.870000000000000E-002    0.000000000000000E+000
 -3.860000000000000E-002    0.000000000000000E+000
 -3.850000000000000E-002    0.000000000000000E+000
 -3.840000000000000E-002    0.000000000000000E+000
 -3.830000000000000E-002    0.000000000000000E+000
 -3.820000000000000E-002    0.000000000000000E+000
 -3.810000000000000E-002    0.000000000000000E+000
 -3.800000000000000E-002    0.000000000000000E+000
 -3.790000000000000E-002    0.000000000000000E+000
 -3.780000000000000E-002    0.000000000000000E+000
 -3.770000000000000E-002    0.000000000000000E+000
 -3.760000000000000E-002    0.000000000000000E+000
 -3.750000000000000E-002    0.000000000000000E+000
 -3.740000000000000E-002    0.000000000000000E+000
 -3.730000000000000E-002    0.000000000000000E+000
 -3.720000000000000E-002    0.000000000000000E+000
 -3.710000000000000E-002    0.000000000000000E+000
 -3.700000000000000E-002    0.000000000000000E+000
 -3.690000000000000E-002    0.000000000000000E+000
 -3.680000000000000E-002    0.000000000000000E+000
 -3.670000000000000E-002    0.000000000000000E+000
 -3.660000000000000E-002    0.000000000000000E+000
 -3.650000000000000E-002    0.000000000000000E+000
 -3.640000000000000E-002    0.000000000000000E+000
 -3.630000000000000E-002    0.000000000000000E+000
 -3.620000000000000E-002    0.000000000000000E+000
 -3.610000000000000E-002    0.000000000000000E+000
 -3.600000000000000E-002    0.000000000000000E+000
 -3.590000000000000E-002    0.000000000000000E+000
 -3.580000000000000E-002    0.000000000000000E+000
 -3.570000000000000E-002    0.000000000000000E+000
 -3.560000000000000E-002    0.000000000000000E+000
 -3.550000000000000E-002    0.000000000000000E+000
 -3.540000000000000E-002    0.000000000000000E+000
 -3.530000000000000E-002    0.000000000000000E+000
 -3.520000000000000E-002    0.000000000000000E+000
 -3.510000000000000E-002    0.000000000000000E+000
 -3.500000000000000E-002    0.000000000000000E+000
 -3.490000000000000E-002    0.000000000000000E+000
 -3.480000000000000E-002    0.000000000000000E+000
 -3.470000000000000E-002    0.000000000000000E+000
 -3.460000000000000E-002    0.000000000000000E+000
 -3.450000000000000E-002    0.000000000000000E+000
 -3.440000000000000E-002    0.000000000000000E+000
 -3.430000000000000E-002    0.000000000000000E+000
 -3.420000000000000E-002    0.000000000000000E+000
 -3.410000000000000E-002    0.000000000000000E+000
 -3.400000000000000E-002    0.000000000000000E+000
 -3.390000000000000E-002    0.000000000000000E+000
 -3.380000000000000E-002    0.000000000000000E+000
 -3.370000000000000E-002    0.000000000000000E+000
 -3.360000000000000E-002    0.000000000000000E+000
 -3.350000000000000E-002    0.000000000000000E+000
 -3.340000000000000E-002    0.000000000000000E+000
 -3.330000000000000E-002    0.000000000000000E+000
 -3.320000000000000E-002    0.000000000000000E+000
 -3.310000000000000E-002    0.000000000000000E+000
 -3.300000000000000E-002    0.000000000000000E+000
 -3.290000000000000E-002    0.000000000000000E+000
 -3.280000000000000E-002    0.000000000000000E+000
 -3.270000000000000E-002    0.000000000000000E+000
 -3.260000000000000E-002    0.000000000000000E+000
 -3.250000000000000E-002    0.000000000000000E+000
 -3.240000000000000E-002    0.000000000000000E+000
 -3.230000000000000E-002    0.000000000000000E+000
 -3.220000000000000E-002    0.000000000000000E+000
 -3.210000000000000E-002    0.000000000000000E+000
 -3.200000000000000E-002    0.000000000000000E+000
 -3.190000000000000E-002    0.000000000000000E+000
 -3.180000000000000E-002    0.000000000000000E+000
 -3.170000000000000E-002    0.000000000000000E+000
 -3.160000000000000E-002    0.000000000000000E+000
 -3.150000000000000E-002    6.414635304221270E-048
 -3.140000000000000E-002    6.335780588642965E-047
 -3.130000000000000E-002    1.267156117728593E-046
 -3.120000000000000E-002    2.363255294011285E-046
 -3.110000000000000E-002    3.943257705393111E-046
 -3.100000000000000E-002    5.459113763732725E-046
 -3.090000000000000E-002    5.534754636354451E-046
 -3.080000000000000E-002    1.416163616927117E-046
 -3.070000000000000E-002   -9.618194670580953E-046
 -3.060000000000000E-002   -2.852623909826680E-045
 -3.050000000000000E-002   -6.702482576332807E-045
 -3.040000000000000E-002   -1.212707847596927E-044
 -3.030000000000000E-002   -1.871468597680145E-044
 -3.020000000000000E-002   -2.513715680687124E-044
 -3.010000000000000E-002   -3.029821969909535E-044
 -3.000000000000000E-002   -2.726668453687796E-044
 -2.990000000000000E-002   -7.136397645377326E-045
 -2.980000000000000E-002    4.352274364021646E-044
 -2.970000000000000E-002    1.389015164053102E-043
 -2.960000000000000E-002    2.934752301089579E-043
 -2.950000000000000E-002    5.108484300048914E-043
 -2.940000000000000E-002    7.709764571263808E-043
 -2.930000000000000E-002    1.009575899091692E-042
 -2.920000000000000E-002    1.093380350151244E-042
 -2.910000000000000E-002    8.028703931098428E-043
 -2.900000000000000E-002   -1.786458696822683E-043
 -2.890000000000000E-002   -2.238089586842145E-042
 -2.880000000000000E-002   -5.750352689400794E-042
 -2.870000000000000E-002   -1.090571886727902E-041
 -2.860000000000000E-002   -1.743530307867229E-041
 -2.850000000000000E-002   -2.421899364638261E-041
 -2.840000000000000E-002   -2.883225518293488E-041
 -2.830000000000000E-002   -2.712912674470536E-041
 -2.820000000000000E-002   -1.308144569593279E-041
 -2.810000000000000E-002    2.081588513856787E-041
 -2.800000000000000E-002    8.217307674713433E-041
 -2.790000000000000E-002    1.759184066089787E-040
 -2.780000000000000E-002    2.998057570420403E-040
 -2.770000000000000E-002    4.382334936505587E-040
 -2.760000000000000E-002    5.550871971487278E-040
 -2.750000000000000E-002    5.873044607739150E-040
 -2.740000000000000E-002    4.421822189991766E-040
 -2.730000000000000E-002    2.832334624902204E-042
 -2.720000000000000E-002   -8.527860396547481E-040
 -2.710000000000000E-002   -2.213801018606703E-039
 -2.700000000000000E-002   -4.075823787337380E-039
 -2.690000000000000E-002   -6.259107608576008E-039
 -2.680000000000000E-002   -8.315279372652118E-039
 -2.670000000000000E-002   -9.444768056855312E-039
 -2.660000000000000E-002   -8.462062206564416E-039
 -2.650000000000000E-002   -3.860745641056563E-039
 -2.640000000000000E-002    5.960296495465344E-039
 -2.630000000000000E-002    2.225168954930220E-038
 -2.620000000000000E-002    4.521721495999472E-038
 -2.610000000000000E-002    7.309092912540599E-038
 -2.600000000000000E-002    1.011059112360041E-037
 -2.590000000000000E-002    1.206010724068628E-037
 -2.580000000000000E-002    1.186600168373489E-037
 -2.570000000000000E-002    7.881029710260445E-038
 -2.560000000000000E-002   -1.662127614445034E-038
 -2.550000000000000E-002   -1.819726348176725E-037
 -2.540000000000000E-002   -4.212948613637094E-037
 -2.530000000000000E-002   -7.193277994057126E-037
 -2.520000000000000E-002   -1.031640498025293E-036
 -2.510000000000000E-002   -1.276335796075768E-036
 -2.500000000000000E-002   -1.330977843081708E-036
 -2.490000000000000E-002   -1.039442346731341E-036
 -2.480000000000000E-002   -2.337349883042492E-037
 -2.470000000000000E-002    1.225112867488912E-036
 -2.460000000000000E-002    3.385786983490337E-036
 -2.450000000000000E-002    6.128944458929480E-036
 -2.440000000000000E-002    9.084392433308054E-036
 -2.430000000000000E-002    1.156387636862523E-035
 -2.420000000000000E-002    1.253960424233497E-035
 -2.410000000000000E-002    1.070554646454293E-035
 -2.400000000000000E-002    4.659267611242657E-036
 -2.390000000000000E-002   -6.767700487477517E-036
 -2.380000000000000E-002   -2.402711612932761E-035
 -2.370000000000000E-002   -4.625600635138202E-035
 -2.360000000000000E-002   -7.065700958853836E-035
 -2.350000000000000E-002   -9.201674270312637E-035
 -2.340000000000000E-002   -1.025844511246931E-034
 -2.330000000000000E-002   -9.257242178786599E-035
 -2.320000000000000E-002   -5.153035122583417E-035
 -2.310000000000000E-002    2.923978725575130E-035
 -2.300000000000000E-002    1.532457625494976E-034
 -2.290000000000000E-002    3.146525522706631E-034
 -2.280000000000000E-002    4.941058876438276E-034
 -2.270000000000000E-002    6.556445022941696E-034
 -2.260000000000000E-002    7.461836345776886E-034
 -2.250000000000000E-002    6.992388708394033E-034
 -2.240000000000000E-002    4.444039329274216E-034
 -2.230000000000000E-002   -7.655537681413091E-035
 -2.220000000000000E-002   -8.873886526005111E-034
 -2.210000000000000E-002   -1.951103159411263E-033
 -2.200000000000000E-002   -3.144372138738128E-033
 -2.190000000000000E-002   -4.239666444057429E-033
 -2.180000000000000E-002   -4.904118214284625E-033
 -2.170000000000000E-002   -4.724813850770339E-033
 -2.160000000000000E-002   -3.268738047911337E-033
 -2.150000000000000E-002   -1.811743340638077E-034
 -2.140000000000000E-002    4.681450316921495E-033
 -2.130000000000000E-002    1.109930098050237E-032
 -2.120000000000000E-002    1.834556219659780E-032
 -2.110000000000000E-002    2.509253610395938E-032
 -2.100000000000000E-002    2.941763083152532E-032
 -2.090000000000000E-002    2.896080294858185E-032
 -2.080000000000000E-002    2.127400093984153E-032
 -2.070000000000000E-002    4.376157164240153E-033
 -2.060000000000000E-002   -2.251707982097237E-032
 -2.050000000000000E-002   -5.817906862449921E-032
 -2.040000000000000E-002   -9.863069927474973E-032
 -2.030000000000000E-002   -1.366910832768978E-031
 -2.020000000000000E-002   -1.620784394020143E-031
 -2.010000000000000E-002   -1.623135409429003E-031
 -2.000000000000000E-002   -1.246072441412606E-031
 -1.990000000000000E-002   -3.876335215763472E-032
 -1.980000000000000E-002    9.910384349961807E-032
 -1.970000000000000E-002    2.825335340947113E-031
 -1.960000000000000E-002    4.911783906899156E-031
 -1.950000000000000E-002    6.888480259814605E-031
 -1.940000000000000E-002    8.243655051833179E-031
 -1.930000000000000E-002    8.363773318472610E-031
 -1.920000000000000E-002    6.628529008532129E-031
 -1.910000000000000E-002    2.552399646510190E-031
 -1.900000000000000E-002   -4.038811202006515E-031
 -1.890000000000000E-002   -1.282166835304213E-030
 -1.880000000000000E-002   -2.281822829900306E-030
 -1.870000000000000E-002   -3.231887252735686E-030
 -1.860000000000000E-002   -3.893932847148475E-030
 -1.850000000000000E-002   -3.985970777299539E-030
 -1.840000000000000E-002   -3.227237481979555E-030
 -1.830000000000000E-002   -1.402888253846129E-030
 -1.820000000000000E-002    1.557441974794187E-030
 -1.810000000000000E-002    5.499143182808824E-030
 -1.800000000000000E-002    9.977843025513146E-030
 -1.790000000000000E-002    1.423206493903249E-029
 -1.780000000000000E-002    1.721595542919391E-029
 -1.770000000000000E-002    1.771070090288911E-029
 -1.760000000000000E-002    1.452326255126135E-029
 -1.750000000000000E-002    6.764865093463001E-030
 -1.740000000000000E-002   -5.819763137086630E-030
 -1.730000000000000E-002   -2.252519428857255E-029
 -1.720000000000000E-002   -4.143469430972921E-029
 -1.710000000000000E-002   -5.933471925472233E-029
 -1.700000000000000E-002   -7.188263416657287E-029
 -1.690000000000000E-002   -7.409536067467074E-029
 -1.680000000000000E-002   -6.118248863315059E-029
 -1.670000000000000E-002   -2.967998460989918E-029
 -1.660000000000000E-002    2.124445088866123E-029
 -1.650000000000000E-002    8.853374820315397E-029
 -1.640000000000000E-002    1.643289398848008E-028
 -1.630000000000000E-002    2.357415626578930E-028
 -1.620000000000000E-002    2.856352020938128E-028
 -1.610000000000000E-002    2.946459849760488E-028
 -1.600000000000000E-002    2.444897684793609E-028
 -1.590000000000000E-002    1.223402068745911E-028
 -1.580000000000000E-002   -7.425759580128042E-029
 -1.570000000000000E-002   -3.327973687815953E-028
 -1.560000000000000E-002   -6.226673856808463E-028
 -1.550000000000000E-002   -8.946884931601058E-028
 -1.540000000000000E-002   -1.084461681019338E-027
 -1.530000000000000E-002   -1.120256172512475E-027
 -1.520000000000000E-002   -9.354628436128088E-028
 -1.510000000000000E-002   -4.846637637149152E-028
 -1.500000000000000E-002    2.387649673901798E-028
 -1.490000000000000E-002    1.186701927865179E-027
 -1.480000000000000E-002    2.245990635907506E-027
 -1.470000000000000E-002    3.238086870606972E-027
 -1.460000000000000E-002    3.932361264132302E-027
 -1.450000000000000E-002    4.075225959587666E-027
 -1.440000000000000E-002    3.434680560656039E-027
 -1.430000000000000E-002    1.856457791599562E-027
 -1.420000000000000E-002   -6.758659227770443E-028
 -1.410000000000000E-002   -3.987984098279014E-027
 -1.400000000000000E-002   -7.682832803216576E-027
 -1.390000000000000E-002   -1.114346649964323E-026
 -1.380000000000000E-002   -1.358250976427218E-026
 -1.370000000000000E-002   -1.414415599598885E-026
 -1.360000000000000E-002   -1.205580726093410E-026
 -1.350000000000000E-002   -6.815105416242991E-027
 -1.340000000000000E-002    1.614143114107590E-027
 -1.330000000000000E-002    1.263451994956714E-026
 -1.320000000000000E-002    2.492018103371900E-026
 -1.310000000000000E-002    3.643870242810950E-026
 -1.300000000000000E-002    4.462437417349652E-026
 -1.290000000000000E-002    4.671811091012194E-026
 -1.280000000000000E-002    4.025997546370984E-026
 -1.270000000000000E-002    2.368444652661475E-026
 -1.260000000000000E-002   -3.068962872679283E-027
 -1.250000000000000E-002   -3.804873672811853E-026
 -1.240000000000000E-002   -7.702465037115427E-026
 -1.230000000000000E-002   -1.135932070974780E-025
 -1.220000000000000E-002   -1.397539045448548E-025
 -1.210000000000000E-002   -1.469911933656918E-025
 -1.200000000000000E-002   -1.278054964778176E-025
 -1.190000000000000E-002   -7.752820137887686E-026
 -1.180000000000000E-002    3.853980604372048E-027
 -1.170000000000000E-002    1.102279600612065E-025
 -1.160000000000000E-002    2.286412229239730E-025
 -1.150000000000000E-002    3.397251919921431E-025
 -1.140000000000000E-002    4.195222461955310E-025
 -1.130000000000000E-002    4.427856613507345E-025
 -1.120000000000000E-002    3.875479526891556E-025
 -1.110000000000000E-002    2.404384199529804E-025
 -1.100000000000000E-002    1.924184578958080E-027
 -1.090000000000000E-002   -3.095846666125255E-025
 -1.080000000000000E-002   -6.559177935776092E-025
 -1.070000000000000E-002   -9.806574123778963E-025
 -1.060000000000000E-002   -1.214675028386081E-024
 -1.050000000000000E-002   -1.285796640782734E-024
 -1.040000000000000E-002   -1.131917513535284E-024
 -1.030000000000000E-002   -7.160108496643723E-025
 -1.020000000000000E-002   -4.065058330194464E-026
 -1.010000000000000E-002    8.409273509246429E-025
 -1.000000000000000E-002    1.820381545439539E-024
 -9.899999999999999E-003    2.739204292443161E-024
 -9.800000000000000E-003    3.404772213835454E-024
 -9.699999999999999E-003    3.617560948830980E-024
 -9.599999999999999E-003    3.207422851573078E-024
 -9.500000000000000E-003    2.074474237226440E-024
 -9.399999999999999E-003    2.280029557850077E-025
 -9.299999999999999E-003   -2.184649571954589E-024
 -9.200000000000000E-003   -4.867565153230326E-024
 -9.099999999999999E-003   -7.391181694260420E-024
 -8.999999999999999E-003   -9.236818764009862E-024
 -8.900000000000000E-003   -9.870386533149829E-024
 -8.799999999999999E-003   -8.839145162134108E-024
 -8.699999999999999E-003   -5.879331775828320E-024
 -8.600000000000000E-003   -1.017088259997444E-024
 -8.499999999999999E-003    5.358249096118772E-024
 -8.399999999999999E-003    1.246980388268786E-023
 -8.300000000000000E-003    1.919532099640214E-023
 -8.199999999999999E-003    2.418544906155172E-023
 -8.100000000000000E-003    2.605584175241898E-023
 -8.000000000000000E-003    2.363614473403973E-023
 -7.899999999999999E-003    1.624388187236924E-023
 -7.800000000000000E-003    3.938222913502541E-024
 -7.699999999999999E-003   -1.229906708987501E-023
 -7.599999999999999E-003   -3.050806628142507E-023
 -7.499999999999999E-003   -4.786274135360916E-023
 -7.399999999999999E-003   -6.097227790988906E-023
 -7.299999999999999E-003   -6.636317732505624E-023
 -7.199999999999999E-003   -6.109789808731526E-023
 -7.100000000000000E-003   -4.344914877864042E-023
 -6.999999999999999E-003   -1.351878115994643E-023
 -6.899999999999999E-003    2.632707543853119E-023
 -6.800000000000000E-003    7.133204977639850E-023
 -6.699999999999999E-003    1.146315245129163E-022
 -6.599999999999999E-003    1.479899014138555E-022
 -6.499999999999999E-003    1.629674058881393E-022
 -6.399999999999999E-003    1.524056745273028E-022
 -6.299999999999999E-003    1.120357291545948E-022
 -6.199999999999999E-003    4.194340721059129E-023
 -6.100000000000000E-003   -5.240984249235192E-023
 -5.999999999999999E-003   -1.599015037004632E-022
 -5.899999999999999E-003   -2.644226859896329E-022
 -5.800000000000000E-003   -3.466134568870044E-022
 -5.699999999999999E-003   -3.865900392434950E-022
 -5.599999999999999E-003   -3.673976837275331E-022
 -5.499999999999999E-003   -2.787303432059511E-022
 -5.399999999999999E-003   -1.203049502828630E-022
 -5.299999999999999E-003    9.579777549035629E-023
 -5.199999999999999E-003    3.444815314879049E-022
 -5.099999999999999E-003    5.891693812101410E-022
 -4.999999999999999E-003    7.857385804568843E-022
 -4.899999999999999E-003    8.886829841102432E-022
 -4.799999999999999E-003    8.588916854266689E-022
 -4.699999999999999E-003    6.720073101214652E-022
 -4.599999999999999E-003    3.259971161022057E-022
 -4.499999999999999E-003   -1.535862345151514E-022
 -4.399999999999999E-003   -7.120938407595736E-022
 -4.299999999999999E-003   -1.269096395385446E-021
 -4.199999999999999E-003   -1.726976767563677E-021
 -4.099999999999999E-003   -1.984400367871944E-021
 -3.999999999999999E-003   -1.953315389523036E-021
 -3.899999999999999E-003   -1.577223222186855E-021
 -3.799999999999999E-003   -8.477590726241441E-022
 -3.699999999999999E-003    1.836930494722536E-022
 -3.599999999999999E-003    1.402430527055440E-021
 -3.499999999999999E-003    2.637202702095597E-021
 -3.399999999999999E-003    3.678262155574077E-021
 -3.299999999999999E-003    4.305848276280648E-021
 -3.199999999999999E-003    4.326250580975853E-021
 -3.099999999999999E-003    3.610690643748309E-021
 -2.999999999999999E-003    2.130806327823597E-021
 -2.899999999999999E-003   -1.611299198114064E-023
 -2.799999999999999E-003   -2.598579680463746E-021
 -2.699999999999999E-003   -5.263844309786589E-021
 -2.599999999999999E-003   -7.574325553196119E-021
 -2.499999999999999E-003   -9.065850784053294E-021
 -2.399999999999999E-003   -9.321910084940943E-021
 -2.299999999999999E-003   -8.054247503800807E-021
 -2.199999999999999E-003   -5.177135802602740E-021
 -2.099999999999999E-003   -8.613503833045831E-022
 -1.999999999999999E-003    4.445288453114789E-021
 -1.899999999999999E-003    1.004072627668829E-020
 -1.799999999999999E-003    1.503910973463539E-020
 -1.699999999999999E-003    1.848584691620528E-020
 -1.599999999999999E-003    1.950601916828249E-020
 -1.499999999999999E-003    1.746712000308334E-020
 -1.399999999999999E-003    1.213113468107889E-020
 -1.299999999999999E-003    3.768192392683681E-021
 -1.199999999999999E-003   -6.794510311150732E-021
 -1.099999999999999E-003   -1.820863308607977E-020
 -9.999999999999989E-004   -2.873478167211947E-020
 -8.999999999999990E-004   -3.646194289435478E-020
 -7.999999999999990E-004   -3.959535887086798E-020
 -6.999999999999989E-004   -3.677681253110798E-020
 -5.999999999999990E-004   -2.738932277405581E-020
 -4.999999999999989E-004   -1.179256824989975E-020
 -3.999999999999989E-004    8.562630819382211E-021
 -2.999999999999989E-004    3.118098432188239E-020
 -1.999999999999989E-004    5.275102572200405E-020
 -9.999999999999892E-005    6.954855846752597E-020
  1.084202172485504E-018    7.797858813538971E-020
  1.000000000000011E-004    7.518970804216265E-020
  2.000000000000011E-004    5.967181778414553E-020
  3.000000000000011E-004    3.173537217727788E-020
  4.000000000000011E-004   -6.226813326507222E-021
  5.000000000000011E-004   -4.977507994056990E-020
  6.000000000000011E-004   -9.279990422346000E-020
  7.000000000000011E-004   -1.282356619156563E-019
  8.000000000000011E-004   -1.490502202059636E-019
  9.000000000000012E-004   -1.493942568717368E-019
  1.000000000000001E-003   -1.257490408948231E-019
  1.100000000000001E-003   -7.788508979878162E-020
  1.200000000000001E-003   -9.444816235657274E-021
  1.300000000000001E-003    7.200679084208079E-020
  1.400000000000001E-003    1.555583454985851E-019
  1.500000000000001E-003    2.281626408747984E-019
  1.600000000000001E-003    2.763882338848320E-019
  1.700000000000001E-003    2.885157403475928E-019
  1.800000000000001E-003    2.566959862132417E-019
  1.900000000000001E-003    1.788321014959070E-019
  2.000000000000001E-003    5.983938641237358E-020
  2.100000000000001E-003   -8.801776548299969E-020
  2.200000000000001E-003   -2.459110555209546E-019
  2.300000000000001E-003   -3.904063302935962E-019
  2.400000000000001E-003   -4.964639405660719E-019
  2.500000000000001E-003   -5.411660299507490E-019
  2.600000000000001E-003   -5.076885568333179E-019
  2.700000000000001E-003   -3.889247472836828E-019
  2.800000000000001E-003   -1.901284621103973E-019
  2.900000000000001E-003    6.999108556315345E-020
  3.000000000000001E-003    3.601354837799655E-019
  3.100000000000001E-003    6.394067511736467E-019
  3.200000000000001E-003    8.622713846323711E-019
  3.300000000000001E-003    9.850150681842634E-019
  3.400000000000001E-003    9.728958965938830E-019
  3.500000000000001E-003    8.069744315706168E-019
  3.600000000000001E-003    4.894966655772985E-019
  3.700000000000001E-003    4.676485960038013E-020
  3.800000000000001E-003   -4.713300439122396E-019
  3.900000000000001E-003   -9.955437774394739E-019
  4.000000000000001E-003   -1.445178076775157E-018
  4.100000000000001E-003   -1.738957227761164E-018
  4.200000000000001E-003   -1.807617692471869E-018
  4.300000000000001E-003   -1.606502219934768E-018
  4.400000000000001E-003   -1.126189273261324E-018
  4.500000000000001E-003   -3.992060345110741E-019
  4.600000000000002E-003    4.987932692571715E-019
  4.700000000000001E-003    1.454385648406135E-018
  4.800000000000001E-003    2.328395650770951E-018
  4.900000000000002E-003    2.973684421867665E-018
  5.000000000000001E-003    3.256775682308993E-018
  5.100000000000001E-003    3.080524785169655E-018
  5.200000000000001E-003    2.404465550744010E-018
  5.300000000000002E-003    1.259331416124793E-018
  5.400000000000001E-003   -2.473401826747795E-019
  5.500000000000001E-003   -1.936671154382552E-018
  5.600000000000002E-003   -3.575731554371236E-018
  5.700000000000001E-003   -4.905664421821964E-018
  5.800000000000001E-003   -5.677847814674672E-018
  5.900000000000002E-003   -5.693651510846339E-018
  6.000000000000001E-003   -4.842142125234310E-018
  6.100000000000001E-003   -3.129632827357363E-018
  6.200000000000002E-003   -6.953262494093847E-019
  6.300000000000002E-003    2.191279724049724E-018
  6.400000000000001E-003    5.153430632157917E-018
  6.500000000000001E-003    7.749888763661900E-018
  6.600000000000002E-003    9.533577747398054E-018
  6.700000000000001E-003    1.011930948544825E-017
  6.800000000000001E-003    9.251356030550950E-018
  6.900000000000002E-003    6.860488011837965E-018
  7.000000000000001E-003    3.100191092872503E-018
  7.100000000000001E-003   -1.646301371960004E-018
  7.200000000000002E-003   -6.793278610805200E-018
  7.300000000000002E-003   -1.161454344402413E-017
  7.400000000000001E-003   -1.533527115930099E-017
  7.500000000000001E-003   -1.724368589005009E-017
  7.600000000000002E-003   -1.680797880770431E-017
  7.700000000000001E-003   -1.378126530646612E-017
  7.800000000000001E-003   -8.276900756215400E-018
  7.900000000000001E-003   -7.986646113790908E-019
  8.000000000000002E-003    7.784671483618591E-018
  8.100000000000001E-003    1.632369541504420E-017
  8.200000000000001E-003    2.352644698862252E-017
  8.300000000000002E-003    2.813590655876192E-017
  8.400000000000001E-003    2.912484661454402E-017
  8.500000000000002E-003    2.588057429223715E-017
  8.600000000000002E-003    1.834994926762111E-017
  8.700000000000001E-003    7.117877006033709E-018
  8.800000000000002E-003   -6.601165313459833E-018
  8.900000000000002E-003   -2.106783584558051E-017
  9.000000000000001E-003   -3.421478683136519E-017
  9.100000000000002E-003   -4.391696975016268E-017
  9.200000000000002E-003   -4.830338037286553E-017
  9.300000000000001E-003   -4.606802120403484E-017
  9.400000000000002E-003   -3.673299794275559E-017
  9.500000000000001E-003   -2.081872261636186E-017
  9.600000000000001E-003    1.153688026726968E-019
  9.700000000000002E-003    2.358053367423044E-017
  9.800000000000001E-003    4.641957077088765E-017
  9.900000000000001E-003    6.519686274950100E-017
  1.000000000000000E-002    7.667399769989325E-017
  1.010000000000000E-002    7.830954508402909E-017
  1.020000000000000E-002    6.871171597194657E-017
  1.030000000000000E-002    4.797178283256861E-017
  1.040000000000000E-002    1.781598716033966E-017
  1.050000000000000E-002   -1.846501295069191E-017
  1.060000000000000E-002   -5.632290909854435E-017
  1.070000000000000E-002   -9.047368275560253E-017
  1.080000000000000E-002   -1.155813739179919E-016
  1.090000000000000E-002   -1.270205034958768E-016
  1.100000000000000E-002   -1.216155691759371E-016
  1.110000000000000E-002   -9.824849051472942E-017
  1.120000000000000E-002   -5.823438421489699E-017
  1.130000000000000E-002   -5.389747186696319E-018
  1.140000000000000E-002    5.424616777307780E-017
  1.150000000000000E-002    1.130304002854431E-016
  1.160000000000000E-002    1.626206417452866E-016
  1.170000000000000E-002    1.950661608349585E-016
  1.180000000000000E-002    2.039507562874687E-016
  1.190000000000000E-002    1.854364521985174E-016
  1.200000000000000E-002    1.390532763338821E-016
  1.210000000000000E-002    6.810967729836705E-017
  1.220000000000000E-002   -2.037056025186201E-017
  1.230000000000000E-002   -1.162166215938155E-016
  1.240000000000000E-002   -2.071556974789080E-016
  1.250000000000000E-002   -2.802403315422053E-016
  1.260000000000000E-002   -3.235064137096112E-016
  1.270000000000000E-002   -3.276681127693581E-016
  1.280000000000000E-002   -2.876358310919614E-016
  1.290000000000000E-002   -2.036442358677181E-016
  1.300000000000000E-002   -8.181185735089573E-017
  1.310000000000000E-002    6.599802923253325E-017
  1.320000000000000E-002    2.230688217404816E-016
  1.330000000000000E-002    3.694431936438445E-016
  1.340000000000000E-002    4.841362064844176E-016
  1.350000000000000E-002    5.477427873258921E-016
  1.360000000000000E-002    5.451636482288354E-016
  1.370000000000000E-002    4.681249105950115E-016
  1.380000000000000E-002    3.171538504927822E-016
  1.390000000000000E-002    1.026906767724243E-016
  1.400000000000000E-002   -1.549221031147745E-016
  1.410000000000000E-002   -4.267331905433531E-016
  1.420000000000000E-002   -6.777837652694392E-016
  1.430000000000000E-002   -8.708849473441715E-016
  1.440000000000000E-002   -9.712615510065112E-016
  1.450000000000000E-002   -9.516067945711439E-016
  1.460000000000000E-002   -7.969365164757928E-016
  1.470000000000000E-002   -5.085659018487782E-016
  1.480000000000000E-002   -1.065154843228714E-016
  1.490000000000000E-002    3.702539268777794E-016
  1.500000000000000E-002    8.661950371015506E-016
  1.510000000000000E-002    1.314254525453844E-015
  1.520000000000000E-002    1.643450394218903E-015
  1.530000000000000E-002    1.788319809695223E-015
  1.540000000000000E-002    1.699226594149844E-015
  1.550000000000000E-002    1.352171062235863E-015
  1.560000000000000E-002    7.565915127188593E-016
  1.570000000000000E-002   -4.036771690617501E-017
  1.580000000000000E-002   -9.544069425802759E-016
  1.590000000000000E-002   -1.870229513270162E-015
  1.600000000000000E-002   -2.653410324636923E-015
  1.610000000000000E-002   -3.167206012475146E-015
  1.620000000000000E-002   -3.292652510863588E-015
  1.630000000000000E-002   -2.949447938659191E-015
  1.640000000000000E-002   -2.114576099617132E-015
  1.650000000000000E-002   -8.353795194266510E-016
  1.660000000000000E-002    7.659194533310446E-016
  1.670000000000000E-002    2.498435696030568E-015
  1.680000000000000E-002    4.120520227641368E-015
  1.690000000000000E-002    5.368528212707410E-015
  1.700000000000000E-002    5.993846498046802E-015
  1.710000000000000E-002    5.803762183811367E-015
  1.720000000000000E-002    4.700396200335067E-015
  1.730000000000000E-002    2.711237434606088E-015
  1.740000000000000E-002    5.035887645222321E-018
  1.750000000000000E-002   -3.111876834065912E-015
  1.760000000000000E-002   -6.221507375765276E-015
  1.770000000000000E-002   -8.841885792647187E-015
  1.780000000000000E-002   -1.049243143464708E-014
  1.790000000000000E-002   -1.076955007133700E-014
  1.800000000000000E-002   -9.421975641535508E-015
  1.810000000000000E-002   -6.413848605274112E-015
  1.820000000000000E-002   -1.963537396286989E-015
  1.830000000000000E-002    3.451806576207618E-015
  1.840000000000000E-002    9.132026223884527E-015
  1.850000000000000E-002    1.423056819188894E-014
  1.860000000000000E-002    1.786598986610134E-014
  1.870000000000000E-002    1.925578592570247E-014