 -4.000000000000000E-002    0.000000000000000E+000
 -3.990000000000000E-002    0.000000000000000E+000
 -3.980000000000000E-002    0.000000000000000E+000
 -3.970000000000000E-002   -1.024309115939654E-015
 -3.960000000000000E-002   -5.868480623273184E-015
 -3.950000000000000E-002   -1.805066136018191E-014
 -3.940000000000000E-002   -3.903635902476125E-014
 -3.930000000000000E-002   -6.677950220853365E-014
 -3.920000000000000E-002   -1.014687410634740E-013
 -3.910000000000000E-002   -1.649607564644476E-013
 -3.900000000000000E-002   -3.368704674232572E-013
 -3.890000000000000E-002   -8.020547508918824E-013
 -3.880000000000000E-002   -1.892628126378662E-012
 -3.870000000000000E-002   -4.096170715871046E-012
 -3.860000000000000E-002   -7.995423144883806E-012
 -3.850000000000000E-002   -1.410852160265339E-011
 -3.840000000000000E-002   -2.261647674651198E-011
 -3.830000000000000E-002   -3.299579727597190E-011
 -3.820000000000000E-002   -4.361553873294434E-011
 -3.810000000000000E-002   -5.139949757405576E-011
 -3.800000000000000E-002   -5.168538253220880E-011
 -3.790000000000000E-002   -3.841959611966467E-011
 -3.780000000000000E-002   -4.799885081438281E-012
 -3.770000000000000E-002    5.558734007283804E-011
 -3.760000000000000E-002    1.471848353361378E-010
 -3.750000000000000E-002    2.706064613194772E-010
 -3.740000000000000E-002    4.207866175869899E-010
 -3.730000000000000E-002    5.855081987596368E-010
 -3.720000000000000E-002    7.447129417648320E-010
 -3.710000000000000E-002    8.709568922131516E-010
 -3.700000000000000E-002    9.312535184523162E-010
 -3.690000000000000E-002    8.903512243886291E-010
 -3.680000000000000E-002    7.152517262897065E-010
 -3.670000000000000E-002    3.805230884713876E-010
 -3.660000000000000E-002   -1.262569420176469E-010
 -3.650000000000000E-002   -7.997297370231945E-010
 -3.640000000000000E-002   -1.613479752429618E-009
 -3.630000000000000E-002   -2.518969519964753E-009
 -3.620000000000000E-002   -3.447162983274711E-009
 -3.610000000000000E-002   -4.312973664105197E-009
 -3.600000000000000E-002   -5.022285556829285E-009
 -3.590000000000000E-002   -5.480906567470136E-009
 -3.580000000000000E-002   -5.604495752053687E-009
 -3.570000000000000E-002   -5.328304338249823E-009
 -3.560000000000000E-002   -4.615529966371587E-009
 -3.550000000000000E-002   -3.463191178775705E-009
 -3.540000000000000E-002   -1.904705596195133E-009
 -3.530000000000000E-002   -8.723181028140960E-012
 -3.520000000000000E-002    2.125794091129625E-009
 -3.510000000000000E-002    4.377816398138362E-009
 -3.500000000000000E-002    6.614998016304181E-009
 -3.490000000000000E-002    8.705816677737613E-009
 -3.480000000000000E-002    1.053180770126911E-008
 -3.470000000000000E-002    1.199853333935127E-008
 -3.460000000000000E-002    1.304401190020478E-008
 -3.450000000000000E-002    1.364350694516897E-008
 -3.440000000000000E-002    1.380989182625018E-008
 -3.430000000000000E-002    1.358920299339932E-008
 -3.420000000000000E-002    1.305147520184486E-008
 -3.410000000000000E-002    1.227753965954994E-008
 -3.400000000000000E-002    1.134304332127166E-008
 -3.390000000000000E-002    1.030155256858133E-008
 -3.380000000000000E-002    9.169075137849317E-009
 -3.370000000000000E-002    7.912628739268294E-009
 -3.360000000000000E-002    6.445452729243065E-009
 -3.350000000000000E-002    4.631053073415379E-009
 -3.340000000000000E-002    2.297380100625062E-009
 -3.330000000000000E-002   -7.388508256580648E-010
 -3.320000000000000E-002   -4.639320797596779E-009
 -3.310000000000000E-002   -9.506127261449441E-009
 -3.300000000000000E-002   -1.534362895847770E-008
 -3.290000000000000E-002   -2.202621027892097E-008
 -3.280000000000000E-002   -2.927837656282115E-008
 -3.270000000000000E-002   -3.667292105799437E-008
 -3.260000000000000E-002   -4.365109041191147E-008
 -3.250000000000000E-002   -4.956584935012355E-008
 -3.240000000000000E-002   -5.374583071658779E-008
 -3.230000000000000E-002   -5.557377919593993E-008
 -3.220000000000000E-002   -5.456996449093781E-008
 -3.210000000000000E-002   -5.046874359369441E-008
 -3.200000000000000E-002   -4.327579116314443E-008
 -3.190000000000000E-002   -3.329485166140728E-008
 -3.180000000000000E-002   -2.111624904070084E-008
 -3.170000000000000E-002   -7.564514523311231E-009
 -3.160000000000000E-002    6.391301253642874E-009
 -3.150000000000000E-002    1.975475970995938E-008
 -3.140000000000000E-002    3.163133105191046E-008
 -3.130000000000000E-002    4.135123347813632E-008
 -3.120000000000000E-002    4.856662259090524E-008
 -3.110000000000000E-002    5.330657556323375E-008
 -3.100000000000000E-002    5.597897785927317E-008
 -3.090000000000000E-002    5.731653776250423E-008
 -3.080000000000000E-002    5.827327669541615E-008
 -3.070000000000000E-002    5.988679647571489E-008
 -3.060000000000000E-002    6.312860973440428E-008
 -3.050000000000000E-002    6.876838183541010E-008
 -3.040000000000000E-002    7.727759152146613E-008
 -3.030000000000000E-002    8.879302473654260E-008
 -3.020000000000000E-002    1.031519055572580E-007
 -3.010000000000000E-002    1.199988261605497E-007
 -3.000000000000000E-002    1.389526862754087E-007
 -2.990000000000000E-002    1.598104284195970E-007
 -2.980000000000000E-002    1.827569682594416E-007
 -2.970000000000000E-002    2.085471332058338E-007
 -2.960000000000000E-002    2.386280719649436E-007
 -2.950000000000000E-002    2.751780250839145E-007
 -2.940000000000000E-002    3.210490049013901E-007
 -2.930000000000000E-002    3.796157914985724E-007
 -2.920000000000000E-002    4.545473025585144E-007
 -2.910000000000000E-002    5.495291949855019E-007
 -2.900000000000000E-002    6.679739412778103E-007
 -2.890000000000000E-002    8.127575924194166E-007
 -2.880000000000000E-002    9.860176195515097E-007
 -2.870000000000000E-002    1.189038539138536E-006
 -2.860000000000000E-002    1.422238566100241E-006
 -2.850000000000000E-002    1.685255515963619E-006
 -2.840000000000000E-002    1.977118212419215E-006
 -2.830000000000000E-002    2.296476599877255E-006
 -2.820000000000000E-002    2.641859154266603E-006
 -2.810000000000000E-002    3.011924697338205E-006
 -2.800000000000000E-002    3.405679678599709E-006
 -2.790000000000000E-002    3.822638979492043E-006
 -2.780000000000000E-002    4.262921118965768E-006
 -2.770000000000000E-002    4.727276972616241E-006
 -2.760000000000000E-002    5.217058711112477E-006
 -2.750000000000000E-002    5.734144352139946E-006
 -2.740000000000000E-002    6.280837479269689E-006
 -2.730000000000000E-002    6.859749175586774E-006
 -2.720000000000000E-002    7.473686164819500E-006
 -2.710000000000000E-002    8.125539880716776E-006
 -2.700000000000000E-002    8.818189037070173E-006
 -2.690000000000000E-002    9.554411852552019E-006
 -2.680000000000000E-002    1.033680669581534E-005
 -2.670000000000000E-002    1.116772450376547E-005
 -2.660000000000000E-002    1.204921754054341E-005
 -2.650000000000000E-002    1.298301035224324E-005
 -2.640000000000000E-002    1.397050254713857E-005
 -2.630000000000000E-002    1.501280797045969E-005
 -2.620000000000000E-002    1.611084394407068E-005
 -2.610000000000000E-002    1.726546623808205E-005
 -2.600000000000000E-002    1.847763026393042E-005
 -2.590000000000000E-002    1.974858423593410E-005
 -2.580000000000000E-002    2.108004757711219E-005
 -2.570000000000000E-002    2.247436539532972E-005
 -2.560000000000000E-002    2.393460624825938E-005
 -2.550000000000000E-002    2.546458978498162E-005
 -2.540000000000000E-002    2.706883595790461E-005
 -2.530000000000000E-002    2.875244607361386E-005
 -2.520000000000000E-002    3.052093416137748E-005
 -2.510000000000000E-002    3.238003377750158E-005
 -2.500000000000000E-002    3.433553074615219E-005
 -2.490000000000000E-002    3.639314146828644E-005
 -2.480000000000000E-002    3.855845645190499E-005
 -2.470000000000000E-002    4.083698252896187E-005
 -2.460000000000000E-002    4.323424551504527E-005
 -2.450000000000000E-002    4.575596413399501E-005
 -2.440000000000000E-002    4.840822555581606E-005
 -2.430000000000000E-002    5.119764938858925E-005
 -2.420000000000000E-002    5.413148490660740E-005
 -2.410000000000000E-002    5.721763211945045E-005
 -2.400000000000000E-002    6.046454377008884E-005
 -2.390000000000000E-002    6.388109198732008E-005
 -2.380000000000000E-002    6.747634103736317E-005
 -2.370000000000000E-002    7.125935924693629E-005
 -2.360000000000000E-002    7.523906185958183E-005
 -2.350000000000000E-002    7.942417186952403E-005
 -2.340000000000000E-002    8.382330345541820E-005
 -2.330000000000000E-002    8.844517337169722E-005
 -2.320000000000000E-002    9.329892761894071E-005
 -2.310000000000000E-002    9.839455415894465E-005
 -2.300000000000000E-002    1.037432465304957E-004
 -2.290000000000000E-002    1.093577236207098E-004
 -2.280000000000000E-002    1.152523925219412E-004
 -2.270000000000000E-002    1.214433293470140E-004
 -2.260000000000000E-002    1.279480635619532E-004
 -2.250000000000000E-002    1.347852023236947E-004
 -2.240000000000000E-002    1.419739403770687E-004
 -2.230000000000000E-002    1.495335389006390E-004
 -2.220000000000000E-002    1.574829103437198E-004
 -2.210000000000000E-002    1.658402995792461E-004
 -2.200000000000000E-002    1.746232202637647E-004
 -2.190000000000000E-002    1.838486502367061E-004
 -2.180000000000000E-002    1.935333929312310E-004
 -2.170000000000000E-002    2.036946269842458E-004
 -2.160000000000000E-002    2.143505626017308E-004
 -2.150000000000000E-002    2.255209608447487E-004
 -2.140000000000000E-002    2.372276372697160E-004
 -2.130000000000000E-002    2.494945971765711E-004
 -2.120000000000000E-002    2.623480656697448E-004
 -2.110000000000000E-002    2.758161760984112E-004
 -2.100000000000000E-002    2.899284434211158E-004
 -2.090000000000000E-002    3.047152600942153E-004
 -2.080000000000000E-002    3.202073148264196E-004
 -2.070000000000000E-002    3.364351809367809E-004
 -2.060000000000000E-002    3.534290848739222E-004
 -2.050000000000000E-002    3.712189735887354E-004
 -2.040000000000000E-002    3.898348700398630E-004
 -2.030000000000000E-002    4.093073738078383E-004
 -2.020000000000000E-002    4.296682852475528E-004
 -2.010000000000000E-002    4.509512075582724E-004
 -2.000000000000000E-002    4.731920930082003E-004
 -1.990000000000000E-002    4.964294729865426E-004
 -1.980000000000000E-002    5.207045927500590E-004
 -1.970000000000000E-002    5.460609807277509E-004
 -1.960000000000000E-002    5.725440484037328E-004
 -1.950000000000000E-002    6.002005391215521E-004
 -1.940000000000000E-002    6.290779418947582E-004
 -1.930000000000000E-002    6.592239045038682E-004
 -1.920000000000000E-002    6.906860035767250E-004
 -1.910000000000000E-002    7.235117959070372E-004
 -1.900000000000000E-002    7.577489736874707E-004
 -1.890000000000000E-002    7.934458103742430E-004
 -1.880000000000000E-002    8.306517603477960E-004
 -1.870000000000000E-002    8.694180375368612E-004
 -1.860000000000000E-002    9.097979791196425E-004
 -1.850000000000000E-002    9.518472217083891E-004
 -1.840000000000000E-002    9.956237643773483E-004
 -1.830000000000000E-002    1.041187626834180E-003
 -1.820000000000000E-002    1.088600590550703E-003
 -1.810000000000000E-002    1.137925279156808E-003
 -1.800000000000000E-002    1.189225059987922E-003
 -1.790000000000000E-002    1.242563536664849E-003
 -1.780000000000000E-002    1.298004465663729E-003
 -1.770000000000000E-002    1.355612085418783E-003
 -1.760000000000000E-002    1.415451261687788E-003
 -1.750000000000000E-002    1.477588300820586E-003
 -1.740000000000000E-002    1.542091657785934E-003
 -1.730000000000000E-002    1.609032378721518E-003
 -1.720000000000000E-002    1.678484468111869E-003
 -1.710000000000000E-002    1.750525146776428E-003
 -1.700000000000000E-002    1.825234135827294E-003
 -1.690000000000000E-002    1.902693671433043E-003
 -1.680000000000000E-002    1.982987404003670E-003
 -1.670000000000000E-002    2.066199599295185E-003
 -1.660000000000000E-002    2.152414527935154E-003
 -1.650000000000000E-002    2.241715435439304E-003
 -1.640000000000000E-002    2.334184730863186E-003
 -1.630000000000000E-002    2.429903650735239E-003
 -1.620000000000000E-002    2.528952809067818E-003
 -1.610000000000000E-002    2.631412722886328E-003
 -1.600000000000000E-002    2.737364580136671E-003
 -1.590000000000000E-002    2.846890285863481E-003
 -1.580000000000000E-002    2.960073820172967E-003
 -1.570000000000000E-002    3.077000831758996E-003
 -1.560000000000000E-002    3.197758301336427E-003
 -1.550000000000000E-002    3.322434357369538E-003
 -1.540000000000000E-002    3.451117544390040E-003
 -1.530000000000000E-002    3.583896079957767E-003
 -1.520000000000000E-002    3.720857212425628E-003
 -1.510000000000000E-002    3.862085985186152E-003
 -1.500000000000000E-002    4.007665474875682E-003
 -1.490000000000000E-002    4.157677270614300E-003
 -1.480000000000000E-002    4.312200208774456E-003
 -1.470000000000000E-002    4.471312412203245E-003
 -1.460000000000000E-002    4.635090348784168E-003
 -1.450000000000000E-002    4.803610367626093E-003
 -1.440000000000000E-002    4.976948017181677E-003
 -1.430000000000000E-002    5.155177454867129E-003
 -1.420000000000000E-002    5.338372930571222E-003
 -1.410000000000000E-002    5.526605829400742E-003
 -1.400000000000000E-002    5.719944930590757E-003
 -1.390000000000000E-002    5.918455253369640E-003
 -1.380000000000000E-002    6.122197861232740E-003
 -1.370000000000000E-002    6.331228506199001E-003
 -1.360000000000000E-002    6.545597058314864E-003
 -1.350000000000000E-002    6.765348296159813E-003
 -1.340000000000000E-002    6.990521267434216E-003
 -1.330000000000000E-002    7.221150076421731E-003
 -1.320000000000000E-002    7.457264259102862E-003
 -1.310000000000000E-002    7.698888510555372E-003
 -1.300000000000000E-002    7.946041994966431E-003
 -1.290000000000000E-002    8.198739837401150E-003
 -1.280000000000000E-002    8.456990368837975E-003
 -1.270000000000000E-002    8.720796357183994E-003
 -1.260000000000000E-002    8.990151803786421E-003
 -1.250000000000000E-002    9.265040707867248E-003
 -1.240000000000000E-002    9.545438903757477E-003
 -1.230000000000000E-002    9.831310978777081E-003
 -1.220000000000000E-002    1.012260972614561E-002
 -1.210000000000000E-002    1.041927805651908E-002
 -1.200000000000000E-002    1.072124731699050E-002
 -1.190000000000000E-002    1.102843804735210E-002
 -1.180000000000000E-002    1.134076029484156E-002
 -1.170000000000000E-002    1.165811509311259E-002
 -1.160000000000000E-002    1.198039062359231E-002
 -1.150000000000000E-002    1.230746533749819E-002
 -1.140000000000000E-002    1.263920429742144E-002
 -1.130000000000000E-002    1.297545985911631E-002
 -1.120000000000000E-002    1.331606932971073E-002
 -1.110000000000000E-002    1.366085460124707E-002
 -1.100000000000000E-002    1.400961891302422E-002
 -1.090000000000000E-002    1.436214832541067E-002
 -1.080000000000000E-002    1.471821057843728E-002
 -1.070000000000000E-002    1.507755304758308E-002
 -1.060000000000000E-002    1.543990590834695E-002
 -1.050000000000000E-002    1.580498038008101E-002
 -1.040000000000000E-002    1.617246701027494E-002
 -1.030000000000000E-002    1.654203949545798E-002
 -1.020000000000000E-002    1.691335363984284E-002
 -1.010000000000000E-002    1.728604117055683E-002
 -1.000000000000000E-002    1.765971652346186E-002
 -9.899999999999999E-003    1.803397057378307E-002
 -9.800000000000000E-003    1.840837140013712E-002
 -9.699999999999999E-003    1.878246199990807E-002
 -9.599999999999999E-003    1.915575716210873E-002
 -9.500000000000000E-003    1.952774920434525E-002
 -9.399999999999999E-003    1.989789801296505E-002
 -9.299999999999999E-003    2.026563968101657E-002
 -9.200000000000000E-003    2.063038320226208E-002
 -9.099999999999999E-003    2.099150656873800E-002
 -8.999999999999999E-003    2.134836255944802E-002
 -8.900000000000000E-003    2.170027768105377E-002
 -8.799999999999999E-003    2.204654848901290E-002
 -8.699999999999999E-003    2.238644454679259E-002
 -8.600000000000000E-003    2.271920560248009E-002
 -8.499999999999999E-003    2.304404161101123E-002
 -8.399999999999999E-003    2.336013168793554E-002
 -8.300000000000000E-003    2.366662185415061E-002
 -8.199999999999999E-003    2.396262432629078E-002
 -8.100000000000000E-003    2.424721716791231E-002
 -8.000000000000000E-003    2.451944617580336E-002
 -7.899999999999999E-003    2.477831977125202E-002
 -7.800000000000000E-003    2.502281390264104E-002
 -7.699999999999999E-003    2.525187060189501E-002
 -7.599999999999999E-003    2.546439591309810E-002
 -7.499999999999999E-003    2.565926317045214E-002
 -7.399999999999999E-003    2.583531055478683E-002
 -7.299999999999999E-003    2.599134415364777E-002
 -7.199999999999999E-003    2.612613454068935E-002
 -7.100000000000000E-003    2.623841577738758E-002
 -6.999999999999999E-003    2.632688868621271E-002
 -6.899999999999999E-003    2.639021612348313E-002
 -6.800000000000000E-003    2.642702286332147E-002
 -6.699999999999999E-003    2.643590016191310E-002
 -6.599999999999999E-003    2.641540010808664E-002
 -6.499999999999999E-003    2.636404104980980E-002
 -6.399999999999999E-003    2.628030763262122E-002
 -6.299999999999999E-003    2.616264634778185E-002
 -6.199999999999999E-003    2.600947376378365E-002
 -6.100000000000000E-003    2.581916887630948E-002
 -5.999999999999999E-003    2.559008305381164E-002
 -5.899999999999999E-003    2.532053080620018E-002
 -5.800000000000000E-003    2.500879724374283E-002
 -5.699999999999999E-003    2.465313745266575E-002
 -5.599999999999999E-003    2.425177162414132E-002
 -5.499999999999999E-003    2.380289184459758E-002
 -5.399999999999999E-003    2.330465811033218E-002
 -5.299999999999999E-003    2.275520175171976E-002
 -5.199999999999999E-003    2.215262607683942E-002
 -5.099999999999999E-003    2.149500729900915E-002
 -4.999999999999999E-003    2.078039811759892E-002
 -4.899999999999999E-003    2.000682649993860E-002
 -4.799999999999999E-003    1.917229645193488E-002
 -4.699999999999999E-003    1.827479309398531E-002
 -4.599999999999999E-003    1.731228095958443E-002
 -4.499999999999999E-003    1.628270852088626E-002
 -4.399999999999999E-003    1.518400627755068E-002
 -4.299999999999999E-003    1.401408898891533E-002
 -4.199999999999999E-003    1.277085790283012E-002
 -4.099999999999999E-003    1.145220282623316E-002
 -3.999999999999999E-003    1.005600138999453E-002
 -3.899999999999999E-003    8.580124830330658E-003
 -3.799999999999999E-003    7.022437409292797E-003
 -3.699999999999999E-003    5.380799128133234E-003
 -3.599999999999999E-003    3.653071323613123E-003
 -3.499999999999999E-003    1.837114338032732E-003
 -3.399999999999999E-003   -6.920456248136510E-005
 -3.299999999999999E-003   -2.068011970529534E-003
 -3.199999999999999E-003   -4.161427932251018E-003
 -3.099999999999999E-003   -6.351555451209351E-003
 -2.999999999999999E-003   -8.640491085064227E-003
 -2.899999999999999E-003   -1.103030363303703E-002
 -2.799999999999999E-003   -1.352305387756282E-002
 -2.699999999999999E-003   -1.612076992802341E-002
 -2.599999999999999E-003   -1.882546393418573E-002
 -2.499999999999999E-003   -2.163910955074524E-002
 -2.399999999999999E-003   -2.456365187289197E-002
 -2.299999999999999E-003   -2.760100367022509E-002
 -2.199999999999999E-003   -3.075302889021367E-002
 -2.099999999999999E-003   -3.402155877116717E-002
 -1.999999999999999E-003   -3.740836283997798E-002
 -1.899999999999999E-003   -4.091517640925780E-002
 -1.799999999999999E-003   -4.454368011266821E-002
 -1.699999999999999E-003   -4.829548576132873E-002
 -1.599999999999999E-003   -5.217215800911329E-002
 -1.499999999999999E-003   -5.617519930496062E-002
 -1.399999999999999E-003   -6.030604082510845E-002
 -1.299999999999999E-003   -6.456604545431546E-002
 -1.199999999999999E-003   -6.895650091078791E-002
 -1.099999999999999E-003   -7.347861935067343E-002
 -9.999999999999989E-004   -7.813352142037064E-002
 -8.999999999999990E-004   -8.292225242081581E-002
 -7.999999999999990E-004   -8.784575963239599E-002
 -6.999999999999989E-004   -9.290488811018394E-002
 -5.999999999999990E-004   -9.810039963970653E-002
 -4.999999999999989E-004   -0.103432945964549     
 -3.999999999999989E-004   -0.108903062416084     
 -2.999999999999989E-004   -0.114511193368165     
 -1.999999999999989E-004   -0.120257659797642     
 -9.999999999999892E-005   -0.126142665849645     
  1.084202172485504E-018   -0.132166308018790     
  1.000000000000011E-004   -0.138328550872437     
  2.000000000000011E-004   -0.144629221248811     
  3.000000000000011E-004   -0.151068038631501     
  4.000000000000011E-004   -0.157644561281296     
  5.000000000000011E-004   -0.164358225928322     
  6.000000000000011E-004   -0.171208324265437     
  7.000000000000011E-004   -0.178193983767531     
  8.000000000000011E-004   -0.185314199003684     
  9.000000000000012E-004   -0.192567828767458     
  1.000000000000001E-003   -0.199953532294159     
  1.100000000000001E-003   -0.207469865653426     
  1.200000000000001E-003   -0.215115171580166     
  1.300000000000001E-003   -0.222887682439246     
  1.400000000000001E-003   -0.230785430868056     
  1.500000000000001E-003   -0.238806297152831     
  1.600000000000001E-003   -0.246947983315147     
  1.700000000000001E-003   -0.255208001592355     
  1.800000000000001E-003   -0.263583743746555     
  1.900000000000001E-003   -0.272072360698399     
  2.000000000000001E-003   -0.280670900295033     
  2.100000000000001E-003   -0.289376142771922     
  2.200000000000001E-003   -0.298184750789040     
  2.300000000000001E-003   -0.307093211920560     
  2.400000000000001E-003   -0.316097764035960     
  2.500000000000001E-003   -0.325194534298497     
  2.600000000000001E-003   -0.334379434798168     
  2.700000000000001E-003   -0.343648189664269     
  2.800000000000001E-003   -0.352996341590361     
  2.900000000000001E-003   -0.362419256716558     
  3.000000000000001E-003   -0.371912143141553     
  3.100000000000001E-003   -0.381469997413814     
  3.200000000000001E-003   -0.391087615845057     
  3.300000000000001E-003   -0.400759656372815     
  3.400000000000001E-003   -0.410480604888914     
  3.500000000000001E-003   -0.420244690407674     
  3.600000000000001E-003   -0.430046031496462     
  3.700000000000001E-003   -0.439878611638654     
  3.800000000000001E-003   -0.449736119691481     
  3.900000000000001E-003   -0.459612162084367     
  4.000000000000001E-003   -0.469500172402611     
  4.100000000000001E-003   -0.479393450321932     
  4.200000000000001E-003   -0.489285060910764     
  4.300000000000001E-003   -0.499167938359899     
  4.400000000000001E-003   -0.509034933903265     
  4.500000000000001E-003   -0.518878688263333     
  4.600000000000002E-003   -0.528691681887210     
  4.700000000000001E-003   -0.538466304615078     
  4.800000000000001E-003   -0.548194803231637     
  4.900000000000002E-003   -0.557869245699869     
  5.000000000000001E-003   -0.567481640306290     
  5.100000000000001E-003   -0.577023858906414     
  5.200000000000001E-003   -0.586487706588603     
  5.300000000000002E-003   -0.595864804696398     
  5.400000000000001E-003   -0.605146674610285     
  5.500000000000001E-003   -0.614324831478863     
  5.600000000000002E-003   -0.623390676204602     
  5.700000000000001E-003   -0.632335470103759     
  5.800000000000001E-003   -0.641150422403218     
  5.900000000000002E-003   -0.649826776743992     
  6.000000000000001E-003   -0.658355599538432     
  6.100000000000001E-003   -0.666727970744897     
  6.200000000000002E-003   -0.674934933105004     
  6.300000000000002E-003   -0.682967494892482     
  6.400000000000001E-003   -0.690816651256572     
  6.500000000000001E-003   -0.698473344945640     
  6.600000000000002E-003   -0.705928574890599     
  6.700000000000001E-003   -0.713173320840575     
  6.800000000000001E-003   -0.720198599286555     
  6.900000000000002E-003   -0.726995381219731     
  7.000000000000001E-003   -0.733554717463525     
  7.100000000000001E-003   -0.739867767955754     
  7.200000000000002E-003   -0.745925656422499     
  7.300000000000002E-003   -0.751719614055819     
  7.400000000000001E-003   -0.757240913644099     
  7.500000000000001E-003   -0.762480970260989     
  7.600000000000002E-003   -0.767431220471583     
  7.700000000000001E-003   -0.772083230460206     
  7.800000000000001E-003   -0.776428659727640     
  7.900000000000001E-003   -0.780459385350914     
  8.000000000000002E-003   -0.784167369635030     
  8.100000000000001E-003   -0.787544648742427     
  8.200000000000001E-003   -0.790583531088638     
  8.300000000000002E-003   -0.793276408385440     
  8.400000000000001E-003   -0.795615862775161     
  8.500000000000002E-003   -0.797594729560107     
  8.600000000000002E-003   -0.799205946930545     
  8.700000000000001E-003   -0.800442665234855     
  8.800000000000002E-003   -0.801298334430432     
  8.900000000000002E-003   -0.801766539213847     
  9.000000000000001E-003   -0.801841172121176     
  9.100000000000002E-003   -0.801516292073950     
  9.200000000000002E-003   -0.800786255744951     
  9.300000000000001E-003   -0.799645700483991     
  9.400000000000002E-003   -0.798089534915213     
  9.500000000000001E-003   -0.796112899379702     
  9.600000000000001E-003   -0.793711209801392     
  9.700000000000002E-003   -0.790880291664784     
  9.800000000000001E-003   -0.787616179141837     
  9.900000000000001E-003   -0.783915265082999     
  1.000000000000000E-002   -0.779774233786536     
  1.010000000000000E-002   -0.775190027839075     
  1.020000000000000E-002   -0.770160058370659     
  1.030000000000000E-002   -0.764681934114618     
  1.040000000000000E-002   -0.758753784738027     
  1.050000000000000E-002   -0.752373891780101     
  1.060000000000000E-002   -0.745541024715608     
  1.070000000000000E-002   -0.738254350926007     
  1.080000000000000E-002   -0.730513283891727     
  1.090000000000000E-002   -0.722317678918742     
  1.100000000000000E-002   -0.713667755681851     
  1.110000000000000E-002   -0.704564131458414     
  1.120000000000000E-002   -0.695007768101503     
  1.130000000000000E-002   -0.685000053588383     
  1.140000000000000E-002   -0.674542754502680     
  1.150000000000000E-002   -0.663637943957075     
  1.160000000000000E-002   -0.652288208185312     
  1.170000000000000E-002   -0.640496469050265     
  1.180000000000000E-002   -0.628266036466241     
  1.190000000000000E-002   -0.615600603054698     
  1.200000000000000E-002   -0.602504356376181     
  1.210000000000000E-002   -0.588981693677922     
  1.220000000000000E-002   -0.575037565080444     
  1.230000000000000E-002   -0.560677222689165     
  1.240000000000000E-002   -0.545906354869013     
  1.250000000000000E-002   -0.530731013028343     
  1.260000000000000E-002   -0.515157621214939     
  1.270000000000000E-002   -0.499193010925370     
  1.280000000000000E-002   -0.482844386918994     
  1.290000000000000E-002   -0.466119281096317     
  1.300000000000000E-002   -0.449025653719432     
  1.310000000000000E-002   -0.431571780617266     
  1.320000000000000E-002   -0.413766280801430     
  1.330000000000000E-002   -0.395618167785367     
  1.340000000000000E-002   -0.377136736670391     
  1.350000000000000E-002   -0.358331681216888     
  1.360000000000000E-002   -0.339213021853537     
  1.370000000000000E-002   -0.319791060014310     
  1.380000000000000E-002   -0.300076437255074     
  1.390000000000000E-002   -0.280080107255745     
  1.400000000000000E-002   -0.259813287778439     
  1.410000000000000E-002   -0.239287505820986     
  1.420000000000000E-002   -0.218514550352162     
  1.430000000000000E-002   -0.197506483687123     
  1.440000000000000E-002   -0.176275605616438     
  1.450000000000000E-002   -0.154834477534437     
  1.460000000000000E-002   -0.133195874843327     
  1.470000000000000E-002   -0.111372802402661     
  1.480000000000000E-002   -8.937847821776330E-002
  1.490000000000000E-002   -6.722631474050367E-002
  1.500000000000000E-002   -4.492991846492748E-002
  1.510000000000000E-002   -2.250307057843100E-002
  1.520000000000000E-002    4.026043893315401E-005
  1.530000000000000E-002    2.268600714929624E-002
  1.540000000000000E-002    4.541991795488109E-002
  1.550000000000000E-002    6.822765360902192E-002
  1.560000000000000E-002    9.109474360692016E-002
  1.570000000000000E-002    0.114006620702128     
  1.580000000000000E-002    0.136948659262933     
  1.590000000000000E-002    0.159906176560685     
  1.600000000000000E-002    0.182864421076752     
  1.610000000000000E-002    0.205808618772118     
  1.620000000000000E-002    0.228723981179443     
  1.630000000000000E-002    0.251595671766118     
  1.640000000000000E-002    0.274408892989217     
  1.650000000000000E-002    0.297148833883443     
  1.660000000000000E-002    0.319800785191874     
  1.670000000000000E-002    0.342349960591361     
  1.680000000000000E-002    0.364781726081163     
  1.690000000000000E-002    0.387081501094366     
  1.700000000000000E-002    0.409234805900824     
  1.710000000000000E-002    0.431227203113150     
  1.720000000000000E-002    0.453044440985853     
  1.730000000000000E-002    0.474672378260466     
  1.740000000000000E-002    0.496097012478925     
  1.750000000000000E-002    0.517304483874794     
  1.760000000000000E-002    0.538281122440920     
  1.770000000000000E-002    0.559013481566172     
  1.780000000000000E-002    0.579488245135043     
  1.790000000000000E-002    0.599692343910261     
  1.800000000000000E-002    0.619612976742162     
  1.810000000000000E-002    0.639237494212255     
  1.820000000000000E-002    0.658553523637334     
  1.830000000000000E-002    0.677548932484338     
  1.840000000000000E-002    0.696211902121725     
  1.850000000000000E-002    0.714530814034665     
  1.860000000000000E-002    0.732494436933080     
  1.870000000000000E-002    0.750091782156700     