 -4.000000000000000E-002    0.000000000000000E+000
 -3.990000000000000E-002    0.000000000000000E+000
 -3.980000000000000E-002    0.000000000000000E+000
 -3.970000000000000E-002    0.000000000000000E+000
 -3.960000000000000E-002    0.000000000000000E+000
 -3.950000000000000E-002    0.000000000000000E+000
 -3.940000000000000E-002    0.000000000000000E+000
 -3.930000000000000E-002    0.000000000000000E+000
 -3.920000000000000E-002    0.000000000000000E+000
 -3.910000000000000E-002    0.000000000000000E+000
 -3.900000000000000E-002    0.000000000000000E+000
 -3.890000000000000E-002    0.000000000000000E+000
 -3.880000000000000E-002    0.000000000000000E+000
 -3.870000000000000E-002    0.000000000000000E+000
 -3.860000000000000E-002    0.000000000000000E+000
 -3.850000000000000E-002    0.000000000000000E+000
 -3.840000000000000E-002    0.000000000000000E+000
 -3.830000000000000E-002    0.000000000000000E+000
 -3.820000000000000E-002    0.000000000000000E+000
 -3.810000000000000E-002    0.000000000000000E+000
 -3.800000000000000E-002    0.000000000000000E+000
 -3.790000000000000E-002    0.000000000000000E+000
 -3.780000000000000E-002    0.000000000000000E+000
 -3.770000000000000E-002    0.000000000000000E+000
 -3.760000000000000E-002    0.000000000000000E+000
 -3.750000000000000E-002    0.000000000000000E+000
 -3.740000000000000E-002    0.000000000000000E+000
 -3.730000000000000E-002    0.000000000000000E+000
 -3.720000000000000E-002    0.000000000000000E+000
 -3.710000000000000E-002    0.000000000000000E+000
 -3.700000000000000E-002    0.000000000000000E+000
 -3.690000000000000E-002    0.000000000000000E+000
 -3.680000000000000E-002    0.000000000000000E+000
 -3.670000000000000E-002    0.000000000000000E+000
 -3.660000000000000E-002    0.000000000000000E+000
 -3.650000000000000E-002    0.000000000000000E+000
 -3.640000000000000E-002    0.000000000000000E+000
 -3.630000000000000E-002    0.000000000000000E+000
 -3.620000000000000E-002    0.000000000000000E+000
 -3.610000000000000E-002    0.000000000000000E+000
 -3.600000000000000E-002    0.000000000000000E+000
 -3.590000000000000E-002    0.000000000000000E+000
 -3.580000000000000E-002    0.000000000000000E+000
 -3.570000000000000E-002    0.000000000000000E+000
 -3.560000000000000E-002    0.000000000000000E+000
 -3.550000000000000E-002    0.000000000000000E+000
 -3.540000000000000E-002    0.000000000000000E+000
 -3.530000000000000E-002    0.000000000000000E+000
 -3.520000000000000E-002    0.000000000000000E+000
 -3.510000000000000E-002    0.000000000000000E+000
 -3.500000000000000E-002    0.000000000000000E+000
 -3.490000000000000E-002    0.000000000000000E+000
 -3.480000000000000E-002    0.000000000000000E+000
 -3.470000000000000E-002    0.000000000000000E+000
 -3.460000000000000E-002    0.000000000000000E+000
 -3.450000000000000E-002    0.000000000000000E+000
 -3.440000000000000E-002    0.000000000000000E+000
 -3.430000000000000E-002    0.000000000000000E+000
 -3.420000000000000E-002    0.000000000000000E+000
 -3.410000000000000E-002    0.000000000000000E+000
 -3.400000000000000E-002    0.000000000000000E+000
 -3.390000000000000E-002    0.000000000000000E+000
 -3.380000000000000E-002    0.000000000000000E+000
 -3.370000000000000E-002    0.000000000000000E+000
 -3.360000000000000E-002    0.000000000000000E+000
 -3.350000000000000E-002    0.000000000000000E+000
 -3.340000000000000E-002    1.924390591266381E-047
 -3.330000000000000E-002    1.900734176592889E-046
 -3.320000000000000E-002    3.801468353185779E-046
 -3.310000000000000E-002    7.346351294202707E-046
 -3.300000000000000E-002    1.018562435175530E-045
 -3.290000000000000E-002    1.144489499792606E-045
 -3.280000000000000E-002    3.457080173301224E-046
 -3.270000000000000E-002   -2.959382764422121E-045
 -3.260000000000000E-002   -9.162160610562771E-045
 -3.250000000000000E-002   -1.998010134063833E-044
 -3.240000000000000E-002   -3.715314560628253E-044
 -3.230000000000000E-002   -6.065970213410508E-044
 -3.220000000000000E-002   -8.673964743159081E-044
 -3.210000000000000E-002   -1.014584161155928E-043
 -3.200000000000000E-002   -7.761469109620428E-044
 -3.190000000000000E-002    3.703139041777577E-044
 -3.180000000000000E-002    3.218853246815532E-043
 -3.170000000000000E-002    8.837012571598118E-043
 -3.160000000000000E-002    1.833504806407985E-042
 -3.150000000000000E-002    3.230534127653951E-042
 -3.140000000000000E-002    4.971866246319597E-042
 -3.130000000000000E-002    6.608457299664484E-042
 -3.120000000000000E-002    7.089174421318185E-042
 -3.110000000000000E-002    4.464925848256896E-042
 -3.100000000000000E-002   -4.341964054203286E-042
 -3.090000000000000E-002   -2.351326560650670E-041
 -3.080000000000000E-002   -5.769482648934402E-041
 -3.070000000000000E-002   -1.103131381440992E-040
 -3.060000000000000E-002   -1.802862828262353E-040
 -3.050000000000000E-002   -2.567477042908752E-040
 -3.040000000000000E-002   -3.118004586306494E-040
 -3.030000000000000E-002   -2.923084785254132E-040
 -3.020000000000000E-002   -1.133514288646222E-040
 -3.010000000000000E-002    3.417004672715481E-040
 -3.000000000000000E-002    1.206829202572551E-039
 -2.990000000000000E-002    2.594678645418878E-039
 -2.980000000000000E-002    4.522885497388883E-039
 -2.970000000000000E-002    6.798145636114087E-039
 -2.960000000000000E-002    8.860830435992080E-039
 -2.950000000000000E-002    9.612593978563614E-039
 -2.940000000000000E-002    7.280261161568207E-039
 -2.930000000000000E-002   -5.899425647715192E-040
 -2.920000000000000E-002   -1.686972675059515E-038
 -2.910000000000000E-002   -4.414679277972964E-038
 -2.900000000000000E-002   -8.341557344137718E-038
 -2.890000000000000E-002   -1.320644203220050E-037
 -2.880000000000000E-002   -1.812420672661722E-037
 -2.870000000000000E-002   -2.130048139631304E-037
 -2.860000000000000E-002   -1.981128870961247E-037
 -2.850000000000000E-002   -9.591932173445494E-038
 -2.840000000000000E-002    1.416391529987347E-037
 -2.830000000000000E-002    5.596023985982252E-037
 -2.820000000000000E-002    1.180971957613914E-036
 -2.810000000000000E-002    1.978185436634440E-036
 -2.800000000000000E-002    2.836722886623673E-036
 -2.790000000000000E-002    3.516729649356935E-036
 -2.780000000000000E-002    3.624350885978257E-036
 -2.770000000000000E-002    2.611140693351022E-036
 -2.760000000000000E-002   -1.742069065474757E-037
 -2.750000000000000E-002   -5.355120993243782E-036
 -2.740000000000000E-002   -1.329543105113448E-035
 -2.730000000000000E-002   -2.376068390163394E-035
 -2.720000000000000E-002   -3.549748953579684E-035
 -2.710000000000000E-002   -4.580324123261284E-035
 -2.700000000000000E-002   -5.021943467978187E-035
 -2.690000000000000E-002   -4.254638971845621E-035
 -2.680000000000000E-002   -1.542731782081898E-035
 -2.670000000000000E-002    3.824231753713489E-035
 -2.660000000000000E-002    1.228925827207487E-034
 -2.650000000000000E-002    2.368364008738893E-034
 -2.640000000000000E-002    3.681151881060638E-034
 -2.630000000000000E-002    4.903946882111681E-034
 -2.620000000000000E-002    5.602174303260054E-034
 -2.610000000000000E-002    5.174512537353220E-034
 -2.600000000000000E-002    2.911183115936401E-034
 -2.590000000000000E-002   -1.872924011835563E-034
 -2.580000000000000E-002   -9.617085089371452E-034
 -2.570000000000000E-002   -2.020963826486705E-033
 -2.560000000000000E-002   -3.263108480896484E-033
 -2.550000000000000E-002   -4.461517297578969E-033
 -2.540000000000000E-002   -5.244011206559341E-033
 -2.530000000000000E-002   -5.099968647855873E-033
 -2.520000000000000E-002   -3.432258320504272E-033
 -2.510000000000000E-002    3.310404471551654E-034
 -2.500000000000000E-002    6.557620247193368E-033
 -2.490000000000000E-002    1.517162392278156E-032
 -2.480000000000000E-002    2.538286066688041E-032
 -2.470000000000000E-002    3.544093614877583E-032
 -2.460000000000000E-002    4.249961697249724E-032
 -2.450000000000000E-002    4.269958475515320E-032
 -2.440000000000000E-002    3.158429864184930E-032
 -2.430000000000000E-002    4.941920684728292E-033
 -2.420000000000000E-002   -3.989493541544405E-032
 -2.410000000000000E-002   -1.023671983777000E-031
 -2.400000000000000E-002   -1.768520790983588E-031
 -2.390000000000000E-002   -2.510770317878503E-031
 -2.380000000000000E-002   -3.053662643647196E-031
 -2.370000000000000E-002   -3.134197727394809E-031
 -2.360000000000000E-002   -2.453228954362245E-031
 -2.350000000000000E-002   -7.329122955937760E-032
 -2.340000000000000E-002    2.197850833984236E-031
 -2.330000000000000E-002    6.296443831187917E-031
 -2.320000000000000E-002    1.119392928025148E-030
 -2.310000000000000E-002    1.610320770955377E-030
 -2.300000000000000E-002    1.978373050410195E-030
 -2.290000000000000E-002    2.060371077999574E-030
 -2.280000000000000E-002    1.673799181920919E-030
 -2.270000000000000E-002    6.525432119525711E-031
 -2.260000000000000E-002   -1.101870023331779E-030
 -2.250000000000000E-002   -3.558229378285772E-030
 -2.240000000000000E-002   -6.492802171000840E-030
 -2.230000000000000E-002   -9.441272136387532E-030
 -2.220000000000000E-002   -1.168551820255428E-029
 -2.210000000000000E-002   -1.229701550611583E-029
 -2.200000000000000E-002   -1.025570176740241E-029
 -2.190000000000000E-002   -4.653885901946506E-030
 -2.180000000000000E-002    5.021662672310710E-030
 -2.170000000000000E-002    1.855942595697894E-029
 -2.160000000000000E-002    3.470194072958984E-029
 -2.150000000000000E-002    5.091766501608994E-029
 -2.140000000000000E-002    6.336899821424098E-029
 -2.130000000000000E-002    6.718244025176132E-029
 -2.120000000000000E-002    5.710497614911074E-029
 -2.110000000000000E-002    2.857733355083974E-029
 -2.100000000000000E-002   -2.083231682682599E-029
 -2.090000000000000E-002   -8.980582047277182E-029
 -2.080000000000000E-002   -1.717640278920561E-028
 -2.070000000000000E-002   -2.538843902188496E-028
 -2.060000000000000E-002   -3.171351394805653E-028
 -2.050000000000000E-002   -3.377996957054283E-028
 -2.040000000000000E-002   -2.908298850482790E-028
 -2.030000000000000E-002   -1.550864773186816E-028
 -2.020000000000000E-002    7.989718372363973E-029
 -2.010000000000000E-002    4.065233319601793E-028
 -2.000000000000000E-002    7.925628748630132E-028
 -1.990000000000000E-002    1.177331988838439E-027
 -1.980000000000000E-002    1.472751743541891E-027
 -1.970000000000000E-002    1.571240959858489E-027
 -1.960000000000000E-002    1.361661807941481E-027
 -1.950000000000000E-002    7.531937597545417E-028
 -1.940000000000000E-002   -2.948930152829505E-028
 -1.930000000000000E-002   -1.741854464870538E-027
 -1.920000000000000E-002   -3.439011791038194E-027
 -1.910000000000000E-002   -5.116434575526140E-027
 -1.900000000000000E-002   -6.391490000004545E-027
 -1.890000000000000E-002   -6.806683605684456E-027
 -1.880000000000000E-002   -5.900636075703883E-027
 -1.870000000000000E-002   -3.310087967520116E-027
 -1.860000000000000E-002    1.107165074381151E-027
 -1.850000000000000E-002    7.147484884248395E-027
 -1.840000000000000E-002    1.416218194132199E-026
 -1.830000000000000E-002    2.101685281642134E-026
 -1.820000000000000E-002    2.614249951777931E-026
 -1.810000000000000E-002    2.770455440048479E-026
 -1.800000000000000E-002    2.389996072768727E-026
 -1.790000000000000E-002    1.336779543066877E-026
 -1.780000000000000E-002   -4.332339604899622E-027
 -1.770000000000000E-002   -2.825337721376052E-026
 -1.760000000000000E-002   -5.571342976749685E-026
 -1.750000000000000E-002   -8.219219821684113E-026
 -1.740000000000000E-002   -1.015899810796316E-025
 -1.730000000000000E-002   -1.069342016025578E-025
 -1.720000000000000E-002   -9.155247900182291E-026
 -1.710000000000000E-002   -5.063563460371866E-026
 -1.700000000000000E-002    1.700101574421409E-026
 -1.690000000000000E-002    1.072665391243182E-025
 -1.680000000000000E-002    2.096549763744204E-025
 -1.670000000000000E-002    3.070588364680830E-025
 -1.660000000000000E-002    3.769351207402237E-025
 -1.650000000000000E-002    3.940781638218548E-025
 -1.640000000000000E-002    3.349997999828306E-025
 -1.630000000000000E-002    1.835693584331097E-025
 -1.620000000000000E-002   -6.283367621409535E-026
 -1.610000000000000E-002   -3.877853756315106E-025
 -1.600000000000000E-002   -7.523100312465942E-025
 -1.590000000000000E-002   -1.094883081128230E-024
 -1.580000000000000E-002   -1.336208689072904E-024
 -1.570000000000000E-002   -1.389468558775054E-024
 -1.560000000000000E-002   -1.175819843965684E-024
 -1.550000000000000E-002   -6.437245237537899E-025
 -1.540000000000000E-002    2.106189466109312E-025
 -1.530000000000000E-002    1.325658932176996E-024
 -1.520000000000000E-002    2.564373532279265E-024
 -1.510000000000000E-002    3.716374558403989E-024
 -1.500000000000000E-002    4.516009048264864E-024
 -1.490000000000000E-002    4.678160735221021E-024
 -1.480000000000000E-002    3.950325246011799E-024
 -1.470000000000000E-002    2.175643735991610E-024
 -1.460000000000000E-002   -6.424971179687871E-025
 -1.450000000000000E-002   -4.287164717829922E-024
 -1.440000000000000E-002   -8.300672275122407E-024
 -1.430000000000000E-002   -1.199774247518209E-023
 -1.420000000000000E-002   -1.452965669194408E-023
 -1.410000000000000E-002   -1.500292655995647E-023
 -1.400000000000000E-002   -1.264593378365953E-023
 -1.390000000000000E-002   -7.004955895147159E-024
 -1.380000000000000E-002    1.861031872257286E-024
 -1.370000000000000E-002    1.322695359383668E-023
 -1.360000000000000E-002    2.563414406616371E-023
 -1.350000000000000E-002    3.694981803736620E-023
 -1.340000000000000E-002    4.458158866429014E-023
 -1.330000000000000E-002    4.585229424486452E-023
 -1.320000000000000E-002    3.850943479563054E-023
 -1.310000000000000E-002    2.130812917998597E-023
 -1.300000000000000E-002   -5.427268917678336E-024
 -1.290000000000000E-002   -3.938265358783278E-023
 -1.280000000000000E-002   -7.610258774280105E-023
 -1.270000000000000E-002   -1.092202540245983E-022
 -1.260000000000000E-002   -1.311385248434221E-022
 -1.250000000000000E-002   -1.341622261586460E-022
 -1.240000000000000E-002   -1.119907560370323E-022
 -1.230000000000000E-002   -6.138101652633372E-023
 -1.220000000000000E-002    1.629998752747157E-023
 -1.210000000000000E-002    1.139745201715076E-022
 -1.200000000000000E-002    2.185571958607551E-022
 -1.190000000000000E-002    3.117563298182697E-022
 -1.180000000000000E-002    3.721353690527688E-022
 -1.170000000000000E-002    3.783927741868289E-022
 -1.160000000000000E-002    3.135649743831671E-022
 -1.150000000000000E-002    1.695895063390319E-022
 -1.140000000000000E-002   -4.856624027147127E-023
 -1.130000000000000E-002   -3.201458370446111E-022
 -1.120000000000000E-002   -6.081430346903033E-022
 -1.110000000000000E-002   -8.618779499519325E-022
 -1.100000000000000E-002   -1.022958352058877E-021
 -1.090000000000000E-002   -1.034408089155271E-021
 -1.080000000000000E-002   -8.520626403667493E-022
 -1.070000000000000E-002   -4.566420388772363E-022
 -1.060000000000000E-002    1.356585153030484E-022
 -1.050000000000000E-002    8.665202964513368E-022
 -1.040000000000000E-002    1.635156436442757E-021
 -1.030000000000000E-002    2.306046539920233E-021
 -1.020000000000000E-002    2.725436503984239E-021
 -1.010000000000000E-002    2.745776454170832E-021
 -1.000000000000000E-002    2.255512647126886E-021
 -9.899999999999999E-003    1.209934735459051E-021
 -9.800000000000000E-003   -3.425630221629691E-022
 -9.699999999999999E-003   -2.245040681423334E-021
 -9.599999999999999E-003   -4.233178459454097E-021
 -9.500000000000000E-003   -5.957152131851680E-021
 -9.399999999999999E-003   -7.025415321700645E-021
 -9.299999999999999E-003   -7.067705012202538E-021
 -9.200000000000000E-003   -5.810226063658165E-021
 -9.099999999999999E-003   -3.151861985429438E-021
 -8.999999999999999E-003    7.727722979230226E-022
 -8.900000000000000E-003    5.558686766659333E-021
 -8.799999999999999E-003    1.053796962399175E-020
 -8.699999999999999E-003    1.483846757352226E-020
 -8.600000000000000E-003    1.749539107907613E-020
 -8.499999999999999E-003    1.760797039929921E-020
 -8.399999999999999E-003    1.452284546557519E-020
 -8.300000000000000E-003    8.016365776619278E-021
 -8.199999999999999E-003   -1.558607058280445E-021
 -8.100000000000000E-003   -1.319744920635895E-020
 -8.000000000000000E-003   -2.527142064111049E-020
 -7.899999999999999E-003   -3.567777896360722E-020
 -7.800000000000000E-003   -4.211371225093036E-020
 -7.699999999999999E-003   -4.245264379386308E-020
 -7.599999999999999E-003   -3.517728896992459E-020
 -7.499999999999999E-003   -1.980256280514584E-020
 -7.399999999999999E-003    2.792311843662954E-021
 -7.299999999999999E-003    3.020509973248212E-020
 -7.199999999999999E-003    5.859478411938439E-020
 -7.100000000000000E-003    8.304937187028740E-020
 -6.999999999999999E-003    9.823474882693359E-020
 -6.899999999999999E-003    9.926962219561809E-020
 -6.800000000000000E-003    8.271743509782926E-020
 -6.699999999999999E-003    4.753989005128614E-020
 -6.599999999999999E-003   -4.171123635499382E-021
 -6.499999999999999E-003   -6.686673125651341E-020
 -6.399999999999999E-003   -1.317695872518739E-019
 -6.299999999999999E-003   -1.877394071574925E-019
 -6.199999999999999E-003   -2.227589356208316E-019
 -6.100000000000000E-003   -2.259067279668428E-019
 -5.999999999999999E-003   -1.895652571384915E-019
 -5.899999999999999E-003   -1.115152890800325E-019
 -5.800000000000000E-003    3.487349954541416E-021
 -5.699999999999999E-003    1.430494848321006E-019
 -5.599999999999999E-003    2.877089651804429E-019
 -5.499999999999999E-003    4.128944956718342E-019
 -5.399999999999999E-003    4.922203545634567E-019
 -5.299999999999999E-003    5.018065127991562E-019
 -5.199999999999999E-003    4.250647664285649E-019
 -5.099999999999999E-003    2.571906275691476E-019
 -4.999999999999999E-003    8.495248251591060E-021
 -4.899999999999999E-003   -2.942597549118372E-019
 -4.799999999999999E-003   -6.091756799765526E-019
 -4.699999999999999E-003   -8.834904143347270E-019
 -4.599999999999999E-003   -1.060657849407048E-018
 -4.499999999999999E-003   -1.089547525065686E-018
 -4.399999999999999E-003   -9.345616756098508E-019
 -4.299999999999999E-003   -5.850617469295266E-019
 -4.199999999999999E-003   -6.229680246214600E-020
 -4.099999999999999E-003    5.778913622944590E-019
 -3.999999999999999E-003    1.247905500524605E-018
 -3.899999999999999E-003    1.837372385461138E-018
 -3.799999999999999E-003    2.227896974931692E-018
 -3.699999999999999E-003    2.312132992546424E-018
 -3.599999999999999E-003    2.014667526096456E-018
 -3.499999999999999E-003    1.311412906551682E-018
 -3.399999999999999E-003    2.438217763764802E-019
 -3.299999999999999E-003   -1.075557452780081E-018
 -3.199999999999999E-003   -2.468818311182746E-018
 -3.099999999999999E-003   -3.710886620417414E-018
 -2.999999999999999E-003   -4.559369358464824E-018
 -2.899999999999999E-003   -4.793083716438445E-018
 -2.799999999999999E-003   -4.254218123434059E-018
 -2.699999999999999E-003   -2.887501104272630E-018
 -2.599999999999999E-003   -7.690396992314599E-019
 -2.499999999999999E-003    1.882079690200347E-018
 -2.399999999999999E-003    4.714626068814375E-018
 -2.299999999999999E-003    7.280771089332599E-018
 -2.199999999999999E-003    9.094767868289804E-018
 -2.099999999999999E-003    9.708918556578063E-018
 -1.999999999999999E-003    8.796935764112694E-018
 -1.899999999999999E-003    6.231759072874947E-018
 -1.799999999999999E-003    2.143498984525671E-018
 -1.699999999999999E-003   -3.055970482472388E-018
 -1.599999999999999E-003   -8.691950054377738E-018
 -1.499999999999999E-003   -1.389393075278354E-017
 -1.399999999999999E-003   -1.770783241377881E-017
 -1.299999999999999E-003   -1.924239056325984E-017
 -1.199999999999999E-003   -1.783086921872043E-017
 -1.099999999999999E-003   -1.318336799661318E-017
 -9.999999999999989E-004   -5.502281531151546E-018
 -8.999999999999990E-004    4.465048211683668E-018
 -7.999999999999990E-004    1.545631267809058E-017
 -6.999999999999989E-004    2.581610316283311E-017
 -5.999999999999990E-004    3.370500874254519E-017
 -4.999999999999989E-004    3.737576626806919E-017
 -3.999999999999989E-004    3.548154255674018E-017
 -2.999999999999989E-004    2.737009678549025E-017
 -1.999999999999989E-004    1.331209147016242E-017
 -9.999999999999892E-005   -5.385884210847091E-018
  1.084202172485504E-018   -2.642198391744496E-017
  1.000000000000011E-004   -4.671264301803837E-017
  2.000000000000011E-004   -6.277242225816360E-017
  3.000000000000011E-004   -7.122473752178644E-017
  4.000000000000011E-004   -6.938035247331625E-017
  5.000000000000011E-004   -5.579867417385005E-017
  6.000000000000011E-004   -3.073575344161140E-017
  7.000000000000011E-004    3.614198084315043E-018
  8.000000000000011E-004    4.315798924950841E-017
  9.000000000000012E-004    8.226318722405202E-017
  1.000000000000001E-003    1.144316501321307E-016
  1.100000000000001E-003    1.332270439934470E-016
  1.200000000000001E-003    1.333448000921576E-016
  1.300000000000001E-003    1.116711489577765E-016
  1.400000000000001E-003    6.815488198572721E-017
  1.500000000000001E-003    6.317678880903633E-018
  1.600000000000001E-003   -6.673962737858827E-017
  1.700000000000001E-003   -1.409177196673578E-016
  1.800000000000001E-003   -2.042857813927333E-016
  1.900000000000001E-003   -2.447379066038109E-016
  2.000000000000001E-003   -2.519458981678952E-016
  2.100000000000001E-003   -2.193358965724617E-016
  2.200000000000001E-003   -1.457686071652059E-016
  2.300000000000001E-003   -3.660053016914039E-017
  2.400000000000001E-003    9.614666057709288E-017
  2.500000000000001E-003    2.346787350634926E-016
  2.600000000000001E-003    3.574067737158113E-016
  2.700000000000001E-003    4.418599507131057E-016
  2.800000000000001E-003    4.682058034113490E-016
  2.900000000000001E-003    4.228996025106160E-016
  3.000000000000001E-003    3.018877365981080E-016
  3.100000000000001E-003    1.127716091313916E-016
  3.200000000000001E-003   -1.245847399117319E-016
  3.300000000000001E-003   -3.793479449930384E-016
  3.400000000000001E-003   -6.129977907234726E-016
  3.500000000000001E-003   -7.843770864121909E-016
  3.600000000000001E-003   -8.559627655086477E-016
  3.700000000000001E-003   -8.005289122573502E-016
  3.800000000000001E-003   -6.071776486780619E-016
  3.900000000000001E-003   -2.856567767546066E-016
  4.000000000000001E-003    1.320052914338847E-016
  4.100000000000001E-003    5.932316962117654E-016
  4.200000000000001E-003    1.030237648777044E-015
  4.300000000000001E-003    1.368670230350873E-015
  4.400000000000001E-003    1.538651989052678E-015
  4.500000000000001E-003    1.486803361757376E-015
  4.600000000000002E-003    1.187438196535497E-015
  4.700000000000001E-003    6.509827964076429E-016
  4.800000000000001E-003   -7.217904495077774E-017
  4.900000000000002E-003   -8.937628047947372E-016
  5.000000000000001E-003   -1.696112096044197E-015
  5.100000000000001E-003   -2.346801097329163E-015
  5.200000000000001E-003   -2.717860682232774E-015
  5.300000000000002E-003   -2.707202179665554E-015
  5.400000000000001E-003   -2.259084450874216E-015
  5.500000000000001E-003   -1.380147214354654E-015
  5.600000000000002E-003   -1.477257734777532E-016
  5.700000000000001E-003    1.292071821467059E-015
  5.800000000000001E-003    2.737755623217594E-015
  5.900000000000002E-003    3.956855554475625E-015
  6.000000000000001E-003    4.719009399180162E-015
  6.100000000000001E-003    4.833643773870848E-015
  6.200000000000002E-003    4.186793045586141E-015
  6.300000000000002E-003    2.770922016957249E-015
  6.400000000000001E-003    7.018534741230353E-016
  6.500000000000001E-003   -1.781873729440924E-015
  6.600000000000002E-003   -4.339705818138044E-015
  6.700000000000001E-003   -6.569414944723625E-015
  6.800000000000001E-003   -8.063381996802842E-015
  6.900000000000002E-003   -8.473978661668375E-015
  7.000000000000001E-003   -7.578698619805760E-015
  7.100000000000001E-003   -5.334382983698253E-015
  7.200000000000002E-003   -1.910093500220463E-015
  7.300000000000002E-003    2.309820195978639E-015
  7.400000000000001E-003    6.757262946871992E-015
  7.500000000000001E-003    1.074638091977721E-014
  7.600000000000002E-003    1.356815007957447E-014
  7.700000000000001E-003    1.460221417247265E-014
  7.800000000000001E-003    1.343016844634368E-014
  7.900000000000001E-003    9.931973982130383E-015
  8.000000000000002E-003    4.347389720858494E-015
  8.100000000000001E-003   -2.712565249569817E-015
  8.200000000000001E-003   -1.031300785029441E-014
  8.300000000000002E-003   -1.730194261586738E-014
  8.400000000000001E-003   -2.246721928965239E-014
  8.500000000000002E-003   -2.472502453966928E-014
  8.600000000000002E-003   -2.331349349021457E-014
  8.700000000000001E-003   -1.796051639760579E-014
  8.800000000000002E-003   -8.994771093685485E-015
  8.900000000000002E-003    2.625912164843614E-015
  9.000000000000001E-003    1.538477902379983E-014
  9.100000000000002E-003    2.737688055433930E-014
  9.200000000000002E-003    3.656603088071074E-014
  9.300000000000001E-003    4.109765275676675E-014
  9.400000000000002E-003    3.962390190116952E-014
  9.500000000000001E-003    3.158964164028791E-014
  9.600000000000001E-003    1.742736928436995E-014
  9.700000000000002E-003   -1.382824260684158E-015
  9.800000000000001E-003   -2.241584704191075E-014
  9.900000000000001E-003   -4.257139074348695E-014
  1.000000000000000E-002   -5.848875124004826E-014
  1.010000000000000E-002   -6.705791316734184E-014
  1.020000000000000E-002   -6.595603307308655E-014
  1.030000000000000E-002   -5.412503991492986E-014
  1.040000000000000E-002   -3.210492752682173E-014
  1.050000000000000E-002   -2.149885763477710E-015
  1.060000000000000E-002    3.191937051940299E-014
  1.070000000000000E-002    6.513649258763317E-014
  1.080000000000000E-002    9.204956991968854E-014
  1.090000000000000E-002    1.075429393899654E-013
  1.100000000000000E-002    1.077070826607830E-013
  1.110000000000000E-002    9.062103703773676E-014
  1.120000000000000E-002    5.690895110113942E-014
  1.130000000000000E-002    9.952342606478734E-015
  1.140000000000000E-002   -4.431885913183990E-014
  1.150000000000000E-002   -9.807410962866458E-014
  1.160000000000000E-002   -1.426169643283708E-013
  1.170000000000000E-002   -1.696855059735780E-013
  1.180000000000000E-002   -1.728390304462957E-013
  1.190000000000000E-002   -1.487162350765386E-013
  1.200000000000000E-002   -9.794494052536556E-014
  1.210000000000000E-002   -2.551417551627336E-014
  1.220000000000000E-002    5.951545849086188E-014
  1.230000000000000E-002    1.449942616115194E-013
  1.240000000000000E-002    2.172806330635809E-013
  1.250000000000000E-002    2.632658385297638E-013
  1.260000000000000E-002    2.725476814718616E-013
  1.270000000000000E-002    2.394181248428965E-013
  1.280000000000000E-002    1.643212096929737E-013
  1.290000000000000E-002    5.448477666838840E-014
  1.300000000000000E-002   -7.647089762173310E-014
  1.310000000000000E-002   -2.100000347621861E-013
  1.320000000000000E-002   -3.250581549148488E-013
  1.330000000000000E-002   -4.012041636396185E-013
  1.340000000000000E-002   -4.219516432115564E-013
  1.350000000000000E-002   -3.778559227370574E-013
  1.360000000000000E-002   -2.688084600418553E-013
  1.370000000000000E-002   -1.050812426353592E-013
  1.380000000000000E-002    9.318482325801193E-014
  1.390000000000000E-002    2.981346422022331E-013
  1.400000000000000E-002    4.778279316382712E-013
  1.410000000000000E-002    6.009166670438135E-013
  1.420000000000000E-002    6.417302208903519E-013
  1.430000000000000E-002    5.849929775070034E-013
  1.440000000000000E-002    4.293755280199587E-013
  1.450000000000000E-002    1.891843323279863E-013
  1.460000000000000E-002   -1.062777982533887E-013
  1.470000000000000E-002   -4.158227277649885E-013
  1.480000000000000E-002   -6.917172881630093E-013
  1.490000000000000E-002   -8.866272255960701E-013
  1.500000000000000E-002   -9.612154923985398E-013
  1.510000000000000E-002   -8.912434556519296E-013
  1.520000000000000E-002   -6.729848159014271E-013
  1.530000000000000E-002   -3.259127036284656E-013
  1.540000000000000E-002    1.080475918271824E-013
  1.550000000000000E-002    5.689268014402576E-013
  1.560000000000000E-002    9.864433627269790E-013
  1.570000000000000E-002    1.290153345117274E-012
  1.580000000000000E-002    1.420636972169214E-012
  1.590000000000000E-002    1.340036138299400E-012
  1.600000000000000E-002    1.040196227181727E-012
  1.610000000000000E-002    5.468772593961169E-013
  1.620000000000000E-002   -8.101952479295332E-014
  1.630000000000000E-002   -7.575712609871191E-013
  1.640000000000000E-002   -1.380838829046851E-012
  1.650000000000000E-002   -1.847474995214203E-012
  1.660000000000000E-002   -2.068953722054454E-012
  1.670000000000000E-002   -1.986991523020309E-012
  1.680000000000000E-002   -1.585634315799421E-012
  1.690000000000000E-002   -8.977727577482601E-013
  1.700000000000000E-002   -4.529786747886973E-015
  1.710000000000000E-002    9.730460116861253E-013
  1.720000000000000E-002    1.889376688534890E-012
  1.730000000000000E-002    2.595053441723520E-012
  1.740000000000000E-002    2.960043283733569E-012
  1.750000000000000E-002    2.895955700213134E-012
  1.760000000000000E-002    2.373758784045570E-012
  1.770000000000000E-002    1.433728873847617E-012
  1.780000000000000E-002    1.853611615514287E-013
  1.790000000000000E-002   -1.203643327731125E-012
  1.800000000000000E-002   -2.528550012048885E-012
  1.810000000000000E-002   -3.576476768254630E-012
  1.820000000000000E-002   -4.159118332563281E-012
  1.830000000000000E-002   -4.144481405548855E-012
  1.840000000000000E-002   -3.482539268253865E-012
  1.850000000000000E-002   -2.220236119240681E-012
  1.860000000000000E-002   -5.025501758794172E-013
  1.870000000000000E-002    1.441751701271092E-012