 -4.000000000000000E-002    0.000000000000000E+000
 -3.990000000000000E-002    0.000000000000000E+000
 -3.980000000000000E-002    0.000000000000000E+000
 -3.970000000000000E-002    0.000000000000000E+000
 -3.960000000000000E-002    0.000000000000000E+000
 -3.950000000000000E-002    0.000000000000000E+000
 -3.940000000000000E-002    0.000000000000000E+000
 -3.930000000000000E-002    0.000000000000000E+000
 -3.920000000000000E-002    0.000000000000000E+000
 -3.910000000000000E-002    0.000000000000000E+000
 -3.900000000000000E-002    0.000000000000000E+000
 -3.890000000000000E-002    0.000000000000000E+000
 -3.880000000000000E-002    0.000000000000000E+000
 -3.870000000000000E-002    0.000000000000000E+000
 -3.860000000000000E-002    0.000000000000000E+000
 -3.850000000000000E-002    0.000000000000000E+000
 -3.840000000000000E-002    0.000000000000000E+000
 -3.830000000000000E-002    0.000000000000000E+000
 -3.820000000000000E-002    0.000000000000000E+000
 -3.810000000000000E-002    0.000000000000000E+000
 -3.800000000000000E-002    0.000000000000000E+000
 -3.790000000000000E-002    0.000000000000000E+000
 -3.780000000000000E-002    0.000000000000000E+000
 -3.770000000000000E-002    0.000000000000000E+000
 -3.760000000000000E-002    0.000000000000000E+000
 -3.750000000000000E-002    0.000000000000000E+000
 -3.740000000000000E-002    0.000000000000000E+000
 -3.730000000000000E-002    0.000000000000000E+000
 -3.720000000000000E-002    0.000000000000000E+000
 -3.710000000000000E-002    0.000000000000000E+000
 -3.700000000000000E-002    0.000000000000000E+000
 -3.690000000000000E-002    0.000000000000000E+000
 -3.680000000000000E-002    0.000000000000000E+000
 -3.670000000000000E-002    0.000000000000000E+000
 -3.660000000000000E-002    0.000000000000000E+000
 -3.650000000000000E-002    0.000000000000000E+000
 -3.640000000000000E-002    0.000000000000000E+000
 -3.630000000000000E-002    0.000000000000000E+000
 -3.620000000000000E-002    0.000000000000000E+000
 -3.610000000000000E-002    0.000000000000000E+000
 -3.600000000000000E-002    0.000000000000000E+000
 -3.590000000000000E-002    0.000000000000000E+000
 -3.580000000000000E-002    0.000000000000000E+000
 -3.570000000000000E-002    0.000000000000000E+000
 -3.560000000000000E-002    0.000000000000000E+000
 -3.550000000000000E-002    0.000000000000000E+000
 -3.540000000000000E-002    0.000000000000000E+000
 -3.530000000000000E-002    0.000000000000000E+000
 -3.520000000000000E-002    0.000000000000000E+000
 -3.510000000000000E-002    0.000000000000000E+000
 -3.500000000000000E-002    0.000000000000000E+000
 -3.490000000000000E-002    0.000000000000000E+000
 -3.480000000000000E-002    0.000000000000000E+000
 -3.470000000000000E-002    0.000000000000000E+000
 -3.460000000000000E-002    0.000000000000000E+000
 -3.450000000000000E-002    0.000000000000000E+000
 -3.440000000000000E-002    0.000000000000000E+000
 -3.430000000000000E-002    0.000000000000000E+000
 -3.420000000000000E-002    0.000000000000000E+000
 -3.410000000000000E-002    0.000000000000000E+000
 -3.400000000000000E-002    0.000000000000000E+000
 -3.390000000000000E-002    0.000000000000000E+000
 -3.380000000000000E-002    0.000000000000000E+000
 -3.370000000000000E-002    0.000000000000000E+000
 -3.360000000000000E-002    0.000000000000000E+000
 -3.350000000000000E-002    0.000000000000000E+000
 -3.340000000000000E-002    0.000000000000000E+000
 -3.330000000000000E-002    0.000000000000000E+000
 -3.320000000000000E-002    0.000000000000000E+000
 -3.310000000000000E-002    0.000000000000000E+000
 -3.300000000000000E-002    0.000000000000000E+000
 -3.290000000000000E-002    0.000000000000000E+000
 -3.280000000000000E-002    0.000000000000000E+000
 -3.270000000000000E-002    0.000000000000000E+000
 -3.260000000000000E-002    0.000000000000000E+000
 -3.250000000000000E-002    0.000000000000000E+000
 -3.240000000000000E-002    0.000000000000000E+000
 -3.230000000000000E-002    0.000000000000000E+000
 -3.220000000000000E-002    0.000000000000000E+000
 -3.210000000000000E-002    0.000000000000000E+000
 -3.200000000000000E-002    0.000000000000000E+000
 -3.190000000000000E-002    0.000000000000000E+000
 -3.180000000000000E-002    0.000000000000000E+000
 -3.170000000000000E-002    0.000000000000000E+000
 -3.160000000000000E-002    0.000000000000000E+000
 -3.150000000000000E-002    0.000000000000000E+000
 -3.140000000000000E-002    0.000000000000000E+000
 -3.130000000000000E-002    0.000000000000000E+000
 -3.120000000000000E-002    0.000000000000000E+000
 -3.110000000000000E-002    0.000000000000000E+000
 -3.100000000000000E-002    0.000000000000000E+000
 -3.090000000000000E-002    0.000000000000000E+000
 -3.080000000000000E-002    0.000000000000000E+000
 -3.070000000000000E-002    0.000000000000000E+000
 -3.060000000000000E-002    0.000000000000000E+000
 -3.050000000000000E-002    0.000000000000000E+000
 -3.040000000000000E-002    0.000000000000000E+000
 -3.030000000000000E-002    0.000000000000000E+000
 -3.020000000000000E-002    0.000000000000000E+000
 -3.010000000000000E-002    0.000000000000000E+000
 -3.000000000000000E-002    0.000000000000000E+000
 -2.990000000000000E-002    0.000000000000000E+000
 -2.980000000000000E-002    0.000000000000000E+000
 -2.970000000000000E-002    0.000000000000000E+000
 -2.960000000000000E-002   -1.924390591266381E-047
 -2.950000000000000E-002   -3.848781182532762E-047
 -2.940000000000000E-002   -3.848781182532762E-047
 -2.930000000000000E-002   -3.848781182532762E-047
 -2.920000000000000E-002    0.000000000000000E+000
 -2.910000000000000E-002    8.980489425909777E-048
 -2.900000000000000E-002   -5.003415537292590E-047
 -2.890000000000000E-002    4.510265978388825E-047
 -2.880000000000000E-002    8.487339867006012E-047
 -2.870000000000000E-002    6.306363863570781E-047
 -2.860000000000000E-002    4.295471702502050E-046
 -2.850000000000000E-002    6.660546434107539E-046
 -2.840000000000000E-002    1.330265242304156E-045
 -2.830000000000000E-002    1.473862101239002E-045
 -2.820000000000000E-002    1.450292408514421E-045
 -2.810000000000000E-002    1.977662131639796E-046
 -2.800000000000000E-002   -2.975077195858234E-045
 -2.790000000000000E-002   -8.911710121552799E-045
 -2.780000000000000E-002   -1.799361326583755E-044
 -2.770000000000000E-002   -3.048514438923383E-044
 -2.760000000000000E-002   -4.434489624770544E-044
 -2.750000000000000E-002   -5.605989115196125E-044
 -2.740000000000000E-002   -5.959611488622907E-044
 -2.730000000000000E-002   -4.408401600296288E-044
 -2.720000000000000E-002    5.352286208798140E-045
 -2.710000000000000E-002    1.060809093860951E-043
 -2.700000000000000E-002    2.733063192848712E-043
 -2.690000000000000E-002    5.156920176906863E-043
 -2.680000000000000E-002    8.193751005099463E-043
 -2.670000000000000E-002    1.137412452505011E-042
 -2.660000000000000E-002    1.367070428794677E-042
 -2.650000000000000E-002    1.335668251400316E-042
 -2.640000000000000E-002    7.970133926796409E-043
 -2.630000000000000E-002   -5.565869199246736E-043
 -2.620000000000000E-002   -3.042270262934642E-042
 -2.610000000000000E-002   -6.880935477684702E-042
 -2.600000000000000E-002   -1.203478715415945E-041
 -2.590000000000000E-002   -1.797601112726835E-041
 -2.580000000000000E-002   -2.342214175399367E-041
 -2.570000000000000E-002   -2.607868631394845E-041
 -2.560000000000000E-002   -2.251054865309510E-041
 -2.550000000000000E-002   -8.271533767704976E-042
 -2.540000000000000E-002    2.150948329256705E-041
 -2.530000000000000E-002    7.088893390306472E-041
 -2.520000000000000E-002    1.410753320699890E-040
 -2.510000000000000E-002    2.275804344910213E-040
 -2.500000000000000E-002    3.168261373587707E-040
 -2.490000000000000E-002    3.828301976808442E-040
 -2.480000000000000E-002    3.851265127675460E-040
 -2.470000000000000E-002    2.695885350556236E-040
 -2.460000000000000E-002   -2.574928419658532E-041
 -2.450000000000000E-002   -5.576856191574982E-040
 -2.440000000000000E-002   -1.356013720901530E-039
 -2.430000000000000E-002   -2.392706198399573E-039
 -2.420000000000000E-002   -3.544640584339556E-039
 -2.410000000000000E-002   -4.556361635468915E-039
 -2.400000000000000E-002   -5.014357973126603E-039
 -2.390000000000000E-002   -4.349514715582896E-039
 -2.380000000000000E-002   -1.888407923500783E-039
 -2.370000000000000E-002    3.025269645790780E-039
 -2.360000000000000E-002    1.082319996109110E-038
 -2.350000000000000E-002    2.141698868564269E-038
 -2.340000000000000E-002    3.383787985488402E-038
 -2.330000000000000E-002    4.587071793572756E-038
 -2.320000000000000E-002    5.378557851152836E-038
 -2.310000000000000E-002    5.231551868517433E-038
 -2.300000000000000E-002    3.506248583566748E-038
 -2.290000000000000E-002   -4.483556243463481E-039
 -2.280000000000000E-002   -7.117506239239968E-038
 -2.270000000000000E-002   -1.656712339126206E-037
 -2.260000000000000E-002   -2.813290453230167E-037
 -2.250000000000000E-002   -4.010094741319707E-037
 -2.240000000000000E-002   -4.946420052251728E-037
 -2.230000000000000E-002   -5.187430790073985E-037
 -2.220000000000000E-002   -4.193331977792512E-037
 -2.210000000000000E-002   -1.397029270281332E-037
 -2.200000000000000E-002    3.659204687384650E-037
 -2.190000000000000E-002    1.112703969422249E-036
 -2.180000000000000E-002    2.061027615519981E-036
 -2.170000000000000E-002    3.091479626242250E-036
 -2.160000000000000E-002    3.985303336620283E-036
 -2.150000000000000E-002    4.419062849769777E-036
 -2.140000000000000E-002    3.983950619075343E-036
 -2.130000000000000E-002    2.240027068121057E-036
 -2.120000000000000E-002   -1.187362195595438E-036
 -2.110000000000000E-002   -6.468556104060462E-036
 -2.100000000000000E-002   -1.339866864685617E-035
 -2.090000000000000E-002   -2.122053201367871E-035
 -2.080000000000000E-002   -2.848437637054588E-035
 -2.070000000000000E-002   -3.300324312278302E-035
 -2.060000000000000E-002   -3.197295707910789E-035
 -2.050000000000000E-002   -2.232321696033162E-035
 -2.040000000000000E-002   -1.344855406405723E-036
 -2.030000000000000E-002    3.240710794753827E-035
 -2.020000000000000E-002    7.800718793028884E-035
 -2.010000000000000E-002    1.310166758831525E-034
 -2.000000000000000E-002    1.825765660602882E-034
 -1.990000000000000E-002    2.191023961889657E-034
 -1.980000000000000E-002    2.230008237510929E-034
 -1.970000000000000E-002    1.748022228481694E-034
 -1.960000000000000E-002    5.696206551223240E-035
 -1.950000000000000E-002   -1.406974181943988E-034
 -1.940000000000000E-002   -4.143695825265385E-034
 -1.930000000000000E-002   -7.394836146945990E-034
 -1.920000000000000E-002   -1.065374244908868E-033
 -1.910000000000000E-002   -1.313522281031354E-033
 -1.900000000000000E-002   -1.381741618714488E-033
 -1.890000000000000E-002   -1.156467396063158E-033
 -1.880000000000000E-002   -5.344440534000307E-034
 -1.870000000000000E-002    5.465542580918802E-034
 -1.860000000000000E-002    2.070774663536692E-033
 -1.850000000000000E-002    3.907122421711638E-033
 -1.840000000000000E-002    5.780362283939379E-033
 -1.830000000000000E-002    7.262421580172292E-033
 -1.820000000000000E-002    7.796353675464158E-033
 -1.810000000000000E-002    6.764007641396860E-033
 -1.800000000000000E-002    3.603371550147417E-033
 -1.790000000000000E-002   -2.027502600722483E-033
 -1.780000000000000E-002   -1.005603150007697E-032
 -1.770000000000000E-002   -1.980169630368981E-032
 -1.760000000000000E-002   -2.983092377943587E-032
 -1.750000000000000E-002   -3.791946086478405E-032
 -1.740000000000000E-002   -4.118509762169255E-032
 -1.730000000000000E-002   -3.644356177117194E-032
 -1.720000000000000E-002   -2.081304446751145E-032
 -1.710000000000000E-002    7.454229730328272E-033
 -1.700000000000000E-002    4.800018806516991E-032
 -1.690000000000000E-002    9.741092029579896E-032
 -1.680000000000000E-002    1.485242732406837E-031
 -1.670000000000000E-002    1.902832638156580E-031
 -1.660000000000000E-002    2.084329793948556E-031
 -1.650000000000000E-002    1.873010625058760E-031
 -1.640000000000000E-002    1.127619068740784E-031
 -1.630000000000000E-002   -2.374647632045355E-032
 -1.620000000000000E-002   -2.205924024689339E-031
 -1.610000000000000E-002   -4.614954666338867E-031
 -1.600000000000000E-002   -7.123616485264817E-031
 -1.590000000000000E-002   -9.207420293338378E-031
 -1.580000000000000E-002   -1.019255824079920E-030
 -1.570000000000000E-002   -9.340179209728737E-031
 -1.560000000000000E-002   -5.984361125523083E-031
 -1.550000000000000E-002    2.832806696365349E-032
 -1.540000000000000E-002    9.403275897722213E-031
 -1.530000000000000E-002    2.064848193260709E-030
 -1.520000000000000E-002    3.248483083663594E-030
 -1.510000000000000E-002    4.255124533113119E-030
 -1.500000000000000E-002    4.781624779223266E-030
 -1.490000000000000E-002    4.495430221722764E-030
 -1.480000000000000E-002    3.095409797503686E-030
 -1.470000000000000E-002    3.924317465504628E-031
 -1.460000000000000E-002   -3.599688652336021E-030
 -1.450000000000000E-002   -8.578629888065730E-030
 -1.440000000000000E-002   -1.389470619248751E-029
 -1.430000000000000E-002   -1.854319382565823E-029
 -1.420000000000000E-002   -2.123136118753543E-029
 -1.410000000000000E-002   -2.053712973136060E-029
 -1.400000000000000E-002   -1.516315835119777E-029
 -1.390000000000000E-002   -4.270654925441792E-030
 -1.380000000000000E-002    1.214675940300212E-029
 -1.370000000000000E-002    3.291415921701539E-029
 -1.360000000000000E-002    5.543762227320391E-029
 -1.350000000000000E-002    7.567506663582893E-029
 -1.340000000000000E-002    8.840724846736429E-029
 -1.330000000000000E-002    8.787211703017434E-029
 -1.320000000000000E-002    6.877277537657619E-029
 -1.310000000000000E-002    2.759234278736447E-029
 -1.300000000000000E-002   -3.594446877621323E-029
 -1.290000000000000E-002   -1.175177249159696E-028
 -1.280000000000000E-002   -2.072993377066047E-028
 -1.270000000000000E-002   -2.898496753323563E-028
 -1.260000000000000E-002   -3.451632389318343E-028
 -1.250000000000000E-002   -3.510893368574621E-028
 -1.240000000000000E-002   -2.871472436979186E-028
 -1.230000000000000E-002   -1.394655567441756E-028
 -1.220000000000000E-002    9.376736684111052E-029
 -1.210000000000000E-002    3.972997894600177E-028
 -1.200000000000000E-002    7.354838038350826E-028
 -1.190000000000000E-002    1.051951414585538E-027
 -1.180000000000000E-002    1.273501022884464E-027
 -1.170000000000000E-002    1.318961596554688E-027
 -1.160000000000000E-002    1.113035827632741E-027
 -1.150000000000000E-002    6.040809110939730E-028
 -1.140000000000000E-002   -2.164343641844076E-028
 -1.130000000000000E-002   -1.296233011134041E-027
 -1.120000000000000E-002   -2.510630548246329E-027
 -1.110000000000000E-002   -3.661672344115162E-027
 -1.100000000000000E-002   -4.492097648847260E-027
 -1.090000000000000E-002   -4.716605569816323E-027
 -1.080000000000000E-002   -4.070200683379106E-027
 -1.070000000000000E-002   -2.369752344475029E-027
 -1.060000000000000E-002    4.192015325086206E-028
 -1.050000000000000E-002    4.122309870379517E-027
 -1.040000000000000E-002    8.317654120403905E-027
 -1.030000000000000E-002    1.233390362103457E-026
 -1.020000000000000E-002    1.529873822625016E-026
 -1.010000000000000E-002    1.624523150241911E-026
 -1.000000000000000E-002    1.427465712197381E-026
 -9.899999999999999E-003    8.762070630251194E-027
 -9.800000000000000E-003   -4.224268844805098E-028
 -9.699999999999999E-003   -1.271634383121341E-026
 -9.599999999999999E-003   -2.673971139987941E-026
 -9.500000000000000E-003   -4.029221756305712E-026
 -9.399999999999999E-003   -5.051474514145934E-026
 -9.299999999999999E-003   -5.423827870165817E-026
 -9.200000000000000E-003   -4.851290962973068E-026
 -9.099999999999999E-003   -3.127080915087656E-026
 -8.999999999999999E-003   -2.034596585623938E-027
 -8.900000000000000E-003    3.745607443797630E-026
 -8.799999999999999E-003    8.285231317389619E-026
 -8.699999999999999E-003    1.271940204974900E-025
 -8.600000000000000E-003    1.614266282911311E-025
 -8.499999999999999E-003    1.755030521529103E-025
 -8.399999999999999E-003    1.600417179006137E-025
 -8.300000000000000E-003    1.083913939810108E-025
 -8.199999999999999E-003    1.882414597801511E-026
 -8.100000000000000E-003   -1.035370898948401E-025
 -8.000000000000000E-003   -2.455222582420372E-025
 -7.899999999999999E-003   -3.859182185965867E-025
 -7.800000000000000E-003   -4.970524415923818E-025
 -7.699999999999999E-003   -5.481435046182999E-025
 -7.599999999999999E-003   -5.103129275367894E-025
 -7.499999999999999E-003   -3.627958171750256E-025
 -7.399999999999999E-003   -9.950504776553160E-026
 -7.299999999999999E-003    2.652244968495108E-025
 -7.199999999999999E-003    6.930874055775668E-025
 -7.100000000000000E-003    1.121819469839528E-024
 -6.999999999999999E-003    1.469856582360649E-024
 -6.899999999999999E-003    1.646147163890763E-024
 -6.800000000000000E-003    1.564773449552777E-024
 -6.699999999999999E-003    1.162997872697704E-024
 -6.599999999999999E-003    4.202668418853441E-025
 -6.499999999999999E-003   -6.252132643007912E-025
 -6.399999999999999E-003   -1.866250454994670E-024
 -6.299999999999999E-003   -3.126642400602079E-024
 -6.199999999999999E-003   -4.174363345638653E-024
 -6.100000000000000E-003   -4.749301273355121E-024
 -5.999999999999999E-003   -4.604476971471519E-024
 -5.899999999999999E-003   -3.556760262703477E-024
 -5.800000000000000E-003   -1.540123972778396E-024
 -5.699999999999999E-003    1.348011935207373E-024
 -5.599999999999999E-003    4.818173780875590E-024
 -5.499999999999999E-003    8.388491346111701E-024
 -5.399999999999999E-003    1.142072659124207E-023
 -5.299999999999999E-003    1.319610658426664E-023
 -5.199999999999999E-003    1.302780719236515E-023
 -5.099999999999999E-003    1.039902422270051E-023
 -4.999999999999999E-003    5.107637494609000E-024
 -4.899999999999999E-003   -2.608070527679882E-024
 -4.799999999999999E-003   -1.199164100049507E-023
 -4.699999999999999E-003   -2.176653376384221E-023
 -4.599999999999999E-003   -3.023127898427890E-023
 -4.499999999999999E-003   -3.546034744009180E-023
 -4.399999999999999E-003   -3.560177023117300E-023
 -4.299999999999999E-003   -2.924189297017315E-023
 -4.199999999999999E-003   -1.578697815931198E-023
 -4.099999999999999E-003    4.205296627674943E-024
 -3.999999999999999E-003    2.881985216338933E-023
 -3.899999999999999E-003    5.477574032000455E-023
 -3.799999999999999E-003    7.766919813607259E-023
 -3.699999999999999E-003    9.248953046108493E-023
 -3.599999999999999E-003    9.438357320829311E-023
 -3.499999999999999E-003    7.959189657338450E-023
 -3.399999999999999E-003    4.642776163615583E-023
 -3.299999999999999E-003   -3.871685469945035E-024
 -3.199999999999999E-003   -6.661260373740898E-023
 -3.099999999999999E-003   -1.336108013684241E-022
 -2.999999999999999E-003   -1.937917184409116E-022
 -2.899999999999999E-003   -2.344751532067988E-022
 -2.799999999999999E-003   -2.432825232901498E-022
 -2.699999999999999E-003   -2.104736967270009E-022
 -2.599999999999999E-003   -1.313915158228823E-022
 -2.499999999999999E-003   -8.593162983500055E-024
 -2.399999999999999E-003    1.468017388428424E-022
 -2.299999999999999E-003    3.149880946150554E-022
 -2.199999999999999E-003    4.689039028084126E-022
 -2.099999999999999E-003    5.773336199182762E-022
 -1.999999999999999E-003    6.095314253363355E-022
 -1.899999999999999E-003    5.408950995222839E-022
 -1.799999999999999E-003    3.589133214990782E-022
 -1.699999999999999E-003    6.837157892391755E-023
 -1.599999999999999E-003   -3.053076654708133E-022
 -1.499999999999999E-003   -7.156469607702649E-022
 -1.399999999999999E-003   -1.098394795494417E-021
 -1.299999999999999E-003   -1.378794255376129E-021
 -1.199999999999999E-003   -1.482476879179628E-021
 -1.099999999999999E-003   -1.348871375957739E-021
 -9.999999999999989E-004   -9.453046563588197E-022
 -8.999999999999990E-004   -2.794159050143849E-022
 -7.999999999999990E-004    5.927429248660292E-022
 -6.999999999999989E-004    1.565380732639773E-021
 -5.999999999999990E-004    2.490226272984475E-021
 -4.999999999999989E-004    3.193050646772497E-021
 -3.999999999999989E-004    3.498629854640737E-021
 -2.999999999999989E-004    3.261610021921234E-021
 -1.999999999999989E-004    2.399114098577609E-021
 -9.999999999999892E-005    9.196545838127290E-022
  1.084202172485504E-018   -1.057625687642615E-021
  1.000000000000011E-004   -3.298998295506405E-021
  2.000000000000011E-004   -5.471609794776718E-021
  3.000000000000011E-004   -7.179948530980180E-021
  4.000000000000011E-004   -8.021515972004596E-021
  5.000000000000011E-004   -7.656093351505003E-021
  6.000000000000011E-004   -5.879335178853275E-021
  7.000000000000011E-004   -2.688615191262817E-021
  8.000000000000011E-004    1.672201637378915E-021
  9.000000000000012E-004    6.701557250015782E-021
  1.000000000000001E-003    1.167183484661964E-020
  1.100000000000001E-003    1.570751768052432E-020
  1.200000000000001E-003    1.790614864235618E-020
  1.300000000000001E-003    1.748998587037360E-020
  1.400000000000001E-003    1.396832455152871E-020
  1.500000000000001E-003    7.284249679563337E-021
  1.600000000000001E-003   -2.083159378597270E-021
  1.700000000000001E-003   -1.308848309148324E-020
  1.800000000000001E-003   -2.418187397357441E-020
  1.900000000000001E-003   -3.347171786931801E-020
  2.000000000000001E-003   -3.898073670923780E-020
  2.100000000000001E-003   -3.897025703361465E-020
  2.200000000000001E-003   -3.229033556055349E-020
  2.300000000000001E-003   -1.870022174228900E-020
  2.400000000000001E-003    9.026473598704591E-022
  2.500000000000001E-003    2.440350110332216E-020
  2.600000000000001E-003    4.858521583041593E-020
  2.700000000000001E-003    6.945686193310876E-020
  2.800000000000001E-003    8.278222751706883E-020
  2.900000000000001E-003    8.475717488285631E-020
  3.000000000000001E-003    7.274885818066818E-020
  3.100000000000001E-003    4.598169501069634E-020
  3.200000000000001E-003    6.041347528507221E-021
  3.300000000000001E-003   -4.292603493719344E-020
  3.400000000000001E-003   -9.441378720965219E-020
  3.500000000000001E-003   -1.401980166831146E-019
  3.600000000000001E-003   -1.714009184379508E-019
  3.700000000000001E-003   -1.798737617692854E-019
  3.800000000000001E-003   -1.597252103033031E-019
  3.900000000000001E-003   -1.087616928123728E-019
  4.000000000000001E-003   -2.957694411755292E-020
  4.100000000000001E-003    6.996285099042406E-020
  4.200000000000001E-003    1.770366536687656E-019
  4.300000000000001E-003    2.750880569209946E-019
  4.400000000000001E-003    3.459111528874478E-019
  4.500000000000001E-003    3.724119480209130E-019
  4.600000000000002E-003    3.417043863827112E-019
  4.700000000000001E-003    2.480788480967562E-019
  4.800000000000001E-003    9.531587358712324E-020
  4.900000000000002E-003   -1.021686360180999E-019
  5.000000000000001E-003   -3.197583649666157E-019
  5.100000000000001E-003   -5.248711457537483E-019
  5.200000000000001E-003   -6.809486444394560E-019
  5.300000000000002E-003   -7.528520968789421E-019
  5.400000000000001E-003   -7.130125959681298E-019
  5.500000000000001E-003   -5.474392783371579E-019
  5.600000000000002E-003   -2.605480305700766E-019
  5.700000000000001E-003    1.222140849568781E-019
  5.800000000000001E-003    5.547898613529191E-019
  5.900000000000002E-003    9.744568339794937E-019
  6.000000000000001E-003    1.309270462987877E-018
  6.100000000000001E-003    1.488386642604927E-018
  6.200000000000002E-003    1.454051394852894E-018
  6.300000000000002E-003    1.173552275265729E-018
  6.400000000000001E-003    6.491260212686889E-019
  6.500000000000001E-003   -7.618909254399168E-020
  6.600000000000002E-003   -9.184521551556562E-019
  6.700000000000001E-003   -1.759497491795979E-018
  6.800000000000001E-003   -2.460470950759017E-018
  6.900000000000002E-003   -2.881174475090188E-018
  7.000000000000001E-003   -2.903018089143621E-018
  7.100000000000001E-003   -2.452396106350928E-018
  7.200000000000002E-003   -1.520684116686300E-018
  7.300000000000002E-003   -1.769532664325269E-019
  7.400000000000001E-003    1.429955289785548E-018
  7.500000000000001E-003    3.082172890572990E-018
  7.600000000000002E-003    4.516783790697971E-018
  7.700000000000001E-003    5.461346991486339E-018
  7.800000000000001E-003    5.677056129052293E-018
  7.900000000000001E-003    5.003717773149914E-018
  8.000000000000002E-003    3.399441539769339E-018
  8.100000000000001E-003    9.675994499732197E-019
  8.200000000000001E-003   -2.035526060806692E-018
  8.300000000000002E-003   -5.216917952679146E-018
  8.400000000000001E-003   -8.088159705956958E-018
  8.500000000000002E-003   -1.012934618517625E-017
  8.600000000000002E-003   -1.086884102243062E-017
  8.700000000000001E-003   -9.968428715210144E-018
  8.800000000000002E-003   -7.300777856169830E-018
  8.900000000000002E-003   -3.005255718348903E-018
  9.000000000000001E-003    2.490642304575743E-018
  9.100000000000002E-003    8.493417026904823E-018
  9.200000000000002E-003    1.411278002506047E-017
  9.300000000000001E-003    1.837436560839691E-017
  9.400000000000002E-003    2.036460604257953E-017
  9.500000000000001E-003    1.938936402895687E-017
  9.600000000000001E-003    1.512262788221142E-017
  9.700000000000002E-003    7.719379940709984E-018
  9.800000000000001E-003   -2.131570053916834E-018
  9.900000000000001E-003   -1.323313256355906E-017
  1.000000000000000E-002   -2.399231919927416E-017
  1.010000000000000E-002   -3.261511849832793E-017
  1.020000000000000E-002   -3.736531370541424E-017
  1.030000000000000E-002   -3.685540450966740E-017
  1.040000000000000E-002   -3.032729279496805E-017
  1.050000000000000E-002   -1.787551853532373E-017
  1.060000000000000E-002   -5.675104142092193E-019
  1.070000000000000E-002    1.957498552884748E-017
  1.080000000000000E-002    3.975227885076996E-017
  1.090000000000000E-002    5.671716810174260E-017
  1.100000000000000E-002    6.722996181888209E-017
  1.110000000000000E-002    6.858385558424809E-017
  1.120000000000000E-002    5.912626078750336E-017
  1.130000000000000E-002    3.869090879073138E-017
  1.140000000000000E-002    8.856617986157744E-018
  1.150000000000000E-002   -2.703625418686950E-017
  1.160000000000000E-002   -6.415200500623775E-017
  1.170000000000000E-002   -9.670909708599001E-017
  1.180000000000000E-002   -1.187676955876729E-016
  1.190000000000000E-002   -1.251643224164429E-016
  1.200000000000000E-002   -1.124647451197722E-016
  1.210000000000000E-002   -7.978359868186399E-017
  1.220000000000000E-002   -2.931741791274405E-017
  1.230000000000000E-002    3.353908363510022E-017
  1.240000000000000E-002    1.005758823886231E-016
  1.250000000000000E-002    1.616636327015734E-016
  1.260000000000000E-002    2.060956886381631E-016
  1.270000000000000E-002    2.242265421873601E-016
  1.280000000000000E-002    2.091862754930242E-016
  1.290000000000000E-002    1.584049599266634E-016
  1.300000000000000E-002    7.467205518349330E-017
  1.310000000000000E-002   -3.351051926332309E-017
  1.320000000000000E-002   -1.524444092744860E-016
  1.330000000000000E-002   -2.646662569586018E-016
  1.340000000000000E-002   -3.511992274285801E-016
  1.350000000000000E-002   -3.943828265092096E-016
  1.360000000000000E-002   -3.809088579122581E-016
  1.370000000000000E-002   -3.046038053700979E-016
  1.380000000000000E-002   -1.684701566563578E-016
  1.390000000000000E-002    1.445160207864760E-017
  1.400000000000000E-002    2.217126541311582E-016
  1.410000000000000E-002    4.236934313251643E-016
  1.420000000000000E-002    5.873220607013357E-016
  1.430000000000000E-002    6.808888279085905E-016
  1.440000000000000E-002    6.793375387970453E-016
  1.450000000000000E-002    5.692493846968724E-016
  1.460000000000000E-002    3.526696565500725E-016
  1.470000000000000E-002    4.899421609316278E-017
  1.480000000000000E-002   -3.056674212519836E-016
  1.490000000000000E-002   -6.619094297691387E-016
  1.500000000000000E-002   -9.630728425163039E-016
  1.510000000000000E-002   -1.153312410565465E-015
  1.520000000000000E-002   -1.186672056644327E-015
  1.530000000000000E-002   -1.035848468801686E-015
  1.540000000000000E-002   -6.991853095933824E-016
  1.550000000000000E-002   -2.045221889785740E-016
  1.560000000000000E-002    3.911619243831542E-016
  1.570000000000000E-002    1.006840322436315E-015
  1.580000000000000E-002    1.547101425478128E-015
  1.590000000000000E-002    1.915459502594774E-015
  1.600000000000000E-002    2.029673926600449E-015
  1.610000000000000E-002    1.836880277940727E-015
  1.620000000000000E-002    1.326075570045954E-015
  1.630000000000000E-002    5.355797488436082E-016
  1.640000000000000E-002   -4.464109655265643E-016
  1.650000000000000E-002   -1.489207623988061E-015
  1.660000000000000E-002   -2.434835807728099E-015
  1.670000000000000E-002   -3.119672155600525E-015
  1.680000000000000E-002   -3.399895157719949E-015
  1.690000000000000E-002   -3.177160300603877E-015
  1.700000000000000E-002   -2.420401592160715E-015
  1.710000000000000E-002   -1.179728343772971E-015
  1.720000000000000E-002    4.108643406504339E-016
  1.730000000000000E-002    2.143892528593739E-015
  1.740000000000000E-002    3.761941258031928E-015
  1.750000000000000E-002    4.992330523696421E-015
  1.760000000000000E-002    5.588762001973168E-015
  1.770000000000000E-002    5.374169569672432E-015
  1.780000000000000E-002    4.278032523002779E-015
  1.790000000000000E-002    2.361438340011305E-015
  1.800000000000000E-002   -1.757231527285520E-016
  1.810000000000000E-002   -3.008891129980301E-015
  1.820000000000000E-002   -5.724762181834191E-015
  1.830000000000000E-002   -7.876041123969043E-015
  1.840000000000000E-002   -9.048617864985485E-015
  1.850000000000000E-002   -8.931963483660295E-015
  1.860000000000000E-002   -7.381855067712226E-015
  1.870000000000000E-002   -4.464392232744667E-015