 -4.000000000000000E-002    0.000000000000000E+000
 -3.990000000000000E-002    1.363535195436500E-007
 -3.980000000000000E-002    3.995732987995698E-007
 -3.970000000000000E-002    7.701680083207697E-007
 -3.960000000000000E-002    1.222649290658730E-006
 -3.950000000000000E-002    1.730398573745427E-006
 -3.940000000000000E-002    2.270462768867789E-006
 -3.930000000000000E-002    2.827371513564086E-006
 -3.920000000000000E-002    3.395262669156027E-006
 -3.910000000000000E-002    3.977932531641762E-006
 -3.900000000000000E-002    4.586830810860098E-006
 -3.890000000000000E-002    5.237424286272336E-006
 -3.880000000000000E-002    5.944673336629886E-006
 -3.870000000000000E-002    6.718537097938587E-006
 -3.860000000000000E-002    7.560431986485415E-006
 -3.850000000000000E-002    8.461370476418146E-006
 -3.840000000000000E-002    9.402196438610999E-006
 -3.830000000000000E-002    1.035590451150341E-005
 -3.820000000000000E-002    1.129161764269318E-005
 -3.810000000000000E-002    1.217947897545934E-005
 -3.800000000000000E-002    1.299548545633846E-005
 -3.790000000000000E-002    1.372532290117180E-005
 -3.780000000000000E-002    1.436641273615682E-005
 -3.770000000000000E-002    1.492773812818688E-005
 -3.760000000000000E-002    1.542743225380169E-005
 -3.750000000000000E-002    1.588855527743138E-005
 -3.740000000000000E-002    1.633384642850316E-005
 -3.730000000000000E-002    1.678044284833210E-005
 -3.720000000000000E-002    1.723558636021214E-005
 -3.710000000000000E-002    1.769417052303059E-005
 -3.700000000000000E-002    1.813861644162960E-005
 -3.690000000000000E-002    1.854115262269634E-005
 -3.680000000000000E-002    1.886809062208968E-005
 -3.670000000000000E-002    1.908530531536715E-005
 -3.660000000000000E-002    1.916390856083403E-005
 -3.650000000000000E-002    1.908500449966905E-005
 -3.640000000000000E-002    1.884265507346687E-005
 -3.630000000000000E-002    1.844440790768336E-005
 -3.620000000000000E-002    1.790928508814371E-005
 -3.610000000000000E-002    1.726356688641065E-005
 -3.600000000000000E-002    1.653510685544685E-005
 -3.590000000000000E-002    1.574725745117026E-005
 -3.580000000000000E-002    1.491343912834084E-005
 -3.570000000000000E-002    1.403350452134759E-005
 -3.560000000000000E-002    1.309243271024441E-005
 -3.550000000000000E-002    1.206171992464311E-005
 -3.540000000000000E-002    1.090315627759254E-005
 -3.530000000000000E-002    9.574385713953246E-006
 -3.520000000000000E-002    8.035170559639681E-006
 -3.510000000000000E-002    6.253300200795116E-006
 -3.500000000000000E-002    4.208998641201197E-006
 -3.490000000000000E-002    1.897103605141115E-006
 -3.480000000000000E-002   -6.733792680594346E-007
 -3.470000000000000E-002   -3.482338875278595E-006
 -3.460000000000000E-002   -6.503559879201655E-006
 -3.450000000000000E-002   -9.710883307379619E-006
 -3.440000000000000E-002   -1.308431948305018E-005
 -3.430000000000000E-002   -1.661512207054870E-005
 -3.420000000000000E-002   -2.030892140325089E-005
 -3.410000000000000E-002   -2.418636204345579E-005
 -3.400000000000000E-002   -2.828124029946259E-005
 -3.390000000000000E-002   -3.263642901007590E-005
 -3.380000000000000E-002   -3.729851370539982E-005
 -3.370000000000000E-002   -4.231201023279466E-005
 -3.360000000000000E-002   -4.771419060463200E-005
 -3.350000000000000E-002   -5.353168988864171E-005
 -3.340000000000000E-002   -5.977911745072574E-005
 -3.330000000000000E-002   -6.646024614726313E-005
 -3.320000000000000E-002   -7.357147079414314E-005
 -3.310000000000000E-002   -8.110672869078364E-005
 -3.300000000000000E-002   -8.906344634129858E-005
 -3.290000000000000E-002   -9.744792204223547E-005
 -3.280000000000000E-002   -1.062799816637899E-004
 -3.270000000000000E-002   -1.155952252741957E-004
 -3.260000000000000E-002   -1.254454895761053E-004
 -3.250000000000000E-002   -1.358967305040079E-004
 -3.240000000000000E-002   -1.470251709778961E-004
 -3.230000000000000E-002   -1.589122819335373E-004
 -3.220000000000000E-002   -1.716394919927160E-004
 -3.210000000000000E-002   -1.852833969591677E-004
 -3.200000000000000E-002   -1.999126901933876E-004
 -3.190000000000000E-002   -2.155865699201318E-004
 -3.180000000000000E-002   -2.323557252321327E-004
 -3.170000000000000E-002   -2.502648691483681E-004
 -3.160000000000000E-002   -2.693572425958270E-004
 -3.150000000000000E-002   -2.896794869562927E-004
 -3.140000000000000E-002   -3.112864755665879E-004
 -3.130000000000000E-002   -3.342457611115631E-004
 -3.120000000000000E-002   -3.586397796115516E-004
 -3.110000000000000E-002   -3.845674469054372E-004
 -3.100000000000000E-002   -4.121422346474623E-004
 -3.090000000000000E-002   -4.414900559829495E-004
 -3.080000000000000E-002   -4.727451381378015E-004
 -3.070000000000000E-002   -5.060457650091390E-004
 -3.060000000000000E-002   -5.415298980467754E-004
 -3.050000000000000E-002   -5.793324605987656E-004
 -3.040000000000000E-002   -6.195834077317733E-004
 -3.030000000000000E-002   -6.624079080254039E-004
 -3.020000000000000E-002   -7.079288439693147E-004
 -3.010000000000000E-002   -7.562694319636088E-004
 -3.000000000000000E-002   -8.075584346205361E-004
 -2.990000000000000E-002   -8.619349466209026E-004
 -2.980000000000000E-002   -9.195527926455361E-004
 -2.970000000000000E-002   -9.805837820265526E-004
 -2.960000000000000E-002   -1.045220624165541E-003
 -2.950000000000000E-002   -1.113676284928990E-003
 -2.940000000000000E-002   -1.186182439655952E-003
 -2.930000000000000E-002   -1.262987578456195E-003
 -2.920000000000000E-002   -1.344351486729946E-003
 -2.910000000000000E-002   -1.430542206089007E-003
 -2.900000000000000E-002   -1.521831623009852E-003
 -2.890000000000000E-002   -1.618493556118816E-003
 -2.880000000000000E-002   -1.720801870958801E-003
 -2.870000000000000E-002   -1.829031831596658E-003
 -2.860000000000000E-002   -1.943463392029383E-003
 -2.850000000000000E-002   -2.064384958684783E-003
 -2.840000000000000E-002   -2.192098870703273E-003
 -2.830000000000000E-002   -2.326925502673817E-003
 -2.820000000000000E-002   -2.469210524646965E-003
 -2.810000000000000E-002   -2.619326225343822E-003
 -2.800000000000000E-002   -2.777672951694897E-003
 -2.790000000000000E-002   -2.944681251090216E-003
 -2.780000000000000E-002   -3.120806198603447E-003
 -2.770000000000000E-002   -3.306525440929378E-003
 -2.760000000000000E-002   -3.502335564560865E-003
 -2.750000000000000E-002   -3.708745477908117E-003
 -2.740000000000000E-002   -3.926275426778226E-003
 -2.730000000000000E-002   -4.155452576803050E-003
 -2.720000000000000E-002   -4.396814522395659E-003
 -2.710000000000000E-002   -4.650909914876900E-003
 -2.700000000000000E-002   -4.918304071286602E-003
 -2.690000000000000E-002   -5.199584750961743E-003
 -2.680000000000000E-002   -5.495366980911726E-003
 -2.670000000000000E-002   -5.806303404358054E-003
 -2.660000000000000E-002   -6.133083221341260E-003
 -2.650000000000000E-002   -6.476438679612479E-003
 -2.640000000000000E-002   -6.837143833314216E-003
 -2.630000000000000E-002   -7.216010801799301E-003
 -2.620000000000000E-002   -7.613889970279262E-003
 -2.610000000000000E-002   -8.031660685810267E-003
 -2.600000000000000E-002   -8.470227134813914E-003
 -2.590000000000000E-002   -8.930517707714072E-003
 -2.580000000000000E-002   -9.413478617723871E-003
 -2.570000000000000E-002   -9.920074698480422E-003
 -2.560000000000000E-002   -1.045129422762502E-002
 -2.550000000000000E-002   -1.100815293380807E-002
 -2.540000000000000E-002   -1.159170105200957E-002
 -2.530000000000000E-002   -1.220302843844075E-002
 -2.520000000000000E-002   -1.284327042973123E-002
 -2.510000000000000E-002   -1.351362084339702E-002
 -2.500000000000000E-002   -1.421532420716858E-002
 -2.490000000000000E-002   -1.494968056270050E-002
 -2.480000000000000E-002   -1.571804512593142E-002
 -2.470000000000000E-002   -1.652181715763108E-002
 -2.460000000000000E-002   -1.736244256080718E-002
 -2.450000000000000E-002   -1.824140709356850E-002
 -2.440000000000000E-002   -1.916022577144125E-002
 -2.430000000000000E-002   -2.012045190104393E-002
 -2.420000000000000E-002   -2.112366655093207E-002
 -2.410000000000000E-002   -2.217149258518275E-002
 -2.400000000000000E-002   -2.326559307599078E-002
 -2.390000000000000E-002   -2.440767639792772E-002
 -2.380000000000000E-002   -2.559950784621212E-002
 -2.370000000000000E-002   -2.684290850932773E-002
 -2.360000000000000E-002   -2.813977738991820E-002
 -2.350000000000000E-002   -2.949207696048203E-002
 -2.340000000000000E-002   -3.090183588536653E-002
 -2.330000000000000E-002   -3.237114655036553E-002
 -2.320000000000000E-002   -3.390216403324200E-002
 -2.310000000000000E-002   -3.549709886777289E-002
 -2.300000000000000E-002   -3.715821241228168E-002
 -2.290000000000000E-002   -3.888781609494467E-002
 -2.280000000000000E-002   -4.068825978023868E-002
 -2.270000000000000E-002   -4.256194039946031E-002
 -2.260000000000000E-002   -4.451130822239117E-002
 -2.250000000000000E-002   -4.653886323349146E-002
 -2.240000000000000E-002   -4.864716605409763E-002
 -2.230000000000000E-002   -5.083883785446883E-002
 -2.220000000000000E-002   -5.311657065651343E-002
 -2.210000000000000E-002   -5.548312980200475E-002
 -2.200000000000000E-002   -5.794134111001750E-002
 -2.190000000000000E-002   -6.049412648202410E-002
 -2.180000000000000E-002   -6.314444424482804E-002
 -2.170000000000000E-002   -6.589534379690470E-002
 -2.160000000000000E-002   -6.874991054460566E-002
 -2.150000000000000E-002   -7.171130519103851E-002
 -2.140000000000000E-002   -7.478272477290941E-002
 -2.130000000000000E-002   -7.796741954386852E-002
 -2.120000000000000E-002   -8.126866715769607E-002
 -2.110000000000000E-002   -8.468983806708175E-002
 -2.100000000000000E-002   -8.823430397244260E-002
 -2.090000000000000E-002   -9.190552686347403E-002
 -2.080000000000000E-002   -9.570702127781745E-002
 -2.070000000000000E-002   -9.964234858760962E-002
 -2.060000000000000E-002   -0.103715141025638     
 -2.050000000000000E-002   -0.107929091057202     
 -2.040000000000000E-002   -0.112287949392027     
 -2.030000000000000E-002   -0.116795501293143     
 -2.020000000000000E-002   -0.121455619190658     
 -2.010000000000000E-002   -0.126272181958503     
 -2.000000000000000E-002   -0.131249131480243     
 -1.990000000000000E-002   -0.136390419282990     
 -1.980000000000000E-002   -0.141700059996312     
 -1.970000000000000E-002   -0.147182079288749     
 -1.960000000000000E-002   -0.152840525560324     
 -1.950000000000000E-002   -0.158679463358163     
 -1.940000000000000E-002   -0.164702989841850     
 -1.930000000000000E-002   -0.170915248879095     
 -1.920000000000000E-002   -0.177320396021560     
 -1.910000000000000E-002   -0.183922587339194     
 -1.900000000000000E-002   -0.190726031874521     
 -1.890000000000000E-002   -0.197734933395771     
 -1.880000000000000E-002   -0.204953490546142     
 -1.870000000000000E-002   -0.212385947981095     
 -1.860000000000000E-002   -0.220036493292428     
 -1.850000000000000E-002   -0.227909358541818     
 -1.840000000000000E-002   -0.236008738378798     
 -1.830000000000000E-002   -0.244338804620541     
 -1.820000000000000E-002   -0.252903688663808     
 -1.810000000000000E-002   -0.261707508514958     
 -1.800000000000000E-002   -0.270754305842510     
 -1.790000000000000E-002   -0.280048153627771     
 -1.780000000000000E-002   -0.289593038736258     
 -1.770000000000000E-002   -0.299392898938179     
 -1.760000000000000E-002   -0.309451621012259     
 -1.750000000000000E-002   -0.319773022392940     
 -1.740000000000000E-002   -0.330360890187884     
 -1.730000000000000E-002   -0.341218888642048     
 -1.720000000000000E-002   -0.352350646929607     
 -1.710000000000000E-002   -0.363759702726528     
 -1.700000000000000E-002   -0.375449466616915     
 -1.690000000000000E-002   -0.387423237491504     
 -1.680000000000000E-002   -0.399684264014340     
 -1.670000000000000E-002   -0.412235653955863     
 -1.660000000000000E-002   -0.425080328766753     
 -1.650000000000000E-002   -0.438221122718932     
 -1.640000000000000E-002   -0.451660707227596     
 -1.630000000000000E-002   -0.465401602520631     
 -1.620000000000000E-002   -0.479446201025645     
 -1.610000000000000E-002   -0.493796631558913     
 -1.600000000000000E-002   -0.508454982114527     
 -1.590000000000000E-002   -0.523423052219855     
 -1.580000000000000E-002   -0.538702439463891     
 -1.570000000000000E-002   -0.554294626020754     
 -1.560000000000000E-002   -0.570200840561519     
 -1.550000000000000E-002   -0.586422131691018     
 -1.540000000000000E-002   -0.602959309875364     
 -1.530000000000000E-002   -0.619812834410282     
 -1.520000000000000E-002   -0.636983110718403     
 -1.510000000000000E-002   -0.654470093900326     
 -1.500000000000000E-002   -0.672273634520216     
 -1.490000000000000E-002   -0.690393148070114     
 -1.480000000000000E-002   -0.708827853892177     
 -1.470000000000000E-002   -0.727576670848441     
 -1.460000000000000E-002   -0.746638173859839     
 -1.450000000000000E-002   -0.766010674461874     
 -1.440000000000000E-002   -0.785692089295237     
 -1.430000000000000E-002   -0.805680073609662     
 -1.420000000000000E-002   -0.825971995493967     
 -1.410000000000000E-002   -0.846564781738453     
 -1.400000000000000E-002   -0.867455088982756     
 -1.390000000000000E-002   -0.888639102433854     
 -1.380000000000000E-002   -0.910112713403815     
 -1.370000000000000E-002   -0.931871379931885     
 -1.360000000000000E-002   -0.953910330324222     
 -1.350000000000000E-002   -0.976224155734831     
 -1.340000000000000E-002   -0.998807186575008     
 -1.330000000000000E-002    -1.02165330315439     
 -1.320000000000000E-002    -1.04475595657104     
 -1.310000000000000E-002    -1.06810817843179     
 -1.300000000000000E-002    -1.09170253789506     
 -1.290000000000000E-002    -1.11553123785852     
 -1.280000000000000E-002    -1.13958599489290     
 -1.270000000000000E-002    -1.16385810775810     
 -1.260000000000000E-002    -1.18833846623841     
 -1.250000000000000E-002    -1.21301735363581     
 -1.240000000000000E-002    -1.23788470365541     
 -1.230000000000000E-002    -1.26293001912462     
 -1.220000000000000E-002    -1.28814231063611     
 -1.210000000000000E-002    -1.31351004223342     
 -1.200000000000000E-002    -1.33902123347590     
 -1.190000000000000E-002    -1.36466358906415     
 -1.180000000000000E-002    -1.39042392415492     
 -1.170000000000000E-002    -1.41628900344273     
 -1.160000000000000E-002    -1.44224493685759     
 -1.150000000000000E-002    -1.46827733157401     
 -1.140000000000000E-002    -1.49437132486105     
 -1.130000000000000E-002    -1.52051166183858     
 -1.120000000000000E-002    -1.54668249604861     
 -1.110000000000000E-002    -1.57286764012604     
 -1.100000000000000E-002    -1.59905042686565     
 -1.090000000000000E-002    -1.62521360310176     
 -1.080000000000000E-002    -1.65133956188627     
 -1.070000000000000E-002    -1.67741031623531     
 -1.060000000000000E-002    -1.70340733916066     
 -1.050000000000000E-002    -1.72931162888775     
 -1.040000000000000E-002    -1.75510372370316     
 -1.030000000000000E-002    -1.78076393772297     
 -1.020000000000000E-002    -1.80627186974860     
 -1.010000000000000E-002    -1.83160691765221     
 -1.000000000000000E-002    -1.85674800577620     
 -9.899999999999999E-003    -1.88167389306880     
 -9.800000000000000E-003    -1.90636260215772     
 -9.699999999999999E-003    -1.93079211375726     
 -9.599999999999999E-003    -1.95493988726083     
 -9.500000000000000E-003    -1.97878321400166     
 -9.399999999999999E-003    -2.00229889742374     
 -9.299999999999999E-003    -2.02546359154684     
 -9.200000000000000E-003    -2.04825360286543     
 -9.099999999999999E-003    -2.07064481688153     
 -8.999999999999999E-003    -2.09261306483302     
 -8.900000000000000E-003    -2.11413386462265     
 -8.799999999999999E-003    -2.13518262628478     
 -8.699999999999999E-003    -2.15573440880703     
 -8.600000000000000E-003    -2.17576423728535     
 -8.499999999999999E-003    -2.19524702933158     
 -8.399999999999999E-003    -2.21415743074991     
 -8.300000000000000E-003    -2.23247012834924     
 -8.199999999999999E-003    -2.25015961593522     
 -8.100000000000000E-003    -2.26720044313351     
 -8.000000000000000E-003    -2.28356719267074     
 -7.899999999999999E-003    -2.29923401475531     
 -7.800000000000000E-003    -2.31417563795991     
 -7.699999999999999E-003    -2.32836657423328     
 -7.599999999999999E-003    -2.34178133021806     
 -7.499999999999999E-003    -2.35439448724991     
 -7.399999999999999E-003    -2.36618119852170     
 -7.299999999999999E-003    -2.37711627049770     
 -7.199999999999999E-003    -2.38717482846573     
 -7.100000000000000E-003    -2.39633236483975     
 -6.999999999999999E-003    -2.40456481029168     
 -6.899999999999999E-003    -2.41184797753290     
 -6.800000000000000E-003    -2.41815791551057     
 -6.699999999999999E-003    -2.42347144642125     
 -6.599999999999999E-003    -2.42776542287892     
 -6.499999999999999E-003    -2.43101736218400     
 -6.399999999999999E-003    -2.43320490520468     
 -6.299999999999999E-003    -2.43430617597814     
 -6.199999999999999E-003    -2.43429999071935     
 -6.100000000000000E-003    -2.43316567719073     
 -5.999999999999999E-003    -2.43088313581413     
 -5.899999999999999E-003    -2.42743263811378     
 -5.800000000000000E-003    -2.42279536194013     
 -5.699999999999999E-003    -2.41695296631150     
 -5.599999999999999E-003    -2.40988770101708     
 -5.499999999999999E-003    -2.40158250729172     
 -5.399999999999999E-003    -2.39202146965725     
 -5.299999999999999E-003    -2.38118890270426     
 -5.199999999999999E-003    -2.36907034631439     
 -5.099999999999999E-003    -2.35565191328349     
 -4.999999999999999E-003    -2.34092060347066     
 -4.899999999999999E-003    -2.32486428840793     
 -4.799999999999999E-003    -2.30747178213770     
 -4.699999999999999E-003    -2.28873273130632     
 -4.599999999999999E-003    -2.26863772618318     
 -4.499999999999999E-003    -2.24717866198053     
 -4.399999999999999E-003    -2.22434823515628     
 -4.299999999999999E-003    -2.20014025331649     
 -4.199999999999999E-003    -2.17454927765197     
 -4.099999999999999E-003    -2.14757121629385     
 -3.999999999999999E-003    -2.11920300648646     
 -3.899999999999999E-003    -2.08944248145418     
 -3.799999999999999E-003    -2.05828904306000     
 -3.699999999999999E-003    -2.02574279236542     
 -3.599999999999999E-003    -1.99180529254483     
 -3.499999999999999E-003    -1.95647912187237     
 -3.399999999999999E-003    -1.91976824937314     
 -3.299999999999999E-003    -1.88167769768827     
 -3.199999999999999E-003    -1.84221360970266     
 -3.099999999999999E-003    -1.80138354896518     
 -2.999999999999999E-003    -1.75919627401523     
 -2.899999999999999E-003    -1.71566148720944     
 -2.799999999999999E-003    -1.67079074193317     
 -2.699999999999999E-003    -1.62459624629247     
 -2.599999999999999E-003    -1.57709181677192     
 -2.499999999999999E-003    -1.52829236334054     
 -2.399999999999999E-003    -1.47821422584976     
 -2.299999999999999E-003    -1.42687472728907     
 -2.199999999999999E-003    -1.37429263912981     
 -2.099999999999999E-003    -1.32048791509660     
 -1.999999999999999E-003    -1.26548179947101     
 -1.899999999999999E-003    -1.20929672531403     
 -1.799999999999999E-003    -1.15195636024508     
 -1.699999999999999E-003    -1.09348558627561     
 -1.599999999999999E-003    -1.03391051460800     
 -1.499999999999999E-003   -0.973258391287993     
 -1.399999999999999E-003   -0.911557592595804     
 -1.299999999999999E-003   -0.848837841652631     
 -1.199999999999999E-003   -0.785129815996711     
 -1.099999999999999E-003   -0.720465314167179     
 -9.999999999999989E-004   -0.654877307264426     
 -8.999999999999990E-004   -0.588399861216552     
 -7.999999999999990E-004   -0.521068045715810     
 -6.999999999999989E-004   -0.452917894276538     
 -5.999999999999990E-004   -0.383986479728576     
 -4.999999999999989E-004   -0.314311804611368     
 -3.999999999999989E-004   -0.243932899833559     
 -2.999999999999989E-004   -0.172889658794026     
 -1.999999999999989E-004   -0.101222891068294     
 -9.999999999999892E-005   -2.897411428326195E-002
  1.084202172485504E-018    4.381430040098497E-002
  1.000000000000011E-004    0.117099158713281     
  2.000000000000011E-004    0.190836596035545     
  3.000000000000011E-004    0.264982080580560     
  4.000000000000011E-004    0.339490309468909     
  5.000000000000011E-004    0.414315551705661     
  6.000000000000011E-004    0.489411459634839     
  7.000000000000011E-004    0.564731145649288     
  8.000000000000011E-004    0.640227183668189     
  9.000000000000012E-004    0.715851840026443     
  1.000000000000001E-003    0.791556910958630     
  1.100000000000001E-003    0.867293916691470     
  1.200000000000001E-003    0.943013880957701     
  1.300000000000001E-003     1.01866790887578     
  1.400000000000001E-003     1.09420674888243     
  1.500000000000001E-003     1.16958099539008     
  1.600000000000001E-003     1.24474110366921     
  1.700000000000001E-003     1.31963762198243     
  1.800000000000001E-003     1.39422092724654     
  1.900000000000001E-003     1.46844159256890     
  2.000000000000001E-003     1.54225023901743     
  2.100000000000001E-003     1.61559769620132     
  2.200000000000001E-003     1.68843507064381     
  2.300000000000001E-003     1.76071354014776     
  2.400000000000001E-003     1.83238461652641     
  2.500000000000001E-003     1.90340018823649     
  2.600000000000001E-003     1.97371266498116     
  2.700000000000001E-003     2.04327466039080     
  2.800000000000001E-003     2.11203962004348     
  2.900000000000001E-003     2.17996114984951     
  3.000000000000001E-003     2.24699379525410     
  3.100000000000001E-003     2.31309283473287     
  3.200000000000001E-003     2.37821379530945     
  3.300000000000001E-003     2.44231306561461     
  3.400000000000001E-003     2.50534831168621     
  3.500000000000001E-003     2.56727730931387     
  3.600000000000001E-003     2.62805930352927     
  3.700000000000001E-003     2.68765413053822     
  3.800000000000001E-003     2.74602267328611     
  3.900000000000001E-003     2.80312668781390     
  4.000000000000001E-003     2.85892947051049     
  4.100000000000001E-003     2.91339458153857     
  4.200000000000001E-003     2.96648731264930     
  4.300000000000001E-003     3.01817397540848     
  4.400000000000001E-003     3.06842199824716     
  4.500000000000001E-003     3.11719988258094     
  4.600000000000002E-003     3.16447764848280     
  4.700000000000001E-003     3.21022618168359     
  4.800000000000001E-003     3.25441813060671     
  4.900000000000002E-003     3.29702727864868     
  5.000000000000001E-003     3.33802888229940     
  5.100000000000001E-003     3.37739928938069     
  5.200000000000001E-003     3.41511654369629     
  5.300000000000002E-003     3.45115979600706     
  5.400000000000001E-003     3.48550998417392     
  5.500000000000001E-003     3.51814949650554     
  5.600000000000002E-003     3.54906186510828     
  5.700000000000001E-003     3.57823253229397     
  5.800000000000001E-003     3.60564785904765     
  5.900000000000002E-003     3.63129607603912     
  6.000000000000001E-003     3.65516691889995     
  6.100000000000001E-003     3.67725151594705     
  6.200000000000002E-003     3.69754264464353     
  6.300000000000002E-003     3.71603462193693     
  6.400000000000001E-003     3.73272298585601     
  6.500000000000001E-003     3.74760529460563     
  6.600000000000002E-003     3.76068020183043     
  6.700000000000001E-003     3.77194794843090     
  6.800000000000001E-003     3.78141071432459     
  6.900000000000002E-003     3.78907153294945     
  7.000000000000001E-003     3.79493517928566     
  7.100000000000001E-003     3.79900816934755     
  7.200000000000002E-003     3.80129815502206     
  7.300000000000002E-003     3.80181437057319     
  7.400000000000001E-003     3.80056709908987     
  7.500000000000001E-003     3.79756853225422     
  7.600000000000002E-003     3.79283191078630     
  7.700000000000001E-003     3.78637205391468     
  7.800000000000001E-003     3.77820500313506     
  7.900000000000001E-003     3.76834818912198     
  8.000000000000002E-003     3.75682023846342     
  8.100000000000001E-003     3.74364127875108     
  8.200000000000001E-003     3.72883252741520     
  8.300000000000002E-003     3.71241633144054     
  8.400000000000001E-003     3.69441633830808     
  8.500000000000002E-003     3.67485727649132     
  8.600000000000002E-003     3.65376489320315     
  8.700000000000001E-003     3.63116606062234     
  8.800000000000002E-003     3.60708890941653     
  8.900000000000002E-003     3.58156200739326     
  9.000000000000001E-003     3.55461540792655     
  9.100000000000002E-003     3.52627985193438     
  9.200000000000002E-003     3.49658705819756     
  9.300000000000001E-003     3.46556950271268     
  9.400000000000002E-003     3.43326068015096     
  9.500000000000001E-003     3.39969450123185     
  9.600000000000001E-003     3.36490598746221     
  9.700000000000002E-003     3.32893038603580     
  9.800000000000001E-003     3.29180390556097     
  9.900000000000001E-003     3.25356335943005     
  1.000000000000000E-002     3.21424603683137     
  1.010000000000000E-002     3.17388969851727     
  1.020000000000000E-002     3.13253246108077     
  1.030000000000000E-002     3.09021304069170     
  1.040000000000000E-002     3.04697039282631     
  1.050000000000000E-002     3.00284371882864     
  1.060000000000000E-002     2.95787280642464     
  1.070000000000000E-002     2.91209761002861     
  1.080000000000000E-002     2.86555818373097     
  1.090000000000000E-002     2.81829491045887     
  1.100000000000000E-002     2.77034776007535     
  1.110000000000000E-002     2.72175742966791     
  1.120000000000000E-002     2.67256432408784     
  1.130000000000000E-002     2.62280883424557     
  1.140000000000000E-002     2.57253129417012     
  1.150000000000000E-002     2.52177205522749     
  1.160000000000000E-002     2.47057128368066     
  1.170000000000000E-002     2.41896885705345     
  1.180000000000000E-002     2.36700464962884     
  1.190000000000000E-002     2.31471819715493     
  1.200000000000000E-002     2.26214865584290     
  1.210000000000000E-002     2.20933491978791     
  1.220000000000000E-002     2.15631579181898     
  1.230000000000000E-002     2.10312918465596     
  1.240000000000000E-002     2.04981312887562     
  1.250000000000000E-002     1.99640464730102     
  1.260000000000000E-002     1.94294061213599     
  1.270000000000000E-002     1.88945726942980     
  1.280000000000000E-002     1.83599034225420     
  1.290000000000000E-002     1.78257502515082     
  1.300000000000000E-002     1.72924603366450     
  1.310000000000000E-002     1.67603704258975     
  1.320000000000000E-002     1.62298145259896     
  1.330000000000000E-002     1.57011186953379     
  1.340000000000000E-002     1.51746023435619     
  1.350000000000000E-002     1.46505774623478     
  1.360000000000000E-002     1.41293482332515     
  1.370000000000000E-002     1.36112115856201     
  1.380000000000000E-002     1.30964575213216     
  1.390000000000000E-002     1.25853663017489     
  1.400000000000000E-002     1.20782105107862     
  1.410000000000000E-002     1.15752546684250     
  1.420000000000000E-002     1.10767558741238     
  1.430000000000000E-002     1.05829625640782     
  1.440000000000000E-002     1.00941129172153     
  1.450000000000000E-002    0.961043942875316     
  1.460000000000000E-002    0.913216328027316     
  1.470000000000000E-002    0.865949824914252     
  1.480000000000000E-002    0.819264988445254     
  1.490000000000000E-002    0.773181367843586     
  1.500000000000000E-002    0.727717563338515     
  1.510000000000000E-002    0.682891506370228     
  1.520000000000000E-002    0.638720018275255     
  1.530000000000000E-002    0.595219029696892     
  1.540000000000000E-002    0.552403679562547     
  1.550000000000000E-002    0.510288081078773     
  1.560000000000000E-002    0.468885608112949     
  1.570000000000000E-002    0.428208685115731     
  1.580000000000000E-002    0.388268809141947     
  1.590000000000000E-002    0.349076679541884     
  1.600000000000000E-002    0.310642163694274     
  1.610000000000000E-002    0.272974261551004     
  1.620000000000000E-002    0.236081070090918     
  1.630000000000000E-002    0.199969836416181     
  1.640000000000000E-002    0.164647100566490     
  1.650000000000000E-002    0.130118454171753     
  1.660000000000000E-002    9.638874354938189E-002
  1.670000000000000E-002    6.346193334023173E-002
  1.680000000000000E-002    3.134132065063133E-002
  1.690000000000000E-002    2.934137603791825E-005
  1.700000000000000E-002   -3.047228412051800E-002
  1.710000000000000E-002   -6.016256839930098E-002
  1.720000000000000E-002   -8.904123250723195E-002
  1.730000000000000E-002   -0.117108693587067     
  1.740000000000000E-002   -0.144366050034450     
  1.750000000000000E-002   -0.170815066154797     
  1.760000000000000E-002   -0.196458143836025     
  1.770000000000000E-002   -0.221298310747873     
  1.780000000000000E-002   -0.245339253629096     
  1.790000000000000E-002   -0.268585206256600     
  1.800000000000000E-002   -0.291041064042617     
  1.810000000000000E-002   -0.312712224857452     
  1.820000000000000E-002   -0.333604675160121     
  1.830000000000000E-002   -0.353724859910866     
  1.840000000000000E-002   -0.373079800200536     
  1.850000000000000E-002   -0.391676951540729     
  1.860000000000000E-002   -0.409524261689987     
  1.870000000000000E-002   -0.426630041520456     