 -4.000000000000000E-002    0.000000000000000E+000
 -3.990000000000000E-002    0.000000000000000E+000
 -3.980000000000000E-002    0.000000000000000E+000
 -3.970000000000000E-002    0.000000000000000E+000
 -3.960000000000000E-002    0.000000000000000E+000
 -3.950000000000000E-002    0.000000000000000E+000
 -3.940000000000000E-002    0.000000000000000E+000
 -3.930000000000000E-002    0.000000000000000E+000
 -3.920000000000000E-002    0.000000000000000E+000
 -3.910000000000000E-002    0.000000000000000E+000
 -3.900000000000000E-002    0.000000000000000E+000
 -3.890000000000000E-002    0.000000000000000E+000
 -3.880000000000000E-002    0.000000000000000E+000
 -3.870000000000000E-002    0.000000000000000E+000
 -3.860000000000000E-002    0.000000000000000E+000
 -3.850000000000000E-002    0.000000000000000E+000
 -3.840000000000000E-002    0.000000000000000E+000
 -3.830000000000000E-002    0.000000000000000E+000
 -3.820000000000000E-002    0.000000000000000E+000
 -3.810000000000000E-002    0.000000000000000E+000
 -3.800000000000000E-002    0.000000000000000E+000
 -3.790000000000000E-002    0.000000000000000E+000
 -3.780000000000000E-002    0.000000000000000E+000
 -3.770000000000000E-002    0.000000000000000E+000
 -3.760000000000000E-002    0.000000000000000E+000
 -3.750000000000000E-002    0.000000000000000E+000
 -3.740000000000000E-002    0.000000000000000E+000
 -3.730000000000000E-002    0.000000000000000E+000
 -3.720000000000000E-002    0.000000000000000E+000
 -3.710000000000000E-002    0.000000000000000E+000
 -3.700000000000000E-002    0.000000000000000E+000
 -3.690000000000000E-002    0.000000000000000E+000
 -3.680000000000000E-002    0.000000000000000E+000
 -3.670000000000000E-002    0.000000000000000E+000
 -3.660000000000000E-002    0.000000000000000E+000
 -3.650000000000000E-002    0.000000000000000E+000
 -3.640000000000000E-002    0.000000000000000E+000
 -3.630000000000000E-002    0.000000000000000E+000
 -3.620000000000000E-002    0.000000000000000E+000
 -3.610000000000000E-002    0.000000000000000E+000
 -3.600000000000000E-002    0.000000000000000E+000
 -3.590000000000000E-002    0.000000000000000E+000
 -3.580000000000000E-002    0.000000000000000E+000
 -3.570000000000000E-002    1.924390591266381E-047
 -3.560000000000000E-002   -1.026341648675403E-047
 -3.550000000000000E-002    1.796097885181955E-047
 -3.540000000000000E-002    1.026341648675403E-047
 -3.530000000000000E-002   -7.697562365065523E-048
 -3.520000000000000E-002   -6.751260996215912E-046
 -3.510000000000000E-002   -3.471303798324216E-046
 -3.500000000000000E-002    2.800755469508364E-046
 -3.490000000000000E-002    3.151051601330504E-046
 -3.480000000000000E-002   -4.892455106009017E-046
 -3.470000000000000E-002   -4.267421848466832E-045
 -3.460000000000000E-002   -1.422488665816552E-044
 -3.450000000000000E-002   -3.934627738289657E-044
 -3.440000000000000E-002   -9.057431664589405E-044
 -3.430000000000000E-002   -1.872720961477027E-043
 -3.420000000000000E-002   -3.485701320258048E-043
 -3.410000000000000E-002   -5.787743846908479E-043
 -3.400000000000000E-002   -8.297331916865480E-043
 -3.390000000000000E-002   -9.170276853871796E-043
 -3.380000000000000E-002   -3.769794535288279E-043
 -3.370000000000000E-002    1.754065571552851E-042
 -3.360000000000000E-002    7.225637478332871E-042
 -3.350000000000000E-002    1.881820176107751E-041
 -3.340000000000000E-002    4.030006173243549E-041
 -3.330000000000000E-002    7.557699285190622E-041
 -3.320000000000000E-002    1.261407751230264E-040
 -3.310000000000000E-002    1.855227636392664E-040
 -3.300000000000000E-002    2.291811057187645E-040
 -3.290000000000000E-002    1.985975413335807E-040
 -3.280000000000000E-002   -2.001845401472147E-041
 -3.270000000000000E-002   -6.180555024993330E-040
 -3.260000000000000E-002   -1.875919517456628E-039
 -3.250000000000000E-002   -4.139655629471683E-039
 -3.240000000000000E-002   -7.722663981073007E-039
 -3.230000000000000E-002   -1.267523543774868E-038
 -3.220000000000000E-002   -1.835433366511642E-038
 -3.210000000000000E-002   -2.273794089713429E-038
 -3.200000000000000E-002   -2.148598577805008E-038
 -3.190000000000000E-002   -6.885048266324715E-039
 -3.180000000000000E-002    3.294181393487176E-038
 -3.170000000000000E-002    1.138057864836867E-037
 -3.160000000000000E-002    2.529715584625493E-037
 -3.150000000000000E-002    4.627056969769393E-037
 -3.140000000000000E-002    7.378691734364292E-037
 -3.130000000000000E-002    1.035899206150122E-036
 -3.120000000000000E-002    1.249023597295986E-036
 -3.110000000000000E-002    1.171877819414191E-036
 -3.100000000000000E-002    4.734735454283864E-037
 -3.090000000000000E-002   -1.309105074725468E-036
 -3.080000000000000E-002   -4.727521876014801E-036
 -3.070000000000000E-002   -1.029176992007498E-035
 -3.060000000000000E-002   -1.820971929616363E-035
 -3.050000000000000E-002   -2.796123773055483E-035
 -3.040000000000000E-002   -3.770102601872575E-035
 -3.030000000000000E-002   -4.354720815048504E-035
 -3.020000000000000E-002   -3.891719371351715E-035
 -3.010000000000000E-002   -1.421897942506849E-035
 -3.000000000000000E-002    4.262041647093174E-035
 -2.990000000000000E-002    1.441496661107504E-034
 -2.980000000000000E-002    2.992001819137139E-034
 -2.970000000000000E-002    5.059253159710570E-034
 -2.960000000000000E-002    7.419573803508768E-034
 -2.950000000000000E-002    9.525116981874579E-034
 -2.940000000000000E-002    1.038776420836235E-033
 -2.930000000000000E-002    8.509687378403319E-034
 -2.920000000000000E-002    1.927502871680149E-034
 -2.910000000000000E-002   -1.154287721614868E-033
 -2.900000000000000E-002   -3.376621866245782E-033
 -2.890000000000000E-002   -6.537682396142352E-033
 -2.880000000000000E-002   -1.044809504724905E-032
 -2.870000000000000E-002   -1.450737402878483E-032
 -2.860000000000000E-002   -1.754513120151807E-032
 -2.850000000000000E-002   -1.771331214420758E-032
 -2.840000000000000E-002   -1.250646650634022E-032
 -2.830000000000000E-002    9.918195257558100E-034
 -2.820000000000000E-002    2.553236600205863E-032
 -2.810000000000000E-002    6.271205083795634E-032
 -2.800000000000000E-002    1.115580868871100E-031
 -2.790000000000000E-002    1.667906987196525E-031
 -2.780000000000000E-002    2.170507278614047E-031
 -2.770000000000000E-002    2.436062763945351E-031
 -2.760000000000000E-002    2.202914358163496E-031
 -2.750000000000000E-002    1.156151246770470E-031
 -2.740000000000000E-002   -1.019873428543471E-031
 -2.730000000000000E-002   -4.550172190831209E-031
 -2.720000000000000E-002   -9.437677800201924E-031
 -2.710000000000000E-002   -1.530138231633904E-030
 -2.700000000000000E-002   -2.120944468045030E-030
 -2.690000000000000E-002   -2.555174132453726E-030
 -2.680000000000000E-002   -2.601564331671320E-030
 -2.670000000000000E-002   -1.974287022866481E-030
 -2.660000000000000E-002   -3.746309225464648E-031
 -2.650000000000000E-002    2.435474406327104E-030
 -2.640000000000000E-002    6.527322447029091E-030
 -2.630000000000000E-002    1.167448032549376E-029
 -2.620000000000000E-002    1.721678047224823E-029
 -2.610000000000000E-002    2.195312234782258E-029
 -2.600000000000000E-002    2.411066460852551E-029
 -2.590000000000000E-002    2.144728056409691E-029
 -2.580000000000000E-002    1.154383603694648E-029
 -2.570000000000000E-002   -7.673307190982318E-030
 -2.560000000000000E-002   -3.717552690589560E-029
 -2.550000000000000E-002   -7.589692765090520E-029
 -2.540000000000000E-002   -1.197577311342105E-028
 -2.530000000000000E-002   -1.608755123530234E-028
 -2.520000000000000E-002   -1.872804704503749E-028
 -2.510000000000000E-002   -1.835056846405067E-028
 -2.500000000000000E-002   -1.324127592513930E-028
 -2.490000000000000E-002   -1.850432775668131E-029
 -2.480000000000000E-002    1.672623956642498E-028
 -2.470000000000000E-002    4.215200224484052E-028
 -2.460000000000000E-002    7.222430794227088E-028
 -2.450000000000000E-002    1.023602490799610E-027
 -2.440000000000000E-002    1.253812366530200E-027
 -2.430000000000000E-002    1.318143685041272E-027
 -2.420000000000000E-002    1.109175186487673E-027
 -2.410000000000000E-002    5.256786992985140E-028
 -2.400000000000000E-002   -4.998452158006305E-028
 -2.390000000000000E-002   -1.967073190855166E-027
 -2.380000000000000E-002   -3.771991619485388E-027
 -2.370000000000000E-002   -5.676954979677102E-027
 -2.360000000000000E-002   -7.296894069944777E-027
 -2.350000000000000E-002   -8.113229718060695E-027
 -2.340000000000000E-002   -7.526267160976027E-027
 -2.330000000000000E-002   -4.953024308897958E-027
 -2.320000000000000E-002    2.984845642726426E-029
 -2.310000000000000E-002    7.509291726777625E-027
 -2.300000000000000E-002    1.704993182571106E-026
 -2.290000000000000E-002    2.753792475670344E-026
 -2.280000000000000E-002    3.710519099660480E-026
 -2.270000000000000E-002    4.319015366460037E-026
 -2.260000000000000E-002    4.278582129620943E-026
 -2.250000000000000E-002    3.290663388583979E-026
 -2.240000000000000E-002    1.126935679884658E-026
 -2.230000000000000E-002   -2.286829932019334E-026
 -2.220000000000000E-002   -6.782978759412947E-026
 -2.210000000000000E-002   -1.187844685248818E-025
 -2.200000000000000E-002   -1.673867496650527E-025
 -2.190000000000000E-002   -2.020404677554211E-025
 -2.180000000000000E-002   -2.090094581935129E-025
 -2.170000000000000E-002   -1.745012324590765E-025
 -2.160000000000000E-002   -8.768578354804867E-026
 -2.150000000000000E-002    5.561562070127005E-026
 -2.140000000000000E-002    2.491052792107114E-025
 -2.130000000000000E-002    4.728419362435057E-025
 -2.120000000000000E-002    6.917228123955586E-025
 -2.110000000000000E-002    8.566593266524318E-025
 -2.100000000000000E-002    9.093365360294677E-025
 -2.090000000000000E-002    7.910222889895247E-025
 -2.080000000000000E-002    4.551880100084813E-025
 -2.070000000000000E-002   -1.172422649641414E-025
 -2.060000000000000E-002   -9.022741430858438E-025
 -2.050000000000000E-002   -1.820131801522006E-024
 -2.040000000000000E-002   -2.729438029157105E-024
 -2.030000000000000E-002   -3.432387907251807E-024
 -2.020000000000000E-002   -3.694277404069997E-024
 -2.010000000000000E-002   -3.278966646205950E-024
 -2.000000000000000E-002   -1.999022422534410E-024
 -1.990000000000000E-002    2.244150027642335E-025
 -1.980000000000000E-002    3.301080353829125E-024
 -1.970000000000000E-002    6.923116203032056E-024
 -1.960000000000000E-002    1.054387742040481E-023
 -1.950000000000000E-002    1.339925586325688E-023
 -1.940000000000000E-002    1.458362164109267E-023
 -1.930000000000000E-002    1.318540833279332E-023
 -1.920000000000000E-002    8.476642880388593E-024
 -1.910000000000000E-002    1.369901509182698E-025
 -1.900000000000000E-002   -1.152178009377932E-023
 -1.890000000000000E-002   -2.537798140694268E-023
 -1.880000000000000E-002   -3.942379732811670E-023
 -1.870000000000000E-002   -5.084472288939297E-023
 -1.860000000000000E-002   -5.629614466952910E-023
 -1.850000000000000E-002   -5.239263992891909E-023
 -1.840000000000000E-002   -3.638687979673277E-023
 -1.830000000000000E-002   -6.967265442960370E-024
 -1.820000000000000E-002    3.494689209818806E-023
 -1.810000000000000E-002    8.557683092911005E-023
 -1.800000000000000E-002    1.380109450122607E-022
 -1.790000000000000E-002    1.824689864555288E-022
 -1.780000000000000E-002    2.072404232862468E-022
 -1.770000000000000E-002    2.003435527646399E-022
 -1.760000000000000E-002    1.518214648503405E-022
 -1.750000000000000E-002    5.643232123907911E-023
 -1.740000000000000E-002   -8.367167696722832E-023
 -1.730000000000000E-002   -2.568178204743879E-022
 -1.720000000000000E-002   -4.408532446950792E-022
 -1.710000000000000E-002   -6.039366933936741E-022
 -1.700000000000000E-002   -7.075120070659964E-022
 -1.690000000000000E-002   -7.115985230037871E-022
 -1.680000000000000E-002   -5.821166410760970E-022
 -1.670000000000000E-002   -2.994677048098525E-022
 -1.660000000000000E-002    1.329142574416679E-022
 -1.650000000000000E-002    6.817324866548776E-022
 -1.640000000000000E-002    1.280615403247555E-021
 -1.630000000000000E-002    1.832307907054823E-021
 -1.620000000000000E-002    2.217556126707452E-021
 -1.610000000000000E-002    2.311062949208073E-021
 -1.600000000000000E-002    2.003620096911669E-021
 -1.590000000000000E-002    1.228042208793676E-021
 -1.580000000000000E-002   -1.496480608671672E-023
 -1.570000000000000E-002   -1.636027712652629E-021
 -1.560000000000000E-002   -3.447007569921604E-021
 -1.550000000000000E-002   -5.166770912005207E-021
 -1.540000000000000E-002   -6.446522917840429E-021
 -1.530000000000000E-002   -6.915689592998937E-021
 -1.520000000000000E-002   -6.245669635260130E-021
 -1.510000000000000E-002   -4.224526230003636E-021
 -1.500000000000000E-002   -8.315179423046959E-022
 -1.490000000000000E-002    3.702841821532761E-021
 -1.480000000000000E-002    8.866904111800792E-021
 -1.470000000000000E-002    1.388265638110246E-020
 -1.460000000000000E-002    1.777522922642910E-020
 -1.450000000000000E-002    1.949965045928193E-020
 -1.440000000000000E-002    1.811709284713414E-020
 -1.430000000000000E-002    1.300126721442827E-020
 -1.420000000000000E-002    4.044362160860489E-021
 -1.410000000000000E-002   -8.176564385787739E-021
 -1.400000000000000E-002   -2.231526196984861E-020
 -1.390000000000000E-002   -3.629280239599885E-020
 -1.380000000000000E-002   -4.748154713270556E-020
 -1.370000000000000E-002   -5.304265582434883E-020
 -1.360000000000000E-002   -5.039587985775331E-020
 -1.350000000000000E-002   -3.776964346447524E-020
 -1.340000000000000E-002   -1.475035427360251E-020
 -1.330000000000000E-002    1.727201198332975E-020
 -1.320000000000000E-002    5.487302444711410E-020
 -1.310000000000000E-002    9.267811628715645E-020
 -1.300000000000000E-002    1.238302825682051E-019
 -1.290000000000000E-002    1.408559576587178E-019
 -1.280000000000000E-002    1.368735735987281E-019
 -1.270000000000000E-002    1.070110671149103E-019
 -1.260000000000000E-002    4.982532344757078E-020
 -1.250000000000000E-002   -3.153774105684772E-020
 -1.240000000000000E-002   -1.287226800651084E-019
 -1.230000000000000E-002   -2.283359034627747E-019
 -1.220000000000000E-002   -3.130798751496931E-019
 -1.210000000000000E-002   -3.638874355725311E-019
 -1.200000000000000E-002   -3.629184786263481E-019
 -1.190000000000000E-002   -2.970904172772036E-019
 -1.180000000000000E-002   -1.616328249351736E-019
 -1.170000000000000E-002    3.697215795945617E-020
 -1.160000000000000E-002    2.793492431349164E-019
 -1.150000000000000E-002    5.335044071947354E-019
 -1.140000000000000E-002    7.574332197957773E-019
 -1.130000000000000E-002    9.041588365145005E-019
 -1.120000000000000E-002    9.288824460834169E-019
 -1.110000000000000E-002    7.974672987504398E-019
 -1.100000000000000E-002    4.950555331904780E-019
 -1.090000000000000E-002    3.330791304574775E-020
 -1.080000000000000E-002   -5.453516693971298E-019
 -1.070000000000000E-002   -1.167946248330224E-018
 -1.060000000000000E-002   -1.736612022733729E-018
 -1.050000000000000E-002   -2.139980719955076E-018
 -1.040000000000000E-002   -2.269575048424808E-018
 -1.030000000000000E-002   -2.039467919287127E-018
 -1.020000000000000E-002   -1.406471267754197E-018
 -1.010000000000000E-002   -3.874120173565337E-019
 -1.000000000000000E-002    9.302014798067523E-019
 -9.899999999999999E-003    2.387482969546022E-018
 -9.800000000000000E-003    3.765786670549646E-018
 -9.699999999999999E-003    4.811324958304483E-018
 -9.599999999999999E-003    5.271345682192638E-018
 -9.500000000000000E-003    4.938070401456732E-018
 -9.399999999999999E-003    3.694420755537682E-018
 -9.299999999999999E-003    1.553941388483957E-018
 -9.200000000000000E-003   -1.313272683845747E-018
 -9.099999999999999E-003   -4.576156140674811E-018
 -8.999999999999999E-003   -7.765102866114619E-018
 -8.900000000000000E-003   -1.032306887800644E-017
 -8.799999999999999E-003   -1.168252404241440E-017
 -8.699999999999999E-003   -1.136039106261708E-017
 -8.600000000000000E-003   -9.058339606213026E-018
 -8.499999999999999E-003   -4.752246315927094E-018
 -8.399999999999999E-003    1.246804556169674E-018
 -8.300000000000000E-003    8.276326177346679E-018
 -8.199999999999999E-003    1.536298008559536E-017
 -8.100000000000000E-003    2.132446980981205E-017
 -8.000000000000000E-003    2.492773788059742E-017
 -7.899999999999999E-003    2.508780792867035E-017
 -7.800000000000000E-003    2.108139142812412E-017
 -7.699999999999999E-003    1.274186142286577E-017
 -7.599999999999999E-003    5.986237670655955E-019
 -7.499999999999999E-003   -1.407378705305850E-017
 -7.399999999999999E-003   -2.932299365289369E-017
 -7.299999999999999E-003   -4.271385023074067E-017
 -7.199999999999999E-003   -5.164314057908122E-017
 -7.100000000000000E-003   -5.374393715201278E-017
 -6.999999999999999E-003   -4.732862656205929E-017
 -6.899999999999999E-003   -3.180326300591299E-017
 -6.800000000000000E-003   -7.978016792029769E-018
 -6.699999999999999E-003    2.179839451887289E-017
 -6.599999999999999E-003    5.373623261673310E-017
 -6.499999999999999E-003    8.296171893156672E-017
 -6.399999999999999E-003    1.041225012955085E-016
 -6.299999999999999E-003    1.121868578405907E-016
 -6.199999999999999E-003    1.033392388352266E-016
 -6.100000000000000E-003    7.584058686458495E-017
 -5.999999999999999E-003    3.070361170964910E-017
 -5.899999999999999E-003   -2.796338020317619E-017
 -5.800000000000000E-003   -9.306213931297199E-017
 -5.699999999999999E-003   -1.551240576151502E-016
 -5.599999999999999E-003   -2.034344761877966E-016
 -5.499999999999999E-003   -2.275670913030614E-016
 -5.399999999999999E-003   -2.191488403143417E-016
 -5.299999999999999E-003   -1.736052219386133E-016
 -5.199999999999999E-003   -9.159483399515013E-017
 -5.099999999999999E-003    2.015823268578445E-017
 -4.999999999999999E-003    1.488781524725245E-016
 -4.899999999999999E-003    2.767442079117364E-016
 -4.799999999999999E-003    3.829008332336309E-016
 -4.699999999999999E-003    4.463170136335617E-016
 -4.599999999999999E-003    4.491759759816852E-016
 -4.499999999999999E-003    3.803328658315174E-016
 -4.399999999999999E-003    2.382884475546603E-016
 -4.299999999999999E-003    3.310943456384501E-017
 -4.199999999999999E-003   -2.131978086845173E-016
 -4.099999999999999E-003   -4.681868720639986E-016
 -3.999999999999999E-003   -6.924197795059427E-016
 -3.899999999999999E-003   -8.446367527181974E-016
 -3.799999999999999E-003   -8.881005265199088E-016
 -3.699999999999999E-003   -7.972848623211332E-016
 -3.599999999999999E-003   -5.638834929216694E-016
 -3.499999999999999E-003   -2.010524936027144E-016
 -3.399999999999999E-003    2.550948898124209E-016
 -3.299999999999999E-003    7.474406457141100E-016
 -3.199999999999999E-003    1.203519864825318E-015
 -3.099999999999999E-003    1.544586162496901E-015
 -2.999999999999999E-003    1.697187083383777E-015
 -2.899999999999999E-003    1.605800036350981E-015
 -2.799999999999999E-003    1.244670360404348E-015
 -2.699999999999999E-003    6.268180719117720E-016
 -2.599999999999999E-003   -1.916959707387750E-016
 -2.499999999999999E-003   -1.113700562428030E-015
 -2.399999999999999E-003   -2.009736708421964E-015
 -2.299999999999999E-003   -2.733475111048808E-015
 -2.199999999999999E-003   -3.142319019197251E-015
 -2.099999999999999E-003   -3.120729349213978E-015
 -1.999999999999999E-003   -2.602974241854824E-015
 -1.899999999999999E-003   -1.591569360047284E-015
 -1.799999999999999E-003   -1.677750708137026E-016
 -1.699999999999999E-003    1.508797343092196E-015
 -1.599999999999999E-003    3.213131467144101E-015
 -1.499999999999999E-003    4.680225676922510E-015
 -1.399999999999999E-003    5.640899012704147E-015
 -1.299999999999999E-003    5.863895900468899E-015
 -1.199999999999999E-003    5.198566360530336E-015
 -1.099999999999999E-003    3.611396082347858E-015
 -9.999999999999989E-004    1.209599485122543E-015
 -8.999999999999990E-004   -1.754006319734267E-015
 -7.999999999999990E-004   -4.898533842539449E-015
 -6.999999999999989E-004   -7.755647380912921E-015
 -5.999999999999990E-004   -9.830366019104696E-015
 -4.999999999999989E-004   -1.067547894258822E-014
 -3.999999999999989E-004   -9.969803307445566E-015
 -2.999999999999989E-004   -7.588408662576857E-015
 -1.999999999999989E-004   -3.652380292019954E-015
 -9.999999999999892E-005    1.452928338517081E-015
  1.084202172485504E-018    7.098864066765648E-015
  1.000000000000011E-004    1.247628452518061E-014
  2.000000000000011E-004    1.669656089839158E-014
  3.000000000000011E-004    1.892044757322567E-014
  4.000000000000011E-004    1.849850402351424E-014
  5.000000000000011E-004    1.510244554005948E-014
  6.000000000000011E-004    8.825144484808857E-015
  7.000000000000011E-004    2.286658113827073E-016
  8.000000000000011E-004   -9.675061664054403E-015
  9.000000000000012E-004   -1.951788269992536E-014
  1.000000000000001E-003   -2.773947099047980E-014
  1.100000000000001E-003   -3.280609601377281E-014
  1.200000000000001E-003   -3.345737183559728E-014
  1.300000000000001E-003   -2.894576651007612E-014
  1.400000000000001E-003   -1.922975987698285E-014
  1.500000000000001E-003   -5.083088743417671E-015
  1.600000000000001E-003    1.190948431508642E-014
  1.700000000000001E-003    2.948568868401816E-014
  1.800000000000001E-003    4.496598971380295E-014
  1.900000000000001E-003    5.561739700893108E-014
  2.000000000000001E-003    5.907787855520438E-014
  2.100000000000001E-003    5.378248278624793E-014
  2.200000000000001E-003    3.932363748617093E-014
  2.300000000000001E-003    1.667906484378114E-014
  2.400000000000001E-003   -1.174777264932659E-014
  2.500000000000001E-003   -4.230745876223358E-014
  2.600000000000001E-003   -7.050695288079654E-014
  2.700000000000001E-003   -9.160171309941712E-014
  2.800000000000001E-003   -1.013097292431306E-013
  2.900000000000001E-003   -9.655102608148227E-014
  3.000000000000001E-003   -7.609851494207496E-014
  3.100000000000001E-003   -4.102458714249750E-014
  3.200000000000001E-003    5.155480332907525E-015
  3.300000000000001E-003    5.670746947741080E-014
  3.400000000000001E-003    1.062837563895849E-013
  3.500000000000001E-003    1.458658617709119E-013
  3.600000000000001E-003    1.679395469693406E-013
  3.700000000000001E-003    1.667468668831439E-013
  3.800000000000001E-003    1.394267723870108E-013
  3.900000000000001E-003    8.684787913885094E-014
  4.000000000000001E-003    1.396067029165979E-014
  4.100000000000001E-003   -7.045022467390360E-014
  4.200000000000001E-003   -1.546529624907935E-013
  4.300000000000001E-003   -2.254372414950691E-013
  4.400000000000001E-003   -2.700071545582928E-013
  4.500000000000001E-003   -2.780524568327560E-013
  4.600000000000002E-003   -2.436923059652492E-013
  4.700000000000001E-003   -1.669664642917019E-013
  4.800000000000001E-003   -5.457934905096184E-014
  4.900000000000002E-003    8.031603187042968E-014
  5.000000000000001E-003    2.193817436285732E-013
  5.100000000000001E-003    3.413373254114913E-013
  5.200000000000001E-003    4.249482110602375E-013
  5.300000000000002E-003    4.523789226168453E-013
  5.400000000000001E-003    4.124244093195363E-013
  5.500000000000001E-003    3.030921759465560E-013
  5.600000000000002E-003    1.330456305906373E-013
  5.700000000000001E-003   -7.846011407879076E-014
  5.800000000000001E-003   -3.033235005685492E-013
  5.900000000000002E-003   -5.079507217773157E-013
  6.000000000000001E-003   -6.578818678101064E-013
  6.100000000000001E-003   -7.231101134994560E-013
  6.200000000000002E-003   -6.833337130223038E-013
  6.300000000000002E-003   -5.323020921218779E-013
  6.400000000000001E-003   -2.804607701714971E-013
  6.500000000000001E-003    4.472439393837312E-014
  6.600000000000002E-003    4.010875822832201E-013
  6.700000000000001E-003    7.366704960555807E-013
  6.800000000000001E-003    9.967421263918431E-013
  6.900000000000002E-003    1.132066827970598E-012
  7.000000000000001E-003    1.107258142323812E-012
  7.100000000000001E-003    9.079100751427282E-013
  7.200000000000002E-003    5.452407327483457E-013
  7.300000000000002E-003    5.723274360147043E-014
  7.400000000000001E-003   -4.943033363321011E-013
  7.500000000000001E-003   -1.030738925447875E-012
  7.600000000000002E-003   -1.467059837858653E-012
  7.700000000000001E-003   -1.724459140647158E-012
  7.800000000000001E-003   -1.743346642698212E-012
  7.900000000000001E-003   -1.494771855255296E-012
  8.000000000000002E-003   -9.882905015669573E-013
  8.100000000000001E-003   -2.746499137958654E-013
  8.200000000000001E-003    5.576897848299578E-013
  8.300000000000002E-003    1.392316699842009E-012
  8.400000000000001E-003    2.100050076444447E-012
  8.500000000000002E-003    2.557738114511777E-012
  8.600000000000002E-003    2.668104811703603E-012
  8.700000000000001E-003    2.377642647761383E-012
  8.800000000000002E-003    1.689537099548349E-012
  8.900000000000002E-003    6.690816674218297E-013
  9.000000000000001E-003   -5.600492148627085E-013
  9.100000000000002E-003   -1.829028020783114E-012
  9.200000000000002E-003   -2.945508970965039E-012
  9.300000000000001E-003   -3.721146427255793E-012
  9.400000000000002E-003   -4.001289235463857E-012
  9.500000000000001E-003   -3.692427662788617E-012
  9.600000000000001E-003   -2.782879904430651E-012
  9.700000000000002E-003   -1.352808134618209E-012
  9.800000000000001E-003    4.290644643463363E-013
  9.900000000000001E-003    2.322839493147491E-012
  1.000000000000000E-002    4.047611978051104E-012
  1.010000000000000E-002    5.320975445318727E-012
  1.020000000000000E-002    5.902612830450441E-012
  1.030000000000000E-002    5.635586900203425E-012
  1.040000000000000E-002    4.478678593801088E-012
  1.050000000000000E-002    2.523879971076330E-012
  1.060000000000000E-002   -5.092958435422105E-015
  1.070000000000000E-002   -2.774840669995332E-012
  1.080000000000000E-002   -5.383392057525103E-012
  1.090000000000000E-002   -7.415797616273240E-012
  1.100000000000000E-002   -8.506920424084972E-012
  1.110000000000000E-002   -8.402369999920324E-012
  1.120000000000000E-002   -7.007936517099498E-012
  1.130000000000000E-002   -4.418825534339395E-012
  1.140000000000000E-002   -9.223014310286543E-013
  1.150000000000000E-002    3.029083797773217E-012
  1.160000000000000E-002    6.872196631330905E-012
  1.170000000000000E-002    1.001001502124200E-011
  1.180000000000000E-002    1.190042365218234E-011
  1.190000000000000E-002    1.214445250127905E-011
  1.200000000000000E-002    1.056028443634047E-011
  1.210000000000000E-002    7.230333045743132E-012
  1.220000000000000E-002    2.511763194473135E-012
  1.230000000000000E-002   -2.994376586887723E-012
  1.240000000000000E-002   -8.514243888487857E-012
  1.250000000000000E-002   -1.320504682942879E-011
  1.260000000000000E-002   -1.627844863486645E-011
  1.270000000000000E-002   -1.712621031937874E-011
  1.280000000000000E-002   -1.542891315171433E-011
  1.290000000000000E-002   -1.122956161778373E-011
  1.300000000000000E-002   -4.957795566851614E-012
  1.310000000000000E-002    2.603212240253453E-012
  1.320000000000000E-002    1.040688427472634E-011
  1.330000000000000E-002    1.728132044057139E-011
  1.340000000000000E-002    2.209812795983096E-011
  1.350000000000000E-002    2.394864837466598E-011
  1.360000000000000E-002    2.230113127690861E-011
  1.370000000000000E-002    1.711321809553707E-011
  1.380000000000000E-002    8.878816350136727E-012
  1.390000000000000E-002   -1.403143530038137E-012
  1.400000000000000E-002   -1.233964701276472E-011
  1.410000000000000E-002   -2.232369438045673E-011
  1.420000000000000E-002   -2.976160443137286E-011
  1.430000000000000E-002   -3.331654196694964E-011
  1.440000000000000E-002   -3.213243080336556E-011
  1.450000000000000E-002   -2.600249720316765E-011
  1.460000000000000E-002   -1.545236065861041E-011
  1.470000000000000E-002   -1.718335407035756E-012
  1.480000000000000E-002    1.338398040741958E-011
  1.490000000000000E-002    2.768933496643356E-011
  1.500000000000000E-002    3.898333655050806E-011
  1.510000000000000E-002    4.533364267994755E-011
  1.520000000000000E-002    4.540377366328455E-011
  1.530000000000000E-002    3.870065663720358E-011
  1.540000000000000E-002    2.571319552604325E-011
  1.550000000000000E-002    7.912704086262291E-012
  1.560000000000000E-002   -1.239527875403320E-011
  1.570000000000000E-002   -3.235639037292323E-011
  1.580000000000000E-002   -4.895700358571909E-011
  1.590000000000000E-002   -5.946663675696575E-011
  1.600000000000000E-002   -6.187008388158182E-011
  1.610000000000000E-002   -5.522312560506978E-011
  1.620000000000000E-002   -3.987242755617749E-011
  1.630000000000000E-002   -1.749651676775740E-011
  1.640000000000000E-002    9.051270309917521E-012
  1.650000000000000E-002    3.608831005307265E-011
  1.660000000000000E-002    5.959793717844054E-011
  1.670000000000000E-002    7.581026014634604E-011
  1.680000000000000E-002    8.178682762997299E-011
  1.690000000000000E-002    7.592112387841748E-011
  1.700000000000000E-002    5.827348875421953E-011
  1.710000000000000E-002    3.067820800048063E-011
  1.720000000000000E-002   -3.409168552034949E-012
  1.730000000000000E-002   -3.931930822402850E-011
  1.740000000000000E-002   -7.178756934587900E-011
  1.750000000000000E-002   -9.570461252527613E-011
  1.760000000000000E-002   -1.068952216023125E-010
  1.770000000000000E-002   -1.028097312167715E-010
  1.780000000000000E-002   -8.301799620702012E-011
  1.790000000000000E-002   -4.941801257245112E-011
  1.800000000000000E-002   -6.108550429902352E-012
  1.810000000000000E-002    4.107776392778661E-011
  1.820000000000000E-002    8.533344197476817E-011
  1.830000000000000E-002    1.198324860197963E-010
  1.840000000000000E-002    1.387534259640135E-010
  1.850000000000000E-002    1.382196649270812E-010
  1.860000000000000E-002    1.170101616103327E-010
  1.870000000000000E-002    7.691852627500239E-011