 -4.000000000000000E-002    0.000000000000000E+000
 -3.990000000000000E-002    0.000000000000000E+000
 -3.980000000000000E-002    0.000000000000000E+000
 -3.970000000000000E-002    0.000000000000000E+000
 -3.960000000000000E-002    0.000000000000000E+000
 -3.950000000000000E-002    0.000000000000000E+000
 -3.940000000000000E-002    0.000000000000000E+000
 -3.930000000000000E-002    0.000000000000000E+000
 -3.920000000000000E-002    0.000000000000000E+000
 -3.910000000000000E-002    0.000000000000000E+000
 -3.900000000000000E-002    0.000000000000000E+000
 -3.890000000000000E-002    0.000000000000000E+000
 -3.880000000000000E-002    0.000000000000000E+000
 -3.870000000000000E-002    0.000000000000000E+000
 -3.860000000000000E-002    0.000000000000000E+000
 -3.850000000000000E-002    0.000000000000000E+000
 -3.840000000000000E-002    0.000000000000000E+000
 -3.830000000000000E-002    0.000000000000000E+000
 -3.820000000000000E-002    0.000000000000000E+000
 -3.810000000000000E-002    0.000000000000000E+000
 -3.800000000000000E-002    0.000000000000000E+000
 -3.790000000000000E-002    0.000000000000000E+000
 -3.780000000000000E-002    0.000000000000000E+000
 -3.770000000000000E-002    0.000000000000000E+000
 -3.760000000000000E-002    0.000000000000000E+000
 -3.750000000000000E-002    0.000000000000000E+000
 -3.740000000000000E-002    0.000000000000000E+000
 -3.730000000000000E-002    0.000000000000000E+000
 -3.720000000000000E-002    0.000000000000000E+000
 -3.710000000000000E-002    0.000000000000000E+000
 -3.700000000000000E-002    0.000000000000000E+000
 -3.690000000000000E-002    0.000000000000000E+000
 -3.680000000000000E-002    0.000000000000000E+000
 -3.670000000000000E-002    0.000000000000000E+000
 -3.660000000000000E-002    0.000000000000000E+000
 -3.650000000000000E-002    0.000000000000000E+000
 -3.640000000000000E-002    0.000000000000000E+000
 -3.630000000000000E-002    0.000000000000000E+000
 -3.620000000000000E-002    0.000000000000000E+000
 -3.610000000000000E-002    0.000000000000000E+000
 -3.600000000000000E-002    0.000000000000000E+000
 -3.590000000000000E-002    0.000000000000000E+000
 -3.580000000000000E-002    0.000000000000000E+000
 -3.570000000000000E-002    0.000000000000000E+000
 -3.560000000000000E-002    0.000000000000000E+000
 -3.550000000000000E-002    0.000000000000000E+000
 -3.540000000000000E-002    0.000000000000000E+000
 -3.530000000000000E-002    0.000000000000000E+000
 -3.520000000000000E-002    0.000000000000000E+000
 -3.510000000000000E-002    0.000000000000000E+000
 -3.500000000000000E-002    0.000000000000000E+000
 -3.490000000000000E-002    0.000000000000000E+000
 -3.480000000000000E-002    0.000000000000000E+000
 -3.470000000000000E-002    0.000000000000000E+000
 -3.460000000000000E-002    0.000000000000000E+000
 -3.450000000000000E-002    0.000000000000000E+000
 -3.440000000000000E-002    0.000000000000000E+000
 -3.430000000000000E-002    0.000000000000000E+000
 -3.420000000000000E-002    0.000000000000000E+000
 -3.410000000000000E-002    0.000000000000000E+000
 -3.400000000000000E-002    0.000000000000000E+000
 -3.390000000000000E-002    0.000000000000000E+000
 -3.380000000000000E-002    0.000000000000000E+000
 -3.370000000000000E-002    0.000000000000000E+000
 -3.360000000000000E-002    0.000000000000000E+000
 -3.350000000000000E-002    0.000000000000000E+000
 -3.340000000000000E-002    0.000000000000000E+000
 -3.330000000000000E-002    0.000000000000000E+000
 -3.320000000000000E-002    0.000000000000000E+000
 -3.310000000000000E-002    0.000000000000000E+000
 -3.300000000000000E-002    0.000000000000000E+000
 -3.290000000000000E-002    0.000000000000000E+000
 -3.280000000000000E-002    0.000000000000000E+000
 -3.270000000000000E-002    0.000000000000000E+000
 -3.260000000000000E-002    0.000000000000000E+000
 -3.250000000000000E-002    0.000000000000000E+000
 -3.240000000000000E-002    0.000000000000000E+000
 -3.230000000000000E-002    0.000000000000000E+000
 -3.220000000000000E-002    0.000000000000000E+000
 -3.210000000000000E-002    0.000000000000000E+000
 -3.200000000000000E-002    0.000000000000000E+000
 -3.190000000000000E-002    0.000000000000000E+000
 -3.180000000000000E-002    0.000000000000000E+000
 -3.170000000000000E-002    0.000000000000000E+000
 -3.160000000000000E-002    0.000000000000000E+000
 -3.150000000000000E-002    0.000000000000000E+000
 -3.140000000000000E-002    0.000000000000000E+000
 -3.130000000000000E-002    0.000000000000000E+000
 -3.120000000000000E-002    0.000000000000000E+000
 -3.110000000000000E-002    0.000000000000000E+000
 -3.100000000000000E-002    0.000000000000000E+000
 -3.090000000000000E-002    0.000000000000000E+000
 -3.080000000000000E-002    0.000000000000000E+000
 -3.070000000000000E-002    0.000000000000000E+000
 -3.060000000000000E-002    0.000000000000000E+000
 -3.050000000000000E-002    0.000000000000000E+000
 -3.040000000000000E-002    0.000000000000000E+000
 -3.030000000000000E-002    0.000000000000000E+000
 -3.020000000000000E-002    0.000000000000000E+000
 -3.010000000000000E-002    0.000000000000000E+000
 -3.000000000000000E-002    0.000000000000000E+000
 -2.990000000000000E-002    0.000000000000000E+000
 -2.980000000000000E-002    0.000000000000000E+000
 -2.970000000000000E-002    0.000000000000000E+000
 -2.960000000000000E-002    0.000000000000000E+000
 -2.950000000000000E-002    0.000000000000000E+000
 -2.940000000000000E-002    0.000000000000000E+000
 -2.930000000000000E-002    0.000000000000000E+000
 -2.920000000000000E-002    0.000000000000000E+000
 -2.910000000000000E-002    0.000000000000000E+000
 -2.900000000000000E-002    0.000000000000000E+000
 -2.890000000000000E-002    0.000000000000000E+000
 -2.880000000000000E-002    0.000000000000000E+000
 -2.870000000000000E-002    0.000000000000000E+000
 -2.860000000000000E-002    0.000000000000000E+000
 -2.850000000000000E-002    0.000000000000000E+000
 -2.840000000000000E-002    0.000000000000000E+000
 -2.830000000000000E-002    0.000000000000000E+000
 -2.820000000000000E-002    0.000000000000000E+000
 -2.810000000000000E-002    0.000000000000000E+000
 -2.800000000000000E-002    0.000000000000000E+000
 -2.790000000000000E-002    0.000000000000000E+000
 -2.780000000000000E-002    0.000000000000000E+000
 -2.770000000000000E-002    0.000000000000000E+000
 -2.760000000000000E-002    0.000000000000000E+000
 -2.750000000000000E-002    0.000000000000000E+000
 -2.740000000000000E-002    0.000000000000000E+000
 -2.730000000000000E-002    0.000000000000000E+000
 -2.720000000000000E-002    0.000000000000000E+000
 -2.710000000000000E-002   -1.924390591266381E-047
 -2.700000000000000E-002    8.743925279174863E-047
 -2.690000000000000E-002    1.169465751911665E-046
 -2.680000000000000E-002    1.272099916779205E-046
 -2.670000000000000E-002   -1.282927060844254E-048
 -2.660000000000000E-002    5.131708243377016E-048
 -2.650000000000000E-002    2.052683297350806E-047
 -2.640000000000000E-002   -1.028419455825478E-045
 -2.630000000000000E-002   -1.497176247505347E-045
 -2.620000000000000E-002   -7.987572481342197E-046
 -2.610000000000000E-002   -5.366397024133132E-046
 -2.600000000000000E-002    6.965264861972478E-046
 -2.590000000000000E-002    2.866484448563211E-045
 -2.580000000000000E-002    5.551833470764642E-045
 -2.570000000000000E-002    8.418584879723204E-045
 -2.560000000000000E-002    1.120924562747559E-044
 -2.550000000000000E-002    1.307729264207407E-044
 -2.540000000000000E-002    1.247096112084054E-044
 -2.530000000000000E-002    8.213591067363814E-045
 -2.520000000000000E-002   -4.461723185342248E-045
 -2.510000000000000E-002   -2.621053947416379E-044
 -2.500000000000000E-002   -5.901324672100605E-044
 -2.490000000000000E-002   -1.031891852837188E-043
 -2.480000000000000E-002   -1.535854369881174E-043
 -2.470000000000000E-002   -1.990513311543494E-043
 -2.460000000000000E-002   -2.198131286817845E-043
 -2.450000000000000E-002   -1.863454963032642E-043
 -2.440000000000000E-002   -6.025523791168194E-044
 -2.430000000000000E-002    1.975494074034781E-043
 -2.420000000000000E-002    6.199719853846782E-043
 -2.410000000000000E-002    1.211423400768077E-042
 -2.400000000000000E-002    1.929215352919711E-042
 -2.390000000000000E-002    2.650449855686723E-042
 -2.380000000000000E-002    3.147957020610792E-042
 -2.370000000000000E-002    3.074972308644256E-042
 -2.360000000000000E-002    1.975735213551387E-042
 -2.350000000000000E-002   -6.561033698757615E-043
 -2.340000000000000E-002   -5.263069715154719E-042
 -2.330000000000000E-002   -1.203145259371508E-041
 -2.320000000000000E-002   -2.063138455413917E-041
 -2.310000000000000E-002   -2.990120603566747E-041
 -2.300000000000000E-002   -3.755523027914124E-041
 -2.290000000000000E-002   -3.999754845356290E-041
 -2.280000000000000E-002   -3.240581156143280E-041
 -2.270000000000000E-002   -9.236542563728130E-042
 -2.260000000000000E-002    3.464683588402177E-041
 -2.250000000000000E-002    1.021345580660679E-040
 -2.240000000000000E-002    1.913086265260088E-040
 -2.230000000000000E-002    2.924160853660045E-040
 -2.220000000000000E-002    3.849302431855131E-040
 -2.210000000000000E-002    4.356323140077997E-040
 -2.200000000000000E-002    3.990278402829533E-040
 -2.190000000000000E-002    2.216559900353652E-040
 -2.180000000000000E-002   -1.481980290022020E-040
 -2.170000000000000E-002   -7.443621359026687E-040
 -2.160000000000000E-002   -1.560381613371016E-039
 -2.150000000000000E-002   -2.522945215913276E-039
 -2.140000000000000E-002   -3.465857083139920E-039
 -2.130000000000000E-002   -4.112383437233192E-039
 -2.120000000000000E-002   -4.076734652835753E-039
 -2.110000000000000E-002   -2.897265740949590E-039
 -2.100000000000000E-002   -1.134625504305103E-040
 -2.090000000000000E-002    4.605537430473867E-039
 -2.080000000000000E-002    1.128253437575542E-038
 -2.070000000000000E-002    1.942061364228835E-038
 -2.060000000000000E-002    2.779515342444890E-038
 -2.050000000000000E-002    3.430928304939390E-038
 -2.040000000000000E-002    3.599382158832314E-038
 -2.030000000000000E-002    2.924462381331966E-038
 -2.020000000000000E-002    1.038465966521124E-038
 -2.010000000000000E-002   -2.339577675879622E-038
 -2.000000000000000E-002   -7.273640303721629E-038
 -1.990000000000000E-002   -1.345661771086380E-037
 -1.980000000000000E-002   -2.005902145219781E-037
 -1.970000000000000E-002   -2.562268624099942E-037
 -1.960000000000000E-002   -2.805566162347111E-037
 -1.950000000000000E-002   -2.479145724917308E-037
 -1.940000000000000E-002   -1.317046821992839E-037
 -1.930000000000000E-002    8.922986306812034E-038
 -1.920000000000000E-002    4.218229930284097E-037
 -1.910000000000000E-002    8.484536105644417E-037
 -1.900000000000000E-002    1.316851678797222E-036
 -1.890000000000000E-002    1.733015419987906E-036
 -1.880000000000000E-002    1.960750378121473E-036
 -1.870000000000000E-002    1.831811148981451E-036
 -1.860000000000000E-002    1.170173348394180E-036
 -1.850000000000000E-002   -1.676691784458321E-037
 -1.840000000000000E-002   -2.237564701407887E-036
 -1.830000000000000E-002   -4.943378037296306E-036
 -1.820000000000000E-002   -7.974718702456138E-036
 -1.810000000000000E-002   -1.076376467193875E-035
 -1.800000000000000E-002   -1.248285457355516E-035
 -1.790000000000000E-002   -1.210624525977149E-035
 -1.780000000000000E-002   -8.555977721113139E-036
 -1.770000000000000E-002   -9.416025217550142E-037
 -1.760000000000000E-002    1.111505656902458E-035
 -1.750000000000000E-002    2.710501936331871E-035
 -1.740000000000000E-002    4.527373809895728E-035
 -1.730000000000000E-002    6.237748570885426E-035
 -1.720000000000000E-002    7.367699536360596E-035
 -1.710000000000000E-002    7.329704378248847E-035
 -1.700000000000000E-002    5.505801267345602E-035
 -1.690000000000000E-002    1.382426273139101E-035
 -1.680000000000000E-002   -5.268990300392530E-035
 -1.670000000000000E-002   -1.418601022951613E-034
 -1.660000000000000E-002   -2.442096880620586E-034
 -1.650000000000000E-002   -3.421214824862325E-034
 -1.640000000000000E-002   -4.098561418379313E-034
 -1.630000000000000E-002   -4.155460079794831E-034
 -1.620000000000000E-002   -3.256928594424300E-034
 -1.610000000000000E-002   -1.123608169764902E-034
 -1.600000000000000E-002    2.373041710725106E-034
 -1.590000000000000E-002    7.103415249770418E-034
 -1.580000000000000E-002    1.257996018422950E-033
 -1.570000000000000E-002    1.789255416526235E-033
 -1.560000000000000E-002    2.171200549911506E-033
 -1.550000000000000E-002    2.239459246260082E-033
 -1.540000000000000E-002    1.821270537249205E-033
 -1.530000000000000E-002    7.718808032177111E-034
 -1.520000000000000E-002   -9.778042958556342E-034
 -1.510000000000000E-002   -3.368065579747651E-033
 -1.500000000000000E-002   -6.161532811179391E-033
 -1.490000000000000E-002   -8.912182911290609E-033
 -1.480000000000000E-002   -1.096795035589917E-032
 -1.470000000000000E-002   -1.152235963626881E-032
 -1.460000000000000E-002   -9.726419283037193E-033
 -1.450000000000000E-002   -4.863293502771354E-033
 -1.440000000000000E-002    3.425152940233383E-033
 -1.430000000000000E-002    1.488794711747759E-032
 -1.420000000000000E-002    2.843714489207560E-032
 -1.410000000000000E-002    4.200523888541971E-032
 -1.400000000000000E-002    5.255958895110579E-032
 -1.390000000000000E-002    5.634251262776647E-032
 -1.380000000000000E-002    4.938500968919227E-032
 -1.370000000000000E-002    2.830177041053887E-032
 -1.360000000000000E-002   -8.686048879494160E-033
 -1.350000000000000E-002   -6.062876517248597E-032
 -1.340000000000000E-002   -1.228353571694794E-031
 -1.330000000000000E-002   -1.862459597789247E-031
 -1.320000000000000E-002   -2.375003263745598E-031
 -1.310000000000000E-002   -2.599925746055455E-031
 -1.300000000000000E-002   -2.361084988398224E-031
 -1.290000000000000E-002   -1.506609901750499E-031
 -1.280000000000000E-002    4.719845028220676E-033
 -1.270000000000000E-002    2.268044565057562E-031
 -1.260000000000000E-002    4.964781742152743E-031
 -1.250000000000000E-002    7.761090251768052E-031
 -1.240000000000000E-002    1.009850703257310E-030
 -1.230000000000000E-002    1.128050320333853E-030
 -1.220000000000000E-002    1.056522600098365E-030
 -1.210000000000000E-002    7.306910512031998E-031
 -1.200000000000000E-002    1.135361883591097E-031
 -1.190000000000000E-002   -7.849857436875250E-031
 -1.180000000000000E-002   -1.890670472015123E-030
 -1.170000000000000E-002   -3.054570430678408E-030
 -1.160000000000000E-002   -4.054309437836473E-030
 -1.150000000000000E-002   -4.611727608265277E-030
 -1.140000000000000E-002   -4.429641225298428E-030
 -1.130000000000000E-002   -3.247487241241252E-030
 -1.120000000000000E-002   -9.114526341022614E-031
 -1.110000000000000E-002    2.550198445073259E-030
 -1.100000000000000E-002    6.860679973371458E-030
 -1.090000000000000E-002    1.145484686964171E-029
 -1.080000000000000E-002    1.548493388568149E-029
 -1.070000000000000E-002    1.788849083115109E-029
 -1.060000000000000E-002    1.752830216037643E-029
 -1.050000000000000E-002    1.340245380749542E-029
 -1.040000000000000E-002    4.907147151117941E-030
 -1.030000000000000E-002   -7.883181892983107E-030
 -1.020000000000000E-002   -2.397099852270141E-029
 -1.010000000000000E-002   -4.129121591125474E-029
 -1.000000000000000E-002   -5.673570957567514E-029
 -9.899999999999999E-003   -6.640550992397038E-029
 -9.800000000000000E-003   -6.612344208901481E-029
 -9.699999999999999E-003   -5.219723454093908E-029
 -9.599999999999999E-003   -2.236694293394891E-029
 -9.500000000000000E-003    2.319302694392367E-029
 -9.399999999999999E-003    8.100606332539303E-029
 -9.299999999999999E-003    1.437900519819838E-028
 -9.200000000000000E-003    2.005569967631339E-028
 -9.099999999999999E-003    2.375152654620111E-028
 -8.999999999999999E-003    2.398794621701088E-028
 -8.900000000000000E-003    1.945420802028711E-028
 -8.799999999999999E-003    9.336587712148909E-029
 -8.699999999999999E-003   -6.335966695160081E-029
 -8.600000000000000E-003   -2.639504341488846E-028
 -8.499999999999999E-003   -4.836333351681368E-028
 -8.399999999999999E-003   -6.849246776307638E-028
 -8.300000000000000E-003   -8.207369082155681E-028
 -8.199999999999999E-003   -8.405354795275585E-028
 -8.100000000000000E-003   -6.993593866554106E-028
 -8.000000000000000E-003   -3.688619316938095E-028
 -7.899999999999999E-003    1.511749464661221E-028
 -7.800000000000000E-003    8.230280709368608E-028
 -7.699999999999999E-003    1.565502319438167E-027
 -7.599999999999999E-003    2.255267999388383E-027
 -7.499999999999999E-003    2.737143050944127E-027
 -7.399999999999999E-003    2.844281593056738E-027
 -7.299999999999999E-003    2.427550876883111E-027
 -7.199999999999999E-003    1.391275831474410E-027
 -7.100000000000000E-003   -2.696946813115502E-028
 -6.999999999999999E-003   -2.438600744019218E-027
 -6.899999999999999E-003   -4.859243073259028E-027
 -6.800000000000000E-003   -7.140410983727989E-027
 -6.699999999999999E-003   -8.788617632855819E-027
 -6.599999999999999E-003   -9.271918917227726E-027
 -6.499999999999999E-003   -8.112251891812070E-027
 -6.399999999999999E-003   -4.997218003757064E-027
 -6.299999999999999E-003    1.045849888595531E-028
 -6.199999999999999E-003    6.846408769755551E-027
 -6.100000000000000E-003    1.444946048279850E-026
 -5.999999999999999E-003    2.171676215087698E-026
 -5.899999999999999E-003    2.713360296356572E-026
 -5.800000000000000E-003    2.906229594549750E-026
 -5.699999999999999E-003    2.602258010122408E-026
 -5.599999999999999E-003    1.702958410503500E-026
 -5.499999999999999E-003    1.940940264067069E-027
 -5.399999999999999E-003   -1.825212356580394E-026
 -5.299999999999999E-003   -4.126412120280217E-026
 -5.199999999999999E-003   -6.355683107091896E-026
 -5.099999999999999E-003   -8.063717018648983E-026
 -4.999999999999999E-003   -8.763184988735341E-026
 -4.899999999999999E-003   -8.011148165717080E-026
 -4.799999999999999E-003   -5.507962401868738E-026
 -4.699999999999999E-003   -1.198458257200532E-026
 -4.599999999999999E-003    4.643556896970535E-026
 -4.499999999999999E-003    1.136885267767663E-025
 -4.399999999999999E-003    1.796476104192894E-025
 -4.299999999999999E-003    2.314067790872733E-025
 -4.199999999999999E-003    2.549239428539659E-025
 -4.099999999999999E-003    2.373683029396251E-025
 -3.999999999999999E-003    1.699272451558396E-025
 -3.899999999999999E-003    5.066699817649828E-026
 -3.799999999999999E-003   -1.130865674598003E-025
 -3.699999999999999E-003   -3.034432977510939E-025
 -3.599999999999999E-003   -4.922819336962186E-025
 -3.499999999999999E-003   -6.436301081497538E-025
 -3.399999999999999E-003   -7.182231558452391E-025
 -3.299999999999999E-003   -6.799950249987698E-025
 -3.199999999999999E-003   -5.038138109050385E-025
 -3.099999999999999E-003   -1.833409671189951E-025
 -2.999999999999999E-003    2.624454855010378E-025
 -2.899999999999999E-003    7.856805749055039E-025
 -2.799999999999999E-003    1.310500287312429E-024
 -2.699999999999999E-003    1.739464050325443E-024
 -2.599999999999999E-003    1.965835875785774E-024
 -2.499999999999999E-003    1.891026129658114E-024
 -2.399999999999999E-003    1.445318718570784E-024
 -2.299999999999999E-003    6.088837798415619E-025
 -2.199999999999999E-003   -5.708154900035611E-025
 -2.099999999999999E-003   -1.969473657155936E-024
 -1.999999999999999E-003   -3.388186218655586E-024
 -1.899999999999999E-003   -4.570255299009011E-024
 -1.799999999999999E-003   -5.233322058129470E-024
 -1.699999999999999E-003   -5.114935760379646E-024
 -1.599999999999999E-003   -4.026603348731700E-024
 -1.499999999999999E-003   -1.908498525875814E-024
 -1.399999999999999E-003    1.125224638973294E-024
 -1.299999999999999E-003    4.761437531491653E-024
 -1.199999999999999E-003    8.493364832256690E-024
 -1.099999999999999E-003    1.166318843797668E-023
 -9.999999999999989E-004    1.354374429621244E-023
 -8.999999999999990E-004    1.345430685172323E-023
 -7.999999999999990E-004    1.089783947218296E-023
 -6.999999999999989E-004    5.699806222453387E-024
 -5.999999999999990E-004   -1.876700238234594E-024
 -4.999999999999989E-004   -1.106685384454532E-023
 -3.999999999999989E-004   -2.061585396798319E-023
 -2.999999999999989E-004   -2.888362599415323E-023
 -1.999999999999989E-004   -3.404667999596266E-023
 -9.999999999999892E-005   -3.438448448672272E-023
  1.084202172485504E-018   -2.861892147372986E-023
  1.000000000000011E-004   -1.625781505935044E-023
  2.000000000000011E-004    2.119443066950806E-024
  3.000000000000011E-004    2.470080693677835E-023
  4.000000000000011E-004    4.846523413277738E-023
  5.000000000000011E-004    6.943217240970074E-023
  6.000000000000011E-004    8.314674718649604E-023
  7.000000000000011E-004    8.536953654155417E-023
  8.000000000000011E-004    7.289519870074921E-023
  9.000000000000012E-004    4.438205511672789E-023
  1.000000000000001E-003    1.044665060800864E-024
  1.100000000000001E-003   -5.294933604771034E-023
  1.200000000000001E-003   -1.105208345794080E-022
  1.300000000000001E-003   -1.622561999502149E-022
  1.400000000000001E-003   -1.975421974367518E-022
  1.500000000000001E-003   -2.061859166683756E-022
  1.600000000000001E-003   -1.803409342028219E-022
  1.700000000000001E-003   -1.164646430315880E-022
  1.800000000000001E-003   -1.696090214605882E-023
  1.900000000000001E-003    1.088608877847410E-022
  2.000000000000001E-003    2.448410933345399E-022
  2.100000000000001E-003    3.692643994811883E-022
  2.200000000000001E-003    4.574462447141137E-022
  2.300000000000001E-003    4.854434363222194E-022
  2.400000000000001E-003    4.344818986021158E-022
  2.500000000000001E-003    2.954718729757214E-022
  2.600000000000001E-003    7.282374655431625E-023
  2.700000000000001E-003   -2.132747474841565E-022
  2.800000000000001E-003   -5.268726361722927E-022
  2.900000000000001E-003   -8.190717769840746E-022
  3.000000000000001E-003   -1.033769499215325E-021
  3.100000000000001E-003   -1.115957177849650E-021
  3.200000000000001E-003   -1.021668921886741E-021
  3.300000000000001E-003   -7.281756330192779E-022
  3.400000000000001E-003   -2.426752597894222E-022
  3.500000000000001E-003    3.923917631180847E-022
  3.600000000000001E-003    1.099078885058051E-021
  3.700000000000001E-003    1.769865370202245E-021
  3.800000000000001E-003    2.280081020424351E-021
  3.900000000000001E-003    2.506033145045733E-021
  4.000000000000001E-003    2.346865369897649E-021
  4.100000000000001E-003    1.747105333736551E-021
  4.200000000000001E-003    7.160787987625145E-022
  4.300000000000001E-003   -6.598856438876071E-022
  4.400000000000001E-003   -2.216128594302257E-021
  4.500000000000001E-003   -3.721742433310320E-021
  4.600000000000002E-003   -4.905763931711811E-021
  4.700000000000001E-003   -5.495854246823370E-021
  4.800000000000001E-003   -5.265309824927639E-021
  4.900000000000002E-003   -4.081928948993875E-021
  5.000000000000001E-003   -1.950590761420559E-021
  5.100000000000001E-003    9.591708187007257E-022
  5.200000000000001E-003    4.308488862177597E-021
  5.300000000000002E-003    7.612891378120998E-021
  5.400000000000001E-003    1.029611208932209E-020
  5.500000000000001E-003    1.177076578464180E-020
  5.600000000000002E-003    1.153734822254480E-020
  5.700000000000001E-003    9.288098892076268E-021
  5.800000000000001E-003    4.998734521046550E-021
  5.900000000000002E-003   -1.010257298974763E-021
  6.000000000000001E-003   -8.059439330004141E-021
  6.100000000000001E-003   -1.515520228634120E-020
  6.200000000000002E-003   -2.109747779662505E-020
  6.300000000000002E-003   -2.464430540455477E-020
  6.400000000000001E-003   -2.471610806326456E-020
  6.500000000000001E-003   -2.061236324078955E-020
  6.600000000000002E-003   -1.220586250867018E-020
  6.700000000000001E-003   -7.683659117259620E-023
  6.800000000000001E-003    1.444776569072370E-020
  6.900000000000002E-003    2.937495982370937E-020
  7.000000000000001E-003    4.225577245490833E-020
  7.100000000000001E-003    5.051358107951350E-020
  7.200000000000002E-003    5.185742827913727E-020
  7.300000000000002E-003    4.472594072920334E-020
  7.400000000000001E-003    2.869203544769966E-020
  7.500000000000001E-003    4.751896251925933E-021
  7.600000000000002E-003   -2.457279517419074E-020
  7.700000000000001E-003   -5.537212565339455E-020
  7.800000000000001E-003   -8.274639293088336E-020
  7.900000000000001E-003   -1.014471599244049E-019
  8.000000000000002E-003   -1.066974955637434E-019
  8.100000000000001E-003   -9.508571839601081E-020
  8.200000000000001E-003   -6.539508914100971E-020
  8.300000000000002E-003   -1.921714008265675E-020
  8.400000000000001E-003    3.879498543012877E-020
  8.500000000000002E-003    1.011422593862530E-019
  8.600000000000002E-003    1.582141320355611E-019
  8.700000000000001E-003    1.995126534232429E-019
  8.800000000000002E-003    2.152494266405590E-019
  8.900000000000002E-003    1.981143286905203E-019
  9.000000000000001E-003    1.449499048904769E-019
  9.100000000000002E-003    5.803263358401118E-020
  9.200000000000002E-003   -5.432440564390995E-020
  9.300000000000001E-003   -1.780707453372155E-019
  9.400000000000002E-003   -2.947304130456142E-019
  9.500000000000001E-003   -3.836882592539249E-019
  9.600000000000001E-003   -4.252405592982794E-019
  9.700000000000002E-003   -4.040361035335514E-019
  9.800000000000001E-003   -3.124016640121999E-019
  9.900000000000001E-003   -1.529758858605948E-019
  1.000000000000000E-002    5.990888193373688E-020
  1.010000000000000E-002    3.005471496102438E-019
  1.020000000000000E-002    5.341271922913012E-019
  1.030000000000000E-002    7.209060351696545E-019
  1.040000000000000E-002    8.219305674205994E-019
  1.050000000000000E-002    8.056204648643445E-019
  1.060000000000000E-002    6.542692403628810E-019
  1.070000000000000E-002    3.693694478448837E-019
  1.080000000000000E-002   -2.532303899891593E-020
  1.090000000000000E-002   -4.838823551433130E-019
  1.100000000000000E-002   -9.419871332873925E-019
  1.110000000000000E-002   -1.324379966307152E-018
  1.120000000000000E-002   -1.555403924771810E-018
  1.130000000000000E-002   -1.571395170558628E-018
  1.140000000000000E-002   -1.333197593580331E-018
  1.150000000000000E-002   -8.367538591246693E-019
  1.160000000000000E-002   -1.196976243860886E-019
  1.170000000000000E-002    7.378111639928354E-019
  1.180000000000000E-002    1.619110178997860E-018
  1.190000000000000E-002    2.384073872840011E-018
  1.200000000000000E-002    2.888187541785371E-018
  1.210000000000000E-002    3.005522850469011E-018
  1.220000000000000E-002    2.652476687953069E-018
  1.230000000000000E-002    1.808499907904568E-018
  1.240000000000000E-002    5.299062726408424E-019
  1.250000000000000E-002   -1.046646753218693E-018
  1.260000000000000E-002   -2.713277717659357E-018
  1.270000000000000E-002   -4.213171905998245E-018
  1.280000000000000E-002   -5.274540728864794E-018
  1.290000000000000E-002   -5.652593413537172E-018
  1.300000000000000E-002   -5.173936588101526E-018
  1.310000000000000E-002   -3.776528619395693E-018
  1.320000000000000E-002   -1.537917048945291E-018
  1.330000000000000E-002    1.314756029976178E-018
  1.340000000000000E-002    4.417571332793859E-018
  1.350000000000000E-002    7.307054355524330E-018
  1.360000000000000E-002    9.479636022103233E-018
  1.370000000000000E-002    1.046721810719564E-017
  1.380000000000000E-002    9.919061466377313E-018
  1.390000000000000E-002    7.677647449644214E-018
  1.400000000000000E-002    3.835153049600262E-018
  1.410000000000000E-002   -1.241743622388120E-018
  1.420000000000000E-002   -6.927815214673588E-018
  1.430000000000000E-002   -1.239984327369853E-017
  1.440000000000000E-002   -1.673895860005504E-017
  1.450000000000000E-002   -1.906468467198675E-017
  1.460000000000000E-002   -1.868381733115142E-017
  1.470000000000000E-002   -1.523225638015068E-017
  1.480000000000000E-002   -8.785576577761047E-018
  1.490000000000000E-002    8.453219787165679E-020
  1.500000000000000E-002    1.032555719116716E-017
  1.510000000000000E-002    2.049987219515820E-017
  1.520000000000000E-002    2.895774667754132E-017
  1.530000000000000E-002    3.407151425026468E-017
  1.540000000000000E-002    3.450227674081458E-017
  1.550000000000000E-002    2.946084007747911E-017
  1.560000000000000E-002    1.891960313647168E-017
  1.570000000000000E-002    3.733518543766619E-018
  1.580000000000000E-002   -1.436343809299523E-017
  1.590000000000000E-002   -3.290464838038935E-017
  1.600000000000000E-002   -4.897807799315183E-017
  1.610000000000000E-002   -5.962909653045700E-017
  1.620000000000000E-002   -6.233102110814920E-017
  1.630000000000000E-002   -5.545731455284830E-017
  1.640000000000000E-002   -3.867916179906422E-017
  1.650000000000000E-002   -1.321269074884435E-017
  1.660000000000000E-002    1.814664724066621E-017
  1.670000000000000E-002    5.123996941193833E-017
  1.680000000000000E-002    8.101333784101404E-017
  1.690000000000000E-002    1.022003493478077E-016
  1.700000000000000E-002    1.101399863203501E-016
  1.710000000000000E-002    1.016172835823010E-016
  1.720000000000000E-002    7.559404974619385E-017
  1.730000000000000E-002    3.369506453297324E-017
  1.740000000000000E-002   -1.966482376656496E-017
  1.750000000000000E-002   -7.758581320935604E-017
  1.760000000000000E-002   -1.314342067694858E-016
  1.770000000000000E-002   -1.719826470919231E-016
  1.780000000000000E-002   -1.908116500644572E-016
  1.790000000000000E-002   -1.817830397225791E-016
  1.800000000000000E-002   -1.423576709775578E-016
  1.810000000000000E-002   -7.452125016756684E-017
  1.820000000000000E-002    1.488765168969637E-017
  1.830000000000000E-002    1.145862717820439E-016
  1.840000000000000E-002    2.100323358302979E-016
  1.850000000000000E-002    2.853038055888917E-016
  1.860000000000000E-002    3.254683714397997E-016
  1.870000000000000E-002    3.191292764651302E-016