 -4.000000000000000E-002    0.000000000000000E+000
 -3.990000000000000E-002    0.000000000000000E+000
 -3.980000000000000E-002    0.000000000000000E+000
 -3.970000000000000E-002    0.000000000000000E+000
 -3.960000000000000E-002    0.000000000000000E+000
 -3.950000000000000E-002    0.000000000000000E+000
 -3.940000000000000E-002    0.000000000000000E+000
 -3.930000000000000E-002    0.000000000000000E+000
 -3.920000000000000E-002    0.000000000000000E+000
 -3.910000000000000E-002    0.000000000000000E+000
 -3.900000000000000E-002    5.577710760026240E-032
 -3.890000000000000E-002    1.031838325483018E-030
 -3.880000000000000E-002    9.837591755776260E-030
 -3.870000000000000E-002    6.420942537417789E-029
 -3.860000000000000E-002    3.214624382324276E-028
 -3.850000000000000E-002    1.310711804027045E-027
 -3.840000000000000E-002    4.508654030726802E-027
 -3.830000000000000E-002    1.336219601883787E-026
 -3.820000000000000E-002    3.448310827386909E-026
 -3.810000000000000E-002    7.750159339318502E-026
 -3.800000000000000E-002    1.493761220140963E-025
 -3.790000000000000E-002    2.344659736569208E-025
 -3.780000000000000E-002    2.461602173183350E-025
 -3.770000000000000E-002   -6.741275089217468E-026
 -3.760000000000000E-002   -1.274892892990651E-024
 -3.750000000000000E-002   -4.454374430247196E-024
 -3.740000000000000E-002   -1.134849576934211E-023
 -3.730000000000000E-002   -2.429476267229501E-023
 -3.720000000000000E-002   -4.559592418353438E-023
 -3.710000000000000E-002   -7.584748951999615E-023
 -3.700000000000000E-002   -1.106834337173335E-022
 -3.690000000000000E-002   -1.355880200817343E-022
 -3.680000000000000E-002   -1.190465781543672E-022
 -3.670000000000000E-002   -5.552639428668874E-024
 -3.660000000000000E-002    2.880848006962521E-022
 -3.650000000000000E-002    8.672951870717751E-022
 -3.640000000000000E-002    1.837110659940939E-021
 -3.630000000000000E-002    3.253466376051221E-021
 -3.620000000000000E-002    5.041847932146232E-021
 -3.610000000000000E-002    6.884029708411623E-021
 -3.600000000000000E-002    8.087548846965973E-021
 -3.590000000000000E-002    7.473144214689227E-021
 -3.580000000000000E-002    3.340223648968846E-021
 -3.570000000000000E-002   -6.406584594773412E-021
 -3.560000000000000E-002   -2.387569546477998E-020
 -3.550000000000000E-002   -5.047176725634846E-020
 -3.540000000000000E-002   -8.581750492225469E-020
 -3.530000000000000E-002   -1.263906632928427E-019
 -3.520000000000000E-002   -1.641051074315194E-019
 -3.510000000000000E-002   -1.852493870051451E-019
 -3.500000000000000E-002   -1.703746176600325E-019
 -3.490000000000000E-002   -9.583288615668920E-020
 -3.480000000000000E-002    6.237026377214451E-020
 -3.470000000000000E-002    3.220114274647342E-019
 -3.460000000000000E-002    6.855272528454163E-019
 -3.450000000000000E-002    1.129330271635116E-018
 -3.440000000000000E-002    1.593608326133630E-018
 -3.430000000000000E-002    1.975721992282143E-018
 -3.420000000000000E-002    2.131104623016517E-018
 -3.410000000000000E-002    1.885699197657615E-018
 -3.400000000000000E-002    1.063055727243070E-018
 -3.390000000000000E-002   -4.730407820042328E-019
 -3.380000000000000E-002   -2.763191140685172E-018
 -3.370000000000000E-002   -5.691797999922086E-018
 -3.360000000000000E-002   -8.933966984969018E-018
 -3.350000000000000E-002   -1.192691607138745E-017
 -3.340000000000000E-002   -1.388495235016696E-017
 -3.330000000000000E-002   -1.387515007692005E-017
 -3.320000000000000E-002   -1.096378024652243E-017
 -3.310000000000000E-002   -4.430703658459605E-018
 -3.300000000000000E-002    5.968837218008693E-018
 -3.290000000000000E-002    1.973606739940717E-017
 -3.280000000000000E-002    3.541436410989216E-017
 -3.270000000000000E-002    5.050163640265987E-017
 -3.260000000000000E-002    6.156267921368649E-017
 -3.250000000000000E-002    6.459802639537331E-017
 -3.240000000000000E-002    5.568901320143895E-017
 -3.230000000000000E-002    3.188322895913880E-017
 -3.220000000000000E-002   -7.784140181679585E-018
 -3.210000000000000E-002   -6.130801209935740E-017
 -3.200000000000000E-002   -1.230015357013489E-016
 -3.190000000000000E-002   -1.833110167492497E-016
 -3.180000000000000E-002   -2.293899637169798E-016
 -3.170000000000000E-002   -2.465805381472054E-016
 -3.160000000000000E-002   -2.208053096799819E-016
 -3.150000000000000E-002   -1.416756883161612E-016
 -3.140000000000000E-002   -5.905122627900924E-018
 -3.130000000000000E-002    1.795869034377707E-016
 -3.120000000000000E-002    3.956285134381418E-016
 -3.110000000000000E-002    6.105729915322132E-016
 -3.100000000000000E-002    7.825269797989636E-016
 -3.090000000000000E-002    8.643426113135631E-016
 -3.080000000000000E-002    8.112132865625959E-016
 -3.070000000000000E-002    5.901314989904175E-016
 -3.060000000000000E-002    1.898716411732772E-016
 -3.050000000000000E-002   -3.703320643239847E-016
 -3.040000000000000E-002   -1.035502873045592E-015
 -3.030000000000000E-002   -1.715028195806513E-015
 -3.020000000000000E-002   -2.289634768086577E-015
 -3.010000000000000E-002   -2.625755321576831E-015
 -3.000000000000000E-002   -2.596507977118786E-015
 -2.990000000000000E-002   -2.107016876473489E-015
 -2.980000000000000E-002   -1.120391674983764E-015
 -2.970000000000000E-002    3.203781065295392E-016
 -2.960000000000000E-002    2.079741376983975E-015
 -2.950000000000000E-002    3.930750811303222E-015
 -2.940000000000000E-002    5.573204080811013E-015
 -2.930000000000000E-002    6.669452587907953E-015
 -2.920000000000000E-002    6.895452698841939E-015
 -2.910000000000000E-002    6.001273356336950E-015
 -2.900000000000000E-002    3.872288166022756E-015
 -2.890000000000000E-002    5.802449481785951E-016
 -2.880000000000000E-002   -3.587040600195973E-015
 -2.870000000000000E-002   -8.127122217428764E-015
 -2.860000000000000E-002   -1.236169135843175E-014
 -2.850000000000000E-002   -1.551352156961199E-014
 -2.840000000000000E-002   -1.681591897421610E-014
 -2.830000000000000E-002   -1.564228884112930E-014
 -2.820000000000000E-002   -1.163770975738626E-014
 -2.810000000000000E-002   -4.830787966842018E-015
 -2.800000000000000E-002    4.296352426370763E-015
 -2.790000000000000E-002    1.479885497854128E-014
 -2.780000000000000E-002    2.533254808104431E-014
 -2.770000000000000E-002    3.429185351825007E-014
 -2.760000000000000E-002    4.001206051996428E-014
 -2.750000000000000E-002    4.101392309072612E-014
 -2.740000000000000E-002    3.625855970634736E-014
 -2.730000000000000E-002    2.537440781027870E-014
 -2.720000000000000E-002    8.817204977159939E-015
 -2.710000000000000E-002   -1.207065484936862E-014
 -2.700000000000000E-002   -3.512389916556218E-014
 -2.690000000000000E-002   -5.754775980763690E-014
 -2.680000000000000E-002   -7.622838505449153E-014
 -2.670000000000000E-002   -8.812907958761510E-014
 -2.660000000000000E-002   -9.072483541605459E-014
 -2.650000000000000E-002   -8.241706829907853E-014
 -2.640000000000000E-002   -6.286719964276277E-014
 -2.630000000000000E-002   -3.319335031209378E-014
 -2.620000000000000E-002    4.012235827997893E-015
 -2.610000000000000E-002    4.486618480198459E-014
 -2.600000000000000E-002    8.457374421372815E-014
 -2.590000000000000E-002    1.179744045202064E-013
 -2.580000000000000E-002    1.401979324868797E-013
 -2.570000000000000E-002    1.473556063885199E-013
 -2.560000000000000E-002    1.371794510245296E-013
 -2.550000000000000E-002    1.095200573731225E-013
 -2.540000000000000E-002    6.662161162482582E-014
 -2.530000000000000E-002    1.311132804612627E-014
 -2.520000000000000E-002   -4.433218058467928E-014
 -2.510000000000000E-002   -9.763240934430789E-014
 -2.500000000000000E-002   -1.382525132734079E-013
 -2.490000000000000E-002   -1.583381389298284E-013
 -2.480000000000000E-002   -1.519498376411186E-013
 -2.470000000000000E-002   -1.162387687051016E-013
 -2.460000000000000E-002   -5.240008194247215E-014
 -2.450000000000000E-002    3.376298063841561E-014
 -2.440000000000000E-002    1.318150218411646E-013
 -2.430000000000000E-002    2.273119799184599E-013
 -2.420000000000000E-002    3.031169055621931E-013
 -2.410000000000000E-002    3.413655607845194E-013
 -2.400000000000000E-002    3.259404288235216E-013
 -2.390000000000000E-002    2.452086956950673E-013
 -2.380000000000000E-002    9.468792518444460E-014
 -2.370000000000000E-002   -1.207584889468406E-013
 -2.360000000000000E-002   -3.856133581976219E-013
 -2.350000000000000E-002   -6.736610438476986E-013
 -2.340000000000000E-002   -9.494715016567994E-013
 -2.330000000000000E-002   -1.171509526509857E-012
 -2.320000000000000E-002   -1.296738680946217E-012
 -2.310000000000000E-002   -1.286339831375741E-012
 -2.300000000000000E-002   -1.111922050282573E-012
 -2.290000000000000E-002   -7.614089927614122E-013
 -2.280000000000000E-002   -2.436796304583195E-013
 -2.270000000000000E-002    4.089335996681338E-013
 -2.260000000000000E-002    1.141022796601096E-012
 -2.250000000000000E-002    1.877787983515985E-012
 -2.240000000000000E-002    2.532020856074167E-012
 -2.230000000000000E-002    3.013890398382364E-012
 -2.220000000000000E-002    3.242533367256901E-012
 -2.210000000000000E-002    3.158032035870212E-012
 -2.200000000000000E-002    2.732098116286971E-012
 -2.190000000000000E-002    1.975738219476624E-012
 -2.180000000000000E-002    9.424046482455935E-013
 -2.170000000000000E-002   -2.743955335256825E-013
 -2.160000000000000E-002   -1.549353521285537E-012
 -2.150000000000000E-002   -2.738959006468606E-012
 -2.140000000000000E-002   -3.699079908146133E-012
 -2.130000000000000E-002   -4.304405453593758E-012
 -2.120000000000000E-002   -4.467132058912106E-012
 -2.110000000000000E-002   -4.152108430381968E-012
 -2.100000000000000E-002   -3.385906778664147E-012
 -2.090000000000000E-002   -2.257921617879566E-012
 -2.080000000000000E-002   -9.126181054813464E-013
 -2.070000000000000E-002    4.667604732593028E-013
 -2.060000000000000E-002    1.681419228361862E-012
 -2.050000000000000E-002    2.544427575297731E-012
 -2.040000000000000E-002    2.908757444498811E-012
 -2.030000000000000E-002    2.691997419825902E-012
 -2.020000000000000E-002    1.893977512451687E-012
 -2.010000000000000E-002    6.042348073603388E-013
 -2.000000000000000E-002   -1.002493499378046E-012
 -1.990000000000000E-002   -2.683097079744300E-012
 -1.980000000000000E-002   -4.153875821370930E-012
 -1.970000000000000E-002   -5.126382885903915E-012
 -1.960000000000000E-002   -5.347153280252570E-012
 -1.950000000000000E-002   -4.636414221134821E-012
 -1.940000000000000E-002   -2.920685618730949E-012
 -1.930000000000000E-002   -2.546572357013342E-013
 -1.920000000000000E-002    3.171192155748658E-012
 -1.910000000000000E-002    7.039298538094353E-012
 -1.900000000000000E-002    1.093024584938348E-011
 -1.890000000000000E-002    1.436289944404549E-011
 -1.880000000000000E-002    1.684596404108392E-011
 -1.870000000000000E-002    1.793607503863567E-011
 -1.860000000000000E-002    1.729635889660511E-011
 -1.850000000000000E-002    1.474898107820363E-011
 -1.840000000000000E-002    1.031514001308822E-011
 -1.830000000000000E-002    4.236705447058316E-012
 -1.820000000000000E-002   -3.025094779050940E-012
 -1.810000000000000E-002   -1.081660135024468E-011
 -1.800000000000000E-002   -1.834461317132267E-011
 -1.790000000000000E-002   -2.475279444731681E-011
 -1.780000000000000E-002   -2.921611428309742E-011
 -1.770000000000000E-002   -3.104493028473437E-011
 -1.760000000000000E-002   -2.978753728774651E-011
 -1.750000000000000E-002   -2.531846584836259E-011
 -1.740000000000000E-002   -1.789880474725440E-011
 -1.730000000000000E-002   -8.196055077537396E-012
 -1.720000000000000E-002    2.746168800339159E-012
 -1.710000000000000E-002    1.359353632560626E-011
 -1.700000000000000E-002    2.285966868673921E-011
 -1.690000000000000E-002    2.908853488822162E-011
 -1.680000000000000E-002    3.106293370122547E-011
 -1.670000000000000E-002    2.801418296826665E-011
 -1.660000000000000E-002    1.980294452269965E-011
 -1.650000000000000E-002    7.039818715647683E-012
 -1.640000000000000E-002   -8.882861267407139E-012
 -1.630000000000000E-002   -2.586856458719028E-011
 -1.620000000000000E-002   -4.131137180735167E-011
 -1.610000000000000E-002   -5.239955055026353E-011
 -1.600000000000000E-002   -5.650125226723942E-011
 -1.590000000000000E-002   -5.158820673473732E-011
 -1.580000000000000E-002   -3.664016047132305E-011
 -1.570000000000000E-002   -1.196509619149968E-011
 -1.560000000000000E-002    2.062705428807282E-011
 -1.550000000000000E-002    5.784774807292601E-011
 -1.540000000000000E-002    9.517851141768510E-011
 -1.530000000000000E-002    1.273425237702289E-010
 -1.520000000000000E-002    1.489624698922574E-010
 -1.510000000000000E-002    1.553326378136653E-010
 -1.500000000000000E-002    1.432049863442017E-010
 -1.490000000000000E-002    1.114715052561439E-010
 -1.480000000000000E-002    6.162368214556981E-011
 -1.470000000000000E-002   -2.112480038383006E-012
 -1.460000000000000E-002   -7.303154293961987E-011
 -1.450000000000000E-002   -1.426082709159809E-010
 -1.440000000000000E-002   -2.015148958282703E-010
 -1.430000000000000E-002   -2.408875027584835E-010
 -1.420000000000000E-002   -2.536793929640808E-010
 -1.410000000000000E-002   -2.359045337718976E-010
 -1.400000000000000E-002   -1.875666181191546E-010
 -1.390000000000000E-002   -1.130916702474839E-010
 -1.380000000000000E-002   -2.113761509533015E-011
 -1.370000000000000E-002    7.626399024052251E-011
 -1.360000000000000E-002    1.651790169034015E-010
 -1.350000000000000E-002    2.316979104601084E-010
 -1.340000000000000E-002    2.640704334362942E-010
 -1.330000000000000E-002    2.547386816032950E-010
 -1.320000000000000E-002    2.019392009825842E-010
 -1.310000000000000E-002    1.105746135273996E-010
 -1.300000000000000E-002   -7.862786171042602E-012
 -1.290000000000000E-002   -1.364085687713297E-010
 -1.280000000000000E-002   -2.547226527284538E-010
 -1.270000000000000E-002   -3.419418582066286E-010
 -1.260000000000000E-002   -3.799208514734223E-010
 -1.250000000000000E-002   -3.563922197455642E-010
 -1.240000000000000E-002   -2.675394576811792E-010
 -1.230000000000000E-002   -1.195139263605346E-010
 -1.220000000000000E-002    7.145451769642009E-011
 -1.210000000000000E-002    2.805187661155594E-010
 -1.200000000000000E-002    4.771815613003875E-010
 -1.190000000000000E-002    6.294584574353703E-010
 -1.180000000000000E-002    7.087041742845419E-010
 -1.170000000000000E-002    6.944146273766909E-010
 -1.160000000000000E-002    5.782482705000713E-010
 -1.150000000000000E-002    3.665608198970083E-010
 -1.140000000000000E-002    8.091122320590611E-011
 -1.130000000000000E-002   -2.437379609507586E-010
 -1.120000000000000E-002   -5.630659076911701E-010
 -1.110000000000000E-002   -8.292685752574312E-010
 -1.100000000000000E-002   -9.980218674683793E-010
 -1.090000000000000E-002   -1.035553417305828E-009
 -1.080000000000000E-002   -9.247365413280994E-010
 -1.070000000000000E-002   -6.691789953431610E-010
 -1.060000000000000E-002   -2.944969209366434E-010
 -1.050000000000000E-002    1.536647180055418E-010
 -1.040000000000000E-002    6.148360788262517E-010
 -1.030000000000000E-002    1.021619360023684E-009
 -1.020000000000000E-002    1.309285614271647E-009
 -1.010000000000000E-002    1.425734345537387E-009
 -1.000000000000000E-002    1.340316700799050E-009
 -9.899999999999999E-003    1.050081236549649E-009
 -9.800000000000000E-003    5.822903986557521E-010
 -9.699999999999999E-003   -7.455682939755934E-012
 -9.599999999999999E-003   -6.415226825459877E-010
 -9.500000000000000E-003   -1.230324059058868E-009
 -9.399999999999999E-003   -1.684906983826687E-009
 -9.299999999999999E-003   -1.930288477210004E-009
 -9.200000000000000E-003   -1.917554244399609E-009
 -9.099999999999999E-003   -1.632785516626804E-009
 -8.999999999999999E-003   -1.101241753637254E-009
 -8.900000000000000E-003   -3.858523529516921E-010
 -8.799999999999999E-003    4.201121109398095E-010
 -8.699999999999999E-003    1.205432210053055E-009
 -8.600000000000000E-003    1.856807403326275E-009
 -8.499999999999999E-003    2.275983767565988E-009
 -8.399999999999999E-003    2.395589029915913E-009
 -8.300000000000000E-003    2.191172263504158E-009
 -8.199999999999999E-003    1.687376263224334E-009
 -8.100000000000000E-003    9.569498910026341E-010
 -8.000000000000000E-003    1.123308503524642E-010
 -7.899999999999999E-003   -7.093482096436030E-010
 -7.800000000000000E-003   -1.365920678368471E-009
 -7.699999999999999E-003   -1.731785769581852E-009
 -7.599999999999999E-003   -1.718269788772388E-009
 -7.499999999999999E-003   -1.289587823955090E-009
 -7.399999999999999E-003   -4.717432727004471E-010
 -7.299999999999999E-003    6.473662392065623E-010
 -7.199999999999999E-003    1.927126634170434E-009
 -7.100000000000000E-003    3.191779033287869E-009
 -6.999999999999999E-003    4.254189326322117E-009
 -6.899999999999999E-003    4.942573787637142E-009
 -6.800000000000000E-003    5.126347171845228E-009
 -6.699999999999999E-003    4.737214449497174E-009
 -6.599999999999999E-003    3.782173543051088E-009
 -6.499999999999999E-003    2.346156761279558E-009
 -6.399999999999999E-003    5.835093574077957E-010
 -6.299999999999999E-003   -1.300850560338059E-009
 -6.199999999999999E-003   -3.078156946653937E-009
 -6.100000000000000E-003   -4.526679757976130E-009
 -5.999999999999999E-003   -5.462236687577559E-009
 -5.899999999999999E-003   -5.763669120215222E-009
 -5.800000000000000E-003   -5.389164923850188E-009
 -5.699999999999999E-003   -4.380470983256996E-009
 -5.599999999999999E-003   -2.853749290146998E-009
 -5.499999999999999E-003   -9.777267632297980E-010
 -5.399999999999999E-003    1.058279195548559E-009
 -5.299999999999999E-003    3.082278060182884E-009
 -5.199999999999999E-003    4.978204973191758E-009
 -5.099999999999999E-003    6.719643028372673E-009
 -4.999999999999999E-003    8.393550596456323E-009
 -4.899999999999999E-003    1.021014005025182E-008
 -4.799999999999999E-003    1.249687967117501E-008
 -4.699999999999999E-003    1.567686808207351E-008
 -4.599999999999999E-003    2.023402389969137E-008
 -4.499999999999999E-003    2.666955796005141E-008
 -4.399999999999999E-003    3.545573198599275E-008
 -4.299999999999999E-003    4.699320675481717E-008
 -4.199999999999999E-003    6.157855870483780E-008
 -4.099999999999999E-003    7.938659475815030E-008
 -3.999999999999999E-003    1.004708130513363E-007
 -3.899999999999999E-003    1.247824490928090E-007
 -3.799999999999999E-003    1.522060252165144E-007
 -3.699999999999999E-003    1.826067641152249E-007
 -3.599999999999999E-003    2.158836149758919E-007
 -3.499999999999999E-003    2.520202698689183E-007
 -3.399999999999999E-003    2.911267712318459E-007
 -3.299999999999999E-003    3.334654355815696E-007
 -3.199999999999999E-003    3.794563686578726E-007
 -3.099999999999999E-003    4.296616752680371E-007
 -2.999999999999999E-003    4.847494121398137E-007
 -2.899999999999999E-003    5.454417731963503E-007
 -2.799999999999999E-003    6.124544027302674E-007
 -2.699999999999999E-003    6.864359912317725E-007
 -2.599999999999999E-003    7.679161435874530E-007
 -2.499999999999999E-003    8.572702041264177E-007
 -2.399999999999999E-003    9.547062505849402E-007
 -2.299999999999999E-003    1.060278155867851E-006
 -2.199999999999999E-003    1.173923147571738E-006
 -2.099999999999999E-003    1.295519982301062E-006
 -1.999999999999999E-003    1.424960219244026E-006
 -1.899999999999999E-003    1.562223294863888E-006
 -1.799999999999999E-003    1.707444469606926E-006
 -1.699999999999999E-003    1.860965395026756E-006
 -1.599999999999999E-003    2.023361139214446E-006
 -1.499999999999999E-003    2.195437779497907E-006
 -1.399999999999999E-003    2.378198888916411E-006
 -1.299999999999999E-003    2.572788512907382E-006
 -1.199999999999999E-003    2.780415158028934E-006
 -1.099999999999999E-003    3.002269003365766E-006
 -9.999999999999989E-004    3.239443258204174E-006
 -8.999999999999990E-004    3.492874974114748E-006
 -7.999999999999990E-004    3.763310353346647E-006
 -6.999999999999989E-004    4.051304559538075E-006
 -5.999999999999990E-004    4.357255955237357E-006
 -4.999999999999989E-004    4.681472500608950E-006
 -3.999999999999989E-004    5.024260469945615E-006
 -2.999999999999989E-004    5.386025979430655E-006
 -1.999999999999989E-004    5.767371638461157E-006
 -9.999999999999892E-005    6.169176508158765E-006
  1.084202172485504E-018    6.592649180850573E-006
  1.000000000000011E-004    7.039341721792554E-006
  2.000000000000011E-004    7.511123902006612E-006
  3.000000000000011E-004    8.010118897524150E-006
  4.000000000000011E-004    8.538615441078634E-006
  5.000000000000011E-004    9.098954429068291E-006
  6.000000000000011E-004    9.693427236216315E-006
  7.000000000000011E-004    1.032418333644298E-005
  8.000000000000011E-004    1.099317280464365E-005
  9.000000000000012E-004    1.170212531166733E-005
  1.000000000000001E-003    1.245258101079158E-005
  1.100000000000001E-003    1.324595720344267E-005
  1.200000000000001E-003    1.408365629900791E-005
  1.300000000000001E-003    1.496719027560858E-005
  1.400000000000001E-003    1.589830884331430E-005
  1.500000000000001E-003    1.687911066335210E-005
  1.600000000000001E-003    1.791212739237016E-005
  1.700000000000001E-003    1.900036078510777E-005
  1.800000000000001E-003    2.014727238344347E-005
  1.900000000000001E-003    2.135672676202336E-005
  2.000000000000001E-003    2.263289234248199E-005
  2.100000000000001E-003    2.398012379318436E-005
  2.200000000000001E-003    2.540283596678003E-005
  2.300000000000001E-003    2.690539477571921E-005
  2.400000000000001E-003    2.849203425220589E-005
  2.500000000000001E-003    3.016682872829138E-005
  2.600000000000001E-003    3.193370309669199E-005
  2.700000000000001E-003    3.379651577435710E-005
  2.800000000000001E-003    3.575915227546991E-005
  2.900000000000001E-003    3.782567516446088E-005
  3.000000000000001E-003    4.000046752373926E-005
  3.100000000000001E-003    4.228836950368752E-005
  3.200000000000001E-003    4.469477151759041E-005
  3.300000000000001E-003    4.722568032651613E-005
  3.400000000000001E-003    4.988771586955412E-005
  3.500000000000001E-003    5.268806452193786E-005
  3.600000000000001E-003    5.563438579488226E-005
  3.700000000000001E-003    5.873468768931297E-005
  3.800000000000001E-003    6.199720002267557E-005
  3.900000000000001E-003    6.543024602869499E-005
  4.000000000000001E-003    6.904216224681041E-005
  4.100000000000001E-003    7.284124334207430E-005
  4.200000000000001E-003    7.683577346304702E-005
  4.300000000000001E-003    8.103406637570598E-005
  4.400000000000001E-003    8.544460515717904E-005
  4.500000000000001E-003    9.007618307345431E-005
  4.600000000000002E-003    9.493805160972775E-005
  4.700000000000001E-003    1.000400955954572E-004
  4.800000000000001E-003    1.053929317654232E-004
  4.900000000000002E-003    1.110080126613578E-004
  5.000000000000001E-003    1.168976258744708E-004
  5.100000000000001E-003    1.230748794513274E-004
  5.200000000000001E-003    1.295536243554785E-004
  5.300000000000002E-003    1.363483229921494E-004
  5.400000000000001E-003    1.434739284338008E-004
  5.500000000000001E-003    1.509457464991840E-004
  5.600000000000002E-003    1.587793547963882E-004
  5.700000000000001E-003    1.669904933674741E-004
  5.800000000000001E-003    1.755951159016157E-004
  5.900000000000002E-003    1.846093753388519E-004
  6.000000000000001E-003    1.940497665000264E-004
  6.100000000000001E-003    2.039332388188473E-004
  6.200000000000002E-003    2.142773800660783E-004
  6.300000000000002E-003    2.251005743434513E-004
  6.400000000000001E-003    2.364221844917594E-004
  6.500000000000001E-003    2.482626005099635E-004
  6.600000000000002E-003    2.606433596455998E-004
  6.700000000000001E-003    2.735871245292120E-004
  6.800000000000001E-003    2.871176737543950E-004
  6.900000000000002E-003    3.012598042463747E-004
  7.000000000000001E-003    3.160391414150151E-004
  7.100000000000001E-003    3.314821359263670E-004
  7.200000000000002E-003    3.476158354127658E-004
  7.300000000000002E-003    3.644678048323642E-004
  7.400000000000001E-003    3.820661481279347E-004
  7.500000000000001E-003    4.004394365751885E-004
  7.600000000000002E-003    4.196168040873039E-004
  7.700000000000001E-003    4.396280219001944E-004
  7.800000000000001E-003    4.605036845512510E-004
  7.900000000000001E-003    4.822753513976833E-004
  8.000000000000002E-003    5.049757840567596E-004
  8.100000000000001E-003    5.286389498800991E-004
  8.200000000000001E-003    5.533002428772119E-004
  8.300000000000002E-003    5.789964802236222E-004
  8.400000000000001E-003    6.057659283105471E-004
  8.500000000000002E-003    6.336482805294533E-004
  8.600000000000002E-003    6.626845366984150E-004
  8.700000000000001E-003    6.929168831323669E-004
  8.800000000000002E-003    7.243885895063425E-004
  8.900000000000002E-003    7.571438755796295E-004
  9.000000000000001E-003    7.912278414762470E-004
  9.100000000000002E-003    8.266864898455474E-004
  9.200000000000002E-003    8.635666717893417E-004
  9.300000000000001E-003    9.019162058697249E-004
  9.400000000000002E-003    9.417839734726650E-004
  9.500000000000001E-003    9.832199671919589E-004
  9.600000000000001E-003    1.026275630623428E-003
  9.700000000000002E-003    1.071003790072798E-003
  9.800000000000001E-003    1.117458946119089E-003
  9.900000000000001E-003    1.165697168934090E-003
  1.000000000000000E-002    1.215776233600539E-003
  1.010000000000000E-002    1.267755414218479E-003
  1.020000000000000E-002    1.321695513475887E-003
  1.030000000000000E-002    1.377658871202337E-003
  1.040000000000000E-002    1.435708978326630E-003
  1.050000000000000E-002    1.495910549693671E-003
  1.060000000000000E-002    1.558329166582051E-003
  1.070000000000000E-002    1.623031594377839E-003
  1.080000000000000E-002    1.690085533693354E-003
  1.090000000000000E-002    1.759559662536328E-003
  1.100000000000000E-002    1.831524085137491E-003
  1.110000000000000E-002    1.906049762815176E-003
  1.120000000000000E-002    1.983209381949878E-003
  1.130000000000000E-002    2.063077171656390E-003
  1.140000000000000E-002    2.145728706770882E-003
  1.150000000000000E-002    2.231241536675550E-003
  1.160000000000000E-002    2.319694602294147E-003
  1.170000000000000E-002    2.411168474833525E-003
  1.180000000000000E-002    2.505745060822207E-003
  1.190000000000000E-002    2.603507440312008E-003
  1.200000000000000E-002    2.704539777808211E-003
  1.210000000000000E-002    2.808927168646764E-003
  1.220000000000000E-002    2.916755504842441E-003
  1.230000000000000E-002    3.028111024202303E-003
  1.240000000000000E-002    3.143081296839617E-003
  1.250000000000000E-002    3.261754005929342E-003
  1.260000000000000E-002    3.384217995524788E-003
  1.270000000000000E-002    3.510562650668574E-003
  1.280000000000000E-002    3.640878490455284E-003
  1.290000000000000E-002    3.775257149361465E-003
  1.300000000000000E-002    3.913790995769656E-003
  1.310000000000000E-002    4.056573738845691E-003
  1.320000000000000E-002    4.203699516246944E-003
  1.330000000000000E-002    4.355263889231601E-003
  1.340000000000000E-002    4.511362515516364E-003
  1.350000000000000E-002    4.672091651942332E-003
  1.360000000000000E-002    4.837547713305267E-003
  1.370000000000000E-002    5.007827179382221E-003
  1.380000000000000E-002    5.183025987820467E-003
  1.390000000000000E-002    5.363240316062905E-003
  1.400000000000000E-002    5.548566195257186E-003
  1.410000000000000E-002    5.739098418181389E-003
  1.420000000000000E-002    5.934931925594029E-003
  1.430000000000000E-002    6.136161528743798E-003
  1.440000000000000E-002    6.342881394020890E-003
  1.450000000000000E-002    6.555185536621910E-003
  1.460000000000000E-002    6.773167357171792E-003
  1.470000000000000E-002    6.996920018785565E-003
  1.480000000000000E-002    7.226535577830741E-003
  1.490000000000000E-002    7.462104896753509E-003
  1.500000000000000E-002    7.703718635608146E-003
  1.510000000000000E-002    7.951465291047658E-003
  1.520000000000000E-002    8.205432015730157E-003
  1.530000000000000E-002    8.465704379654928E-003
  1.540000000000000E-002    8.732365793373774E-003
  1.550000000000000E-002    9.005496642786657E-003
  1.560000000000000E-002    9.285176554385644E-003
  1.570000000000000E-002    9.571481542560852E-003
  1.580000000000000E-002    9.864485672346275E-003
  1.590000000000000E-002    1.016426057436016E-002
  1.600000000000000E-002    1.047087415526957E-002
  1.610000000000000E-002    1.078439335772877E-002
  1.620000000000000E-002    1.110488013204596E-002
  1.630000000000000E-002    1.143239398480341E-002
  1.640000000000000E-002    1.176699199269876E-002
  1.650000000000000E-002    1.210872636900857E-002
  1.660000000000000E-002    1.245764611085821E-002
  1.670000000000000E-002    1.281379552073544E-002
  1.680000000000000E-002    1.317721363536029E-002
  1.690000000000000E-002    1.354793799512046E-002
  1.700000000000000E-002    1.392599817644235E-002
  1.710000000000000E-002    1.431142059403018E-002
  1.720000000000000E-002    1.470422560096284E-002
  1.730000000000000E-002    1.510442767895804E-002
  1.740000000000000E-002    1.551203648602870E-002
  1.750000000000000E-002    1.592705412888329E-002
  1.760000000000000E-002    1.634947874957345E-002
  1.770000000000000E-002    1.677930202814956E-002
  1.780000000000000E-002    1.721650783481821E-002
  1.790000000000000E-002    1.766107488947197E-002
  1.800000000000000E-002    1.811297389444598E-002
  1.810000000000000E-002    1.857217074335060E-002
  1.820000000000000E-002    1.903861993962063E-002
  1.830000000000000E-002    1.951227133465037E-002
  1.840000000000000E-002    1.999306542282026E-002
  1.850000000000000E-002    2.048093740358280E-002
  1.860000000000000E-002    2.097580886161735E-002
  1.870000000000000E-002    2.147759830757746E-002