 -4.000000000000000E-002    0.000000000000000E+000
 -3.990000000000000E-002    0.000000000000000E+000
 -3.980000000000000E-002    0.000000000000000E+000
 -3.970000000000000E-002    0.000000000000000E+000
 -3.960000000000000E-002    0.000000000000000E+000
 -3.950000000000000E-002    0.000000000000000E+000
 -3.940000000000000E-002    0.000000000000000E+000
 -3.930000000000000E-002    0.000000000000000E+000
 -3.920000000000000E-002    0.000000000000000E+000
 -3.910000000000000E-002    0.000000000000000E+000
 -3.900000000000000E-002    0.000000000000000E+000
 -3.890000000000000E-002    0.000000000000000E+000
 -3.880000000000000E-002    0.000000000000000E+000
 -3.870000000000000E-002    0.000000000000000E+000
 -3.860000000000000E-002    0.000000000000000E+000
 -3.850000000000000E-002    0.000000000000000E+000
 -3.840000000000000E-002    0.000000000000000E+000
 -3.830000000000000E-002    0.000000000000000E+000
 -3.820000000000000E-002    0.000000000000000E+000
 -3.810000000000000E-002    0.000000000000000E+000
 -3.800000000000000E-002    0.000000000000000E+000
 -3.790000000000000E-002    0.000000000000000E+000
 -3.780000000000000E-002    0.000000000000000E+000
 -3.770000000000000E-002    0.000000000000000E+000
 -3.760000000000000E-002    0.000000000000000E+000
 -3.750000000000000E-002    0.000000000000000E+000
 -3.740000000000000E-002    0.000000000000000E+000
 -3.730000000000000E-002    0.000000000000000E+000
 -3.720000000000000E-002    0.000000000000000E+000
 -3.710000000000000E-002    0.000000000000000E+000
 -3.700000000000000E-002    0.000000000000000E+000
 -3.690000000000000E-002    0.000000000000000E+000
 -3.680000000000000E-002    0.000000000000000E+000
 -3.670000000000000E-002    0.000000000000000E+000
 -3.660000000000000E-002    0.000000000000000E+000
 -3.650000000000000E-002    0.000000000000000E+000
 -3.640000000000000E-002    0.000000000000000E+000
 -3.630000000000000E-002    0.000000000000000E+000
 -3.620000000000000E-002    0.000000000000000E+000
 -3.610000000000000E-002    0.000000000000000E+000
 -3.600000000000000E-002    0.000000000000000E+000
 -3.590000000000000E-002    0.000000000000000E+000
 -3.580000000000000E-002    0.000000000000000E+000
 -3.570000000000000E-002    0.000000000000000E+000
 -3.560000000000000E-002    0.000000000000000E+000
 -3.550000000000000E-002    0.000000000000000E+000
 -3.540000000000000E-002    0.000000000000000E+000
 -3.530000000000000E-002    0.000000000000000E+000
 -3.520000000000000E-002    0.000000000000000E+000
 -3.510000000000000E-002    0.000000000000000E+000
 -3.500000000000000E-002    0.000000000000000E+000
 -3.490000000000000E-002    0.000000000000000E+000
 -3.480000000000000E-002    0.000000000000000E+000
 -3.470000000000000E-002    0.000000000000000E+000
 -3.460000000000000E-002    0.000000000000000E+000
 -3.450000000000000E-002    0.000000000000000E+000
 -3.440000000000000E-002    0.000000000000000E+000
 -3.430000000000000E-002    0.000000000000000E+000
 -3.420000000000000E-002    0.000000000000000E+000
 -3.410000000000000E-002    0.000000000000000E+000
 -3.400000000000000E-002    0.000000000000000E+000
 -3.390000000000000E-002    0.000000000000000E+000
 -3.380000000000000E-002    0.000000000000000E+000
 -3.370000000000000E-002    0.000000000000000E+000
 -3.360000000000000E-002    0.000000000000000E+000
 -3.350000000000000E-002    0.000000000000000E+000
 -3.340000000000000E-002    0.000000000000000E+000
 -3.330000000000000E-002    0.000000000000000E+000
 -3.320000000000000E-002    0.000000000000000E+000
 -3.310000000000000E-002    0.000000000000000E+000
 -3.300000000000000E-002    0.000000000000000E+000
 -3.290000000000000E-002    0.000000000000000E+000
 -3.280000000000000E-002    0.000000000000000E+000
 -3.270000000000000E-002    0.000000000000000E+000
 -3.260000000000000E-002    0.000000000000000E+000
 -3.250000000000000E-002    0.000000000000000E+000
 -3.240000000000000E-002    0.000000000000000E+000
 -3.230000000000000E-002    0.000000000000000E+000
 -3.220000000000000E-002    0.000000000000000E+000
 -3.210000000000000E-002    0.000000000000000E+000
 -3.200000000000000E-002    0.000000000000000E+000
 -3.190000000000000E-002    0.000000000000000E+000
 -3.180000000000000E-002    0.000000000000000E+000
 -3.170000000000000E-002    0.000000000000000E+000
 -3.160000000000000E-002    0.000000000000000E+000
 -3.150000000000000E-002    0.000000000000000E+000
 -3.140000000000000E-002    0.000000000000000E+000
 -3.130000000000000E-002    0.000000000000000E+000
 -3.120000000000000E-002    0.000000000000000E+000
 -3.110000000000000E-002    0.000000000000000E+000
 -3.100000000000000E-002    0.000000000000000E+000
 -3.090000000000000E-002    0.000000000000000E+000
 -3.080000000000000E-002    0.000000000000000E+000
 -3.070000000000000E-002    0.000000000000000E+000
 -3.060000000000000E-002    0.000000000000000E+000
 -3.050000000000000E-002    0.000000000000000E+000
 -3.040000000000000E-002    0.000000000000000E+000
 -3.030000000000000E-002    0.000000000000000E+000
 -3.020000000000000E-002    0.000000000000000E+000
 -3.010000000000000E-002    0.000000000000000E+000
 -3.000000000000000E-002    0.000000000000000E+000
 -2.990000000000000E-002    0.000000000000000E+000
 -2.980000000000000E-002    0.000000000000000E+000
 -2.970000000000000E-002    0.000000000000000E+000
 -2.960000000000000E-002    0.000000000000000E+000
 -2.950000000000000E-002    0.000000000000000E+000
 -2.940000000000000E-002    0.000000000000000E+000
 -2.930000000000000E-002    0.000000000000000E+000
 -2.920000000000000E-002    0.000000000000000E+000
 -2.910000000000000E-002    0.000000000000000E+000
 -2.900000000000000E-002    0.000000000000000E+000
 -2.890000000000000E-002    0.000000000000000E+000
 -2.880000000000000E-002    0.000000000000000E+000
 -2.870000000000000E-002    0.000000000000000E+000
 -2.860000000000000E-002    0.000000000000000E+000
 -2.850000000000000E-002    0.000000000000000E+000
 -2.840000000000000E-002    0.000000000000000E+000
 -2.830000000000000E-002    0.000000000000000E+000
 -2.820000000000000E-002    0.000000000000000E+000
 -2.810000000000000E-002    0.000000000000000E+000
 -2.800000000000000E-002    0.000000000000000E+000
 -2.790000000000000E-002    0.000000000000000E+000
 -2.780000000000000E-002    0.000000000000000E+000
 -2.770000000000000E-002    0.000000000000000E+000
 -2.760000000000000E-002    0.000000000000000E+000
 -2.750000000000000E-002    0.000000000000000E+000
 -2.740000000000000E-002    0.000000000000000E+000
 -2.730000000000000E-002    0.000000000000000E+000
 -2.720000000000000E-002    0.000000000000000E+000
 -2.710000000000000E-002    0.000000000000000E+000
 -2.700000000000000E-002    0.000000000000000E+000
 -2.690000000000000E-002    0.000000000000000E+000
 -2.680000000000000E-002    0.000000000000000E+000
 -2.670000000000000E-002    0.000000000000000E+000
 -2.660000000000000E-002    0.000000000000000E+000
 -2.650000000000000E-002    0.000000000000000E+000
 -2.640000000000000E-002    0.000000000000000E+000
 -2.630000000000000E-002    0.000000000000000E+000
 -2.620000000000000E-002    0.000000000000000E+000
 -2.610000000000000E-002    0.000000000000000E+000
 -2.600000000000000E-002    0.000000000000000E+000
 -2.590000000000000E-002    0.000000000000000E+000
 -2.580000000000000E-002    0.000000000000000E+000
 -2.570000000000000E-002    0.000000000000000E+000
 -2.560000000000000E-002    0.000000000000000E+000
 -2.550000000000000E-002    0.000000000000000E+000
 -2.540000000000000E-002    0.000000000000000E+000
 -2.530000000000000E-002    0.000000000000000E+000
 -2.520000000000000E-002    0.000000000000000E+000
 -2.510000000000000E-002    0.000000000000000E+000
 -2.500000000000000E-002    0.000000000000000E+000
 -2.490000000000000E-002    0.000000000000000E+000
 -2.480000000000000E-002    0.000000000000000E+000
 -2.470000000000000E-002    0.000000000000000E+000
 -2.460000000000000E-002    0.000000000000000E+000
 -2.450000000000000E-002    0.000000000000000E+000
 -2.440000000000000E-002    0.000000000000000E+000
 -2.430000000000000E-002    0.000000000000000E+000
 -2.420000000000000E-002    0.000000000000000E+000
 -2.410000000000000E-002    0.000000000000000E+000
 -2.400000000000000E-002    0.000000000000000E+000
 -2.390000000000000E-002    0.000000000000000E+000
 -2.380000000000000E-002    0.000000000000000E+000
 -2.370000000000000E-002    0.000000000000000E+000
 -2.360000000000000E-002    0.000000000000000E+000
 -2.350000000000000E-002    0.000000000000000E+000
 -2.340000000000000E-002    0.000000000000000E+000
 -2.330000000000000E-002    0.000000000000000E+000
 -2.320000000000000E-002    0.000000000000000E+000
 -2.310000000000000E-002    0.000000000000000E+000
 -2.300000000000000E-002    0.000000000000000E+000
 -2.290000000000000E-002    0.000000000000000E+000
 -2.280000000000000E-002    0.000000000000000E+000
 -2.270000000000000E-002    0.000000000000000E+000
 -2.260000000000000E-002    0.000000000000000E+000
 -2.250000000000000E-002    0.000000000000000E+000
 -2.240000000000000E-002    0.000000000000000E+000
 -2.230000000000000E-002    0.000000000000000E+000
 -2.220000000000000E-002    0.000000000000000E+000
 -2.210000000000000E-002    0.000000000000000E+000
 -2.200000000000000E-002    0.000000000000000E+000
 -2.190000000000000E-002    0.000000000000000E+000
 -2.180000000000000E-002    0.000000000000000E+000
 -2.170000000000000E-002    0.000000000000000E+000
 -2.160000000000000E-002    0.000000000000000E+000
 -2.150000000000000E-002    0.000000000000000E+000
 -2.140000000000000E-002    0.000000000000000E+000
 -2.130000000000000E-002    0.000000000000000E+000
 -2.120000000000000E-002    0.000000000000000E+000
 -2.110000000000000E-002    0.000000000000000E+000
 -2.100000000000000E-002    0.000000000000000E+000
 -2.090000000000000E-002    0.000000000000000E+000
 -2.080000000000000E-002    0.000000000000000E+000
 -2.070000000000000E-002    0.000000000000000E+000
 -2.060000000000000E-002    0.000000000000000E+000
 -2.050000000000000E-002    0.000000000000000E+000
 -2.040000000000000E-002    0.000000000000000E+000
 -2.030000000000000E-002    0.000000000000000E+000
 -2.020000000000000E-002    0.000000000000000E+000
 -2.010000000000000E-002    0.000000000000000E+000
 -2.000000000000000E-002    0.000000000000000E+000
 -1.990000000000000E-002    0.000000000000000E+000
 -1.980000000000000E-002    0.000000000000000E+000
 -1.970000000000000E-002    0.000000000000000E+000
 -1.960000000000000E-002    0.000000000000000E+000
 -1.950000000000000E-002    0.000000000000000E+000
 -1.940000000000000E-002    0.000000000000000E+000
 -1.930000000000000E-002    0.000000000000000E+000
 -1.920000000000000E-002    0.000000000000000E+000
 -1.910000000000000E-002    0.000000000000000E+000
 -1.900000000000000E-002    0.000000000000000E+000
 -1.890000000000000E-002    0.000000000000000E+000
 -1.880000000000000E-002    0.000000000000000E+000
 -1.870000000000000E-002    0.000000000000000E+000
 -1.860000000000000E-002    0.000000000000000E+000
 -1.850000000000000E-002    0.000000000000000E+000
 -1.840000000000000E-002    0.000000000000000E+000
 -1.830000000000000E-002    0.000000000000000E+000
 -1.820000000000000E-002    0.000000000000000E+000
 -1.810000000000000E-002    0.000000000000000E+000
 -1.800000000000000E-002    0.000000000000000E+000
 -1.790000000000000E-002    0.000000000000000E+000
 -1.780000000000000E-002    0.000000000000000E+000
 -1.770000000000000E-002    0.000000000000000E+000
 -1.760000000000000E-002    0.000000000000000E+000
 -1.750000000000000E-002    0.000000000000000E+000
 -1.740000000000000E-002    0.000000000000000E+000
 -1.730000000000000E-002    0.000000000000000E+000
 -1.720000000000000E-002    0.000000000000000E+000
 -1.710000000000000E-002    0.000000000000000E+000
 -1.700000000000000E-002    0.000000000000000E+000
 -1.690000000000000E-002    0.000000000000000E+000
 -1.680000000000000E-002    0.000000000000000E+000
 -1.670000000000000E-002    0.000000000000000E+000
 -1.660000000000000E-002    0.000000000000000E+000
 -1.650000000000000E-002    0.000000000000000E+000
 -1.640000000000000E-002    0.000000000000000E+000
 -1.630000000000000E-002    0.000000000000000E+000
 -1.620000000000000E-002    0.000000000000000E+000
 -1.610000000000000E-002    0.000000000000000E+000
 -1.600000000000000E-002    0.000000000000000E+000
 -1.590000000000000E-002    0.000000000000000E+000
 -1.580000000000000E-002    0.000000000000000E+000
 -1.570000000000000E-002    0.000000000000000E+000
 -1.560000000000000E-002    0.000000000000000E+000
 -1.550000000000000E-002    0.000000000000000E+000
 -1.540000000000000E-002    0.000000000000000E+000
 -1.530000000000000E-002    0.000000000000000E+000
 -1.520000000000000E-002    0.000000000000000E+000
 -1.510000000000000E-002    0.000000000000000E+000
 -1.500000000000000E-002    0.000000000000000E+000
 -1.490000000000000E-002    0.000000000000000E+000
 -1.480000000000000E-002    0.000000000000000E+000
 -1.470000000000000E-002    0.000000000000000E+000
 -1.460000000000000E-002    0.000000000000000E+000
 -1.450000000000000E-002    0.000000000000000E+000
 -1.440000000000000E-002    0.000000000000000E+000
 -1.430000000000000E-002    0.000000000000000E+000
 -1.420000000000000E-002    0.000000000000000E+000
 -1.410000000000000E-002    0.000000000000000E+000
 -1.400000000000000E-002    0.000000000000000E+000
 -1.390000000000000E-002    0.000000000000000E+000
 -1.380000000000000E-002    0.000000000000000E+000
 -1.370000000000000E-002    0.000000000000000E+000
 -1.360000000000000E-002    0.000000000000000E+000
 -1.350000000000000E-002    0.000000000000000E+000
 -1.340000000000000E-002    0.000000000000000E+000
 -1.330000000000000E-002    0.000000000000000E+000
 -1.320000000000000E-002    0.000000000000000E+000
 -1.310000000000000E-002    0.000000000000000E+000
 -1.300000000000000E-002    0.000000000000000E+000
 -1.290000000000000E-002    0.000000000000000E+000
 -1.280000000000000E-002    0.000000000000000E+000
 -1.270000000000000E-002    0.000000000000000E+000
 -1.260000000000000E-002    0.000000000000000E+000
 -1.250000000000000E-002    0.000000000000000E+000
 -1.240000000000000E-002    0.000000000000000E+000
 -1.230000000000000E-002    0.000000000000000E+000
 -1.220000000000000E-002    0.000000000000000E+000
 -1.210000000000000E-002    0.000000000000000E+000
 -1.200000000000000E-002    0.000000000000000E+000
 -1.190000000000000E-002    0.000000000000000E+000
 -1.180000000000000E-002    0.000000000000000E+000
 -1.170000000000000E-002    0.000000000000000E+000
 -1.160000000000000E-002    0.000000000000000E+000
 -1.150000000000000E-002    0.000000000000000E+000
 -1.140000000000000E-002    0.000000000000000E+000
 -1.130000000000000E-002    0.000000000000000E+000
 -1.120000000000000E-002    0.000000000000000E+000
 -1.110000000000000E-002    0.000000000000000E+000
 -1.100000000000000E-002    0.000000000000000E+000
 -1.090000000000000E-002    0.000000000000000E+000
 -1.080000000000000E-002    0.000000000000000E+000
 -1.070000000000000E-002    0.000000000000000E+000
 -1.060000000000000E-002    0.000000000000000E+000
 -1.050000000000000E-002    0.000000000000000E+000
 -1.040000000000000E-002    0.000000000000000E+000
 -1.030000000000000E-002    6.414635304221270E-048
 -1.020000000000000E-002    6.414635304221270E-048
 -1.010000000000000E-002    6.414635304221270E-048
 -1.000000000000000E-002    0.000000000000000E+000
 -9.899999999999999E-003   -1.282927060844254E-047
 -9.800000000000000E-003    2.273178229302827E-047
 -9.699999999999999E-003    2.829113289002004E-047
 -9.599999999999999E-003    3.812690702315932E-047
 -9.500000000000000E-003    5.986992950606518E-048
 -9.399999999999999E-003   -1.654457668808239E-047
 -9.299999999999999E-003   -3.608264985146804E-047
 -9.200000000000000E-003   -7.315405951305849E-047
 -9.099999999999999E-003   -2.474986595902015E-046
 -8.999999999999999E-003   -2.807212880692592E-046
 -8.900000000000000E-003   -3.333880351153201E-046
 -8.799999999999999E-003   -3.665167089979953E-046
 -8.699999999999999E-003   -1.916253779285662E-046
 -8.600000000000000E-003    6.729897559227257E-047
 -8.499999999999999E-003    9.885997262584209E-046
 -8.399999999999999E-003    1.965293770240147E-045
 -8.300000000000000E-003    1.491633744064892E-045
 -8.199999999999999E-003    2.498596445651666E-045
 -8.100000000000000E-003    2.807581654660791E-045
 -8.000000000000000E-003    2.516249919932039E-045
 -7.899999999999999E-003    2.502171287525483E-045
 -7.800000000000000E-003    1.382246220985274E-045
 -7.699999999999999E-003   -9.222327243652953E-046
 -7.599999999999999E-003   -3.733138565257602E-045
 -7.499999999999999E-003   -6.754123064927491E-045
 -7.399999999999999E-003   -8.981431110642043E-045
 -7.299999999999999E-003   -1.114888505033748E-044
 -7.199999999999999E-003   -1.071761489854003E-044
 -7.100000000000000E-003   -7.780488766252213E-045
 -6.999999999999999E-003   -8.195385614573423E-046
 -6.899999999999999E-003    9.525823979195345E-045
 -6.800000000000000E-003    2.391081562785262E-044
 -6.699999999999999E-003    3.980693752079770E-044
 -6.599999999999999E-003    5.465161741463296E-044
 -6.499999999999999E-003    6.444103104475017E-044
 -6.399999999999999E-003    6.494805160785033E-044
 -6.299999999999999E-003    4.966706324752126E-044
 -6.199999999999999E-003    1.637397972865263E-044
 -6.100000000000000E-003   -3.703743629233365E-044
 -5.999999999999999E-003   -1.090262356749746E-043
 -5.899999999999999E-003   -1.905505745764132E-043
 -5.800000000000000E-003   -2.680658056914088E-043
 -5.699999999999999E-003   -3.214780883092487E-043
 -5.599999999999999E-003   -3.259498365005504E-043
 -5.499999999999999E-003   -2.587572664355393E-043
 -5.399999999999999E-003   -9.991986660980438E-044
 -5.299999999999999E-003    1.573097768172180E-043
 -5.199999999999999E-003    5.005848507414139E-043
 -5.099999999999999E-003    8.928617540181763E-043
 -4.999999999999999E-003    1.268608441439338E-042
 -4.899999999999999E-003    1.532321175420531E-042
 -4.799999999999999E-003    1.573126466796429E-042
 -4.699999999999999E-003    1.276941546162203E-042
 -4.599999999999999E-003    5.551557583064675E-043
 -4.499999999999999E-003   -6.263042936661254E-043
 -4.399999999999999E-003   -2.213412202633164E-042
 -4.299999999999999E-003   -4.033298659386503E-042
 -4.199999999999999E-003   -5.783648952513491E-042
 -4.099999999999999E-003   -7.037707188900621E-042
 -3.999999999999999E-003   -7.287792214262236E-042
 -3.899999999999999E-003   -6.020471580369745E-042
 -3.799999999999999E-003   -2.835421189577111E-042
 -3.699999999999999E-003    2.422228595013406E-042
 -3.599999999999999E-003    9.508821590737756E-042
 -3.499999999999999E-003    1.766087605184853E-041
 -3.399999999999999E-003    2.553779541382748E-041
 -3.299999999999999E-003    3.126122628788302E-041
 -3.199999999999999E-003    3.260264392037111E-041
 -3.099999999999999E-003    2.732112201256392E-041
 -2.999999999999999E-003    1.366541828319427E-041
 -2.899999999999999E-003   -9.027232666426605E-042
 -2.799999999999999E-003   -3.970400832461211E-041
 -2.699999999999999E-003   -7.508053188177988E-041
 -2.599999999999999E-003   -1.094056831149990E-040
 -2.499999999999999E-003   -1.346623674391645E-040
 -2.399999999999999E-003   -1.413668994844508E-040
 -2.299999999999999E-003   -1.200323665672520E-040
 -2.199999999999999E-003   -6.326217340279804E-041
 -2.099999999999999E-003    3.172427978112160E-041
 -1.999999999999999E-003    1.605129983463351E-040
 -1.899999999999999E-003    3.094064377759007E-040
 -1.799999999999999E-003    4.544980483029910E-040
 -1.699999999999999E-003    5.625950174179794E-040
 -1.599999999999999E-003    5.945778205124600E-040
 -1.499999999999999E-003    5.114528760356697E-040
 -1.399999999999999E-003    2.829165459728456E-040
 -1.299999999999999E-003   -1.024220866536655E-040
 -1.199999999999999E-003   -6.267077828255443E-040
 -1.099999999999999E-003   -1.234598353051273E-039
 -9.999999999999989E-004   -1.829793736973178E-039
 -8.999999999999990E-004   -2.279037181562276E-039
 -7.999999999999990E-004   -2.425765093693680E-039
 -6.999999999999989E-004   -2.114390382993010E-039
 -5.999999999999990E-004   -1.224243395056144E-039
 -4.999999999999989E-004    2.902646419640664E-040
 -3.999999999999989E-004    2.359445027708172E-039
 -2.999999999999989E-004    4.766766584678799E-039
 -1.999999999999989E-004    7.136213671419767E-039
 -9.999999999999892E-005    8.948840209973250E-039
  1.084202172485504E-018    9.596585190302613E-039
  1.000000000000011E-004    8.476577100836463E-039
  2.000000000000011E-004    5.121712470097951E-039
  3.000000000000011E-004   -6.461792044908879E-040
  4.000000000000011E-004   -8.564480807789692E-039
  5.000000000000011E-004   -1.781223490233460E-038
  6.000000000000011E-004   -2.696537168471326E-038
  7.000000000000011E-004   -3.406258976584802E-038
  8.000000000000011E-004   -3.681087415737904E-038
  9.000000000000012E-004   -3.294090290635807E-038
  1.000000000000001E-003   -2.069473622560298E-038
  1.100000000000001E-003    6.067293894712292E-040
  1.200000000000001E-003    3.000626097801896E-038
  1.300000000000001E-003    6.448430469587373E-038
  1.400000000000001E-003    9.880476054234074E-038
  1.500000000000001E-003    1.257679711128846E-037
  1.600000000000001E-003    1.369719522042361E-037
  1.700000000000001E-003    1.241132042819602E-037
  1.800000000000001E-003    8.075704632908200E-038
  1.900000000000001E-003    4.381275185313825E-039
  2.000000000000001E-003   -1.016325132617158E-037
  2.100000000000001E-003   -2.264965869329520E-037
  2.200000000000001E-003   -3.514993923262283E-037
  2.300000000000001E-003   -4.509448891732183E-037
  2.400000000000001E-003   -4.948912763447473E-037
  2.500000000000001E-003   -4.537802092443146E-037
  2.600000000000001E-003   -3.046862671547858E-037
  2.700000000000001E-003   -3.848157555928568E-038
  2.800000000000001E-003    3.332396323844978E-037
  2.900000000000001E-003    7.729976133391499E-037
  3.000000000000001E-003    1.215732702759339E-036
  3.100000000000001E-003    1.572184384755129E-036
  3.200000000000001E-003    1.738470679631574E-036
  3.300000000000001E-003    1.612118170591117E-036
  3.400000000000001E-003    1.113545857601196E-036
  3.500000000000001E-003    2.105301876878463E-037
  3.600000000000001E-003   -1.058322414982640E-036
  3.700000000000001E-003   -2.566266267910057E-036
  3.800000000000001E-003   -4.093001185494952E-036
  3.900000000000001E-003   -5.336451427848280E-036
  4.000000000000001E-003   -5.945369091437727E-036
  4.100000000000001E-003   -5.573404126607588E-036
  4.200000000000001E-003   -3.951077080383816E-036
  4.300000000000001E-003   -9.672411338876931E-037
  4.400000000000001E-003    3.253300199381677E-036
  4.500000000000001E-003    8.293121158208709E-036
  4.600000000000002E-003    1.342519737025338E-035
  4.700000000000001E-003    1.765276300394607E-035
  4.800000000000001E-003    1.981735918467504E-035
  4.900000000000002E-003    1.877657120633251E-035
  5.000000000000001E-003    1.363922401326421E-035
  5.100000000000001E-003    4.030033645804210E-036
  5.200000000000001E-003   -9.659706546961921E-036
  5.300000000000002E-003   -2.609072322561764E-035
  5.400000000000001E-003   -4.292348396463313E-035
  5.500000000000001E-003   -5.694900086661306E-035
  5.600000000000002E-003   -6.443771837467805E-035
  5.700000000000001E-003   -6.170932522940437E-035
  5.800000000000001E-003   -4.588276227009776E-035
  5.900000000000002E-003   -1.571591764345062E-035
  6.000000000000001E-003    2.760320221718208E-035
  6.100000000000001E-003    7.988808893969403E-035
  6.200000000000002E-003    1.337949820834211E-034
  6.300000000000002E-003    1.792398098233879E-034
  6.400000000000001E-003    2.044959482670328E-034
  6.500000000000001E-003    1.979768129718770E-034
  6.600000000000002E-003    1.505709003752205E-034
  6.700000000000001E-003    5.824524963902841E-035
  6.800000000000001E-003   -7.551277014243222E-035
  6.900000000000002E-003   -2.379515176950367E-034
  7.000000000000001E-003   -4.065783978312434E-034
  7.100000000000001E-003   -5.504504261352383E-034
  7.200000000000002E-003   -6.335432153984594E-034
  7.300000000000002E-003   -6.201934687789798E-034
  7.400000000000001E-003   -4.822025300621724E-034
  7.500000000000001E-003   -2.067263484897625E-034
  7.600000000000002E-003    1.963513693098086E-034
  7.700000000000001E-003    6.891751002847065E-034
  7.800000000000001E-003    1.204501218746929E-033
  7.900000000000001E-003    1.649583261048050E-033
  8.000000000000002E-003    1.916256317957629E-033
  8.100000000000001E-003    1.897169531562586E-033
  8.200000000000001E-003    1.506906231362777E-033
  8.300000000000002E-003    7.053697225519092E-034
  8.400000000000001E-003   -4.804233029948420E-034
  8.500000000000002E-003   -1.940886370754869E-033
  8.600000000000002E-003   -3.479695609271270E-033
  8.700000000000001E-003   -4.825177718515842E-033
  8.800000000000002E-003   -5.659772738011442E-033
  8.900000000000002E-003   -5.667358077294456E-033
  9.000000000000001E-003   -4.594650638445131E-033
  9.100000000000002E-003   -2.319048272743647E-033
  9.200000000000002E-003    1.088298297316139E-033
  9.300000000000001E-003    5.317803756256307E-033
  9.400000000000002E-003    9.809323906790967E-033
  9.500000000000001E-003    1.378465477934846E-032
  9.600000000000001E-003    1.633166774013002E-032
  9.700000000000002E-003    1.653920136825794E-032
  9.800000000000001E-003    1.367179003087851E-032
  9.900000000000001E-003    7.362350890718730E-033
  1.000000000000000E-002   -2.208917816724864E-033
  1.010000000000000E-002   -1.418782903189344E-032
  1.020000000000000E-002   -2.701132369997220E-032
  1.030000000000000E-002   -3.849785947232621E-032
  1.040000000000000E-002   -4.608232655666750E-032
  1.050000000000000E-002   -4.719239988290909E-032
  1.060000000000000E-002   -3.973542394243795E-032
  1.070000000000000E-002   -2.263470686499809E-032
  1.080000000000000E-002    3.672923705636839E-033
  1.090000000000000E-002    3.688430177981239E-032
  1.100000000000000E-002    7.273051578296615E-032
  1.110000000000000E-002    1.052221813345819E-031
  1.120000000000000E-002    1.272909772283945E-031
  1.130000000000000E-002    1.318179949307760E-031
  1.140000000000000E-002    1.129632342506704E-031
  1.150000000000000E-002    6.762927084745967E-032
  1.160000000000000E-002   -3.180782919721474E-033
  1.170000000000000E-002   -9.339762238213044E-032
  1.180000000000000E-002   -1.916051644702194E-031
  1.190000000000000E-002   -2.816890866883424E-031
  1.200000000000000E-002   -3.445515870465090E-031
  1.210000000000000E-002   -3.608639259486020E-031
  1.220000000000000E-002   -3.146262358979948E-031
  1.230000000000000E-002   -1.970864383296133E-031
  1.240000000000000E-002   -1.038042389732436E-032
  1.250000000000000E-002    2.298686059921019E-031
  1.260000000000000E-002    4.937639645166429E-031
  1.270000000000000E-002    7.388070414608921E-031
  1.280000000000000E-002    9.143801153440636E-031
  1.290000000000000E-002    9.689685006885973E-031
  1.300000000000000E-002    8.595077408017918E-031
  1.310000000000000E-002    5.616840527378664E-031
  1.320000000000000E-002    7.952081888566078E-032
  1.330000000000000E-002   -5.477337598002242E-031
  1.340000000000000E-002   -1.243423759173069E-030
  1.350000000000000E-002   -1.897672383436932E-030
  1.360000000000000E-002   -2.378856454907680E-030
  1.370000000000000E-002   -2.552172755394410E-030
  1.380000000000000E-002   -2.303716629919127E-030
  1.390000000000000E-002   -1.567067263124564E-030
  1.400000000000000E-002   -3.480953064715148E-031
  1.410000000000000E-002    1.257067653429887E-030
  1.420000000000000E-002    3.056022746105417E-030
  1.430000000000000E-002    4.770301561437411E-030
  1.440000000000000E-002    6.064103460412586E-030
  1.450000000000000E-002    6.591078263792552E-030
  1.460000000000000E-002    6.055199032548808E-030
  1.470000000000000E-002    4.278129218569508E-030
  1.480000000000000E-002    1.262340698127836E-030
  1.490000000000000E-002   -2.762741455422436E-030
  1.500000000000000E-002   -7.324411962849663E-030
  1.510000000000000E-002   -1.173079570567403E-029
  1.520000000000000E-002   -1.514129367503184E-029
  1.530000000000000E-002   -1.668218758496052E-029
  1.540000000000000E-002   -1.559766325430119E-029
  1.550000000000000E-002   -1.141750645787752E-029
  1.560000000000000E-002   -4.114976570654280E-030
  1.570000000000000E-002    5.776544322714297E-030
  1.580000000000000E-002    1.711977774494091E-029
  1.590000000000000E-002    2.822886215809212E-029
  1.600000000000000E-002    3.703844412579358E-029
  1.610000000000000E-002    4.138392698359937E-029
  1.620000000000000E-002    3.936935418984523E-029
  1.630000000000000E-002    2.977768430855367E-029
  1.640000000000000E-002    1.245908685990088E-029
  1.650000000000000E-002   -1.137867355079447E-029
  1.660000000000000E-002   -3.905467601447138E-029
  1.670000000000000E-002   -6.653782348013420E-029
  1.680000000000000E-002   -8.884432856438962E-029
  1.690000000000000E-002   -1.007045703452149E-028
  1.700000000000000E-002   -9.744360084310027E-029
  1.710000000000000E-002   -7.596785783311631E-029
  1.720000000000000E-002   -3.570518104544328E-029
  1.730000000000000E-002    2.068333015430256E-029
  1.740000000000000E-002    8.700283983087130E-029
  1.750000000000000E-002    1.537887694552565E-028
  1.760000000000000E-002    2.092223361603376E-028
  1.770000000000000E-002    2.406881931005197E-028
  1.780000000000000E-002    2.368460605417559E-028
  1.790000000000000E-002    1.899656833784213E-028
  1.800000000000000E-002    9.816683818206035E-029
  1.810000000000000E-002   -3.286023243759648E-029
  1.820000000000000E-002   -1.890851672685998E-028
  1.830000000000000E-002   -3.486807590844194E-028
  1.840000000000000E-002   -4.840884894363003E-028
  1.850000000000000E-002   -5.655911744039755E-028
  1.860000000000000E-002   -5.661058770938167E-028
  1.870000000000000E-002   -4.666206977513540E-028