 -4.000000000000000E-002    0.000000000000000E+000
 -3.990000000000000E-002    0.000000000000000E+000
 -3.980000000000000E-002    0.000000000000000E+000
 -3.970000000000000E-002    0.000000000000000E+000
 -3.960000000000000E-002    0.000000000000000E+000
 -3.950000000000000E-002    0.000000000000000E+000
 -3.940000000000000E-002    0.000000000000000E+000
 -3.930000000000000E-002    0.000000000000000E+000
 -3.920000000000000E-002    0.000000000000000E+000
 -3.910000000000000E-002    0.000000000000000E+000
 -3.900000000000000E-002    0.000000000000000E+000
 -3.890000000000000E-002    0.000000000000000E+000
 -3.880000000000000E-002    0.000000000000000E+000
 -3.870000000000000E-002    0.000000000000000E+000
 -3.860000000000000E-002    0.000000000000000E+000
 -3.850000000000000E-002    0.000000000000000E+000
 -3.840000000000000E-002    0.000000000000000E+000
 -3.830000000000000E-002    0.000000000000000E+000
 -3.820000000000000E-002    0.000000000000000E+000
 -3.810000000000000E-002    0.000000000000000E+000
 -3.800000000000000E-002    0.000000000000000E+000
 -3.790000000000000E-002    0.000000000000000E+000
 -3.780000000000000E-002    0.000000000000000E+000
 -3.770000000000000E-002    0.000000000000000E+000
 -3.760000000000000E-002    0.000000000000000E+000
 -3.750000000000000E-002    0.000000000000000E+000
 -3.740000000000000E-002    0.000000000000000E+000
 -3.730000000000000E-002    0.000000000000000E+000
 -3.720000000000000E-002    0.000000000000000E+000
 -3.710000000000000E-002    0.000000000000000E+000
 -3.700000000000000E-002    0.000000000000000E+000
 -3.690000000000000E-002    0.000000000000000E+000
 -3.680000000000000E-002    0.000000000000000E+000
 -3.670000000000000E-002    0.000000000000000E+000
 -3.660000000000000E-002    0.000000000000000E+000
 -3.650000000000000E-002    0.000000000000000E+000
 -3.640000000000000E-002    0.000000000000000E+000
 -3.630000000000000E-002    0.000000000000000E+000
 -3.620000000000000E-002    0.000000000000000E+000
 -3.610000000000000E-002    0.000000000000000E+000
 -3.600000000000000E-002    0.000000000000000E+000
 -3.590000000000000E-002    0.000000000000000E+000
 -3.580000000000000E-002    0.000000000000000E+000
 -3.570000000000000E-002    0.000000000000000E+000
 -3.560000000000000E-002    0.000000000000000E+000
 -3.550000000000000E-002    0.000000000000000E+000
 -3.540000000000000E-002    0.000000000000000E+000
 -3.530000000000000E-002    0.000000000000000E+000
 -3.520000000000000E-002    0.000000000000000E+000
 -3.510000000000000E-002    0.000000000000000E+000
 -3.500000000000000E-002    0.000000000000000E+000
 -3.490000000000000E-002    0.000000000000000E+000
 -3.480000000000000E-002    0.000000000000000E+000
 -3.470000000000000E-002    0.000000000000000E+000
 -3.460000000000000E-002    0.000000000000000E+000
 -3.450000000000000E-002    0.000000000000000E+000
 -3.440000000000000E-002    0.000000000000000E+000
 -3.430000000000000E-002    0.000000000000000E+000
 -3.420000000000000E-002    0.000000000000000E+000
 -3.410000000000000E-002    0.000000000000000E+000
 -3.400000000000000E-002    0.000000000000000E+000
 -3.390000000000000E-002    0.000000000000000E+000
 -3.380000000000000E-002    0.000000000000000E+000
 -3.370000000000000E-002    0.000000000000000E+000
 -3.360000000000000E-002    0.000000000000000E+000
 -3.350000000000000E-002    0.000000000000000E+000
 -3.340000000000000E-002    0.000000000000000E+000
 -3.330000000000000E-002    0.000000000000000E+000
 -3.320000000000000E-002    0.000000000000000E+000
 -3.310000000000000E-002    0.000000000000000E+000
 -3.300000000000000E-002    0.000000000000000E+000
 -3.290000000000000E-002    0.000000000000000E+000
 -3.280000000000000E-002    0.000000000000000E+000
 -3.270000000000000E-002    0.000000000000000E+000
 -3.260000000000000E-002    0.000000000000000E+000
 -3.250000000000000E-002    0.000000000000000E+000
 -3.240000000000000E-002    0.000000000000000E+000
 -3.230000000000000E-002    0.000000000000000E+000
 -3.220000000000000E-002    0.000000000000000E+000
 -3.210000000000000E-002    0.000000000000000E+000
 -3.200000000000000E-002    0.000000000000000E+000
 -3.190000000000000E-002    0.000000000000000E+000
 -3.180000000000000E-002    0.000000000000000E+000
 -3.170000000000000E-002    0.000000000000000E+000
 -3.160000000000000E-002    0.000000000000000E+000
 -3.150000000000000E-002    0.000000000000000E+000
 -3.140000000000000E-002    0.000000000000000E+000
 -3.130000000000000E-002    0.000000000000000E+000
 -3.120000000000000E-002    0.000000000000000E+000
 -3.110000000000000E-002    0.000000000000000E+000
 -3.100000000000000E-002    0.000000000000000E+000
 -3.090000000000000E-002    0.000000000000000E+000
 -3.080000000000000E-002    0.000000000000000E+000
 -3.070000000000000E-002    0.000000000000000E+000
 -3.060000000000000E-002    0.000000000000000E+000
 -3.050000000000000E-002    0.000000000000000E+000
 -3.040000000000000E-002    0.000000000000000E+000
 -3.030000000000000E-002    0.000000000000000E+000
 -3.020000000000000E-002    0.000000000000000E+000
 -3.010000000000000E-002    0.000000000000000E+000
 -3.000000000000000E-002    0.000000000000000E+000
 -2.990000000000000E-002    0.000000000000000E+000
 -2.980000000000000E-002    0.000000000000000E+000
 -2.970000000000000E-002    0.000000000000000E+000
 -2.960000000000000E-002    0.000000000000000E+000
 -2.950000000000000E-002    0.000000000000000E+000
 -2.940000000000000E-002    0.000000000000000E+000
 -2.930000000000000E-002    0.000000000000000E+000
 -2.920000000000000E-002    0.000000000000000E+000
 -2.910000000000000E-002    0.000000000000000E+000
 -2.900000000000000E-002    0.000000000000000E+000
 -2.890000000000000E-002    0.000000000000000E+000
 -2.880000000000000E-002    0.000000000000000E+000
 -2.870000000000000E-002    0.000000000000000E+000
 -2.860000000000000E-002    0.000000000000000E+000
 -2.850000000000000E-002    0.000000000000000E+000
 -2.840000000000000E-002    0.000000000000000E+000
 -2.830000000000000E-002    0.000000000000000E+000
 -2.820000000000000E-002    0.000000000000000E+000
 -2.810000000000000E-002    0.000000000000000E+000
 -2.800000000000000E-002    0.000000000000000E+000
 -2.790000000000000E-002    0.000000000000000E+000
 -2.780000000000000E-002    0.000000000000000E+000
 -2.770000000000000E-002    0.000000000000000E+000
 -2.760000000000000E-002    0.000000000000000E+000
 -2.750000000000000E-002    0.000000000000000E+000
 -2.740000000000000E-002    0.000000000000000E+000
 -2.730000000000000E-002    0.000000000000000E+000
 -2.720000000000000E-002    0.000000000000000E+000
 -2.710000000000000E-002    0.000000000000000E+000
 -2.700000000000000E-002    0.000000000000000E+000
 -2.690000000000000E-002    0.000000000000000E+000
 -2.680000000000000E-002    0.000000000000000E+000
 -2.670000000000000E-002    0.000000000000000E+000
 -2.660000000000000E-002    0.000000000000000E+000
 -2.650000000000000E-002    0.000000000000000E+000
 -2.640000000000000E-002    0.000000000000000E+000
 -2.630000000000000E-002    0.000000000000000E+000
 -2.620000000000000E-002    0.000000000000000E+000
 -2.610000000000000E-002    0.000000000000000E+000
 -2.600000000000000E-002    0.000000000000000E+000
 -2.590000000000000E-002    0.000000000000000E+000
 -2.580000000000000E-002    0.000000000000000E+000
 -2.570000000000000E-002    0.000000000000000E+000
 -2.560000000000000E-002    0.000000000000000E+000
 -2.550000000000000E-002    0.000000000000000E+000
 -2.540000000000000E-002    0.000000000000000E+000
 -2.530000000000000E-002    0.000000000000000E+000
 -2.520000000000000E-002    0.000000000000000E+000
 -2.510000000000000E-002    0.000000000000000E+000
 -2.500000000000000E-002    0.000000000000000E+000
 -2.490000000000000E-002    0.000000000000000E+000
 -2.480000000000000E-002    0.000000000000000E+000
 -2.470000000000000E-002    0.000000000000000E+000
 -2.460000000000000E-002    0.000000000000000E+000
 -2.450000000000000E-002    0.000000000000000E+000
 -2.440000000000000E-002    0.000000000000000E+000
 -2.430000000000000E-002    0.000000000000000E+000
 -2.420000000000000E-002    0.000000000000000E+000
 -2.410000000000000E-002    0.000000000000000E+000
 -2.400000000000000E-002    0.000000000000000E+000
 -2.390000000000000E-002    0.000000000000000E+000
 -2.380000000000000E-002    0.000000000000000E+000
 -2.370000000000000E-002    0.000000000000000E+000
 -2.360000000000000E-002    0.000000000000000E+000
 -2.350000000000000E-002    0.000000000000000E+000
 -2.340000000000000E-002   -1.924390591266381E-047
 -2.330000000000000E-002   -1.836587823550677E-046
 -2.320000000000000E-002   -3.737322000143566E-046
 -2.310000000000000E-002   -5.638056176736456E-046
 -2.300000000000000E-002   -7.538790353329345E-046
 -2.290000000000000E-002   -9.054646411668958E-046
 -2.280000000000000E-002   -8.477329234289044E-046
 -2.270000000000000E-002   -2.261955880172674E-046
 -2.260000000000000E-002    9.783912709806789E-046
 -2.250000000000000E-002    3.961427839954505E-045
 -2.240000000000000E-002    7.702031533295969E-045
 -2.230000000000000E-002    1.071538224581470E-044
 -2.220000000000000E-002    1.337829365806860E-044
 -2.210000000000000E-002    1.360677920694654E-044
 -2.200000000000000E-002    1.034747673448235E-044
 -2.190000000000000E-002    1.112398819945481E-045
 -2.180000000000000E-002   -1.533105663019623E-044
 -2.170000000000000E-002   -4.038387057330786E-044
 -2.160000000000000E-002   -7.362001727059274E-044
 -2.150000000000000E-002   -1.098522576199436E-043
 -2.140000000000000E-002   -1.403976152715185E-043
 -2.130000000000000E-002   -1.524572340600967E-043
 -2.120000000000000E-002   -1.267716660742720E-043
 -2.110000000000000E-002   -4.527389976009992E-044
 -2.100000000000000E-002    1.114760049397615E-043
 -2.090000000000000E-002    3.527829692445666E-043
 -2.080000000000000E-002    6.697616636855798E-043
 -2.070000000000000E-002    1.022280578895068E-042
 -2.060000000000000E-002    1.333553730761148E-042
 -2.050000000000000E-002    1.481690313943635E-042
 -2.040000000000000E-002    1.305360734618672E-042
 -2.030000000000000E-002    6.246650977449801E-043
 -2.020000000000000E-002   -7.242481558402197E-043
 -2.010000000000000E-002   -2.822158568636467E-042
 -2.000000000000000E-002   -5.592059120127479E-042
 -1.990000000000000E-002   -8.710165761350101E-042
 -1.980000000000000E-002   -1.152793318579657E-041
 -1.970000000000000E-002   -1.303557958009674E-041
 -1.960000000000000E-002   -1.191031242711880E-041
 -1.950000000000000E-002   -6.678690782326237E-042
 -1.940000000000000E-002    3.968248364374372E-042
 -1.930000000000000E-002    2.068855161249564E-041
 -1.920000000000000E-002    4.287777579261143E-041
 -1.910000000000000E-002    6.800021380489143E-041
 -1.900000000000000E-002    9.104122621519675E-041
 -1.890000000000000E-002    1.042827911542267E-040
 -1.880000000000000E-002    9.770243291126413E-041
 -1.870000000000000E-002    6.026306738960358E-041
 -1.860000000000000E-002   -1.769124564318696E-041
 -1.850000000000000E-002   -1.409032344959061E-040
 -1.840000000000000E-002   -3.047975934169300E-040
 -1.830000000000000E-002   -4.908767002145235E-040
 -1.820000000000000E-002   -6.630500425880921E-040
 -1.810000000000000E-002   -7.664947406497496E-040
 -1.800000000000000E-002   -7.308894099332565E-040
 -1.790000000000000E-002   -4.798347148382561E-040
 -1.780000000000000E-002    5.236820479147807E-041
 -1.770000000000000E-002    8.966598111378314E-040
 -1.760000000000000E-002    2.020005682431819E-039
 -1.750000000000000E-002    3.295802853599785E-039
 -1.740000000000000E-002    4.481582306007918E-039
 -1.730000000000000E-002    5.214270180111292E-039
 -1.720000000000000E-002    5.034566090986444E-039
 -1.710000000000000E-002    3.450933717145438E-039
 -1.700000000000000E-002    4.927475225878654E-041
 -1.690000000000000E-002   -5.354276503072431E-039
 -1.680000000000000E-002   -1.253281894776219E-038
 -1.670000000000000E-002   -2.067188321946508E-038
 -1.660000000000000E-002   -2.824459461683969E-038
 -1.650000000000000E-002   -3.300063622891043E-038
 -1.640000000000000E-002   -3.213568865038015E-038
 -1.630000000000000E-002   -2.269825586964831E-038
 -1.620000000000000E-002   -2.260680314743238E-039
 -1.610000000000000E-002    3.017237437280448E-038
 -1.600000000000000E-002    7.312058127826147E-038
 -1.590000000000000E-002    1.216429462293432E-037
 -1.580000000000000E-002    1.666940852853271E-037
 -1.570000000000000E-002    1.951701011063565E-037
 -1.560000000000000E-002    1.910033362542669E-037
 -1.550000000000000E-002    1.375902604769091E-037
 -1.540000000000000E-002    2.164975795803022E-038
 -1.530000000000000E-002   -1.617016836485311E-037
 -1.520000000000000E-002   -4.032905022947009E-037
 -1.510000000000000E-002   -6.747528602197987E-037
 -1.500000000000000E-002   -9.254844371293354E-037
 -1.490000000000000E-002   -1.083514168942832E-036
 -1.480000000000000E-002   -1.062112369539459E-036
 -1.470000000000000E-002   -7.734429073050790E-037
 -1.460000000000000E-002   -1.494869271982554E-037
 -1.450000000000000E-002    8.312208231546113E-037
 -1.440000000000000E-002    2.114677398591274E-036
 -1.430000000000000E-002    3.546318709292541E-036
 -1.420000000000000E-002    4.857810844915710E-036
 -1.410000000000000E-002    5.674887182581204E-036
 -1.400000000000000E-002    5.554780645108046E-036
 -1.390000000000000E-002    4.058787374960717E-036
 -1.380000000000000E-002    8.596537976384875E-037
 -1.370000000000000E-002   -4.125146976409556E-036
 -1.360000000000000E-002   -1.059380571622825E-035
 -1.350000000000000E-002   -1.774480901907095E-035
 -1.340000000000000E-002   -2.422526039177758E-035
 -1.330000000000000E-002   -2.818592828081383E-035
 -1.320000000000000E-002   -2.748094786535101E-035
 -1.310000000000000E-002   -2.003343756192724E-035
 -1.300000000000000E-002   -4.358611349223608E-036
 -1.290000000000000E-002    1.980560097152876E-035
 -1.280000000000000E-002    5.085951901883250E-035
 -1.270000000000000E-002    8.484161893201184E-035
 -1.260000000000000E-002    1.152502941949580E-034
 -1.250000000000000E-002    1.333788195166073E-034
 -1.240000000000000E-002    1.293217405422879E-034
 -1.230000000000000E-002    9.372522244003813E-035
 -1.220000000000000E-002    2.021184071898832E-035
 -1.210000000000000E-002   -9.177957123895677E-035
 -1.200000000000000E-002   -2.342131673966003E-034
 -1.190000000000000E-002   -3.884084608120430E-034
 -1.180000000000000E-002   -5.245313519234309E-034
 -1.170000000000000E-002   -6.034307358480952E-034
 -1.160000000000000E-002   -5.814417469713703E-034
 -1.150000000000000E-002   -4.183638210270515E-034
 -1.140000000000000E-002   -8.817817645481711E-035
 -1.130000000000000E-002    4.087533046782035E-034
 -1.120000000000000E-002    1.034158790261569E-033
 -1.110000000000000E-002    1.703928938329495E-033
 -1.100000000000000E-002    2.287167218984781E-033
 -1.090000000000000E-002    2.615454223617929E-033
 -1.080000000000000E-002    2.504614024317545E-033
 -1.070000000000000E-002    1.789399119252422E-033
 -1.060000000000000E-002    3.687464511925061E-034
 -1.050000000000000E-002   -1.744146207157519E-033
 -1.040000000000000E-002   -4.376191726394297E-033
 -1.030000000000000E-002   -7.165394059194862E-033
 -1.020000000000000E-002   -9.561940617113248E-033
 -1.010000000000000E-002   -1.087174268778566E-032
 -1.000000000000000E-002   -1.035033331296895E-032
 -9.899999999999999E-003   -7.346979184507659E-033
 -9.800000000000000E-003   -1.487548069815485E-033
 -9.699999999999999E-003    7.128706284746871E-033
 -9.599999999999999E-003    1.775652789201818E-032
 -9.500000000000000E-003    2.890439142226980E-032
 -9.399999999999999E-003    3.835816867165557E-032
 -9.299999999999999E-003    4.337356427409466E-032
 -9.200000000000000E-003    4.106270778906215E-032
 -9.099999999999999E-003    2.896748557555347E-032
 -8.999999999999999E-003    5.767900876221437E-033
 -8.900000000000000E-003   -2.797647258096210E-032
 -8.799999999999999E-003   -6.920149751079076E-032
 -8.699999999999999E-003   -1.120126404976821E-031
 -8.600000000000000E-003   -1.478469316921502E-031
 -8.499999999999999E-003   -1.662779922448609E-031
 -8.399999999999999E-003   -1.565391189795311E-031
 -8.300000000000000E-003   -1.097115288848844E-031
 -8.199999999999999E-003   -2.135959178767916E-032
 -8.100000000000000E-003    1.057862548640006E-031
 -8.000000000000000E-003    2.596610775774273E-031
 -7.899999999999999E-003    4.178760273512362E-031
 -7.800000000000000E-003    5.485691675176494E-031
 -7.699999999999999E-003    6.136095655371929E-031
 -7.599999999999999E-003    5.743523279381447E-031
 -7.499999999999999E-003    3.996670251149304E-031
 -7.399999999999999E-003    7.536914683540843E-032
 -7.299999999999999E-003   -3.864410771432977E-031
 -7.199999999999999E-003   -9.401605169834837E-031
 -7.100000000000000E-003   -1.503908941537928E-030
 -6.999999999999999E-003   -1.963422822436772E-030
 -6.899999999999999E-003   -2.184233808381660E-030
 -6.800000000000000E-003   -2.032568652667838E-030
 -6.699999999999999E-003   -1.403713173457517E-030
 -6.599999999999999E-003   -2.545407761583786E-031
 -6.499999999999999E-003    1.365165155180721E-030
 -6.399999999999999E-003    3.289634663948062E-030
 -6.299999999999999E-003    5.230091122892205E-030
 -6.199999999999999E-003    6.790986212873502E-030
 -6.100000000000000E-003    7.514337283050601E-030
 -5.999999999999999E-003    6.952807253859679E-030
 -5.899999999999999E-003    4.766350939733607E-030
 -5.800000000000000E-003    8.304934572148413E-031
 -5.699999999999999E-003   -4.662295946416742E-030
 -5.599999999999999E-003   -1.113167149409436E-029
 -5.499999999999999E-003   -1.759423486051383E-029
 -5.399999999999999E-003   -2.272653477689991E-029
 -5.299999999999999E-003   -2.502006917379679E-029
 -5.199999999999999E-003   -2.302770008939642E-029
 -5.099999999999999E-003   -1.568171261101230E-029
 -4.999999999999999E-003   -2.642155316882990E-030
 -4.899999999999999E-003    1.538615469579473E-029
 -4.799999999999999E-003    3.644385795005093E-029
 -4.699999999999999E-003    5.729374169668272E-029
 -4.599999999999999E-003    7.365110833294238E-029
 -4.499999999999999E-003    8.070524859024173E-029
 -4.399999999999999E-003    7.392187521797884E-029
 -4.299999999999999E-003    5.005535754642225E-029
 -4.199999999999999E-003    8.233120859887012E-030
 -4.099999999999999E-003   -4.908539399219304E-029
 -3.999999999999999E-003   -1.155117118405226E-028
 -3.899999999999999E-003   -1.807328116135319E-028
 -3.799999999999999E-003   -2.313115538320095E-028
 -3.699999999999999E-003   -2.523783043538134E-028
 -3.599999999999999E-003   -2.301580361039677E-028
 -3.499999999999999E-003   -1.550897495240138E-028
 -3.399999999999999E-003   -2.509693169132615E-029
 -3.299999999999999E-003    1.516031223016892E-028
 -3.199999999999999E-003    3.548642105527112E-028
 -3.099999999999999E-003    5.528511481501062E-028
 -2.999999999999999E-003    7.046976436432995E-028
 -2.899999999999999E-003    7.658072911826010E-028
 -2.799999999999999E-003    6.955613371398197E-028
 -2.699999999999999E-003    4.666386702536286E-028
 -2.599999999999999E-003    7.458320413274303E-029
 -2.499999999999999E-003   -4.542168580227288E-028
 -2.399999999999999E-003   -1.058221058700807E-027
 -2.299999999999999E-003   -1.642086185242507E-027
 -2.199999999999999E-003   -2.085135683095678E-027
 -2.099999999999999E-003   -2.257435131199414E-027
 -1.999999999999999E-003   -2.042589885383938E-027
 -1.899999999999999E-003   -1.364776028731686E-027
 -1.799999999999999E-003   -2.159220424084554E-028
 -1.699999999999999E-003    1.322292359442114E-027
 -1.599999999999999E-003    3.067523196742837E-027
 -1.499999999999999E-003    4.742395141292656E-027
 -1.399999999999999E-003    6.000486767000090E-027
 -1.299999999999999E-003    6.473573626657419E-027
 -1.199999999999999E-003    5.837102503306038E-027
 -1.099999999999999E-003    3.886385312904587E-027
 -9.999999999999989E-004    6.116952713296431E-028
 -8.999999999999990E-004   -3.742785775999116E-027
 -7.999999999999990E-004   -8.652408290391641E-027
 -6.999999999999989E-004   -1.333246289690855E-026
 -5.999999999999990E-004   -1.681512537157443E-026
 -4.999999999999989E-004   -1.808417961060828E-026
 -3.999999999999989E-004   -1.625780857244181E-026
 -2.999999999999989E-004   -1.079757462031775E-026
 -1.999999999999989E-004   -1.710399949052504E-027
 -9.999999999999892E-005    1.029770205313931E-026
  1.084202172485504E-018    2.375959949909109E-026
  1.000000000000011E-004    3.651455703879796E-026
  2.000000000000011E-004    4.592856872024012E-026
  3.000000000000011E-004    4.926755362559848E-026
  4.000000000000011E-004    4.419392721226363E-026
  5.000000000000011E-004    2.932488959231435E-026
  6.000000000000011E-004    4.761895156307480E-027
  7.000000000000011E-004   -2.751861333513298E-026
  8.000000000000011E-004   -6.352644926192277E-026
  9.000000000000012E-004   -9.746648289288135E-026
  1.000000000000001E-003   -1.223496553812329E-025
  1.100000000000001E-003   -1.309982723397140E-025
  1.200000000000001E-003   -1.173597599274329E-025
  1.300000000000001E-003   -7.796071487113402E-026
  1.400000000000001E-003   -1.326110336451536E-026
  1.500000000000001E-003    7.137667815912857E-026
  1.600000000000001E-003    1.653913140260866E-025
  1.700000000000001E-003    2.536340306493394E-025
  1.800000000000001E-003    3.180120284276679E-025
  1.900000000000001E-003    3.401239319867371E-025
  2.000000000000001E-003    3.046478351758060E-025
  2.100000000000001E-003    2.030364615992311E-025
  2.200000000000001E-003    3.689968231045623E-026
  2.300000000000001E-003   -1.796471908544810E-025
  2.400000000000001E-003   -4.193814326292383E-025
  2.500000000000001E-003   -6.436820539083609E-025
  2.600000000000001E-003   -8.068226078543513E-025
  2.700000000000001E-003   -8.627012044029809E-025
  2.800000000000001E-003   -7.733641687608847E-025
  2.900000000000001E-003   -5.181764400491875E-025
  3.000000000000001E-003   -1.020805050035582E-025
  3.100000000000001E-003    4.388368528811288E-025
  3.200000000000001E-003    1.036192060096499E-024
  3.300000000000001E-003    1.593891010512770E-024
  3.400000000000001E-003    1.999031516234932E-024
  3.500000000000001E-003    2.138659902123118E-024
  3.600000000000001E-003    1.920705922154796E-024
  3.700000000000001E-003    1.296227651506122E-024
  3.800000000000001E-003    2.791422313818292E-025
  3.900000000000001E-003   -1.040847723985850E-024
  4.000000000000001E-003   -2.496202741674911E-024
  4.100000000000001E-003   -3.853406475775094E-024
  4.200000000000001E-003   -4.839919869589816E-024
  4.300000000000001E-003   -5.184891286277899E-024
  4.400000000000001E-003   -4.669403432897526E-024
  4.500000000000001E-003   -3.179256707489611E-024
  4.600000000000002E-003   -7.511375345178283E-025
  4.700000000000001E-003    2.397935162113710E-024
  4.800000000000001E-003    5.867302558934858E-024
  4.900000000000002E-003    9.102310052976411E-024
  5.000000000000001E-003    1.145924479616828E-023
  5.100000000000001E-003    1.230193143620721E-023
  5.200000000000001E-003    1.111968011364397E-023
  5.300000000000002E-003    7.649922103835580E-024
  5.400000000000001E-003    1.984131610391375E-024
  5.500000000000001E-003   -5.366258064338795E-024
  5.600000000000002E-003   -1.346528657214745E-023
  5.700000000000001E-003   -2.102424816388359E-023
  5.800000000000001E-003   -2.655426828086534E-023
  5.900000000000002E-003   -2.859035595905947E-023
  6.000000000000001E-003   -2.596240572213386E-023
  6.100000000000001E-003   -1.807445440230345E-023
  6.200000000000002E-003   -5.143239078550485E-024
  6.300000000000002E-003    1.165653708256731E-023
  6.400000000000001E-003    3.018764870461004E-023
  6.500000000000001E-003    4.751895447098998E-023
  6.600000000000002E-003    6.027534085862466E-023
  6.700000000000001E-003    6.514608867628583E-023
  6.800000000000001E-003    5.949486395445646E-023
  6.900000000000002E-003    4.198356501900911E-023
  7.000000000000001E-003    1.310036941156336E-023
  7.100000000000001E-003   -2.452438886453449E-023
  7.200000000000002E-003   -6.611802714765200E-023
  7.300000000000002E-003   -1.051500886470289E-022
  7.400000000000001E-003   -1.341162359797265E-022
  7.500000000000001E-003   -1.456673459882320E-022
  7.600000000000002E-003   -1.339556121072152E-022
  7.700000000000001E-003   -9.600295759598619E-023
  7.800000000000001E-003   -3.285115960036306E-023
  7.900000000000001E-003    4.975901966437866E-023
  8.000000000000002E-003    1.414018917826743E-022
  8.100000000000001E-003    2.278189942927387E-022
  8.200000000000001E-003    2.926350199847432E-022
  8.300000000000002E-003    3.198137915853667E-022
  8.400000000000001E-003    2.965724969270254E-022
  8.500000000000002E-003    2.163312812269834E-022
  8.600000000000002E-003    8.118075706689174E-023
  8.700000000000001E-003   -9.667168288673536E-023
  8.800000000000002E-003   -2.949459345946504E-022
  8.900000000000002E-003   -4.831246624288543E-022
  9.000000000000001E-003   -6.261245965385891E-022
  9.100000000000002E-003   -6.895313079685453E-022
  9.200000000000002E-003   -6.457919760620118E-022
  9.300000000000001E-003   -4.804672312737093E-022
  9.400000000000002E-003   -1.974500058159244E-022
  9.500000000000001E-003    1.779792567471345E-022
  9.600000000000001E-003    5.992374587619111E-022
  9.700000000000002E-003    1.002282131616570E-021
  9.800000000000001E-003    1.313292990915953E-021
  9.900000000000001E-003    1.459610042960125E-021
  1.000000000000000E-002    1.382658007369224E-021
  1.010000000000000E-002    1.050984331701046E-021
  1.020000000000000E-002    4.711475580731206E-022
  1.030000000000000E-002   -3.058760540477246E-022
  1.040000000000000E-002   -1.184773014667706E-021
  1.050000000000000E-002   -2.033719837293408E-021
  1.060000000000000E-002   -2.700108362147470E-021
  1.070000000000000E-002   -3.032965497521554E-021
  1.080000000000000E-002   -2.909461155048591E-021
  1.090000000000000E-002   -2.261678203272439E-021
  1.100000000000000E-002   -1.099036619523658E-021
  1.110000000000000E-002    4.783682148050068E-022
  1.120000000000000E-002    2.279575429719885E-021
  1.130000000000000E-002    4.038269710327402E-021
  1.140000000000000E-002    5.444300156596697E-021
  1.150000000000000E-002    6.188792155130270E-021
  1.160000000000000E-002    6.017618538208035E-021
  1.170000000000000E-002    4.785561010418517E-021
  1.180000000000000E-002    2.501923374038873E-021
  1.190000000000000E-002   -6.418855227947083E-022
  1.200000000000000E-002   -4.270945514419525E-021
  1.210000000000000E-002   -7.856731262208548E-021
  1.220000000000000E-002   -1.077901241477565E-020
  1.230000000000000E-002   -1.241504004089685E-020
  1.240000000000000E-002   -1.224572787512216E-020
  1.250000000000000E-002   -9.963720630629990E-021
  1.260000000000000E-002   -5.565131097772178E-021
  1.270000000000000E-002    5.937970498953692E-022
  1.280000000000000E-002    7.791243309285349E-021
  1.290000000000000E-002    1.499587255776380E-020
  1.300000000000000E-002    2.098601548196293E-020
  1.310000000000000E-002    2.452304118668590E-020
  1.320000000000000E-002    2.455911520521045E-020
  1.330000000000000E-002    2.045005725252163E-020
  1.340000000000000E-002    1.213791040701177E-020
  1.350000000000000E-002    2.666198666076905E-022
  1.360000000000000E-002   -1.380084989606894E-020
  1.370000000000000E-002   -2.808451365649969E-020
  1.380000000000000E-002   -4.021235115135889E-020
  1.390000000000000E-002   -4.775191064816234E-020
  1.400000000000000E-002   -4.861110076486833E-020
  1.410000000000000E-002   -4.145238596159102E-020
  1.420000000000000E-002   -2.605252858363706E-020
  1.430000000000000E-002   -3.537280639465762E-021
  1.440000000000000E-002    2.357060811484291E-020
  1.450000000000000E-002    5.153090246991483E-020
  1.460000000000000E-002    7.580227273597413E-020
  1.470000000000000E-002    9.166648430998723E-020
  1.480000000000000E-002    9.499107603873403E-020
  1.490000000000000E-002    8.302590047887792E-020
  1.500000000000000E-002    5.510504020609411E-020
  1.510000000000000E-002    1.311959643974007E-020
  1.520000000000000E-002   -3.835768138861989E-020
  1.530000000000000E-002   -9.237660683601920E-020
  1.540000000000000E-002   -1.403648688803755E-019
  1.550000000000000E-002   -1.732845883158915E-019
  1.560000000000000E-002   -1.830642631853664E-019
  1.570000000000000E-002   -1.641126719567753E-019
  1.580000000000000E-002   -1.146748501347414E-019
  1.590000000000000E-002   -3.777617007496853E-020
  1.600000000000000E-002    5.847296859687818E-020
  1.610000000000000E-002    1.613704497577855E-019
  1.620000000000000E-002    2.549652712341358E-019
  1.630000000000000E-002    3.221677752925758E-019
  1.640000000000000E-002    3.474028119325515E-019
  1.650000000000000E-002    3.194538695871409E-019
  1.660000000000000E-002    2.340548855400314E-019
  1.670000000000000E-002    9.575598384118834E-020
  1.680000000000000E-002   -8.136827121168165E-020
  1.690000000000000E-002   -2.744773781333615E-019
  1.700000000000000E-002   -4.543056469098004E-019
  1.710000000000000E-002   -5.889562278840929E-019
  1.720000000000000E-002   -6.487556270092699E-019
  1.730000000000000E-002   -6.115354109888172E-019
  1.740000000000000E-002   -4.675333888154763E-019
  1.750000000000000E-002   -2.230373889614733E-019
  1.760000000000000E-002    9.803769585996366E-020
  1.770000000000000E-002    4.552376822530461E-019
  1.780000000000000E-002    7.955731872957446E-019
  1.790000000000000E-002    1.060248376483926E-018
  1.800000000000000E-002    1.193438365511939E-018
  1.810000000000000E-002    1.151991741903985E-018
  1.820000000000000E-002    9.145990451858400E-019
  1.830000000000000E-002    4.888226537301873E-019
  1.840000000000000E-002   -8.551795222324435E-020
  1.850000000000000E-002   -7.377501128739534E-019
  1.860000000000000E-002   -1.373073501033517E-018
  1.870000000000000E-002   -1.884343313906426E-018