 -4.000000000000000E-002    0.000000000000000E+000
 -3.990000000000000E-002    0.000000000000000E+000
 -3.980000000000000E-002    0.000000000000000E+000
 -3.970000000000000E-002    0.000000000000000E+000
 -3.960000000000000E-002    0.000000000000000E+000
 -3.950000000000000E-002    0.000000000000000E+000
 -3.940000000000000E-002    0.000000000000000E+000
 -3.930000000000000E-002    0.000000000000000E+000
 -3.920000000000000E-002    0.000000000000000E+000
 -3.910000000000000E-002    0.000000000000000E+000
 -3.900000000000000E-002    0.000000000000000E+000
 -3.890000000000000E-002    0.000000000000000E+000
 -3.880000000000000E-002    0.000000000000000E+000
 -3.870000000000000E-002    0.000000000000000E+000
 -3.860000000000000E-002    0.000000000000000E+000
 -3.850000000000000E-002    0.000000000000000E+000
 -3.840000000000000E-002    0.000000000000000E+000
 -3.830000000000000E-002    0.000000000000000E+000
 -3.820000000000000E-002    0.000000000000000E+000
 -3.810000000000000E-002   -2.093173235719528E-046
 -3.800000000000000E-002   -2.419837559791325E-045
 -3.790000000000000E-002   -2.015146775079754E-044
 -3.780000000000000E-002   -1.319814188924338E-043
 -3.770000000000000E-002   -7.344516738662146E-043
 -3.760000000000000E-002   -3.521207103597452E-042
 -3.750000000000000E-002   -1.482487956818594E-041
 -3.740000000000000E-002   -5.546437891226201E-041
 -3.730000000000000E-002   -1.856976328071008E-040
 -3.720000000000000E-002   -5.577009446618139E-040
 -3.710000000000000E-002   -1.497069586363367E-039
 -3.700000000000000E-002   -3.543308788232801E-039
 -3.690000000000000E-002   -7.131673935915450E-039
 -3.680000000000000E-002   -1.093718949047776E-038
 -3.670000000000000E-002   -6.432429912802692E-039
 -3.660000000000000E-002    3.652539265299291E-038
 -3.650000000000000E-002    2.023466901295147E-037
 -3.640000000000000E-002    6.938312873973712E-037
 -3.630000000000000E-002    1.939444644335151E-036
 -3.620000000000000E-002    4.735333624482507E-036
 -3.610000000000000E-002    1.034996051114413E-035
 -3.600000000000000E-002    2.037302209483808E-035
 -3.590000000000000E-002    3.581656188392540E-035
 -3.580000000000000E-002    5.455291605775286E-035
 -3.570000000000000E-002    6.566947331321523E-035
 -3.560000000000000E-002    3.901003058660285E-035
 -3.550000000000000E-002   -9.129481678550375E-035
 -3.540000000000000E-002   -4.479464464832400E-034
 -3.530000000000000E-002   -1.228543009376241E-033
 -3.520000000000000E-002   -2.700763318185942E-033
 -3.510000000000000E-002   -5.135715704647449E-033
 -3.500000000000000E-002   -8.616024456216495E-033
 -3.490000000000000E-002   -1.263329836969739E-032
 -3.480000000000000E-002   -1.538866018286121E-032
 -3.470000000000000E-002   -1.276271606998563E-032
 -3.460000000000000E-002    2.924870484176379E-033
 -3.450000000000000E-002    4.393713354310985E-032
 -3.440000000000000E-002    1.269913534851075E-031
 -3.430000000000000E-002    2.703728086659359E-031
 -3.420000000000000E-002    4.859754712522523E-031
 -3.410000000000000E-002    7.635567858773407E-031
 -3.400000000000000E-002    1.045011138008215E-030
 -3.390000000000000E-002    1.188772329939928E-030
 -3.380000000000000E-002    9.295647486480935E-031
 -3.370000000000000E-002   -1.525492916300918E-031
 -3.360000000000000E-002   -2.627530698430758E-030
 -3.350000000000000E-002   -7.134583520812333E-030
 -3.340000000000000E-002   -1.417300368704429E-029
 -3.330000000000000E-002   -2.371142081670281E-029
 -3.320000000000000E-002   -3.458375289555116E-029
 -3.310000000000000E-002   -4.369844281860818E-029
 -3.300000000000000E-002   -4.519528719950408E-029
 -3.290000000000000E-002   -2.984556142683124E-029
 -3.280000000000000E-002    1.480752819643513E-029
 -3.270000000000000E-002    1.028734809707354E-028
 -3.260000000000000E-002    2.462985297420015E-028
 -3.250000000000000E-002    4.481036068411091E-028
 -3.240000000000000E-002    6.924372808965467E-028
 -3.230000000000000E-002    9.321885476420781E-028
 -3.220000000000000E-002    1.076492613791968E-027
 -3.210000000000000E-002    9.825886480165806E-028
 -3.200000000000000E-002    4.588323684580147E-028
 -3.190000000000000E-002   -7.124403086065586E-028
 -3.180000000000000E-002   -2.723111775801653E-027
 -3.170000000000000E-002   -5.651929911102900E-027
 -3.160000000000000E-002   -9.341767013923817E-027
 -3.150000000000000E-002   -1.325379448570141E-026
 -3.140000000000000E-002   -1.632840926399812E-026
 -3.130000000000000E-002   -1.690389589449589E-026
 -3.120000000000000E-002   -1.276425116869233E-026
 -3.110000000000000E-002   -1.400015578656777E-027
 -3.100000000000000E-002    1.943950035308078E-026
 -3.090000000000000E-002    5.085883132908507E-026
 -3.080000000000000E-002    9.162344836451909E-026
 -3.070000000000000E-002    1.368071688957803E-025
 -3.060000000000000E-002    1.765780347868798E-025
 -3.050000000000000E-002    1.955862008491173E-025
 -3.040000000000000E-002    1.735543551420602E-025
 -3.030000000000000E-002    8.771785928629815E-026
 -3.020000000000000E-002   -8.235406999306800E-026
 -3.010000000000000E-002   -3.473752367373930E-025
 -3.000000000000000E-002   -6.988467121524479E-025
 -2.990000000000000E-002   -1.098798708179067E-024
 -2.980000000000000E-002   -1.471197811461660E-024
 -2.970000000000000E-002   -1.698495734463924E-024
 -2.960000000000000E-002   -1.627494537642703E-024
 -2.950000000000000E-002   -1.088644328394299E-024
 -2.940000000000000E-002    6.837092371706180E-026
 -2.930000000000000E-002    1.922705250269275E-024
 -2.920000000000000E-002    4.418491999845333E-024
 -2.910000000000000E-002    7.299304692787500E-024
 -2.900000000000000E-002    1.005756052738603E-023
 -2.890000000000000E-002    1.192095651698153E-023
 -2.880000000000000E-002    1.190057601955678E-023
 -2.870000000000000E-002    8.922631282206965E-024
 -2.860000000000000E-002    2.055814671783512E-024
 -2.850000000000000E-002   -9.172396036366431E-024
 -2.840000000000000E-002   -2.440399872713637E-023
 -2.830000000000000E-002   -4.208914391138835E-023
 -2.820000000000000E-002   -5.923328513314550E-023
 -2.810000000000000E-002   -7.137430579909063E-023
 -2.800000000000000E-002   -7.291531044686498E-023
 -2.790000000000000E-002   -5.791290231965742E-023
 -2.780000000000000E-002   -2.135618269555133E-023
 -2.770000000000000E-002    3.913395784831712E-023
 -2.760000000000000E-002    1.213959731000087E-022
 -2.750000000000000E-002    2.169760684599512E-022
 -2.740000000000000E-002    3.100407742974646E-022
 -2.730000000000000E-002    3.775420840396156E-022
 -2.720000000000000E-002    3.911980644748573E-022
 -2.710000000000000E-002    3.216757011403850E-022
 -2.700000000000000E-002    1.450096819925661E-022
 -2.690000000000000E-002   -1.492339661147667E-022
 -2.680000000000000E-002   -5.491864574560607E-022
 -2.670000000000000E-002   -1.013098822664257E-021
 -2.660000000000000E-002   -1.465290436370333E-021
 -2.650000000000000E-002   -1.798164168418485E-021
 -2.640000000000000E-002   -1.882522858477643E-021
 -2.630000000000000E-002   -1.587455506310316E-021
 -2.620000000000000E-002   -8.093705464602393E-022
 -2.610000000000000E-002    4.925566570055553E-022
 -2.600000000000000E-002    2.259914999401170E-021
 -2.590000000000000E-002    4.305481626742226E-021
 -2.580000000000000E-002    6.300193204903082E-021
 -2.570000000000000E-002    7.786543537001129E-021
 -2.560000000000000E-002    8.226337892387264E-021
 -2.550000000000000E-002    7.086162695406583E-021
 -2.540000000000000E-002    3.956759545758116E-021
 -2.530000000000000E-002   -1.306688710966024E-021
 -2.520000000000000E-002   -8.446214262732666E-021
 -2.510000000000000E-002   -1.669610543683846E-020
 -2.500000000000000E-002   -2.474763111844440E-020
 -2.490000000000000E-002   -3.081834102262015E-020
 -2.480000000000000E-002   -3.285110460965781E-020
 -2.470000000000000E-002   -2.884905334358281E-020
 -2.460000000000000E-002   -1.732504644655121E-020
 -2.450000000000000E-002    2.188792387286002E-021
 -2.440000000000000E-002    2.865921929040442E-020
 -2.430000000000000E-002    5.921172077519016E-020
 -2.420000000000000E-002    8.905704224973738E-020
 -2.410000000000000E-002    1.117969088145651E-019
 -2.400000000000000E-002    1.201802715680273E-019
 -2.390000000000000E-002    1.073100668936720E-019
 -2.380000000000000E-002    6.820406286342484E-020
 -2.370000000000000E-002    1.504216746477571E-021
 -2.360000000000000E-002   -8.897405292872097E-020
 -2.350000000000000E-002   -1.932335349848850E-019
 -2.340000000000000E-002   -2.950243540951596E-019
 -2.330000000000000E-002   -3.730437871326435E-019
 -2.320000000000000E-002   -4.035849845507834E-019
 -2.310000000000000E-002   -3.645684154802747E-019
 -2.300000000000000E-002   -2.405792419400106E-019
 -2.290000000000000E-002   -2.820011144991215E-020
 -2.280000000000000E-002    2.593633252987286E-019
 -2.270000000000000E-002    5.895447422275674E-019
 -2.260000000000000E-002    9.107355949457047E-019
 -2.250000000000000E-002    1.156570140886530E-018
 -2.240000000000000E-002    1.254558121204590E-018
 -2.230000000000000E-002    1.138675115451585E-018
 -2.220000000000000E-002    7.645889880039341E-019
 -2.210000000000000E-002    1.252542903332086E-019
 -2.200000000000000E-002   -7.361623629021754E-019
 -2.190000000000000E-002   -1.719445763039905E-018
 -2.180000000000000E-002   -2.669803545021327E-018
 -2.170000000000000E-002   -3.391950550441746E-018
 -2.160000000000000E-002   -3.676456883267269E-018
 -2.150000000000000E-002   -3.336739868834683E-018
 -2.140000000000000E-002   -2.252470765648955E-018
 -2.130000000000000E-002   -4.126565051978678E-019
 -2.120000000000000E-002    2.050226997301640E-018
 -2.110000000000000E-002    4.844367788034393E-018
 -2.100000000000000E-002    7.529364441262314E-018
 -2.090000000000000E-002    9.559031079116988E-018
 -2.080000000000000E-002    1.035690564757926E-017
 -2.070000000000000E-002    9.418860236945594E-018
 -2.060000000000000E-002    6.430340719150368E-018
 -2.050000000000000E-002    1.379484235432190E-018
 -2.040000000000000E-002   -5.356932501656434E-018
 -2.030000000000000E-002   -1.297870028571218E-017
 -2.020000000000000E-002   -2.029902336185516E-017
 -2.010000000000000E-002   -2.586506394133366E-017
 -2.000000000000000E-002   -2.816127653823806E-017
 -1.990000000000000E-002   -2.587841673891970E-017
 -1.980000000000000E-002   -1.821409697872468E-017
 -1.970000000000000E-002   -5.155872750285418E-018
 -1.960000000000000E-002    1.231131460122562E-017
 -1.950000000000000E-002    3.213186452608288E-017
 -1.940000000000000E-002    5.128817113046615E-017
 -1.930000000000000E-002    6.611637162455651E-017
 -1.920000000000000E-002    7.282141253477979E-017
 -1.910000000000000E-002    6.814419240833362E-017
 -1.900000000000000E-002    5.009332040752555E-017
 -1.890000000000000E-002    1.862081789068023E-017
 -1.880000000000000E-002   -2.389738533986442E-017
 -1.870000000000000E-002   -7.251190914573209E-017
 -1.860000000000000E-002   -1.199874718649779E-016
 -1.850000000000000E-002   -1.575771397451242E-016
 -1.840000000000000E-002   -1.762542139809868E-016
 -1.830000000000000E-002   -1.682810400752753E-016
 -1.820000000000000E-002   -1.289043866743695E-016
 -1.810000000000000E-002   -5.789584468030974E-017
 -1.800000000000000E-002    3.937915736625562E-017
 -1.790000000000000E-002    1.516642569390013E-016
 -1.780000000000000E-002    2.625127989362644E-016
 -1.770000000000000E-002    3.520793327493533E-016
 -1.760000000000000E-002    3.999164211715036E-016
 -1.750000000000000E-002    3.884898416281218E-016
 -1.740000000000000E-002    3.069329962667246E-016
 -1.730000000000000E-002    1.544157556164498E-016
 -1.720000000000000E-002   -5.755962510217886E-017
 -1.710000000000000E-002   -3.045739701118668E-016
 -1.700000000000000E-002   -5.508813497297282E-016
 -1.690000000000000E-002   -7.533428698275123E-016
 -1.680000000000000E-002   -8.674875358030286E-016
 -1.670000000000000E-002   -8.550584569667980E-016
 -1.660000000000000E-002   -6.920084550579308E-016
 -1.650000000000000E-002   -3.756195915732969E-016
 -1.640000000000000E-002    7.068757549597476E-017
 -1.630000000000000E-002    5.961640398855362E-016
 -1.620000000000000E-002    1.126089164865708E-015
 -1.610000000000000E-002    1.569979931396171E-015
 -1.600000000000000E-002    1.834163427605107E-015
 -1.590000000000000E-002    1.837364432152682E-015
 -1.580000000000000E-002    1.527170032000736E-015
 -1.570000000000000E-002    8.946775266141796E-016
 -1.560000000000000E-002   -1.556267720159917E-017
 -1.550000000000000E-002   -1.102919497781850E-015
 -1.540000000000000E-002   -2.217195467083394E-015
 -1.530000000000000E-002   -3.174866658715813E-015
 -1.520000000000000E-002   -3.784055633786235E-015
 -1.510000000000000E-002   -3.875567429781637E-015
 -1.500000000000000E-002   -3.335785682629607E-015
 -1.490000000000000E-002   -2.136158774931386E-015
 -1.480000000000000E-002   -3.536435384805985E-016
 -1.470000000000000E-002    1.822981486724776E-015
 -1.460000000000000E-002    4.104514880518510E-015
 -1.450000000000000E-002    6.131650212146506E-015
 -1.440000000000000E-002    7.522426154181647E-015
 -1.430000000000000E-002    7.931830139806538E-015
 -1.420000000000000E-002    7.115668819063958E-015
 -1.410000000000000E-002    4.988771170903186E-015
 -1.400000000000000E-002    1.666844225341577E-015
 -1.390000000000000E-002   -2.517758873441032E-015
 -1.380000000000000E-002   -7.033386145624856E-015
 -1.370000000000000E-002   -1.120225008935784E-014
 -1.360000000000000E-002   -1.428661123043589E-014
 -1.350000000000000E-002   -1.559928380268567E-014
 -1.340000000000000E-002   -1.462431828510143E-014
 -1.330000000000000E-002   -1.112975284543358E-014
 -1.320000000000000E-002   -5.252690512319659E-015
 -1.310000000000000E-002    2.461690314494182E-015
 -1.300000000000000E-002    1.108101666813481E-014
 -1.290000000000000E-002    1.937276127710249E-014
 -1.280000000000000E-002    2.595396653033544E-014
 -1.270000000000000E-002    2.948944714205925E-014
 -1.260000000000000E-002    2.891419500009752E-014
 -1.250000000000000E-002    2.364796841405881E-014
 -1.240000000000000E-002    1.376629966831099E-014
 -1.230000000000000E-002    9.357737157998260E-017
 -1.220000000000000E-002   -1.580900657620970E-014
 -1.210000000000000E-002   -3.177522024508297E-014
 -1.200000000000000E-002   -4.528294446860649E-014
 -1.190000000000000E-002   -5.379931753397307E-014
 -1.180000000000000E-002   -5.518181476483690E-014
 -1.170000000000000E-002   -4.808012323406720E-014
 -1.160000000000000E-002   -3.227504502849244E-014
 -1.150000000000000E-002   -8.890774766961486E-015
 -1.140000000000000E-002    1.957277341462846E-014
 -1.130000000000000E-002    4.942063329835679E-014
 -1.120000000000000E-002    7.616088529795912E-014
 -1.110000000000000E-002    9.509082307360966E-014
 -1.100000000000000E-002    1.020076240356099E-013
 -1.090000000000000E-002    9.395041481066729E-014
 -1.080000000000000E-002    6.986124154513844E-014
 -1.070000000000000E-002    3.104798658338310E-014
 -1.060000000000000E-002   -1.865471220641686E-014
 -1.050000000000000E-002   -7.309875713118896E-014
 -1.040000000000000E-002   -1.244345109625754E-013
 -1.030000000000000E-002   -1.640865607259567E-013
 -1.020000000000000E-002   -1.839955349938344E-013
 -1.010000000000000E-002   -1.779712201043393E-013
 -1.000000000000000E-002   -1.429601827145392E-013
 -9.899999999999999E-003   -8.001412121369625E-014
 -9.800000000000000E-003    5.240727105954969E-015
 -9.699999999999999E-003    1.027852008156075E-013
 -9.599999999999999E-003    1.991122635234612E-013
 -9.500000000000000E-003    2.788246975608802E-013
 -9.399999999999999E-003    3.267796951872534E-013
 -9.299999999999999E-003    3.305252433501582E-013
 -9.200000000000000E-003    2.826866132443824E-013
 -9.099999999999999E-003    1.829160613579902E-013
 -8.999999999999999E-003    3.902782656589247E-014
 -8.900000000000000E-003   -1.329882782454733E-013
 -8.799999999999999E-003   -3.102505148543867E-013
 -8.699999999999999E-003   -4.655621662788717E-013
 -8.600000000000000E-003   -5.710698766544534E-013
 -8.499999999999999E-003   -6.025860690776668E-013
 -8.399999999999999E-003   -5.439871293366429E-013
 -8.300000000000000E-003   -3.909953504391086E-013
 -8.199999999999999E-003   -1.536455232860093E-013
 -8.100000000000000E-003    1.431593253732743E-013
 -8.000000000000000E-003    4.613826807180489E-013
 -7.899999999999999E-003    7.539481305432204E-013
 -7.800000000000000E-003    9.708918017678099E-013
 -7.699999999999999E-003    1.066894007511397E-012
 -7.599999999999999E-003    1.009186865411192E-012
 -7.499999999999999E-003    7.846222193158727E-013
 -7.399999999999999E-003    4.046372321322036E-013
 -7.299999999999999E-003   -9.299351398190240E-014
 -7.199999999999999E-003   -6.463748209291594E-013
 -7.100000000000000E-003   -1.175901545296886E-012
 -6.999999999999999E-003   -1.594440737797098E-012
 -6.899999999999999E-003   -1.820189181498718E-012
 -6.800000000000000E-003   -1.790515420754424E-012
 -6.699999999999999E-003   -1.474691299021316E-012
 -6.599999999999999E-003   -8.832942878520136E-013
 -6.499999999999999E-003   -7.228668969808096E-014
 -6.399999999999999E-003    8.596432009757515E-013
 -6.299999999999999E-003    1.780994509911890E-012
 -6.199999999999999E-003    2.544031074494290E-012
 -6.100000000000000E-003    3.006263141894191E-012
 -5.999999999999999E-003    3.054029786090623E-012
 -5.899999999999999E-003    2.624644389253528E-012
 -5.800000000000000E-003    1.723316153259406E-012
 -5.699999999999999E-003    4.313916066266220E-013
 -5.599999999999999E-003   -1.096595648362111E-012
 -5.499999999999999E-003   -2.648087547086636E-012
 -5.399999999999999E-003   -3.979045747599534E-012
 -5.299999999999999E-003   -4.849073534909739E-012
 -5.199999999999999E-003   -5.060542525747886E-012
 -5.099999999999999E-003   -4.495892482812527E-012
 -4.999999999999999E-003   -3.146808120395990E-012
 -4.899999999999999E-003   -1.129482450128085E-012
 -4.799999999999999E-003    1.318295548311848E-012
 -4.699999999999999E-003    3.860074939392396E-012
 -4.599999999999999E-003    6.102509793795029E-012
 -4.499999999999999E-003    7.651541906786035E-012
 -4.399999999999999E-003    8.175679280253097E-012
 -4.299999999999999E-003    7.466976235137618E-012
 -4.199999999999999E-003    5.489528612122230E-012
 -4.099999999999999E-003    2.406088176713884E-012
 -3.999999999999999E-003   -1.424185393826883E-012
 -3.899999999999999E-003   -5.479953680312798E-012
 -3.799999999999999E-003   -9.142190839534007E-012
 -3.699999999999999E-003   -1.178208361227594E-011
 -3.599999999999999E-003   -1.286085346259249E-011
 -3.499999999999999E-003   -1.202673067986747E-011
 -3.399999999999999E-003   -9.193028349130180E-012
 -3.299999999999999E-003   -4.582495868308216E-012
 -3.199999999999999E-003    1.273103432780457E-012
 -3.099999999999999E-003    7.583228725334743E-012
 -2.999999999999999E-003    1.339612691584617E-011
 -2.899999999999999E-003    1.773326697698623E-011
 -2.799999999999999E-003    1.974304269396169E-011
 -2.699999999999999E-003    1.885104383302546E-011
 -2.599999999999999E-003    1.488227458440966E-011
 -2.499999999999999E-003    8.132537381440996E-012
 -2.399999999999999E-003   -6.280251877155037E-013
 -2.299999999999999E-003   -1.022709227230590E-011
 -2.199999999999999E-003   -1.923447695353013E-011
 -2.099999999999999E-003   -2.616299158773402E-011
 -1.999999999999999E-003   -2.969950251654734E-011
 -1.899999999999999E-003   -2.893218403614039E-011
 -1.799999999999999E-003   -2.353705894205171E-011
 -1.699999999999999E-003   -1.388975366220161E-011
 -1.599999999999999E-003   -1.076892762813778E-012
 -1.499999999999999E-003    1.320477772624151E-011
 -1.399999999999999E-003    2.685662690806517E-011
 -1.299999999999999E-003    3.767106264422341E-011
 -1.199999999999999E-003    4.367060675341786E-011
 -1.099999999999999E-003    4.344348298671370E-011
 -9.999999999999989E-004    3.642172652391300E-011
 -8.999999999999990E-004    2.305197710745683E-011
 -7.999999999999990E-004    4.821468481333776E-012
 -6.999999999999989E-004   -1.587857406517263E-011
 -5.999999999999990E-004   -3.604560989609983E-011
 -4.999999999999989E-004   -5.248244010404307E-011
 -3.999999999999989E-004   -6.228302829637228E-011
 -2.999999999999989E-004   -6.331659648466869E-011
 -1.999999999999989E-004   -5.463301275650897E-011
 -9.999999999999892E-005   -3.671805635623303E-011
  1.084202172485504E-018   -1.154477991446069E-011
  1.000000000000011E-004    1.760521520100832E-011
  2.000000000000011E-004    4.654243925497857E-011
  3.000000000000011E-004    7.074800857759547E-011
  4.000000000000011E-004    8.605384073803101E-011
  5.000000000000011E-004    8.932587155355006E-011
  6.000000000000011E-004    7.904263638857545E-011
  7.000000000000011E-004    5.566921598708169E-011
  8.000000000000011E-004    2.175050170043180E-011
  9.000000000000012E-004   -1.831416939806388E-011
  1.000000000000001E-003   -5.880575114802906E-011
  1.100000000000001E-003   -9.347075988422098E-011
  1.200000000000001E-003   -1.164540447230392E-010
  1.300000000000001E-003   -1.232444122601490E-010
  1.400000000000001E-003   -1.114858959581574E-010
  1.500000000000001E-003   -8.151679707425179E-011
  1.600000000000001E-003   -3.653070798147094E-011
  1.700000000000001E-003    1.769527758242217E-011
  1.800000000000001E-003    7.349621435007336E-011
  1.900000000000001E-003    1.223628539900659E-010
  2.000000000000001E-003    1.561968922904073E-010
  2.100000000000001E-003    1.685983457153652E-010
  2.200000000000001E-003    1.559868686950767E-010
  2.300000000000001E-003    1.183702544361620E-010
  2.400000000000001E-003    5.961426002422519E-011
  2.500000000000001E-003   -1.286490546543437E-011
  2.600000000000001E-003   -8.898019933955033E-011
  2.700000000000001E-003   -1.573307697734472E-010
  2.800000000000001E-003   -2.068609220937988E-010
  2.900000000000001E-003   -2.285861212372846E-010
  3.000000000000001E-003   -2.171240633588597E-010
  3.100000000000001E-003   -1.717807852506021E-010
  3.200000000000001E-003   -9.699288797581076E-011
  3.300000000000001E-003   -2.012690121580493E-012
  3.400000000000001E-003    1.001677382020679E-010
  3.500000000000001E-003    1.945408973044844E-010
  3.600000000000001E-003    2.662360068168699E-010
  3.700000000000001E-003    3.027979754094528E-010
  3.800000000000001E-003    2.962523395717172E-010
  3.900000000000001E-003    2.446254644217241E-010
  4.000000000000001E-003    1.526510392521694E-010
  4.100000000000001E-003    3.150087944743377E-011
  4.200000000000001E-003   -1.024832383916080E-010
  4.300000000000001E-003   -2.299286259254617E-010
  4.400000000000001E-003   -3.311720872630807E-010
  4.500000000000001E-003   -3.892231190622362E-010
  4.600000000000002E-003   -3.925130880504312E-010
  4.700000000000001E-003   -3.369983557439318E-010
  4.800000000000001E-003   -2.272565663520046E-010
  4.900000000000002E-003   -7.634572569425479E-011
  5.000000000000001E-003    9.563035501096698E-011
  5.100000000000001E-003    2.641139177636975E-010
  5.200000000000001E-003    4.035215952266444E-010
  5.300000000000002E-003    4.910417288640111E-010
  5.400000000000001E-003    5.102487011330172E-010
  5.500000000000001E-003    4.539762975995725E-010
  5.600000000000002E-003    3.259700009902748E-010
  5.700000000000001E-003    1.409944164616391E-010
  5.800000000000001E-003   -7.671412373034380E-011
  5.900000000000002E-003   -2.965163027782592E-010
  6.000000000000001E-003   -4.855883658024458E-010
  6.100000000000001E-003   -6.137231707473477E-010
  6.200000000000002E-003   -6.580252953319524E-010
  6.300000000000002E-003   -6.067862466611214E-010
  6.400000000000001E-003   -4.619083130277596E-010
  6.500000000000001E-003   -2.394261927525382E-010
  6.600000000000002E-003    3.206314969016525E-011
  6.700000000000001E-003    3.149490157523132E-010
  6.800000000000001E-003    5.677154630119551E-010
  6.900000000000002E-003    7.509328589761339E-010
  7.000000000000001E-003    8.332829495457792E-010
  7.100000000000001E-003    7.967152056673709E-010
  7.200000000000002E-003    6.399097263340661E-010
  7.300000000000002E-003    3.794303058521578E-010
  7.400000000000001E-003    4.826272681688711E-011
  7.500000000000001E-003   -3.081907761042464E-010
  7.600000000000002E-003   -6.382043234957062E-010
  7.700000000000001E-003   -8.911121896114877E-010
  7.800000000000001E-003   -1.024949045659407E-009
  7.900000000000001E-003   -1.013215201360396E-009
  8.000000000000002E-003   -8.497036161302875E-010
  8.100000000000001E-003   -5.505567502639980E-010
  8.200000000000001E-003   -1.530910775856313E-010
  8.300000000000002E-003    2.886139185856617E-010
  8.400000000000001E-003    7.108801896888314E-010
  8.500000000000002E-003    1.049427504576235E-009
  8.600000000000002E-003    1.248953890926011E-009
  8.700000000000001E-003    1.271898707386192E-009
  8.800000000000002E-003    1.105029350624534E-009
  8.900000000000002E-003    7.627494791929294E-010
  9.000000000000001E-003    2.864535827139223E-010
  9.100000000000002E-003   -2.601868802167712E-010
  9.200000000000002E-003   -7.995205968221169E-010
  9.300000000000001E-003   -1.250746286569410E-009
  9.400000000000002E-003   -1.541791244218225E-009
  9.500000000000001E-003   -1.620517949627521E-009
  9.600000000000001E-003   -1.463548068577647E-009
  9.700000000000002E-003   -1.081260605904484E-009
  9.800000000000001E-003   -5.180182710954038E-010
  9.900000000000001E-003    1.526601697278227E-010
  1.000000000000000E-002    8.375194548867245E-010
  1.010000000000000E-002    1.436409612381751E-009
  1.020000000000000E-002    1.856806410957576E-009
  1.030000000000000E-002    2.027929842857448E-009
  1.040000000000000E-002    1.912332347438091E-009
  1.050000000000000E-002    1.513105321313475E-009
  1.060000000000000E-002    8.754091759599552E-010
  1.070000000000000E-002    8.182281160299485E-011
  1.080000000000000E-002   -7.580974607966301E-010
  1.090000000000000E-002   -1.522773217920815E-009
  1.100000000000000E-002   -2.096062555368126E-009
  1.110000000000000E-002   -2.384740375701400E-009
  1.120000000000000E-002   -2.333399475791086E-009
  1.130000000000000E-002   -1.934431201389153E-009
  1.140000000000000E-002   -1.231371957333393E-009
  1.150000000000000E-002   -3.148111281977688E-010
  1.160000000000000E-002    6.888731709015181E-010
  1.170000000000000E-002    1.634599755578146E-009
  1.180000000000000E-002    2.379214892983768E-009
  1.190000000000000E-002    2.802759346457005E-009
  1.200000000000000E-002    2.827241985668083E-009
  1.210000000000000E-002    2.430020947614298E-009
  1.220000000000000E-002    1.649573842117863E-009
  1.230000000000000E-002    5.824731561735487E-010
  1.240000000000000E-002   -6.283564817103147E-010
  1.250000000000000E-002   -1.812723898738508E-009
  1.260000000000000E-002   -2.797072981341656E-009
  1.270000000000000E-002   -3.429854866139593E-009
  1.280000000000000E-002   -3.604666642282173E-009
  1.290000000000000E-002   -3.277637367800796E-009
  1.300000000000000E-002   -2.476254551809976E-009
  1.310000000000000E-002   -1.297986144383409E-009
  1.320000000000000E-002    1.014961640872164E-010
  1.330000000000000E-002    1.529145101116592E-009
  1.340000000000000E-002    2.781674329265859E-009
  1.350000000000000E-002    3.675214151789333E-009
  1.360000000000000E-002    4.073177250079699E-009
  1.370000000000000E-002    3.908128509345357E-009
  1.380000000000000E-002    3.194177492953601E-009
  1.390000000000000E-002    2.027697484538792E-009
  1.400000000000000E-002    5.758184957942672E-010
  1.410000000000000E-002   -9.460567438491352E-010
  1.420000000000000E-002   -2.304791443782421E-009
  1.430000000000000E-002   -3.283875789849425E-009
  1.440000000000000E-002   -3.716654021451974E-009
  1.450000000000000E-002   -3.513441729665512E-009
  1.460000000000000E-002   -2.678274578587774E-009
  1.470000000000000E-002   -1.312403711927124E-009
  1.480000000000000E-002    3.964963017668285E-010
  1.490000000000000E-002    2.198373673708102E-009
  1.500000000000000E-002    3.815076444542052E-009
  1.510000000000000E-002    4.980226503651174E-009
  1.520000000000000E-002    5.479072961485338E-009
  1.530000000000000E-002    5.182512063628595E-009
  1.540000000000000E-002    4.070128649266343E-009
  1.550000000000000E-002    2.238549899258633E-009
  1.560000000000000E-002   -1.065649333177407E-010
  1.570000000000000E-002   -2.674227532177278E-009
  1.580000000000000E-002   -5.124514934999132E-009
  1.590000000000000E-002   -7.112697415563215E-009
  1.600000000000000E-002   -8.334846779986142E-009
  1.610000000000000E-002   -8.568246873567128E-009
  1.620000000000000E-002   -7.700486770126097E-009
  1.630000000000000E-002   -5.742572551662167E-009
  1.640000000000000E-002   -2.823594749523538E-009
  1.650000000000000E-002    8.328862016803054E-010
  1.660000000000000E-002    4.947890583108137E-009
  1.670000000000000E-002    9.236306272512746E-009
  1.680000000000000E-002    1.345954939562457E-008
  1.690000000000000E-002    1.747401641119408E-008
  1.700000000000000E-002    2.126814361353667E-008
  1.710000000000000E-002    2.498229713675246E-008
  1.720000000000000E-002    2.890807451100999E-008
  1.730000000000000E-002    3.346646909917535E-008
  1.740000000000000E-002    3.916742607996828E-008
  1.750000000000000E-002    4.655609413245382E-008
  1.760000000000000E-002    5.615318927730437E-008
  1.770000000000000E-002    6.839792316063814E-008
  1.780000000000000E-002    8.360186363177824E-008
  1.790000000000000E-002    1.019206542383832E-007
  1.800000000000000E-002    1.233482818841904E-007
  1.810000000000000E-002    1.477352018437340E-007
  1.820000000000000E-002    1.748284542997698E-007
  1.830000000000000E-002    2.043283730689044E-007
  1.840000000000000E-002    2.359542339180633E-007
  1.850000000000000E-002    2.695094894820083E-007
  1.860000000000000E-002    3.049370205655508E-007
  1.870000000000000E-002    3.423563353164564E-007