 -4.000000000000000E-002    0.000000000000000E+000
 -3.990000000000000E-002    0.000000000000000E+000
 -3.980000000000000E-002   -2.341389677701812E-010
 -3.970000000000000E-002   -9.123635406344115E-010
 -3.960000000000000E-002   -2.023330842888154E-009
 -3.950000000000000E-002   -3.247330763715268E-009
 -3.940000000000000E-002   -3.991146977076777E-009
 -3.930000000000000E-002   -3.525610364789564E-009
 -3.920000000000000E-002   -1.185558042884199E-009
 -3.910000000000000E-002    3.417472364404587E-009
 -3.900000000000000E-002    1.021705153879797E-008
 -3.890000000000000E-002    1.858521010683473E-008
 -3.880000000000000E-002    2.731735110956253E-008
 -3.870000000000000E-002    3.471014842567146E-008
 -3.860000000000000E-002    3.871556507774293E-008
 -3.850000000000000E-002    3.714210260561196E-008
 -3.840000000000000E-002    2.786442794259338E-008
 -3.830000000000000E-002    9.002221738072619E-009
 -3.820000000000000E-002   -2.096469824741898E-008
 -3.810000000000000E-002   -6.316704119568379E-008
 -3.800000000000000E-002   -1.184077438064204E-007
 -3.790000000000000E-002   -1.873065728417827E-007
 -3.780000000000000E-002   -2.704992658578917E-007
 -3.770000000000000E-002   -3.688561615066986E-007
 -3.760000000000000E-002   -4.836781605728383E-007
 -3.750000000000000E-002   -6.168303112513855E-007
 -3.740000000000000E-002   -7.707795130354797E-007
 -3.730000000000000E-002   -9.485244015379970E-007
 -3.720000000000000E-002   -1.153416144582103E-006
 -3.710000000000000E-002   -1.388892539327214E-006
 -3.700000000000000E-002   -1.658160873425218E-006
 -3.690000000000000E-002   -1.963881991851991E-006
 -3.680000000000000E-002   -2.307901116983302E-006
 -3.670000000000000E-002   -2.691079150539349E-006
 -3.660000000000000E-002   -3.113252721988899E-006
 -3.650000000000000E-002   -3.573341598307984E-006
 -3.640000000000000E-002   -4.069598877562268E-006
 -3.630000000000000E-002   -4.599971261667220E-006
 -3.620000000000000E-002   -5.162524075244255E-006
 -3.610000000000000E-002   -5.755877309177287E-006
 -3.600000000000000E-002   -6.379587112127184E-006
 -3.590000000000000E-002   -7.034421547103455E-006
 -3.580000000000000E-002   -7.722490727616645E-006
 -3.570000000000000E-002   -8.447219898815242E-006
 -3.560000000000000E-002   -9.213167587485528E-006
 -3.550000000000000E-002   -1.002571949943177E-005
 -3.540000000000000E-002   -1.089071873877830E-005
 -3.530000000000000E-002   -1.181407405340721E-005
 -3.520000000000000E-002   -1.280142800964669E-005
 -3.510000000000000E-002   -1.385792166453741E-005
 -3.500000000000000E-002   -1.498809945445398E-005
 -3.490000000000000E-002   -1.619596218428406E-005
 -3.480000000000000E-002   -1.748514663216782E-005
 -3.470000000000000E-002   -1.885921000684742E-005
 -3.460000000000000E-002   -2.032196286676819E-005
 -3.450000000000000E-002   -2.187777282792164E-005
 -3.440000000000000E-002   -2.353181184934363E-005
 -3.430000000000000E-002   -2.529018722590095E-005
 -3.420000000000000E-002   -2.715993516130857E-005
 -3.410000000000000E-002   -2.914888947365925E-005
 -3.400000000000000E-002   -3.126543439412219E-005
 -3.390000000000000E-002   -3.351822233757740E-005
 -3.380000000000000E-002   -3.591585967721879E-005
 -3.370000000000000E-002   -3.846669074470011E-005
 -3.360000000000000E-002   -4.117866479458318E-005
 -3.350000000000000E-002   -4.405933546724607E-005
 -3.340000000000000E-002   -4.711603844889373E-005
 -3.330000000000000E-002   -5.035615754025356E-005
 -3.320000000000000E-002   -5.378747728910619E-005
 -3.310000000000000E-002   -5.741858695850708E-005
 -3.300000000000000E-002   -6.125921261135042E-005
 -3.290000000000000E-002   -6.532047283429410E-005
 -3.280000000000000E-002   -6.961499127072231E-005
 -3.270000000000000E-002   -7.415688679583257E-005
 -3.260000000000000E-002   -7.896158300092348E-005
 -3.250000000000000E-002   -8.404553360010991E-005
 -3.240000000000000E-002   -8.942590613234965E-005
 -3.230000000000000E-002   -9.512028646328606E-005
 -3.220000000000000E-002   -1.011464064537651E-004
 -3.210000000000000E-002   -1.075220521187971E-004
 -3.200000000000000E-002   -1.142650956005429E-004
 -3.190000000000000E-002   -1.213936588841893E-004
 -3.180000000000000E-002   -1.289264183051797E-004
 -3.170000000000000E-002   -1.368829438121226E-004
 -3.160000000000000E-002   -1.452841376309564E-004
 -3.150000000000000E-002   -1.541525108777340E-004
 -3.140000000000000E-002   -1.635124759219980E-004
 -3.130000000000000E-002   -1.733904268583183E-004
 -3.120000000000000E-002   -1.838147035483708E-004
 -3.110000000000000E-002   -1.948155005276367E-004
 -3.100000000000000E-002   -2.064245656607198E-004
 -3.090000000000000E-002   -2.186749834574456E-004
 -3.080000000000000E-002   -2.316008807325264E-004
 -3.070000000000000E-002   -2.452373316495343E-004
 -3.060000000000000E-002   -2.596202191994121E-004
 -3.050000000000000E-002   -2.747864244015918E-004
 -3.040000000000000E-002   -2.907738910164509E-004
 -3.030000000000000E-002   -3.076219962043889E-004
 -3.020000000000000E-002   -3.253718166272779E-004
 -3.010000000000000E-002   -3.440664800835887E-004
 -3.000000000000000E-002   -3.637514311527327E-004
 -2.990000000000000E-002   -3.844745799883123E-004
 -2.980000000000000E-002   -4.062864131413888E-004
 -2.970000000000000E-002   -4.292400078092347E-004
 -2.960000000000000E-002   -4.533908753521961E-004
 -2.950000000000000E-002   -4.787968360152168E-004
 -2.940000000000000E-002   -5.055179260741349E-004
 -2.930000000000000E-002   -5.336164405507906E-004
 -2.920000000000000E-002   -5.631567552280365E-004
 -2.910000000000000E-002   -5.942056586416421E-004
 -2.900000000000000E-002   -6.268324539773394E-004
 -2.890000000000000E-002   -6.611092203267359E-004
 -2.880000000000000E-002   -6.971112675507309E-004
 -2.870000000000000E-002   -7.349173879966698E-004
 -2.860000000000000E-002   -7.746101551947657E-004
 -2.850000000000000E-002   -8.162761589939772E-004
 -2.840000000000000E-002   -8.600061564486279E-004
 -2.830000000000000E-002   -9.058951017266177E-004
 -2.820000000000000E-002   -9.540418959296396E-004
 -2.810000000000000E-002   -1.004549453060141E-003
 -2.800000000000000E-002   -1.057524611735403E-003
 -2.790000000000000E-002   -1.113077806674279E-003
 -2.780000000000000E-002   -1.171323422157244E-003
 -2.770000000000000E-002   -1.232379462081854E-003
 -2.760000000000000E-002   -1.296367971802745E-003
 -2.750000000000000E-002   -1.363415272244253E-003
 -2.740000000000000E-002   -1.433651986050663E-003
 -2.730000000000000E-002   -1.507213754776054E-003
 -2.720000000000000E-002   -1.584241357174783E-003
 -2.710000000000000E-002   -1.664881105628950E-003
 -2.700000000000000E-002   -1.749285085375592E-003
 -2.690000000000000E-002   -1.837611070244021E-003
 -2.680000000000000E-002   -1.930023148923747E-003
 -2.670000000000000E-002   -2.026691616394461E-003
 -2.660000000000000E-002   -2.127792880306990E-003
 -2.650000000000000E-002   -2.233509365731787E-003
 -2.640000000000000E-002   -2.344029684703262E-003
 -2.630000000000000E-002   -2.459549064948665E-003
 -2.620000000000000E-002   -2.580269076805091E-003
 -2.610000000000000E-002   -2.706397495119996E-003
 -2.600000000000000E-002   -2.838149350502014E-003
 -2.590000000000000E-002   -2.975746387032473E-003
 -2.580000000000000E-002   -3.119417786640434E-003
 -2.570000000000000E-002   -3.269400308302430E-003
 -2.560000000000000E-002   -3.425938720320695E-003
 -2.550000000000000E-002   -3.589285868168836E-003
 -2.540000000000000E-002   -3.759702878999546E-003
 -2.530000000000000E-002   -3.937459298780445E-003
 -2.520000000000000E-002   -4.122834071023511E-003
 -2.510000000000000E-002   -4.316114202688428E-003
 -2.500000000000000E-002   -4.517596145691836E-003
 -2.490000000000000E-002   -4.727585744066920E-003
 -2.480000000000000E-002   -4.946398511008931E-003
 -2.470000000000000E-002   -5.174359138459459E-003
 -2.460000000000000E-002   -5.411801509676889E-003
 -2.450000000000000E-002   -5.659070306064753E-003
 -2.440000000000000E-002   -5.916519184921444E-003
 -2.430000000000000E-002   -6.184511874186236E-003
 -2.420000000000000E-002   -6.463421761562072E-003
 -2.410000000000000E-002   -6.753633070294964E-003
 -2.400000000000000E-002   -7.055540791023529E-003
 -2.390000000000000E-002   -7.369549374422881E-003
 -2.380000000000000E-002   -7.696075181549971E-003
 -2.370000000000000E-002   -8.035545657238791E-003
 -2.360000000000000E-002   -8.388398793348279E-003
 -2.350000000000000E-002   -8.755085500133531E-003
 -2.340000000000000E-002   -9.136067741080852E-003
 -2.330000000000000E-002   -9.531820194101485E-003
 -2.320000000000000E-002   -9.942828587559422E-003
 -2.310000000000000E-002   -1.036959172429772E-002
 -2.300000000000000E-002   -1.081262075853220E-002
 -2.290000000000000E-002   -1.127243880194805E-002
 -2.280000000000000E-002   -1.174958049931871E-002
 -2.270000000000000E-002   -1.224459365384904E-002
 -2.260000000000000E-002   -1.275803850991227E-002
 -2.250000000000000E-002   -1.329048788455354E-002
 -2.240000000000000E-002   -1.384252660255902E-002
 -2.230000000000000E-002   -1.441475384942177E-002
 -2.220000000000000E-002   -1.500778096835120E-002
 -2.210000000000000E-002   -1.562223128038859E-002
 -2.200000000000000E-002   -1.625874243599597E-002
 -2.190000000000000E-002   -1.691796383290424E-002
 -2.180000000000000E-002   -1.760056110765982E-002
 -2.170000000000000E-002   -1.830721232708245E-002
 -2.160000000000000E-002   -1.903860503137551E-002
 -2.150000000000000E-002   -1.979544337386800E-002
 -2.140000000000000E-002   -2.057844348723261E-002
 -2.130000000000000E-002   -2.138833577484558E-002
 -2.120000000000000E-002   -2.222585930789300E-002
 -2.110000000000000E-002   -2.309176790488111E-002
 -2.100000000000000E-002   -2.398682545620564E-002
 -2.090000000000000E-002   -2.491181192193632E-002
 -2.080000000000000E-002   -2.586751365647692E-002
 -2.070000000000000E-002   -2.685473464176807E-002
 -2.060000000000000E-002   -2.787428900563337E-002
 -2.050000000000000E-002   -2.892700166782005E-002
 -2.040000000000000E-002   -3.001371072865663E-002
 -2.030000000000000E-002   -3.113526591383312E-002
 -2.020000000000000E-002   -3.229252746523384E-002
 -2.010000000000000E-002   -3.348636671575490E-002
 -2.000000000000000E-002   -3.471766634781440E-002
 -1.990000000000000E-002   -3.598731628380796E-002
 -1.980000000000000E-002   -3.729621646553299E-002
 -1.970000000000000E-002   -3.864527624365249E-002
 -1.960000000000000E-002   -4.003540926667109E-002
 -1.950000000000000E-002   -4.146753877299574E-002
 -1.940000000000000E-002   -4.294260455424091E-002
 -1.930000000000000E-002   -4.446154298891306E-002
 -1.920000000000000E-002   -4.602530260974715E-002
 -1.910000000000000E-002   -4.763483452271908E-002
 -1.900000000000000E-002   -4.929110099975677E-002
 -1.890000000000000E-002   -5.099506686300322E-002
 -1.880000000000000E-002   -5.274770276726395E-002
 -1.870000000000000E-002   -5.454997708855366E-002
 -1.860000000000000E-002   -5.640287520087113E-002
 -1.850000000000000E-002   -5.830737268195847E-002
 -1.840000000000000E-002   -6.026444940201869E-002
 -1.830000000000000E-002   -6.227508554830928E-002
 -1.820000000000000E-002   -6.434026080542458E-002
 -1.810000000000000E-002   -6.646094929713514E-002
 -1.800000000000000E-002   -6.863813202509926E-002
 -1.790000000000000E-002   -7.087279026236887E-002
 -1.780000000000000E-002   -7.316588550038894E-002
 -1.770000000000000E-002   -7.551837599621113E-002
 -1.760000000000000E-002   -7.793123162051212E-002
 -1.750000000000000E-002   -8.040540213820450E-002
 -1.740000000000000E-002   -8.294183123591599E-002
 -1.730000000000000E-002   -8.554145683222444E-002
 -1.720000000000000E-002   -8.820520469725870E-002
 -1.710000000000000E-002   -9.093399465468270E-002
 -1.700000000000000E-002   -9.372871912278274E-002
 -1.690000000000000E-002   -9.659027548253776E-002
 -1.680000000000000E-002   -9.951953455139399E-002
 -1.670000000000000E-002   -0.102517347302937     
 -1.660000000000000E-002   -0.105584557313560     
 -1.650000000000000E-002   -0.108721978967594     
 -1.640000000000000E-002   -0.111930415210908     
 -1.630000000000000E-002   -0.115210639678784     
 -1.620000000000000E-002   -0.118563403001491     
 -1.610000000000000E-002   -0.121989439694015     
 -1.600000000000000E-002   -0.125489455595386     
 -1.590000000000000E-002   -0.129064111258551     
 -1.580000000000000E-002   -0.132714069496884     
 -1.570000000000000E-002   -0.136439932503130     
 -1.560000000000000E-002   -0.140242303947759     
 -1.550000000000000E-002   -0.144121717019428     
 -1.540000000000000E-002   -0.148078695355846     
 -1.530000000000000E-002   -0.152113707696213     
 -1.520000000000000E-002   -0.156227192594142     
 -1.510000000000000E-002   -0.160419543331897     
 -1.500000000000000E-002   -0.164691129162258     
 -1.490000000000000E-002   -0.169042254103353     
 -1.480000000000000E-002   -0.173473187452481     
 -1.470000000000000E-002   -0.177984150972394     
 -1.460000000000000E-002   -0.182575311000717     
 -1.450000000000000E-002   -0.187246799590130     
 -1.440000000000000E-002   -0.191998668440499     
 -1.430000000000000E-002   -0.196830944190208     
 -1.420000000000000E-002   -0.201743580233052     
 -1.410000000000000E-002   -0.206736485541533     
 -1.400000000000000E-002   -0.211809506525701     
 -1.390000000000000E-002   -0.216962415603545     
 -1.380000000000000E-002   -0.222194939935090     
 -1.370000000000000E-002   -0.227506758628618     
 -1.360000000000000E-002   -0.232897447035168     
 -1.350000000000000E-002   -0.238366541816659     
 -1.340000000000000E-002   -0.243913501828128     
 -1.330000000000000E-002   -0.249537719361945     
 -1.320000000000000E-002   -0.255238478259809     
 -1.310000000000000E-002   -0.261015046699767     
 -1.300000000000000E-002   -0.266866599534304     
 -1.290000000000000E-002   -0.272792228279536     
 -1.280000000000000E-002   -0.278790943740663     
 -1.270000000000000E-002   -0.284861698182354     
 -1.260000000000000E-002   -0.291003343066869     
 -1.250000000000000E-002   -0.297214639057060     
 -1.240000000000000E-002   -0.303494310546210     
 -1.230000000000000E-002   -0.309840947872269     
 -1.220000000000000E-002   -0.316253107292063     
 -1.210000000000000E-002   -0.322729192901679     
 -1.200000000000000E-002   -0.329267601455591     
 -1.190000000000000E-002   -0.335866589319227     
 -1.180000000000000E-002   -0.342524356864750     
 -1.170000000000000E-002   -0.349238975106205     
 -1.160000000000000E-002   -0.356008449913813     
 -1.150000000000000E-002   -0.362830713982213     
 -1.140000000000000E-002   -0.369703587029583     
 -1.130000000000000E-002   -0.376624807799279     
 -1.120000000000000E-002   -0.383592010305608     
 -1.110000000000000E-002   -0.390602739973772     
 -1.100000000000000E-002   -0.397654473814997     
 -1.090000000000000E-002   -0.404744566460552     
 -1.080000000000000E-002   -0.411870297430300     
 -1.070000000000000E-002   -0.419028855061499     
 -1.060000000000000E-002   -0.426217341311800     
 -1.050000000000000E-002   -0.433432744900335     
 -1.040000000000000E-002   -0.440671961521536     
 -1.030000000000000E-002   -0.447931807012879     
 -1.020000000000000E-002   -0.455209029427502     
 -1.010000000000000E-002   -0.462500247963492     
 -1.000000000000000E-002   -0.469801994192523     
 -9.899999999999999E-003   -0.477110776477797     
 -9.800000000000000E-003   -0.484422915369489     
 -9.699999999999999E-003   -0.491734769318183     
 -9.599999999999999E-003   -0.499042518823203     
 -9.500000000000000E-003   -0.506342250645573     
 -9.399999999999999E-003   -0.513630023179058     
 -9.299999999999999E-003   -0.520901800640409     
 -9.200000000000000E-003   -0.528153478803222     
 -9.099999999999999E-003   -0.535380863262342     
 -8.999999999999999E-003   -0.542579634345495     
 -8.900000000000000E-003   -0.549745474617518     
 -8.799999999999999E-003   -0.556873971036528     
 -8.699999999999999E-003   -0.563960617319767     
 -8.600000000000000E-003   -0.571000896623606     
 -8.499999999999999E-003   -0.577990152038062     
 -8.399999999999999E-003   -0.584923721926203     
 -8.300000000000000E-003   -0.591796893977056     
 -8.199999999999999E-003   -0.598604859011782     
 -8.100000000000000E-003   -0.605342800235461     
 -8.000000000000000E-003   -0.612005839644278     
 -7.899999999999999E-003   -0.618589038021791     
 -7.800000000000000E-003   -0.625087349245092     
 -7.699999999999999E-003   -0.631495823502453     
 -7.599999999999999E-003   -0.637809364521069     
 -7.499999999999999E-003   -0.644022899435606     
 -7.399999999999999E-003   -0.650131314772642     
 -7.299999999999999E-003   -0.656129486038332     
 -7.199999999999999E-003   -0.662012201765798     
 -7.100000000000000E-003   -0.667774311195601     
 -6.999999999999999E-003   -0.673410632704670     
 -6.899999999999999E-003   -0.678915927529714     
 -6.800000000000000E-003   -0.684285024356177     
 -6.699999999999999E-003   -0.689512720447866     
 -6.599999999999999E-003   -0.694593767770431     
 -6.499999999999999E-003   -0.699522986585557     
 -6.399999999999999E-003   -0.704295175825394     
 -6.299999999999999E-003   -0.708905181625011     
 -6.199999999999999E-003   -0.713347841536614     
 -6.100000000000000E-003   -0.717618056774108     
 -5.999999999999999E-003   -0.721710689427579     
 -5.899999999999999E-003   -0.725620754741729     
 -5.800000000000000E-003   -0.729343173420658     
 -5.699999999999999E-003   -0.732873004513952     
 -5.599999999999999E-003   -0.736205333818646     
 -5.499999999999999E-003   -0.739335258183325     
 -5.399999999999999E-003   -0.742258019457281     
 -5.299999999999999E-003   -0.744968841742564     
 -5.199999999999999E-003   -0.747463080996677     
 -5.099999999999999E-003   -0.749736189860757     
 -4.999999999999999E-003   -0.751783568050558     
 -4.899999999999999E-003   -0.753600860193070     
 -4.799999999999999E-003   -0.755183689400593     
 -4.699999999999999E-003   -0.756527828063611     
 -4.599999999999999E-003   -0.757629106555179     
 -4.499999999999999E-003   -0.758483482005178     
 -4.399999999999999E-003   -0.759087032363736     
 -4.299999999999999E-003   -0.759435993485911     
 -4.199999999999999E-003   -0.759526599039898     
 -4.099999999999999E-003   -0.759355296082852     
 -3.999999999999999E-003   -0.758918645404415     
 -3.899999999999999E-003   -0.758213318862840     
 -3.799999999999999E-003   -0.757236172628767     
 -3.699999999999999E-003   -0.755984133308043     
 -3.599999999999999E-003   -0.754454304684132     
 -3.499999999999999E-003   -0.752643949495440     
 -3.399999999999999E-003   -0.750550422672353     
 -3.299999999999999E-003   -0.748171282170030     
 -3.199999999999999E-003   -0.745504288875523     
 -3.099999999999999E-003   -0.742547317993659     
 -2.999999999999999E-003   -0.739298381829208     
 -2.899999999999999E-003   -0.735755755784584     
 -2.799999999999999E-003   -0.731917796017795     
 -2.699999999999999E-003   -0.727783144522830     
 -2.599999999999999E-003   -0.723350517714030     
 -2.499999999999999E-003   -0.718618843601099     
 -2.399999999999999E-003   -0.713587267979523     
 -2.299999999999999E-003   -0.708255117437812     
 -2.199999999999999E-003   -0.702621928330141     
 -2.099999999999999E-003   -0.696687346398644     
 -1.999999999999999E-003   -0.690451300485879     
 -1.899999999999999E-003   -0.683913881347465     
 -1.799999999999999E-003   -0.677075365788172     
 -1.699999999999999E-003   -0.669936274547160     
 -1.599999999999999E-003   -0.662497280801337     
 -1.499999999999999E-003   -0.654759278216178     
 -1.399999999999999E-003   -0.646723428625791     
 -1.299999999999999E-003   -0.638390935947445     
 -1.199999999999999E-003   -0.629763364799955     
 -1.099999999999999E-003   -0.620842429451435     
 -9.999999999999989E-004   -0.611630042644930     
 -8.999999999999990E-004   -0.602128366796066     
 -7.999999999999990E-004   -0.592339733392371     
 -6.999999999999989E-004   -0.582266622726013     
 -5.999999999999990E-004   -0.571911825323684     
 -4.999999999999989E-004   -0.561278291691113     
 -3.999999999999989E-004   -0.550369143343139     
 -2.999999999999989E-004   -0.539187734378360     
 -1.999999999999989E-004   -0.527737632228164     
 -9.999999999999892E-005   -0.516022575384216     
  1.084202172485504E-018   -0.504046540151529     
  1.000000000000011E-004   -0.491813612670291     
  2.000000000000011E-004   -0.479328114969310     
  3.000000000000011E-004   -0.466594598893893     
  4.000000000000011E-004   -0.453617769496753     
  5.000000000000011E-004   -0.440402496217997     
  6.000000000000011E-004   -0.426953882680475     
  7.000000000000011E-004   -0.413277150960947     
  8.000000000000011E-004   -0.399377748679323     
  9.000000000000012E-004   -0.385261228349040     
  1.000000000000001E-003   -0.370933364675147     
  1.100000000000001E-003   -0.356400060557182     
  1.200000000000001E-003   -0.341667406525589     
  1.300000000000001E-003   -0.326741624719151     
  1.400000000000001E-003   -0.311629119531023     
  1.500000000000001E-003   -0.296336401358270     
  1.600000000000001E-003   -0.280870146267927     
  1.700000000000001E-003   -0.265237151261002     
  1.800000000000001E-003   -0.249444329331638     
  1.900000000000001E-003   -0.233498754880803     
  2.000000000000001E-003   -0.217407600133177     
  2.100000000000001E-003   -0.201178153506879     
  2.200000000000001E-003   -0.184817807707998     
  2.300000000000001E-003   -0.168334035869782     
  2.400000000000001E-003   -0.151734434726253     
  2.500000000000001E-003   -0.135026694770360     
  2.600000000000001E-003   -0.118218584225765     
  2.700000000000001E-003   -0.101317959615730     
  2.800000000000001E-003   -8.433275267889126E-002
  2.900000000000001E-003   -6.727091958786766E-002
  3.000000000000001E-003   -5.014052940874222E-002
  3.100000000000001E-003   -3.294968644719488E-002
  3.200000000000001E-003   -1.570652507708711E-002
  3.300000000000001E-003    1.580782658324481E-003
  3.400000000000001E-003    1.890401134361096E-002
  3.500000000000001E-003    3.625490902011011E-002
  3.600000000000001E-003    5.362520368825106E-002
  3.700000000000001E-003    7.100662082553288E-002
  3.800000000000001E-003    8.839085140499400E-002
  3.900000000000001E-003    0.105769633649707     
  4.000000000000001E-003    0.123134676047145     
  4.100000000000001E-003    0.140477703387209     
  4.200000000000001E-003    0.157790466446627     
  4.300000000000001E-003    0.175064736664073     
  4.400000000000001E-003    0.192292333100443     
  4.500000000000001E-003    0.209465088309461     
  4.600000000000002E-003    0.226574890917244     
  4.700000000000001E-003    0.243613675824440     
  4.800000000000001E-003    0.260573454252885     
  4.900000000000002E-003    0.277446292131810     
  5.000000000000001E-003    0.294224303576181     
  5.100000000000001E-003    0.310899732406440     
  5.200000000000001E-003    0.327464835724164     
  5.300000000000002E-003    0.343911994944196     
  5.400000000000001E-003    0.360233694206074     
  5.500000000000001E-003    0.376422484849404     
  5.600000000000002E-003    0.392471047109787     
  5.700000000000001E-003    0.408372157007191     
  5.800000000000001E-003    0.424118710125797     
  5.900000000000002E-003    0.439703742118840     
  6.000000000000001E-003    0.455120409236802     
  6.100000000000001E-003    0.470361956518265     
  6.200000000000002E-003    0.485421842042782     
  6.300000000000002E-003    0.500293595689517     
  6.400000000000001E-003    0.514970940460058     
  6.500000000000001E-003    0.529447674545901     
  6.600000000000002E-003    0.543717887340970     
  6.700000000000001E-003    0.557775616261637     
  6.800000000000001E-003    0.571615249204839     
  6.900000000000002E-003    0.585231200949852     
  7.000000000000001E-003    0.598618167134248     
  7.100000000000001E-003    0.611770886054884     
  7.200000000000002E-003    0.624684402438942     
  7.300000000000002E-003    0.637353873259561     
  7.400000000000001E-003    0.649774596961664     
  7.500000000000001E-003    0.661942136569387     
  7.600000000000002E-003    0.673852176916055     
  7.700000000000001E-003    0.685500633092858     
  7.800000000000001E-003    0.696883532622727     
  7.900000000000001E-003    0.707997205414478     
  8.000000000000002E-003    0.718838085416842     
  8.100000000000001E-003    0.729402810492820     
  8.200000000000001E-003    0.739688200898502     
  8.300000000000002E-003    0.749691356202531     
  8.400000000000001E-003    0.759409471015135     
  8.500000000000002E-003    0.768839948339107     
  8.600000000000002E-003    0.777980408630166     
  8.700000000000001E-003    0.786828696564739     
  8.800000000000002E-003    0.795382806085668     
  8.900000000000002E-003    0.803640933399192     
  9.000000000000001E-003    0.811601470103405     
  9.100000000000002E-003    0.819263043859817     
  9.200000000000002E-003    0.826624491816252     
  9.300000000000001E-003    0.833684776520992     
  9.400000000000002E-003    0.840442998376527     
  9.500000000000001E-003    0.846898594942277     
  9.600000000000001E-003    0.853051174664605     
  9.700000000000002E-003    0.858900441532674     
  9.800000000000001E-003    0.864446360316253     
  9.900000000000001E-003    0.869689078199885     
  1.000000000000000E-002    0.874628793001841     
  1.010000000000000E-002    0.879266058253876     
  1.020000000000000E-002    0.883601444737519     
  1.030000000000000E-002    0.887635766889513     
  1.040000000000000E-002    0.891370134449709     
  1.050000000000000E-002    0.894805676001861     
  1.060000000000000E-002    0.897943806333528     
  1.070000000000000E-002    0.900785936322846     
  1.080000000000000E-002    0.903333821765406     
  1.090000000000000E-002    0.905589221100606     
  1.100000000000000E-002    0.907554247618476     
  1.110000000000000E-002    0.909230930891799     
  1.120000000000000E-002    0.910621597163803     
  1.130000000000000E-002    0.911728661070595     
  1.140000000000000E-002    0.912554667846025     
  1.150000000000000E-002    0.913102249774739     
  1.160000000000000E-002    0.913374334366912     
  1.170000000000000E-002    0.913373890180091     
  1.180000000000000E-002    0.913103958625630     
  1.190000000000000E-002    0.912567883826369     
  1.200000000000000E-002    0.911768852945844     
  1.210000000000000E-002    0.910710375258204     
  1.220000000000000E-002    0.909396101523126     
  1.230000000000000E-002    0.907829640773008     
  1.240000000000000E-002    0.906014727487380     
  1.250000000000000E-002    0.903955289243146     
  1.260000000000000E-002    0.901655205772268     
  1.270000000000000E-002    0.899118550421572     
  1.280000000000000E-002    0.896349442918878     
  1.290000000000000E-002    0.893352077448047     
  1.300000000000000E-002    0.890130717518623     
  1.310000000000000E-002    0.886689707276731     
  1.320000000000000E-002    0.883033466044846     
  1.330000000000000E-002    0.879166502776583     
  1.340000000000000E-002    0.875093370484005     
  1.350000000000000E-002    0.870818610950914     
  1.360000000000000E-002    0.866346932107875     
  1.370000000000000E-002    0.861683028782965     
  1.380000000000000E-002    0.856831548075840     
  1.390000000000000E-002    0.851797256505344     
  1.400000000000000E-002    0.846584962974132     
  1.410000000000000E-002    0.841199534626985     
  1.420000000000000E-002    0.835645757810953     
  1.430000000000000E-002    0.829928565130159     
  1.440000000000000E-002    0.824052879186199     
  1.450000000000000E-002    0.818023516615271     
  1.460000000000000E-002    0.811845422086240     
  1.470000000000000E-002    0.805523526584954     
  1.480000000000000E-002    0.799062721292326     
  1.490000000000000E-002    0.792467913095074     
  1.500000000000000E-002    0.785744038252538     
  1.510000000000000E-002    0.778896029707970     
  1.520000000000000E-002    0.771928773372816     
  1.530000000000000E-002    0.764847099364106     
  1.540000000000000E-002    0.757655853470717     
  1.550000000000000E-002    0.750359879422121     
  1.560000000000000E-002    0.742963990568884     
  1.570000000000000E-002    0.735472942617959     
  1.580000000000000E-002    0.727891469743968     
  1.590000000000000E-002    0.720224352465327     
  1.600000000000000E-002    0.712476215354877     
  1.610000000000000E-002    0.704651703423476     
  1.620000000000000E-002    0.696755418080900     
  1.630000000000000E-002    0.688791931251748     
  1.640000000000000E-002    0.680765772626075     
  1.650000000000000E-002    0.672681380448395     
  1.660000000000000E-002    0.664543142431504     
  1.670000000000000E-002    0.656355446124115     
  1.680000000000000E-002    0.648122542436005     
  1.690000000000000E-002    0.639848698941003     
  1.700000000000000E-002    0.631538113903200     
  1.710000000000000E-002    0.623194860797629     
  1.720000000000000E-002    0.614823007774422     
  1.730000000000000E-002    0.606426507674504     
  1.740000000000000E-002    0.598009340317501     
  1.750000000000000E-002    0.589575352976199     
  1.760000000000000E-002    0.581128350718993     
  1.770000000000000E-002    0.572672015661037     
  1.780000000000000E-002    0.564210032834964     
  1.790000000000000E-002    0.555745981782817     
  1.800000000000000E-002    0.547283407443248     
  1.810000000000000E-002    0.538825707122448     
  1.820000000000000E-002    0.530376272599553     
  1.830000000000000E-002    0.521938338567845     
  1.840000000000000E-002    0.513515173891829     
  1.850000000000000E-002    0.505109879376615     
  1.860000000000000E-002    0.496725507537916     
  1.870000000000000E-002    0.488365042944351     