 -4.000000000000000E-002    0.000000000000000E+000
 -3.990000000000000E-002    0.000000000000000E+000
 -3.980000000000000E-002    0.000000000000000E+000
 -3.970000000000000E-002    0.000000000000000E+000
 -3.960000000000000E-002    0.000000000000000E+000
 -3.950000000000000E-002    0.000000000000000E+000
 -3.940000000000000E-002    0.000000000000000E+000
 -3.930000000000000E-002    0.000000000000000E+000
 -3.920000000000000E-002    0.000000000000000E+000
 -3.910000000000000E-002    0.000000000000000E+000
 -3.900000000000000E-002    0.000000000000000E+000
 -3.890000000000000E-002    0.000000000000000E+000
 -3.880000000000000E-002    0.000000000000000E+000
 -3.870000000000000E-002    0.000000000000000E+000
 -3.860000000000000E-002    0.000000000000000E+000
 -3.850000000000000E-002    0.000000000000000E+000
 -3.840000000000000E-002    0.000000000000000E+000
 -3.830000000000000E-002    0.000000000000000E+000
 -3.820000000000000E-002    0.000000000000000E+000
 -3.810000000000000E-002    0.000000000000000E+000
 -3.800000000000000E-002    0.000000000000000E+000
 -3.790000000000000E-002    0.000000000000000E+000
 -3.780000000000000E-002    0.000000000000000E+000
 -3.770000000000000E-002    0.000000000000000E+000
 -3.760000000000000E-002    0.000000000000000E+000
 -3.750000000000000E-002    0.000000000000000E+000
 -3.740000000000000E-002    0.000000000000000E+000
 -3.730000000000000E-002    0.000000000000000E+000
 -3.720000000000000E-002    0.000000000000000E+000
 -3.710000000000000E-002    0.000000000000000E+000
 -3.700000000000000E-002    0.000000000000000E+000
 -3.690000000000000E-002    0.000000000000000E+000
 -3.680000000000000E-002    0.000000000000000E+000
 -3.670000000000000E-002    0.000000000000000E+000
 -3.660000000000000E-002    0.000000000000000E+000
 -3.650000000000000E-002    0.000000000000000E+000
 -3.640000000000000E-002    0.000000000000000E+000
 -3.630000000000000E-002    0.000000000000000E+000
 -3.620000000000000E-002    0.000000000000000E+000
 -3.610000000000000E-002    0.000000000000000E+000
 -3.600000000000000E-002    0.000000000000000E+000
 -3.590000000000000E-002    0.000000000000000E+000
 -3.580000000000000E-002    0.000000000000000E+000
 -3.570000000000000E-002    0.000000000000000E+000
 -3.560000000000000E-002    0.000000000000000E+000
 -3.550000000000000E-002    0.000000000000000E+000
 -3.540000000000000E-002    0.000000000000000E+000
 -3.530000000000000E-002    0.000000000000000E+000
 -3.520000000000000E-002    0.000000000000000E+000
 -3.510000000000000E-002    0.000000000000000E+000
 -3.500000000000000E-002    0.000000000000000E+000
 -3.490000000000000E-002    0.000000000000000E+000
 -3.480000000000000E-002    0.000000000000000E+000
 -3.470000000000000E-002    0.000000000000000E+000
 -3.460000000000000E-002    0.000000000000000E+000
 -3.450000000000000E-002    0.000000000000000E+000
 -3.440000000000000E-002    0.000000000000000E+000
 -3.430000000000000E-002    0.000000000000000E+000
 -3.420000000000000E-002    0.000000000000000E+000
 -3.410000000000000E-002    0.000000000000000E+000
 -3.400000000000000E-002    0.000000000000000E+000
 -3.390000000000000E-002    0.000000000000000E+000
 -3.380000000000000E-002    0.000000000000000E+000
 -3.370000000000000E-002    0.000000000000000E+000
 -3.360000000000000E-002    0.000000000000000E+000
 -3.350000000000000E-002    0.000000000000000E+000
 -3.340000000000000E-002    0.000000000000000E+000
 -3.330000000000000E-002    0.000000000000000E+000
 -3.320000000000000E-002    0.000000000000000E+000
 -3.310000000000000E-002    0.000000000000000E+000
 -3.300000000000000E-002    0.000000000000000E+000
 -3.290000000000000E-002    0.000000000000000E+000
 -3.280000000000000E-002    0.000000000000000E+000
 -3.270000000000000E-002    0.000000000000000E+000
 -3.260000000000000E-002    0.000000000000000E+000
 -3.250000000000000E-002    0.000000000000000E+000
 -3.240000000000000E-002    0.000000000000000E+000
 -3.230000000000000E-002    0.000000000000000E+000
 -3.220000000000000E-002    0.000000000000000E+000
 -3.210000000000000E-002    0.000000000000000E+000
 -3.200000000000000E-002    0.000000000000000E+000
 -3.190000000000000E-002    0.000000000000000E+000
 -3.180000000000000E-002    0.000000000000000E+000
 -3.170000000000000E-002    0.000000000000000E+000
 -3.160000000000000E-002    0.000000000000000E+000
 -3.150000000000000E-002    0.000000000000000E+000
 -3.140000000000000E-002    0.000000000000000E+000
 -3.130000000000000E-002    0.000000000000000E+000
 -3.120000000000000E-002    0.000000000000000E+000
 -3.110000000000000E-002    0.000000000000000E+000
 -3.100000000000000E-002    0.000000000000000E+000
 -3.090000000000000E-002    0.000000000000000E+000
 -3.080000000000000E-002    0.000000000000000E+000
 -3.070000000000000E-002    0.000000000000000E+000
 -3.060000000000000E-002    0.000000000000000E+000
 -3.050000000000000E-002    0.000000000000000E+000
 -3.040000000000000E-002    0.000000000000000E+000
 -3.030000000000000E-002    0.000000000000000E+000
 -3.020000000000000E-002    0.000000000000000E+000
 -3.010000000000000E-002    0.000000000000000E+000
 -3.000000000000000E-002    0.000000000000000E+000
 -2.990000000000000E-002    0.000000000000000E+000
 -2.980000000000000E-002    0.000000000000000E+000
 -2.970000000000000E-002    0.000000000000000E+000
 -2.960000000000000E-002    0.000000000000000E+000
 -2.950000000000000E-002    0.000000000000000E+000
 -2.940000000000000E-002    0.000000000000000E+000
 -2.930000000000000E-002    0.000000000000000E+000
 -2.920000000000000E-002    0.000000000000000E+000
 -2.910000000000000E-002    0.000000000000000E+000
 -2.900000000000000E-002    0.000000000000000E+000
 -2.890000000000000E-002    0.000000000000000E+000
 -2.880000000000000E-002    0.000000000000000E+000
 -2.870000000000000E-002    0.000000000000000E+000
 -2.860000000000000E-002    0.000000000000000E+000
 -2.850000000000000E-002    0.000000000000000E+000
 -2.840000000000000E-002    0.000000000000000E+000
 -2.830000000000000E-002    0.000000000000000E+000
 -2.820000000000000E-002    0.000000000000000E+000
 -2.810000000000000E-002    0.000000000000000E+000
 -2.800000000000000E-002    0.000000000000000E+000
 -2.790000000000000E-002    0.000000000000000E+000
 -2.780000000000000E-002    0.000000000000000E+000
 -2.770000000000000E-002    0.000000000000000E+000
 -2.760000000000000E-002    0.000000000000000E+000
 -2.750000000000000E-002    0.000000000000000E+000
 -2.740000000000000E-002    0.000000000000000E+000
 -2.730000000000000E-002    0.000000000000000E+000
 -2.720000000000000E-002    0.000000000000000E+000
 -2.710000000000000E-002    0.000000000000000E+000
 -2.700000000000000E-002    0.000000000000000E+000
 -2.690000000000000E-002    0.000000000000000E+000
 -2.680000000000000E-002    0.000000000000000E+000
 -2.670000000000000E-002    0.000000000000000E+000
 -2.660000000000000E-002    0.000000000000000E+000
 -2.650000000000000E-002    0.000000000000000E+000
 -2.640000000000000E-002    0.000000000000000E+000
 -2.630000000000000E-002    0.000000000000000E+000
 -2.620000000000000E-002    0.000000000000000E+000
 -2.610000000000000E-002    0.000000000000000E+000
 -2.600000000000000E-002    0.000000000000000E+000
 -2.590000000000000E-002    0.000000000000000E+000
 -2.580000000000000E-002    0.000000000000000E+000
 -2.570000000000000E-002    0.000000000000000E+000
 -2.560000000000000E-002    0.000000000000000E+000
 -2.550000000000000E-002    0.000000000000000E+000
 -2.540000000000000E-002    0.000000000000000E+000
 -2.530000000000000E-002    0.000000000000000E+000
 -2.520000000000000E-002    0.000000000000000E+000
 -2.510000000000000E-002    0.000000000000000E+000
 -2.500000000000000E-002    0.000000000000000E+000
 -2.490000000000000E-002    0.000000000000000E+000
 -2.480000000000000E-002    0.000000000000000E+000
 -2.470000000000000E-002    0.000000000000000E+000
 -2.460000000000000E-002    0.000000000000000E+000
 -2.450000000000000E-002    0.000000000000000E+000
 -2.440000000000000E-002    0.000000000000000E+000
 -2.430000000000000E-002    0.000000000000000E+000
 -2.420000000000000E-002    0.000000000000000E+000
 -2.410000000000000E-002    0.000000000000000E+000
 -2.400000000000000E-002    0.000000000000000E+000
 -2.390000000000000E-002    0.000000000000000E+000
 -2.380000000000000E-002    0.000000000000000E+000
 -2.370000000000000E-002    0.000000000000000E+000
 -2.360000000000000E-002    0.000000000000000E+000
 -2.350000000000000E-002    0.000000000000000E+000
 -2.340000000000000E-002    0.000000000000000E+000
 -2.330000000000000E-002    0.000000000000000E+000
 -2.320000000000000E-002    0.000000000000000E+000
 -2.310000000000000E-002    0.000000000000000E+000
 -2.300000000000000E-002    0.000000000000000E+000
 -2.290000000000000E-002    0.000000000000000E+000
 -2.280000000000000E-002    0.000000000000000E+000
 -2.270000000000000E-002    0.000000000000000E+000
 -2.260000000000000E-002    0.000000000000000E+000
 -2.250000000000000E-002    0.000000000000000E+000
 -2.240000000000000E-002    0.000000000000000E+000
 -2.230000000000000E-002    0.000000000000000E+000
 -2.220000000000000E-002    0.000000000000000E+000
 -2.210000000000000E-002    0.000000000000000E+000
 -2.200000000000000E-002    0.000000000000000E+000
 -2.190000000000000E-002    0.000000000000000E+000
 -2.180000000000000E-002    0.000000000000000E+000
 -2.170000000000000E-002    0.000000000000000E+000
 -2.160000000000000E-002    0.000000000000000E+000
 -2.150000000000000E-002    0.000000000000000E+000
 -2.140000000000000E-002    0.000000000000000E+000
 -2.130000000000000E-002    0.000000000000000E+000
 -2.120000000000000E-002    0.000000000000000E+000
 -2.110000000000000E-002    0.000000000000000E+000
 -2.100000000000000E-002    0.000000000000000E+000
 -2.090000000000000E-002    0.000000000000000E+000
 -2.080000000000000E-002    0.000000000000000E+000
 -2.070000000000000E-002    0.000000000000000E+000
 -2.060000000000000E-002    0.000000000000000E+000
 -2.050000000000000E-002    0.000000000000000E+000
 -2.040000000000000E-002    0.000000000000000E+000
 -2.030000000000000E-002    0.000000000000000E+000
 -2.020000000000000E-002    0.000000000000000E+000
 -2.010000000000000E-002    0.000000000000000E+000
 -2.000000000000000E-002    0.000000000000000E+000
 -1.990000000000000E-002    0.000000000000000E+000
 -1.980000000000000E-002    0.000000000000000E+000
 -1.970000000000000E-002    0.000000000000000E+000
 -1.960000000000000E-002    0.000000000000000E+000
 -1.950000000000000E-002    0.000000000000000E+000
 -1.940000000000000E-002    0.000000000000000E+000
 -1.930000000000000E-002    0.000000000000000E+000
 -1.920000000000000E-002    0.000000000000000E+000
 -1.910000000000000E-002    0.000000000000000E+000
 -1.900000000000000E-002    0.000000000000000E+000
 -1.890000000000000E-002    0.000000000000000E+000
 -1.880000000000000E-002    0.000000000000000E+000
 -1.870000000000000E-002    0.000000000000000E+000
 -1.860000000000000E-002    0.000000000000000E+000
 -1.850000000000000E-002    0.000000000000000E+000
 -1.840000000000000E-002    0.000000000000000E+000
 -1.830000000000000E-002    0.000000000000000E+000
 -1.820000000000000E-002    0.000000000000000E+000
 -1.810000000000000E-002    0.000000000000000E+000
 -1.800000000000000E-002    0.000000000000000E+000
 -1.790000000000000E-002    0.000000000000000E+000
 -1.780000000000000E-002    0.000000000000000E+000
 -1.770000000000000E-002    0.000000000000000E+000
 -1.760000000000000E-002    0.000000000000000E+000
 -1.750000000000000E-002    0.000000000000000E+000
 -1.740000000000000E-002    0.000000000000000E+000
 -1.730000000000000E-002    0.000000000000000E+000
 -1.720000000000000E-002    0.000000000000000E+000
 -1.710000000000000E-002    0.000000000000000E+000
 -1.700000000000000E-002    0.000000000000000E+000
 -1.690000000000000E-002    0.000000000000000E+000
 -1.680000000000000E-002    0.000000000000000E+000
 -1.670000000000000E-002    0.000000000000000E+000
 -1.660000000000000E-002    0.000000000000000E+000
 -1.650000000000000E-002    0.000000000000000E+000
 -1.640000000000000E-002    0.000000000000000E+000
 -1.630000000000000E-002    0.000000000000000E+000
 -1.620000000000000E-002    0.000000000000000E+000
 -1.610000000000000E-002    0.000000000000000E+000
 -1.600000000000000E-002    0.000000000000000E+000
 -1.590000000000000E-002    0.000000000000000E+000
 -1.580000000000000E-002    0.000000000000000E+000
 -1.570000000000000E-002    0.000000000000000E+000
 -1.560000000000000E-002    0.000000000000000E+000
 -1.550000000000000E-002    0.000000000000000E+000
 -1.540000000000000E-002    0.000000000000000E+000
 -1.530000000000000E-002    0.000000000000000E+000
 -1.520000000000000E-002    0.000000000000000E+000
 -1.510000000000000E-002    0.000000000000000E+000
 -1.500000000000000E-002    0.000000000000000E+000
 -1.490000000000000E-002    0.000000000000000E+000
 -1.480000000000000E-002    0.000000000000000E+000
 -1.470000000000000E-002    0.000000000000000E+000
 -1.460000000000000E-002    0.000000000000000E+000
 -1.450000000000000E-002    0.000000000000000E+000
 -1.440000000000000E-002    0.000000000000000E+000
 -1.430000000000000E-002    0.000000000000000E+000
 -1.420000000000000E-002    0.000000000000000E+000
 -1.410000000000000E-002    0.000000000000000E+000
 -1.400000000000000E-002    0.000000000000000E+000
 -1.390000000000000E-002    0.000000000000000E+000
 -1.380000000000000E-002    0.000000000000000E+000
 -1.370000000000000E-002    0.000000000000000E+000
 -1.360000000000000E-002    0.000000000000000E+000
 -1.350000000000000E-002    0.000000000000000E+000
 -1.340000000000000E-002    0.000000000000000E+000
 -1.330000000000000E-002    0.000000000000000E+000
 -1.320000000000000E-002    0.000000000000000E+000
 -1.310000000000000E-002    0.000000000000000E+000
 -1.300000000000000E-002    0.000000000000000E+000
 -1.290000000000000E-002    0.000000000000000E+000
 -1.280000000000000E-002    0.000000000000000E+000
 -1.270000000000000E-002    0.000000000000000E+000
 -1.260000000000000E-002    0.000000000000000E+000
 -1.250000000000000E-002    0.000000000000000E+000
 -1.240000000000000E-002    0.000000000000000E+000
 -1.230000000000000E-002    0.000000000000000E+000
 -1.220000000000000E-002    0.000000000000000E+000
 -1.210000000000000E-002    0.000000000000000E+000
 -1.200000000000000E-002    0.000000000000000E+000
 -1.190000000000000E-002    0.000000000000000E+000
 -1.180000000000000E-002    0.000000000000000E+000
 -1.170000000000000E-002    0.000000000000000E+000
 -1.160000000000000E-002    0.000000000000000E+000
 -1.150000000000000E-002    0.000000000000000E+000
 -1.140000000000000E-002    0.000000000000000E+000
 -1.130000000000000E-002    0.000000000000000E+000
 -1.120000000000000E-002    0.000000000000000E+000
 -1.110000000000000E-002    0.000000000000000E+000
 -1.100000000000000E-002    0.000000000000000E+000
 -1.090000000000000E-002    0.000000000000000E+000
 -1.080000000000000E-002    0.000000000000000E+000
 -1.070000000000000E-002    0.000000000000000E+000
 -1.060000000000000E-002    0.000000000000000E+000
 -1.050000000000000E-002    0.000000000000000E+000
 -1.040000000000000E-002    0.000000000000000E+000
 -1.030000000000000E-002    0.000000000000000E+000
 -1.020000000000000E-002    0.000000000000000E+000
 -1.010000000000000E-002    0.000000000000000E+000
 -1.000000000000000E-002    0.000000000000000E+000
 -9.899999999999999E-003    0.000000000000000E+000
 -9.800000000000000E-003    0.000000000000000E+000
 -9.699999999999999E-003    0.000000000000000E+000
 -9.599999999999999E-003    0.000000000000000E+000
 -9.500000000000000E-003    0.000000000000000E+000
 -9.399999999999999E-003    0.000000000000000E+000
 -9.299999999999999E-003    0.000000000000000E+000
 -9.200000000000000E-003    0.000000000000000E+000
 -9.099999999999999E-003    0.000000000000000E+000
 -8.999999999999999E-003    0.000000000000000E+000
 -8.900000000000000E-003    0.000000000000000E+000
 -8.799999999999999E-003    0.000000000000000E+000
 -8.699999999999999E-003    0.000000000000000E+000
 -8.600000000000000E-003    0.000000000000000E+000
 -8.499999999999999E-003    1.924390591266381E-047
 -8.399999999999999E-003    3.848781182532762E-047
 -8.300000000000000E-003   -8.743925279174863E-047
 -8.199999999999999E-003   -1.620492349750547E-046
 -8.100000000000000E-003   -1.620492349750547E-046
 -8.000000000000000E-003   -1.812931408877185E-046
 -7.899999999999999E-003   -2.390248586257100E-046
 -7.800000000000000E-003   -2.800785245727261E-046
 -7.699999999999999E-003   -2.721807495533212E-046
 -7.599999999999999E-003   -6.394614038787333E-047
 -7.499999999999999E-003    1.836140416049828E-047
 -7.399999999999999E-003    2.353762900975166E-046
 -7.299999999999999E-003   -5.052670787901694E-046
 -7.199999999999999E-003   -1.003731405523796E-045
 -7.100000000000000E-003   -1.562493304117102E-045
 -6.999999999999999E-003   -3.289914133476589E-045
 -6.899999999999999E-003   -4.091749884532477E-045
 -6.800000000000000E-003   -5.136259062742269E-045
 -6.699999999999999E-003   -4.613752814704617E-045
 -6.599999999999999E-003   -2.537621528484470E-045
 -6.499999999999999E-003    1.298252444927136E-045
 -6.399999999999999E-003    6.399760253535308E-045
 -6.299999999999999E-003    1.257077682708657E-044
 -6.199999999999999E-003    1.985465861787454E-044
 -6.100000000000000E-003    2.636916931638117E-044
 -5.999999999999999E-003    2.972610758133252E-044
 -5.899999999999999E-003    2.749750520990435E-044
 -5.800000000000000E-003    1.899530989455359E-044
 -5.699999999999999E-003    1.965881846640907E-045
 -5.599999999999999E-003   -2.341376221648213E-044
 -5.499999999999999E-003   -5.617749529965088E-044
 -5.399999999999999E-003   -9.225141120797404E-044
 -5.299999999999999E-003   -1.250250619599553E-043
 -5.199999999999999E-003   -1.445555970934264E-043
 -5.099999999999999E-003   -1.400875641828355E-043
 -4.999999999999999E-003   -1.019238532770579E-043
 -4.899999999999999E-003   -2.197668691321030E-044
 -4.799999999999999E-003    1.011579687129275E-043
 -4.699999999999999E-003    2.596625642290622E-043
 -4.599999999999999E-003    4.342412483967578E-043
 -4.499999999999999E-003    5.934483756616635E-043
 -4.399999999999999E-003    6.912888997341309E-043
 -4.299999999999999E-003    6.773192152145907E-043
 -4.199999999999999E-003    5.016930716228075E-043
 -4.099999999999999E-003    1.290902563655657E-043
 -3.999999999999999E-003   -4.489336740667734E-043
 -3.899999999999999E-003   -1.197633384592122E-042
 -3.799999999999999E-003   -2.025010336812832E-042
 -3.699999999999999E-003   -2.779038171201510E-042
 -3.599999999999999E-003   -3.254751986357818E-042
 -3.499999999999999E-003   -3.213865994480594E-042
 -3.399999999999999E-003   -2.427139432204099E-042
 -3.299999999999999E-003   -7.285052595057386E-043
 -3.199999999999999E-003    1.916271019910596E-042
 -3.099999999999999E-003    5.344365052698933E-042
 -2.999999999999999E-003    9.137835669275021E-042
 -2.899999999999999E-003    1.260966753291299E-041
 -2.799999999999999E-003    1.483001128161625E-041
 -2.699999999999999E-003    1.473273999094183E-041
 -2.599999999999999E-003    1.129265479661876E-041
 -2.499999999999999E-003    3.776318697054334E-042
 -2.399999999999999E-003   -7.962673353003811E-042
 -2.299999999999999E-003   -2.318804848855579E-041
 -2.199999999999999E-003   -4.005341388031186E-041
 -2.099999999999999E-003   -5.552359762210029E-041
 -1.999999999999999E-003   -6.553476594084645E-041
 -1.899999999999999E-003   -6.544521041928769E-041
 -1.799999999999999E-003   -5.082300521720282E-041
 -1.699999999999999E-003   -1.852402292306444E-041
 -1.599999999999999E-003    3.203862356546513E-041
 -1.499999999999999E-003    9.765847733008298E-041
 -1.399999999999999E-003    1.703948446336593E-040
 -1.299999999999999E-003    2.372953932799786E-040
 -1.199999999999999E-003    2.810998712538743E-040
 -1.099999999999999E-003    2.822146011594312E-040
 -9.999999999999989E-004    2.220389137746128E-040
 -8.999999999999990E-004    8.749583943202162E-041
 -7.999999999999990E-004   -1.237355504856053E-040
 -6.999999999999989E-004   -3.981395760484588E-040
 -5.999999999999990E-004   -7.026421895628944E-040
 -4.999999999999989E-004   -9.836125918946422E-040
 -3.999999999999989E-004   -1.169973089096973E-039
 -2.999999999999989E-004   -1.181441567818039E-039
 -1.999999999999989E-004   -9.422148773178323E-040
 -9.999999999999892E-005   -3.993795371453595E-040
  1.084202172485504E-018    4.560740864138960E-040
  1.000000000000011E-004    1.569121473933669E-039
  2.000000000000011E-004    2.806251964685956E-039
  3.000000000000011E-004    3.952160817975055E-039
  4.000000000000011E-004    4.722860710539901E-039
  5.000000000000011E-004    4.799050149432530E-039
  6.000000000000011E-004    3.880682805853689E-039
  7.000000000000011E-004    1.759497573225045E-039
  8.000000000000011E-004   -1.599006745814625E-039
  9.000000000000012E-004   -5.978082154367354E-039
  1.000000000000001E-003   -1.085529391544160E-038
  1.100000000000001E-003   -1.539208712830777E-038
  1.200000000000001E-003   -1.848713664453598E-038
  1.300000000000001E-003   -1.890729673419276E-038
  1.400000000000001E-003   -1.549869640379841E-038
  1.500000000000001E-003   -7.464242896918308E-039
  1.600000000000001E-003    5.325865594677191E-039
  1.700000000000001E-003    2.204422639600417E-038
  1.800000000000001E-003    4.070694540445683E-038
  1.900000000000001E-003    5.814291385382170E-038
  2.000000000000001E-003    7.020359365119770E-038
  2.100000000000001E-003    7.226175244543252E-038
  2.200000000000001E-003    6.000442442849705E-038
  2.300000000000001E-003    3.046473495334403E-038
  2.400000000000001E-003   -1.683481736354887E-038
  2.500000000000001E-003   -7.882753458512752E-038
  2.600000000000001E-003   -1.481932259248623E-037
  2.700000000000001E-003   -2.132756467716827E-037
  2.800000000000001E-003   -2.588816607643047E-037
  2.900000000000001E-003   -2.681264111250167E-037
  3.000000000000001E-003   -2.253292932630013E-037
  3.100000000000001E-003   -1.197456676633253E-037
  3.200000000000001E-003    5.033749915705145E-038
  3.300000000000001E-003    2.738666650238449E-037
  3.400000000000001E-003    5.245643090174823E-037
  3.500000000000001E-003    7.607382304211110E-037
  3.600000000000001E-003    9.282344199648228E-037
  3.700000000000001E-003    9.670766785204118E-037
  3.800000000000001E-003    8.217589844747840E-037
  3.900000000000001E-003    4.543852305014978E-037
  4.000000000000001E-003   -1.410418394464963E-037
  4.100000000000001E-003   -9.257363281263320E-037
  4.200000000000001E-003   -1.807836217504208E-036
  4.300000000000001E-003   -2.642084190331623E-036
  4.400000000000001E-003   -3.240428103608261E-036
  4.500000000000001E-003   -3.395273469466474E-036
  4.600000000000002E-003   -2.915117737741144E-036
  4.700000000000001E-003   -1.669630885229156E-036
  4.800000000000001E-003    3.617464706180665E-037
  4.900000000000002E-003    3.046462651854650E-036
  5.000000000000001E-003    6.071554392952723E-036
  5.100000000000001E-003    8.943674549229847E-036
  5.200000000000001E-003    1.102607461755178E-035
  5.300000000000002E-003    1.161793116820496E-035
  5.400000000000001E-003    1.007460174901375E-035
  5.500000000000001E-003    5.958469604984775E-036
  5.600000000000002E-003   -7.998091187622802E-037
  5.700000000000001E-003   -9.759003484298496E-036
  5.800000000000001E-003   -1.987954776835137E-035
  5.900000000000002E-003   -2.952704739364574E-035
  6.000000000000001E-003   -3.659775757864565E-035
  6.100000000000001E-003   -3.878237541499966E-035
  6.200000000000002E-003   -3.396184339424309E-035
  6.300000000000002E-003   -2.069993907931494E-035
  6.400000000000001E-003    1.234411491267020E-036
  6.500000000000001E-003    3.041073648644857E-035
  6.600000000000002E-003    6.346119947319844E-035
  6.700000000000001E-003    9.510206570563305E-035
  6.800000000000001E-003    1.185480553193343E-034
  6.900000000000002E-003    1.263676389106463E-034
  7.000000000000001E-003    1.117545811145654E-034
  7.100000000000001E-003    7.009833867721009E-035
  7.200000000000002E-003    6.368993140208508E-037
  7.300000000000002E-003   -9.211246133636205E-035
  7.400000000000001E-003   -1.975052119143168E-034
  7.500000000000001E-003   -2.988662934431270E-034
  7.600000000000002E-003   -3.748224054504178E-034
  7.700000000000001E-003   -4.020082363937455E-034
  7.800000000000001E-003   -3.590545154894136E-034
  7.900000000000001E-003   -2.314791689773124E-034
  8.000000000000002E-003   -1.679920973182500E-035
  8.100000000000001E-003    2.710834766774625E-034
  8.200000000000001E-003    5.993302146202547E-034
  8.300000000000002E-003    9.165444379520892E-034
  8.400000000000001E-003    1.156948081535933E-033
  8.500000000000002E-003    1.248741470786290E-033
  8.600000000000002E-003    1.126323320851673E-033
  8.700000000000001E-003    7.451809952965220E-034
  8.800000000000002E-003    9.734932529331509E-035
  8.900000000000002E-003   -7.754367987789571E-034
  9.000000000000001E-003   -1.774221131073560E-033
  9.100000000000002E-003   -2.744193575201434E-033
  9.200000000000002E-003   -3.487463078043495E-033
  9.300000000000001E-003   -3.788289596459216E-033
  9.400000000000002E-003   -3.449691782777285E-033
  9.500000000000001E-003   -2.337782524598898E-033
  9.600000000000001E-003   -4.275069736410107E-034
  9.700000000000002E-003    2.158749282231840E-033
  9.800000000000001E-003    5.129451166659895E-033
  9.900000000000001E-003    8.028552767743108E-033
  1.000000000000000E-002    1.027366071072395E-032
  1.010000000000000E-002    1.123050636866140E-032
  1.020000000000000E-002    1.032024895815385E-032
  1.030000000000000E-002    7.148656620988516E-033
  1.040000000000000E-002    1.638610071684157E-033
  1.050000000000000E-002   -5.858897442479617E-033
  1.060000000000000E-002   -1.450333787629571E-032
  1.070000000000000E-002   -2.297966842442408E-032
  1.080000000000000E-002   -2.960978934113895E-032
  1.090000000000000E-002   -3.256768409472482E-032
  1.100000000000000E-002   -3.018733294676399E-032
  1.110000000000000E-002   -2.133144508918377E-032
  1.120000000000000E-002   -5.767510550516758E-033
  1.130000000000000E-002    1.551931162093500E-032
  1.140000000000000E-002    4.015568175186204E-032
  1.150000000000000E-002    6.442669431981022E-032
  1.160000000000000E-002    8.359436546617368E-032
  1.170000000000000E-002    9.250615348998283E-032
  1.180000000000000E-002    8.646079779309229E-032
  1.190000000000000E-002    6.223976650056476E-032
  1.200000000000000E-002    1.915400122728703E-032
  1.210000000000000E-002   -4.009082963757234E-032
  1.220000000000000E-002   -1.089290568432475E-031
  1.230000000000000E-002   -1.770741309484924E-031
  1.240000000000000E-002   -2.314090252977776E-031
  1.250000000000000E-002   -2.576722502453740E-031
  1.260000000000000E-002   -2.428443738566767E-031
  1.270000000000000E-002   -1.779780423269340E-031
  1.280000000000000E-002   -6.105661470819006E-032
  1.290000000000000E-002    1.006557469598534E-031
  1.300000000000000E-002    2.893645756389067E-031
  1.310000000000000E-002    4.771444176664320E-031
  1.320000000000000E-002    6.283737499302270E-031
  1.330000000000000E-002    7.043128304616259E-031
  1.340000000000000E-002    6.695532040858996E-031
  1.350000000000000E-002    4.996354557044540E-031
  1.360000000000000E-002    1.887139635974145E-031
  1.370000000000000E-002   -2.441705272710881E-031
  1.380000000000000E-002   -7.517846596336179E-031
  1.390000000000000E-002   -1.259804540991498E-030
  1.400000000000000E-002   -1.673330676807342E-030
  1.410000000000000E-002   -1.889067468578619E-030
  1.420000000000000E-002   -1.812416672834978E-030
  1.430000000000000E-002   -1.377599999482889E-030
  1.440000000000000E-002   -5.678404732106121E-031
  1.450000000000000E-002    5.681798191106895E-031
  1.460000000000000E-002    1.907692356764341E-030
  1.470000000000000E-002    3.256775969650236E-030
  1.480000000000000E-002    4.367411357125110E-030
  1.490000000000000E-002    4.969240646156466E-030
  1.500000000000000E-002    4.814006635763991E-030
  1.510000000000000E-002    3.727726014640941E-030
  1.520000000000000E-002    1.662882504427997E-030
  1.530000000000000E-002   -1.259119926550030E-030
  1.540000000000000E-002   -4.725759631741285E-030
  1.550000000000000E-002   -8.240943508196222E-030
  1.560000000000000E-002   -1.116871291917658E-029
  1.570000000000000E-002   -1.281444473269766E-029
  1.580000000000000E-002   -1.253821962225253E-029
  1.590000000000000E-002   -9.887643008911945E-030
  1.600000000000000E-002   -4.730451385408579E-030
  1.610000000000000E-002    2.637799601178516E-030
  1.620000000000000E-002    1.143743364492579E-029
  1.630000000000000E-002    2.042344568255203E-029
  1.640000000000000E-002    2.799525067401780E-029
  1.650000000000000E-002    3.240036434939588E-029
  1.660000000000000E-002    3.201834786771110E-029
  1.670000000000000E-002    2.569296569299649E-029
  1.680000000000000E-002    1.306332118906631E-029
  1.690000000000000E-002   -5.167421809204287E-030
  1.700000000000000E-002   -2.709122002787146E-029
  1.710000000000000E-002   -4.964056964589021E-029
  1.720000000000000E-002   -6.885865769694349E-029
  1.730000000000000E-002   -8.040095943147715E-029
  1.740000000000000E-002   -8.023391802599952E-029
  1.750000000000000E-002   -6.545134232159718E-029
  1.760000000000000E-002   -3.508778013424730E-029
  1.770000000000000E-002    9.221454838427482E-030
  1.780000000000000E-002    6.289280276817800E-029
  1.790000000000000E-002    1.185006336353791E-028
  1.800000000000000E-002    1.664294938044669E-028
  1.810000000000000E-002    1.960874515838279E-028
  1.820000000000000E-002    1.975959095193790E-028
  1.830000000000000E-002    1.637632580060223E-028
  1.840000000000000E-002    9.205097223764157E-029
  1.850000000000000E-002   -1.382907506723268E-029
  1.860000000000000E-002   -1.430673608445481E-028
  1.870000000000000E-002   -2.779958998121504E-028