 -4.000000000000000E-002    0.000000000000000E+000
 -3.990000000000000E-002    0.000000000000000E+000
 -3.980000000000000E-002    0.000000000000000E+000
 -3.970000000000000E-002    0.000000000000000E+000
 -3.960000000000000E-002   -2.740624395408356E-018
 -3.950000000000000E-002   -2.079356343208814E-017
 -3.940000000000000E-002   -8.314743158771736E-017
 -3.930000000000000E-002   -2.274784235239378E-016
 -3.920000000000000E-002   -4.596025896805935E-016
 -3.910000000000000E-002   -6.691956604758231E-016
 -3.900000000000000E-002   -5.158031517283221E-016
 -3.890000000000000E-002    6.607179810385628E-016
 -3.880000000000000E-002    3.807738229160966E-015
 -3.870000000000000E-002    9.881881523232900E-015
 -3.860000000000000E-002    1.921819086793482E-014
 -3.850000000000000E-002    3.051769057714652E-014
 -3.840000000000000E-002    3.957109895866499E-014
 -3.830000000000000E-002    3.803272651271402E-014
 -3.820000000000000E-002    1.276101513739785E-014
 -3.810000000000000E-002   -5.361964856321196E-014
 -3.800000000000000E-002   -1.802810653066238E-013
 -3.790000000000000E-002   -3.834333326917933E-013
 -3.780000000000000E-002   -6.692524920091139E-013
 -3.770000000000000E-002   -1.025164162511214E-012
 -3.760000000000000E-002   -1.410939200207148E-012
 -3.750000000000000E-002   -1.751794951013673E-012
 -3.740000000000000E-002   -1.936181282649181E-012
 -3.730000000000000E-002   -1.820933871145641E-012
 -3.720000000000000E-002   -1.245850821975891E-012
 -3.710000000000000E-002   -5.840354468019212E-014
 -3.700000000000000E-002    1.852667701980059E-012
 -3.690000000000000E-002    4.518454493867611E-012
 -3.680000000000000E-002    7.851529269587351E-012
 -3.670000000000000E-002    1.161573520380630E-011
 -3.660000000000000E-002    1.541236862569947E-011
 -3.650000000000000E-002    1.869017222599345E-011
 -3.640000000000000E-002    2.078411237198158E-011
 -3.630000000000000E-002    2.098382092327823E-011
 -3.620000000000000E-002    1.862755135151002E-011
 -3.610000000000000E-002    1.321195316008166E-011
 -3.600000000000000E-002    4.503280591653905E-012
 -3.590000000000000E-002   -7.367536119248539E-012
 -3.580000000000000E-002   -2.184405318167217E-011
 -3.570000000000000E-002   -3.793343925375807E-011
 -3.560000000000000E-002   -5.425564237199446E-011
 -3.550000000000000E-002   -6.915480206119708E-011
 -3.540000000000000E-002   -8.086550502106701E-011
 -3.530000000000000E-002   -8.771709407047741E-011
 -3.520000000000000E-002   -8.835132690870726E-011
 -3.510000000000000E-002   -8.192379404483366E-011
 -3.500000000000000E-002   -6.825880298973949E-011
 -3.490000000000000E-002   -4.793114088395699E-011
 -3.480000000000000E-002   -2.225609671452801E-011
 -3.470000000000000E-002    6.819528769338129E-012
 -3.460000000000000E-002    3.691977071443338E-011
 -3.450000000000000E-002    6.551634212742114E-011
 -3.440000000000000E-002    9.024996920043903E-011
 -3.430000000000000E-002    1.092578501394538E-010
 -3.420000000000000E-002    1.214651163529927E-010
 -3.410000000000000E-002    1.267987794518212E-010
 -3.400000000000000E-002    1.262878584692913E-010
 -3.390000000000000E-002    1.220228207670814E-010
 -3.380000000000000E-002    1.169598337779194E-010
 -3.370000000000000E-002    1.145708452417478E-010
 -3.360000000000000E-002    1.183571405418961E-010
 -3.350000000000000E-002    1.312621753167508E-010
 -3.340000000000000E-002    1.550369663148216E-010
 -3.330000000000000E-002    1.896273984905777E-010
 -3.320000000000000E-002    2.326655395596163E-010
 -3.310000000000000E-002    2.791534851888408E-010
 -3.300000000000000E-002    3.214260353154546E-010
 -3.290000000000000E-002    3.494645893303122E-010
 -3.280000000000000E-002    3.516076334632129E-010
 -3.270000000000000E-002    3.156620444089888E-010
 -3.260000000000000E-002    2.303665663703538E-010
 -3.250000000000000E-002    8.709859361278439E-011
 -3.240000000000000E-002   -1.183441953208128E-010
 -3.230000000000000E-002   -3.841059648109571E-010
 -3.220000000000000E-002   -7.010268050751679E-010
 -3.210000000000000E-002   -1.052037939519605E-009
 -3.200000000000000E-002   -1.412406576892537E-009
 -3.190000000000000E-002   -1.750967731297713E-009
 -3.180000000000000E-002   -2.032364141235468E-009
 -3.170000000000000E-002   -2.220182742566253E-009
 -3.160000000000000E-002   -2.280731840875640E-009
 -3.150000000000000E-002   -2.187073388500808E-009
 -3.140000000000000E-002   -1.922832105979687E-009
 -3.130000000000000E-002   -1.485264448174023E-009
 -3.120000000000000E-002   -8.871054334835977E-010
 -3.110000000000000E-002   -1.568147702894526E-010
 -3.100000000000000E-002    6.629757125961430E-010
 -3.090000000000000E-002    1.518790559455574E-009
 -3.080000000000000E-002    2.351144634714896E-009
 -3.070000000000000E-002    3.100383497198227E-009
 -3.060000000000000E-002    3.712845717916234E-009
 -3.050000000000000E-002    4.146568732016038E-009
 -3.040000000000000E-002    4.375767366928871E-009
 -3.030000000000000E-002    4.393430199722844E-009
 -3.020000000000000E-002    4.211607300617216E-009
 -3.010000000000000E-002    3.859260973453641E-009
 -3.000000000000000E-002    3.377892838464881E-009
 -2.990000000000000E-002    2.815492607524272E-009
 -2.980000000000000E-002    2.219622079593005E-009
 -2.970000000000000E-002    1.630617672366078E-009
 -2.960000000000000E-002    1.075927685457434E-009
 -2.950000000000000E-002    5.664861749370286E-010
 -2.940000000000000E-002    9.577559317460117E-011
 -2.930000000000000E-002   -3.581414576355829E-010
 -2.920000000000000E-002   -8.277527737304554E-010
 -2.910000000000000E-002   -1.348970842024735E-009
 -2.900000000000000E-002   -1.952687542745703E-009
 -2.890000000000000E-002   -2.656228246213932E-009
 -2.880000000000000E-002   -3.456013343163578E-009
 -2.870000000000000E-002   -4.322671696269649E-009
 -2.860000000000000E-002   -5.199593512326691E-009
 -2.850000000000000E-002   -6.005492420446305E-009
 -2.840000000000000E-002   -6.641039262749962E-009
 -2.830000000000000E-002   -6.999051460782111E-009
 -2.820000000000000E-002   -6.977195524262265E-009
 -2.810000000000000E-002   -6.491728309591356E-009
 -2.800000000000000E-002   -5.490535325723312E-009
 -2.790000000000000E-002   -3.963682109787440E-009
 -2.780000000000000E-002   -1.949879096401275E-009
 -2.770000000000000E-002    4.623036613312751E-010
 -2.760000000000000E-002    3.139052112383389E-009
 -2.750000000000000E-002    5.911580094560690E-009
 -2.740000000000000E-002    8.591143711701947E-009
 -2.730000000000000E-002    1.098719363534463E-008
 -2.720000000000000E-002    1.292654939265549E-008
 -2.710000000000000E-002    1.427123982088261E-008
 -2.700000000000000E-002    1.493271026011700E-008
 -2.690000000000000E-002    1.488052747223668E-008
 -2.680000000000000E-002    1.414439040809873E-008
 -2.670000000000000E-002    1.280921293894891E-008
 -2.660000000000000E-002    1.100407429950805E-008
 -2.650000000000000E-002    8.886819611057154E-009
 -2.640000000000000E-002    6.626917794150930E-009
 -2.630000000000000E-002    4.389594456727912E-009
 -2.620000000000000E-002    2.324340076603221E-009
 -2.610000000000000E-002    5.603215636685348E-010
 -2.600000000000000E-002   -7.895443290562876E-010
 -2.590000000000000E-002   -1.615560324496174E-009
 -2.580000000000000E-002   -1.790177366139848E-009
 -2.570000000000000E-002   -1.141472623848224E-009
 -2.560000000000000E-002    5.753756120204613E-010
 -2.550000000000000E-002    3.704371638614994E-009
 -2.540000000000000E-002    8.708452778397394E-009
 -2.530000000000000E-002    1.617926097079385E-008
 -2.520000000000000E-002    2.683464556149044E-008
 -2.510000000000000E-002    4.150347833374718E-008
 -2.500000000000000E-002    6.109940728642844E-008
 -2.490000000000000E-002    8.658711582974555E-008
 -2.480000000000000E-002    1.189460592554327E-007
 -2.470000000000000E-002    1.591373910464615E-007
 -2.460000000000000E-002    2.080802493648721E-007
 -2.450000000000000E-002    2.666414080221293E-007
 -2.440000000000000E-002    3.356412581242820E-007
 -2.430000000000000E-002    4.158767037629346E-007
 -2.420000000000000E-002    5.081573356600600E-007
 -2.410000000000000E-002    6.133501641324442E-007
 -2.400000000000000E-002    7.324253730154735E-007
 -2.390000000000000E-002    8.664946835317323E-007
 -2.380000000000000E-002    1.016834646016553E-006
 -2.370000000000000E-002    1.184888092872582E-006
 -2.360000000000000E-002    1.372240406165233E-006
 -2.350000000000000E-002    1.580571029078857E-006
 -2.340000000000000E-002    1.811583145746220E-006
 -2.330000000000000E-002    2.066921265555834E-006
 -2.320000000000000E-002    2.348085568842258E-006
 -2.310000000000000E-002    2.656356001954595E-006
 -2.300000000000000E-002    2.992738097149945E-006
 -2.290000000000000E-002    3.357939290319383E-006
 -2.280000000000000E-002    3.752385784192413E-006
 -2.270000000000000E-002    4.176276104952989E-006
 -2.260000000000000E-002    4.629674026741072E-006
 -2.250000000000000E-002    5.112627121837243E-006
 -2.240000000000000E-002    5.625302169720305E-006
 -2.230000000000000E-002    6.168120656613753E-006
 -2.220000000000000E-002    6.741877069729618E-006
 -2.210000000000000E-002    7.347828367260812E-006
 -2.200000000000000E-002    7.987740517428877E-006
 -2.190000000000000E-002    8.663888992452371E-006
 -2.180000000000000E-002    9.379009681621212E-006
 -2.170000000000000E-002    1.013620690930917E-005
 -2.160000000000000E-002    1.093883569840769E-005
 -2.150000000000000E-002    1.179035996150400E-005
 -2.140000000000000E-002    1.269422085086381E-005
 -2.130000000000000E-002    1.365371729636547E-005
 -2.120000000000000E-002    1.467192155019110E-005
 -2.110000000000000E-002    1.575164424025804E-005
 -2.100000000000000E-002    1.689544253455126E-005
 -2.090000000000000E-002    1.810567959472634E-005
 -2.080000000000000E-002    1.938462971128650E-005
 -2.070000000000000E-002    2.073460607271162E-005
 -2.060000000000000E-002    2.215810842894727E-005
 -2.050000000000000E-002    2.365796995158268E-005
 -2.040000000000000E-002    2.523748146489800E-005
 -2.030000000000000E-002    2.690049096717176E-005
 -2.020000000000000E-002    2.865145669499680E-005
 -2.010000000000000E-002    3.049546351190760E-005
 -2.000000000000000E-002    3.243818962178448E-005
 -1.990000000000000E-002    3.448584549327683E-005
 -1.980000000000000E-002    3.664508272988789E-005
 -1.970000000000000E-002    3.892290520737473E-005
 -1.960000000000000E-002    4.132656229542481E-005
 -1.950000000000000E-002    4.386347940589250E-005
 -1.940000000000000E-002    4.654121074756382E-005
 -1.930000000000000E-002    4.936741140171582E-005
 -1.920000000000000E-002    5.234985963159083E-005
 -1.910000000000000E-002    5.549649409126287E-005
 -1.900000000000000E-002    5.881549278836186E-005
 -1.890000000000000E-002    6.231534808488270E-005
 -1.880000000000000E-002    6.600494870683417E-005
 -1.870000000000000E-002    6.989366735043776E-005
 -1.860000000000000E-002    7.399141522001944E-005
 -1.850000000000000E-002    7.830868745557597E-005
 -1.840000000000000E-002    8.285659174082979E-005
 -1.830000000000000E-002    8.764686490982820E-005
 -1.820000000000000E-002    9.269185598445771E-005
 -1.810000000000000E-002    9.800454605792095E-005
 -1.800000000000000E-002    1.035985361970940E-004
 -1.790000000000000E-002    1.094880682906252E-004
 -1.780000000000000E-002    1.156880590283440E-004
 -1.770000000000000E-002    1.222141650130160E-004
 -1.760000000000000E-002    1.290828287211857E-004
 -1.750000000000000E-002    1.363113782024849E-004
 -1.740000000000000E-002    1.439180812716247E-004
 -1.730000000000000E-002    1.519222156129351E-004
 -1.720000000000000E-002    1.603440846337732E-004
 -1.710000000000000E-002    1.692050355168876E-004
 -1.700000000000000E-002    1.785274016701788E-004
 -1.690000000000000E-002    1.883344751423650E-004
 -1.680000000000000E-002    1.986503653676774E-004
 -1.670000000000000E-002    2.094999175239436E-004
 -1.660000000000000E-002    2.209085790429127E-004
 -1.650000000000000E-002    2.329023312842182E-004
 -1.640000000000000E-002    2.455076397362881E-004
 -1.630000000000000E-002    2.587514526097647E-004
 -1.620000000000000E-002    2.726612501914703E-004
 -1.610000000000000E-002    2.872652073111652E-004
 -1.600000000000000E-002    3.025923380573978E-004
 -1.590000000000000E-002    3.186727790622540E-004
 -1.580000000000000E-002    3.355379652316879E-004
 -1.570000000000000E-002    3.532209462379519E-004
 -1.560000000000000E-002    3.717565828971372E-004
 -1.550000000000000E-002    3.911817379177449E-004
 -1.540000000000000E-002    4.115353827234095E-004
 -1.530000000000000E-002    4.328586280764569E-004
 -1.520000000000000E-002    4.551947066568034E-004
 -1.510000000000000E-002    4.785887862529770E-004
 -1.500000000000000E-002    5.030879075963116E-004
 -1.490000000000000E-002    5.287408048818580E-004
 -1.480000000000000E-002    5.555975994800317E-004
 -1.470000000000000E-002    5.837097817142299E-004
 -1.460000000000000E-002    6.131300231247582E-004
 -1.450000000000000E-002    6.439121946813542E-004
 -1.440000000000000E-002    6.761114434146521E-004
 -1.430000000000000E-002    7.097842237065897E-004
 -1.420000000000000E-002    7.449885263464109E-004
 -1.410000000000000E-002    7.817841286048827E-004
 -1.400000000000000E-002    8.202328831449471E-004
 -1.390000000000000E-002    8.603987684428743E-004
 -1.380000000000000E-002    9.023482878374560E-004
 -1.370000000000000E-002    9.461503752442395E-004
 -1.360000000000000E-002    9.918765886009632E-004
 -1.350000000000000E-002    1.039601191131825E-003
 -1.340000000000000E-002    1.089400783850581E-003
 -1.330000000000000E-002    1.141354435085664E-003
 -1.320000000000000E-002    1.195543501981072E-003
 -1.310000000000000E-002    1.252051558005339E-003
 -1.300000000000000E-002    1.310964237086743E-003
 -1.290000000000000E-002    1.372369353333927E-003
 -1.280000000000000E-002    1.436356849683784E-003
 -1.270000000000000E-002    1.503019136340043E-003
 -1.260000000000000E-002    1.572451092907594E-003
 -1.250000000000000E-002    1.644750294284189E-003
 -1.240000000000000E-002    1.720017303750358E-003
 -1.230000000000000E-002    1.798355714833934E-003
 -1.220000000000000E-002    1.879872666864738E-003
 -1.210000000000000E-002    1.964678485477706E-003
 -1.200000000000000E-002    2.052886945704320E-003
 -1.190000000000000E-002    2.144614960888078E-003
 -1.180000000000000E-002    2.239982221420374E-003
 -1.170000000000000E-002    2.339111772185357E-003
 -1.160000000000000E-002    2.442129360830531E-003
 -1.150000000000000E-002    2.549162914060597E-003
 -1.140000000000000E-002    2.660342830655492E-003
 -1.130000000000000E-002    2.775802262402701E-003
 -1.120000000000000E-002    2.895675909364344E-003
 -1.110000000000000E-002    3.020101537809794E-003
 -1.100000000000000E-002    3.149219258513556E-003
 -1.090000000000000E-002    3.283171401415421E-003
 -1.080000000000000E-002    3.422103336282960E-003
 -1.070000000000000E-002    3.566163190602655E-003
 -1.060000000000000E-002    3.715501948810648E-003
 -1.050000000000000E-002    3.870273600441534E-003
 -1.040000000000000E-002    4.030634541909337E-003
 -1.030000000000000E-002    4.196744316055720E-003
 -1.020000000000000E-002    4.368765139205644E-003
 -1.010000000000000E-002    4.546861813428224E-003
 -1.000000000000000E-002    4.731201818199481E-003
 -9.899999999999999E-003    4.921955290640647E-003
 -9.800000000000000E-003    5.119294382982319E-003
 -9.699999999999999E-003    5.323394421433040E-003
 -9.599999999999999E-003    5.534432453271628E-003
 -9.500000000000000E-003    5.752588029566959E-003
 -9.399999999999999E-003    5.978043581113206E-003
 -9.299999999999999E-003    6.210982926162366E-003
 -9.200000000000000E-003    6.451592054907467E-003
 -9.099999999999999E-003    6.700058371559234E-003
 -8.999999999999999E-003    6.956570555845496E-003
 -8.900000000000000E-003    7.221318029272213E-003
 -8.799999999999999E-003    7.494490554427217E-003
 -8.699999999999999E-003    7.776278555818012E-003
 -8.600000000000000E-003    8.066872228493564E-003
 -8.499999999999999E-003    8.366462150168478E-003
 -8.399999999999999E-003    8.675237828335049E-003
 -8.300000000000000E-003    8.993389231107731E-003
 -8.199999999999999E-003    9.321106145159845E-003
 -8.100000000000000E-003    9.658577796877349E-003
 -8.000000000000000E-003    1.000599243404789E-002
 -7.899999999999999E-003    1.036353898858782E-002
 -7.800000000000000E-003    1.073140442168530E-002
 -7.699999999999999E-003    1.110977651597037E-002
 -7.599999999999999E-003    1.149883962213404E-002
 -7.499999999999999E-003    1.189877783507028E-002
 -7.399999999999999E-003    1.230977156165149E-002
 -7.299999999999999E-003    1.273199900349327E-002
 -7.199999999999999E-003    1.316563524138746E-002
 -7.100000000000000E-003    1.361085208255350E-002
 -6.999999999999999E-003    1.406781566817998E-002
 -6.899999999999999E-003    1.453668967436733E-002
 -6.800000000000000E-003    1.501763176864400E-002
 -6.699999999999999E-003    1.551079514931537E-002
 -6.599999999999999E-003    1.601632643210528E-002
 -6.499999999999999E-003    1.653436803325962E-002
 -6.399999999999999E-003    1.706505677857041E-002
 -6.299999999999999E-003    1.760851894652345E-002
 -6.199999999999999E-003    1.816487805964187E-002
 -6.100000000000000E-003    1.873424533838740E-002
 -5.999999999999999E-003    1.931672663899933E-002
 -5.899999999999999E-003    1.991241766048824E-002
 -5.800000000000000E-003    2.052140407249249E-002
 -5.699999999999999E-003    2.114376234399314E-002
 -5.599999999999999E-003    2.177955539977236E-002
 -5.499999999999999E-003    2.242883758378691E-002
 -5.399999999999999E-003    2.309165157127700E-002
 -5.299999999999999E-003    2.376802697092508E-002
 -5.199999999999999E-003    2.445797908755818E-002
 -5.099999999999999E-003    2.516151264279619E-002
 -4.999999999999999E-003    2.587861364324868E-002
 -4.899999999999999E-003    2.660925879730353E-002
 -4.799999999999999E-003    2.735340441530455E-002
 -4.699999999999999E-003    2.811099136845659E-002
 -4.599999999999999E-003    2.888194379173570E-002
 -4.499999999999999E-003    2.966616824079047E-002
 -4.399999999999999E-003    3.046355144452261E-002
 -4.299999999999999E-003    3.127395955611513E-002
 -4.199999999999999E-003    3.209724293241317E-002
 -4.099999999999999E-003    3.293322809405529E-002
 -3.999999999999999E-003    3.378172006626397E-002
 -3.899999999999999E-003    3.464250915987815E-002
 -3.799999999999999E-003    3.551535567619934E-002
 -3.699999999999999E-003    3.639999949663823E-002
 -3.599999999999999E-003    3.729615801878407E-002
 -3.499999999999999E-003    3.820352412953411E-002
 -3.399999999999999E-003    3.912176509045450E-002
 -3.299999999999999E-003    4.005051735737024E-002
 -3.199999999999999E-003    4.098939264517538E-002
 -3.099999999999999E-003    4.193797538652783E-002
 -2.999999999999999E-003    4.289581779725513E-002
 -2.899999999999999E-003    4.386244282635535E-002
 -2.799999999999999E-003    4.483734275338465E-002
 -2.699999999999999E-003    4.581997976956332E-002
 -2.599999999999999E-003    4.680978367906807E-002
 -2.499999999999999E-003    4.780615391583334E-002
 -2.399999999999999E-003    4.880845952402335E-002
 -2.299999999999999E-003    4.981603562594532E-002
 -2.199999999999999E-003    5.082818170165179E-002
 -2.099999999999999E-003    5.184415981895552E-002
 -1.999999999999999E-003    5.286320550405576E-002
 -1.899999999999999E-003    5.388450977946573E-002
 -1.799999999999999E-003    5.490723061704805E-002
 -1.699999999999999E-003    5.593048718909196E-002
 -1.599999999999999E-003    5.695335790199061E-002
 -1.499999999999999E-003    5.797488633774934E-002
 -1.399999999999999E-003    5.899407655937669E-002
 -1.299999999999999E-003    6.000989276194067E-002
 -1.199999999999999E-003    6.102126786890476E-002
 -1.099999999999999E-003    6.202708178453470E-002
 -9.999999999999989E-004    6.302618942313179E-002
 -8.999999999999990E-004    6.401740331101581E-002
 -7.999999999999990E-004    6.499949008791013E-002
 -6.999999999999989E-004    6.597118027620030E-002
 -5.999999999999990E-004    6.693115679776998E-002
 -4.999999999999989E-004    6.787807450418765E-002
 -3.999999999999989E-004    6.881053398477383E-002
 -2.999999999999989E-004    6.972710164926789E-002
 -1.999999999999989E-004    7.062629128294250E-002
 -9.999999999999892E-005    7.150658416969248E-002
  1.084202172485504E-018    7.236641268111438E-002
  1.000000000000011E-004    7.320418156956421E-002
  2.000000000000011E-004    7.401824209014637E-002
  3.000000000000011E-004    7.480690906112809E-002
  4.000000000000011E-004    7.556846095659263E-002
  5.000000000000011E-004    7.630113730996138E-002
  6.000000000000011E-004    7.700313859722710E-002
  7.000000000000011E-004    7.767262518420687E-002
  8.000000000000011E-004    7.830771912074083E-002
  9.000000000000012E-004    7.890650377524161E-002
  1.000000000000001E-003    7.946702907109432E-002
  1.100000000000001E-003    7.998730532784465E-002
  1.200000000000001E-003    8.046530329579672E-002
  1.300000000000001E-003    8.089896116711157E-002
  1.400000000000001E-003    8.128618938639559E-002
  1.500000000000001E-003    8.162485914038248E-002
  1.600000000000001E-003    8.191282001096371E-002
  1.700000000000001E-003    8.214788399502063E-002
  1.800000000000001E-003    8.232783921937742E-002
  1.900000000000001E-003    8.245045313084177E-002
  2.000000000000001E-003    8.251345497417803E-002
  2.100000000000001E-003    8.251456588503690E-002
  2.200000000000001E-003    8.245147232417321E-002
  2.300000000000001E-003    8.232184202644180E-002
  2.400000000000001E-003    8.212332817098650E-002
  2.500000000000001E-003    8.185356100595752E-002
  2.600000000000001E-003    8.151015608050441E-002
  2.700000000000001E-003    8.109070697505485E-002
  2.800000000000001E-003    8.059280954926502E-002
  2.900000000000001E-003    8.001403607147553E-002
  3.000000000000001E-003    7.935196306475732E-002
  3.100000000000001E-003    7.860416070470727E-002
  3.200000000000001E-003    7.776819527990783E-002
  3.300000000000001E-003    7.684163240248203E-002
  3.400000000000001E-003    7.582205216285284E-002
  3.500000000000001E-003    7.470702324869621E-002
  3.600000000000001E-003    7.349413276176084E-002
  3.700000000000001E-003    7.218096878518825E-002
  3.800000000000001E-003    7.076514166359110E-002
  3.900000000000001E-003    6.924427530502625E-002
  4.000000000000001E-003    6.761600046831044E-002
  4.100000000000001E-003    6.587798364537295E-002
  4.200000000000001E-003    6.402790041447580E-002
  4.300000000000001E-003    6.206347437534077E-002
  4.400000000000001E-003    5.998245202204842E-002
  4.500000000000001E-003    5.778260806541340E-002
  4.600000000000002E-003    5.546176592015221E-002
  4.700000000000001E-003    5.301778400752524E-002
  4.800000000000001E-003    5.044856831718279E-002
  4.900000000000002E-003    4.775207300668666E-002
  5.000000000000001E-003    4.492630305642931E-002
  5.100000000000001E-003    4.196931293015374E-002
  5.200000000000001E-003    3.887921667125683E-002
  5.300000000000002E-003    3.565418905765361E-002
  5.400000000000001E-003    3.229246935645763E-002
  5.500000000000001E-003    2.879236372558154E-002
  5.600000000000002E-003    2.515224657209000E-002
  5.700000000000001E-003    2.137057353075685E-002
  5.800000000000001E-003    1.744587723053875E-002
  5.900000000000002E-003    1.337676929331290E-002
  6.000000000000001E-003    9.161952273414473E-003
  6.100000000000001E-003    4.800215509661142E-003
  6.200000000000002E-003    2.904417828273852E-004
  6.300000000000002E-003   -4.368388109197274E-003
  6.400000000000001E-003   -9.177196945131885E-003
  6.500000000000001E-003   -1.413680703362062E-002
  6.600000000000002E-003   -1.924793070931880E-002
  6.700000000000001E-003   -2.451117402634382E-002
  6.800000000000001E-003   -2.992703346225508E-002
  6.900000000000002E-003   -3.549588516510008E-002
  7.000000000000001E-003   -4.121798655586641E-002
  7.100000000000001E-003   -4.709347421824397E-002
  7.200000000000002E-003   -5.312235896150887E-002
  7.300000000000002E-003   -5.930451653752875E-002
  7.400000000000001E-003   -6.563969476879311E-002
  7.500000000000001E-003   -7.212750882288692E-002
  7.600000000000002E-003   -7.876743806853945E-002
  7.700000000000001E-003   -8.555880674878380E-002
  7.800000000000001E-003   -9.250081585933530E-002
  7.900000000000001E-003   -9.959251976362202E-002
  8.000000000000002E-003   -0.106832820302240     
  8.100000000000001E-003   -0.114220470627196     
  8.200000000000001E-003   -0.121754078015532     
  8.300000000000002E-003   -0.129432096791199     
  8.400000000000001E-003   -0.137252828090441     
  8.500000000000002E-003   -0.145214413654156     
  8.600000000000002E-003   -0.153314837384400     
  8.700000000000001E-003   -0.161551915410037     
  8.800000000000002E-003   -0.169923313974440     
  8.900000000000002E-003   -0.178426545079050     
  9.000000000000001E-003   -0.187058923489613     
  9.100000000000002E-003   -0.195817631965491     
  9.200000000000002E-003   -0.204699663546208     
  9.300000000000001E-003   -0.213701863239329     
  9.400000000000002E-003   -0.222820917300708     
  9.500000000000001E-003   -0.232053351074624     
  9.600000000000001E-003   -0.241395487561061     
  9.700000000000002E-003   -0.250843524088149     
  9.800000000000001E-003   -0.260393480344478     
  9.900000000000001E-003   -0.270041210592397     
  1.000000000000000E-002   -0.279782392039025     
  1.010000000000000E-002   -0.289612562275959     
  1.020000000000000E-002   -0.299527095504814     
  1.030000000000000E-002   -0.309521189867185     
  1.040000000000000E-002   -0.319589893409492     
  1.050000000000000E-002   -0.329728086535925     
  1.060000000000000E-002   -0.339930521277684     
  1.070000000000000E-002   -0.350191778693311     
  1.080000000000000E-002   -0.360506277094217     
  1.090000000000000E-002   -0.370868319521398     
  1.100000000000000E-002   -0.381272041752331     
  1.110000000000000E-002   -0.391711462115755     
  1.120000000000000E-002   -0.402180402810868     
  1.130000000000000E-002   -0.412672626056212     
  1.140000000000000E-002   -0.423181730862249     
  1.150000000000000E-002   -0.433701143764671     
  1.160000000000000E-002   -0.444224242070514     
  1.170000000000000E-002   -0.454744237171707     
  1.180000000000000E-002   -0.465254228875139     
  1.190000000000000E-002   -0.475747201798982     
  1.200000000000000E-002   -0.486216049347071     
  1.210000000000000E-002   -0.496653548306299     
  1.220000000000000E-002   -0.507052400205485     
  1.230000000000000E-002   -0.517405201770973     
  1.240000000000000E-002   -0.527704466561220     
  1.250000000000000E-002   -0.537942636990517     
  1.260000000000000E-002   -0.548112061679561     
  1.270000000000000E-002   -0.558205060689918     
  1.280000000000000E-002   -0.568213855141138     
  1.290000000000000E-002   -0.578130564666294     
  1.300000000000000E-002   -0.587947324194061     
  1.310000000000000E-002   -0.597656234740964     
  1.320000000000000E-002   -0.607249325444434     
  1.330000000000000E-002   -0.616718539264894     
  1.340000000000000E-002   -0.626055923552789     
  1.350000000000000E-002   -0.635253407145735     
  1.360000000000000E-002   -0.644302946293754     
  1.370000000000000E-002   -0.653196485500454     
  1.380000000000000E-002   -0.661925959703872     
  1.390000000000000E-002   -0.670483398122140     
  1.400000000000000E-002   -0.678860716451883     
  1.410000000000000E-002   -0.687049983982857     
  1.420000000000000E-002   -0.695043215242498     
  1.430000000000000E-002   -0.702832475408739     
  1.440000000000000E-002   -0.710409951027548     
  1.450000000000000E-002   -0.717767751993194     
  1.460000000000000E-002   -0.724898174154070     
  1.470000000000000E-002   -0.731793526417205     
  1.480000000000000E-002   -0.738446200598115     
  1.490000000000000E-002   -0.744848693836337     
  1.500000000000000E-002   -0.750993581357160     
  1.510000000000000E-002   -0.756873567221498     
  1.520000000000000E-002   -0.762481364080048     
  1.530000000000000E-002   -0.767809936925075     
  1.540000000000000E-002   -0.772852352959385     
  1.550000000000000E-002   -0.777601706546787     
  1.560000000000000E-002   -0.782051324146581     
  1.570000000000000E-002   -0.786194643772280     
  1.580000000000000E-002   -0.790025266433417     
  1.590000000000000E-002   -0.793536910226737     
  1.600000000000000E-002   -0.796723557078180     
  1.610000000000000E-002   -0.799579290567001     
  1.620000000000000E-002   -0.802098364708579     
  1.630000000000000E-002   -0.804275263000563     
  1.640000000000000E-002   -0.806104623731612     
  1.650000000000000E-002   -0.807581300799268     
  1.660000000000000E-002   -0.808700354794787     
  1.670000000000000E-002   -0.809457066166548     
  1.680000000000000E-002   -0.809846925581278     
  1.690000000000000E-002   -0.809865649380967     
  1.700000000000000E-002   -0.809509156080307     
  1.710000000000000E-002   -0.808773696186010     
  1.720000000000000E-002   -0.807655612870121     
  1.730000000000000E-002   -0.806151618323627     
  1.740000000000000E-002   -0.804258588605082     
  1.750000000000000E-002   -0.801973638605098     
  1.760000000000000E-002   -0.799294242191093     
  1.770000000000000E-002   -0.796218084544296     
  1.780000000000000E-002   -0.792743101645441     
  1.790000000000000E-002   -0.788867474414516     
  1.800000000000000E-002   -0.784589724772518     
  1.810000000000000E-002   -0.779908582303900     
  1.820000000000000E-002   -0.774823102752879     
  1.830000000000000E-002   -0.769332630214258     
  1.840000000000000E-002   -0.763436745979574     
  1.850000000000000E-002   -0.757135383158320     
  1.860000000000000E-002   -0.750428739036560     
  1.870000000000000E-002   -0.743317180380359     