 -4.000000000000000E-002    0.000000000000000E+000
 -3.990000000000000E-002    0.000000000000000E+000
 -3.980000000000000E-002    0.000000000000000E+000
 -3.970000000000000E-002    0.000000000000000E+000
 -3.960000000000000E-002    0.000000000000000E+000
 -3.950000000000000E-002    0.000000000000000E+000
 -3.940000000000000E-002    0.000000000000000E+000
 -3.930000000000000E-002    0.000000000000000E+000
 -3.920000000000000E-002    0.000000000000000E+000
 -3.910000000000000E-002    0.000000000000000E+000
 -3.900000000000000E-002    0.000000000000000E+000
 -3.890000000000000E-002    0.000000000000000E+000
 -3.880000000000000E-002    0.000000000000000E+000
 -3.870000000000000E-002    0.000000000000000E+000
 -3.860000000000000E-002    0.000000000000000E+000
 -3.850000000000000E-002    0.000000000000000E+000
 -3.840000000000000E-002    0.000000000000000E+000
 -3.830000000000000E-002    0.000000000000000E+000
 -3.820000000000000E-002    0.000000000000000E+000
 -3.810000000000000E-002    0.000000000000000E+000
 -3.800000000000000E-002    0.000000000000000E+000
 -3.790000000000000E-002    0.000000000000000E+000
 -3.780000000000000E-002    0.000000000000000E+000
 -3.770000000000000E-002    0.000000000000000E+000
 -3.760000000000000E-002    0.000000000000000E+000
 -3.750000000000000E-002    0.000000000000000E+000
 -3.740000000000000E-002    0.000000000000000E+000
 -3.730000000000000E-002    0.000000000000000E+000
 -3.720000000000000E-002    0.000000000000000E+000
 -3.710000000000000E-002    0.000000000000000E+000
 -3.700000000000000E-002    0.000000000000000E+000
 -3.690000000000000E-002    0.000000000000000E+000
 -3.680000000000000E-002    0.000000000000000E+000
 -3.670000000000000E-002    0.000000000000000E+000
 -3.660000000000000E-002    0.000000000000000E+000
 -3.650000000000000E-002    0.000000000000000E+000
 -3.640000000000000E-002    0.000000000000000E+000
 -3.630000000000000E-002    0.000000000000000E+000
 -3.620000000000000E-002    0.000000000000000E+000
 -3.610000000000000E-002    0.000000000000000E+000
 -3.600000000000000E-002    0.000000000000000E+000
 -3.590000000000000E-002    0.000000000000000E+000
 -3.580000000000000E-002    0.000000000000000E+000
 -3.570000000000000E-002    0.000000000000000E+000
 -3.560000000000000E-002    0.000000000000000E+000
 -3.550000000000000E-002    0.000000000000000E+000
 -3.540000000000000E-002    0.000000000000000E+000
 -3.530000000000000E-002    0.000000000000000E+000
 -3.520000000000000E-002    0.000000000000000E+000
 -3.510000000000000E-002    0.000000000000000E+000
 -3.500000000000000E-002    0.000000000000000E+000
 -3.490000000000000E-002    0.000000000000000E+000
 -3.480000000000000E-002    0.000000000000000E+000
 -3.470000000000000E-002    0.000000000000000E+000
 -3.460000000000000E-002    0.000000000000000E+000
 -3.450000000000000E-002    0.000000000000000E+000
 -3.440000000000000E-002    0.000000000000000E+000
 -3.430000000000000E-002    0.000000000000000E+000
 -3.420000000000000E-002    0.000000000000000E+000
 -3.410000000000000E-002    0.000000000000000E+000
 -3.400000000000000E-002    0.000000000000000E+000
 -3.390000000000000E-002    0.000000000000000E+000
 -3.380000000000000E-002    0.000000000000000E+000
 -3.370000000000000E-002    0.000000000000000E+000
 -3.360000000000000E-002    0.000000000000000E+000
 -3.350000000000000E-002    0.000000000000000E+000
 -3.340000000000000E-002    0.000000000000000E+000
 -3.330000000000000E-002    0.000000000000000E+000
 -3.320000000000000E-002    0.000000000000000E+000
 -3.310000000000000E-002    0.000000000000000E+000
 -3.300000000000000E-002    0.000000000000000E+000
 -3.290000000000000E-002    0.000000000000000E+000
 -3.280000000000000E-002    0.000000000000000E+000
 -3.270000000000000E-002    0.000000000000000E+000
 -3.260000000000000E-002    0.000000000000000E+000
 -3.250000000000000E-002    0.000000000000000E+000
 -3.240000000000000E-002    0.000000000000000E+000
 -3.230000000000000E-002    0.000000000000000E+000
 -3.220000000000000E-002    0.000000000000000E+000
 -3.210000000000000E-002    0.000000000000000E+000
 -3.200000000000000E-002    0.000000000000000E+000
 -3.190000000000000E-002    0.000000000000000E+000
 -3.180000000000000E-002    0.000000000000000E+000
 -3.170000000000000E-002    0.000000000000000E+000
 -3.160000000000000E-002    0.000000000000000E+000
 -3.150000000000000E-002    0.000000000000000E+000
 -3.140000000000000E-002    0.000000000000000E+000
 -3.130000000000000E-002    0.000000000000000E+000
 -3.120000000000000E-002    0.000000000000000E+000
 -3.110000000000000E-002    0.000000000000000E+000
 -3.100000000000000E-002    0.000000000000000E+000
 -3.090000000000000E-002    0.000000000000000E+000
 -3.080000000000000E-002    0.000000000000000E+000
 -3.070000000000000E-002    0.000000000000000E+000
 -3.060000000000000E-002    0.000000000000000E+000
 -3.050000000000000E-002    0.000000000000000E+000
 -3.040000000000000E-002    0.000000000000000E+000
 -3.030000000000000E-002    0.000000000000000E+000
 -3.020000000000000E-002    0.000000000000000E+000
 -3.010000000000000E-002    0.000000000000000E+000
 -3.000000000000000E-002    0.000000000000000E+000
 -2.990000000000000E-002    0.000000000000000E+000
 -2.980000000000000E-002    0.000000000000000E+000
 -2.970000000000000E-002    0.000000000000000E+000
 -2.960000000000000E-002    0.000000000000000E+000
 -2.950000000000000E-002    0.000000000000000E+000
 -2.940000000000000E-002    0.000000000000000E+000
 -2.930000000000000E-002    0.000000000000000E+000
 -2.920000000000000E-002    0.000000000000000E+000
 -2.910000000000000E-002    0.000000000000000E+000
 -2.900000000000000E-002    0.000000000000000E+000
 -2.890000000000000E-002    0.000000000000000E+000
 -2.880000000000000E-002    0.000000000000000E+000
 -2.870000000000000E-002    0.000000000000000E+000
 -2.860000000000000E-002    0.000000000000000E+000
 -2.850000000000000E-002    0.000000000000000E+000
 -2.840000000000000E-002    0.000000000000000E+000
 -2.830000000000000E-002    0.000000000000000E+000
 -2.820000000000000E-002    0.000000000000000E+000
 -2.810000000000000E-002    0.000000000000000E+000
 -2.800000000000000E-002    0.000000000000000E+000
 -2.790000000000000E-002    0.000000000000000E+000
 -2.780000000000000E-002    0.000000000000000E+000
 -2.770000000000000E-002    0.000000000000000E+000
 -2.760000000000000E-002    0.000000000000000E+000
 -2.750000000000000E-002    0.000000000000000E+000
 -2.740000000000000E-002    0.000000000000000E+000
 -2.730000000000000E-002    0.000000000000000E+000
 -2.720000000000000E-002    0.000000000000000E+000
 -2.710000000000000E-002    0.000000000000000E+000
 -2.700000000000000E-002    0.000000000000000E+000
 -2.690000000000000E-002    0.000000000000000E+000
 -2.680000000000000E-002    0.000000000000000E+000
 -2.670000000000000E-002    0.000000000000000E+000
 -2.660000000000000E-002    0.000000000000000E+000
 -2.650000000000000E-002    0.000000000000000E+000
 -2.640000000000000E-002    0.000000000000000E+000
 -2.630000000000000E-002    0.000000000000000E+000
 -2.620000000000000E-002    0.000000000000000E+000
 -2.610000000000000E-002    0.000000000000000E+000
 -2.600000000000000E-002    0.000000000000000E+000
 -2.590000000000000E-002    0.000000000000000E+000
 -2.580000000000000E-002    0.000000000000000E+000
 -2.570000000000000E-002    0.000000000000000E+000
 -2.560000000000000E-002    0.000000000000000E+000
 -2.550000000000000E-002    0.000000000000000E+000
 -2.540000000000000E-002    0.000000000000000E+000
 -2.530000000000000E-002    0.000000000000000E+000
 -2.520000000000000E-002    0.000000000000000E+000
 -2.510000000000000E-002    0.000000000000000E+000
 -2.500000000000000E-002    0.000000000000000E+000
 -2.490000000000000E-002    0.000000000000000E+000
 -2.480000000000000E-002    0.000000000000000E+000
 -2.470000000000000E-002    0.000000000000000E+000
 -2.460000000000000E-002    0.000000000000000E+000
 -2.450000000000000E-002    0.000000000000000E+000
 -2.440000000000000E-002    0.000000000000000E+000
 -2.430000000000000E-002    0.000000000000000E+000
 -2.420000000000000E-002    0.000000000000000E+000
 -2.410000000000000E-002    0.000000000000000E+000
 -2.400000000000000E-002    0.000000000000000E+000
 -2.390000000000000E-002    0.000000000000000E+000
 -2.380000000000000E-002    0.000000000000000E+000
 -2.370000000000000E-002    0.000000000000000E+000
 -2.360000000000000E-002    0.000000000000000E+000
 -2.350000000000000E-002    0.000000000000000E+000
 -2.340000000000000E-002    0.000000000000000E+000
 -2.330000000000000E-002    0.000000000000000E+000
 -2.320000000000000E-002    0.000000000000000E+000
 -2.310000000000000E-002    0.000000000000000E+000
 -2.300000000000000E-002    0.000000000000000E+000
 -2.290000000000000E-002    0.000000000000000E+000
 -2.280000000000000E-002    0.000000000000000E+000
 -2.270000000000000E-002    0.000000000000000E+000
 -2.260000000000000E-002    0.000000000000000E+000
 -2.250000000000000E-002    0.000000000000000E+000
 -2.240000000000000E-002    0.000000000000000E+000
 -2.230000000000000E-002    0.000000000000000E+000
 -2.220000000000000E-002    0.000000000000000E+000
 -2.210000000000000E-002    0.000000000000000E+000
 -2.200000000000000E-002    0.000000000000000E+000
 -2.190000000000000E-002    0.000000000000000E+000
 -2.180000000000000E-002    0.000000000000000E+000
 -2.170000000000000E-002    0.000000000000000E+000
 -2.160000000000000E-002    0.000000000000000E+000
 -2.150000000000000E-002    0.000000000000000E+000
 -2.140000000000000E-002    0.000000000000000E+000
 -2.130000000000000E-002    0.000000000000000E+000
 -2.120000000000000E-002    0.000000000000000E+000
 -2.110000000000000E-002    0.000000000000000E+000
 -2.100000000000000E-002    0.000000000000000E+000
 -2.090000000000000E-002    0.000000000000000E+000
 -2.080000000000000E-002    0.000000000000000E+000
 -2.070000000000000E-002    0.000000000000000E+000
 -2.060000000000000E-002    0.000000000000000E+000
 -2.050000000000000E-002    0.000000000000000E+000
 -2.040000000000000E-002    0.000000000000000E+000
 -2.030000000000000E-002    0.000000000000000E+000
 -2.020000000000000E-002    0.000000000000000E+000
 -2.010000000000000E-002    0.000000000000000E+000
 -2.000000000000000E-002    0.000000000000000E+000
 -1.990000000000000E-002    0.000000000000000E+000
 -1.980000000000000E-002    0.000000000000000E+000
 -1.970000000000000E-002    0.000000000000000E+000
 -1.960000000000000E-002    0.000000000000000E+000
 -1.950000000000000E-002    0.000000000000000E+000
 -1.940000000000000E-002    0.000000000000000E+000
 -1.930000000000000E-002    0.000000000000000E+000
 -1.920000000000000E-002    0.000000000000000E+000
 -1.910000000000000E-002    0.000000000000000E+000
 -1.900000000000000E-002    0.000000000000000E+000
 -1.890000000000000E-002    0.000000000000000E+000
 -1.880000000000000E-002    0.000000000000000E+000
 -1.870000000000000E-002    0.000000000000000E+000
 -1.860000000000000E-002    0.000000000000000E+000
 -1.850000000000000E-002    0.000000000000000E+000
 -1.840000000000000E-002    0.000000000000000E+000
 -1.830000000000000E-002    0.000000000000000E+000
 -1.820000000000000E-002    0.000000000000000E+000
 -1.810000000000000E-002    0.000000000000000E+000
 -1.800000000000000E-002    0.000000000000000E+000
 -1.790000000000000E-002    0.000000000000000E+000
 -1.780000000000000E-002    0.000000000000000E+000
 -1.770000000000000E-002    0.000000000000000E+000
 -1.760000000000000E-002    0.000000000000000E+000
 -1.750000000000000E-002    0.000000000000000E+000
 -1.740000000000000E-002    0.000000000000000E+000
 -1.730000000000000E-002    0.000000000000000E+000
 -1.720000000000000E-002    0.000000000000000E+000
 -1.710000000000000E-002    0.000000000000000E+000
 -1.700000000000000E-002    0.000000000000000E+000
 -1.690000000000000E-002    0.000000000000000E+000
 -1.680000000000000E-002    0.000000000000000E+000
 -1.670000000000000E-002    0.000000000000000E+000
 -1.660000000000000E-002    0.000000000000000E+000
 -1.650000000000000E-002    0.000000000000000E+000
 -1.640000000000000E-002    0.000000000000000E+000
 -1.630000000000000E-002    0.000000000000000E+000
 -1.620000000000000E-002    0.000000000000000E+000
 -1.610000000000000E-002    0.000000000000000E+000
 -1.600000000000000E-002    0.000000000000000E+000
 -1.590000000000000E-002    0.000000000000000E+000
 -1.580000000000000E-002    0.000000000000000E+000
 -1.570000000000000E-002    0.000000000000000E+000
 -1.560000000000000E-002    0.000000000000000E+000
 -1.550000000000000E-002    0.000000000000000E+000
 -1.540000000000000E-002    0.000000000000000E+000
 -1.530000000000000E-002    0.000000000000000E+000
 -1.520000000000000E-002    0.000000000000000E+000
 -1.510000000000000E-002    0.000000000000000E+000
 -1.500000000000000E-002    0.000000000000000E+000
 -1.490000000000000E-002    0.000000000000000E+000
 -1.480000000000000E-002    0.000000000000000E+000
 -1.470000000000000E-002    0.000000000000000E+000
 -1.460000000000000E-002    0.000000000000000E+000
 -1.450000000000000E-002    0.000000000000000E+000
 -1.440000000000000E-002    0.000000000000000E+000
 -1.430000000000000E-002    0.000000000000000E+000
 -1.420000000000000E-002    0.000000000000000E+000
 -1.410000000000000E-002    0.000000000000000E+000
 -1.400000000000000E-002    0.000000000000000E+000
 -1.390000000000000E-002    0.000000000000000E+000
 -1.380000000000000E-002    0.000000000000000E+000
 -1.370000000000000E-002    0.000000000000000E+000
 -1.360000000000000E-002    0.000000000000000E+000
 -1.350000000000000E-002    0.000000000000000E+000
 -1.340000000000000E-002    0.000000000000000E+000
 -1.330000000000000E-002    6.414635304221270E-048
 -1.320000000000000E-002    1.282927060844254E-047
 -1.310000000000000E-002   -2.914641759724954E-047
 -1.300000000000000E-002    8.552847072295026E-049
 -1.290000000000000E-002    8.552847072295026E-049
 -1.280000000000000E-002    3.641633760870032E-047
 -1.270000000000000E-002    9.702299030246370E-048
 -1.260000000000000E-002    1.641110158518948E-047
 -1.250000000000000E-002    3.509389004134563E-047
 -1.240000000000000E-002    4.963373006424717E-047
 -1.230000000000000E-002    6.516232989727113E-047
 -1.220000000000000E-002    6.763422942257716E-047
 -1.210000000000000E-002   -1.240018909892737E-046
 -1.200000000000000E-002   -2.399997489011856E-046
 -1.190000000000000E-002   -6.819945502756484E-046
 -1.180000000000000E-002   -1.141950330501931E-045
 -1.170000000000000E-002   -1.495690119978708E-045
 -1.160000000000000E-002   -1.718691998866333E-045
 -1.150000000000000E-002   -1.493484653729613E-045
 -1.140000000000000E-002   -3.467096077209593E-046
 -1.130000000000000E-002    1.190182561796237E-045
 -1.120000000000000E-002    3.183012612083694E-045
 -1.110000000000000E-002    5.330313945644170E-045
 -1.100000000000000E-002    6.444064120230573E-045
 -1.090000000000000E-002    8.281686706460802E-045
 -1.080000000000000E-002    8.704856316505329E-045
 -1.070000000000000E-002    7.753305585387416E-045
 -1.060000000000000E-002    4.939510453643811E-045
 -1.050000000000000E-002    3.074794224780242E-047
 -1.040000000000000E-002   -7.790806597402278E-045
 -1.030000000000000E-002   -1.786575044495279E-044
 -1.020000000000000E-002   -2.952167057049099E-044
 -1.010000000000000E-002   -3.972128412846708E-044
 -1.000000000000000E-002   -4.469088883765250E-044
 -9.899999999999999E-003   -4.243826020710746E-044
 -9.800000000000000E-003   -2.811090267593007E-044
 -9.699999999999999E-003    7.016177326811685E-046
 -9.599999999999999E-003    4.472346838356887E-044
 -9.500000000000000E-003    1.016287234657660E-043
 -9.399999999999999E-003    1.634958980339087E-043
 -9.299999999999999E-003    2.212010427126740E-043
 -9.200000000000000E-003    2.553981118709449E-043
 -9.099999999999999E-003    2.477847207449250E-043
 -8.999999999999999E-003    1.785965761969698E-043
 -8.900000000000000E-003    3.242501123779267E-044
 -8.799999999999999E-003   -1.977553968076692E-043
 -8.699999999999999E-003   -4.994137935722005E-043
 -8.600000000000000E-003   -8.375956218574488E-043
 -8.499999999999999E-003   -1.152256949428492E-042
 -8.399999999999999E-003   -1.359136934869971E-042
 -8.300000000000000E-003   -1.354244471967498E-042
 -8.199999999999999E-003   -1.032415741529912E-042
 -8.100000000000000E-003   -3.114695031417183E-043
 -8.000000000000000E-003    8.404190350194087E-043
 -7.899999999999999E-003    2.370203343972798E-042
 -7.800000000000000E-003    4.108200398905351E-042
 -7.699999999999999E-003    5.757903922460219E-042
 -7.599999999999999E-003    6.895026598361930E-042
 -7.499999999999999E-003    7.008780304386812E-042
 -7.399999999999999E-003    5.578363086501763E-042
 -7.299999999999999E-003    2.185620736276193E-042
 -7.199999999999999E-003   -3.336637595415520E-042
 -7.100000000000000E-003   -1.074522860231725E-041
 -6.999999999999999E-003   -1.925172533238107E-041
 -6.899999999999999E-003   -2.743920375599192E-041
 -6.800000000000000E-003   -3.329496384177615E-041
 -6.699999999999999E-003   -3.439158134296798E-041
 -6.599999999999999E-003   -2.824614577366172E-041
 -6.499999999999999E-003   -1.286364503192069E-041
 -6.399999999999999E-003    1.258352462152040E-041
 -6.299999999999999E-003    4.702395994682118E-041
 -6.199999999999999E-003    8.685601369343820E-041
 -6.100000000000000E-003    1.255982448757036E-040
 -5.999999999999999E-003    1.540442793303824E-040
 -5.899999999999999E-003    1.610982026805156E-040
 -5.800000000000000E-003    1.354262218799810E-040
 -5.699999999999999E-003    6.790706438342108E-041
 -5.599999999999999E-003   -4.531203901042215E-041
 -5.499999999999999E-003   -1.995748939136070E-040
 -5.399999999999999E-003   -3.789466671659867E-040
 -5.299999999999999E-003   -5.547473990132622E-040
 -5.199999999999999E-003   -6.862953483871379E-040
 -5.099999999999999E-003   -7.246903448447965E-040
 -4.999999999999999E-003   -6.200985919342033E-040
 -4.899999999999999E-003   -3.324676268556661E-040
 -4.799999999999999E-003    1.552483046065611E-040
 -4.699999999999999E-003    8.232138774789888E-040
 -4.599999999999999E-003    1.603019560538840E-039
 -4.499999999999999E-003    2.371720391953864E-039
 -4.399999999999999E-003    2.955425304105110E-039
 -4.299999999999999E-003    3.145750274489879E-039
 -4.199999999999999E-003    2.731003648889023E-039
 -4.099999999999999E-003    1.541471197105004E-039
 -3.999999999999999E-003   -4.952334233166556E-040
 -3.899999999999999E-003   -3.296724049123191E-039
 -3.799999999999999E-003   -6.578137844332719E-039
 -3.699999999999999E-003   -9.828825445976910E-039
 -3.599999999999999E-003   -1.232884608583759E-038
 -3.499999999999999E-003   -1.321831809694570E-038
 -3.399999999999999E-003   -1.162650400159571E-038
 -3.299999999999999E-003   -6.857147409486038E-039
 -3.199999999999999E-003    1.387222411050697E-039
 -3.099999999999999E-003    1.277496976723969E-038
 -2.999999999999999E-003    2.615693636157556E-038
 -2.899999999999999E-003    3.947823061144622E-038
 -2.799999999999999E-003    4.985062553153992E-038
 -2.699999999999999E-003    5.383521329058680E-038
 -2.599999999999999E-003    4.795974857733851E-038
 -2.499999999999999E-003    2.945322649368462E-038
 -2.399999999999999E-003   -2.873272914592465E-039
 -2.299999999999999E-003   -4.773141748504519E-038
 -2.199999999999999E-003   -1.006337044774185E-037
 -2.099999999999999E-003   -1.535698112355467E-037
 -1.999999999999999E-003   -1.953101912075046E-037
 -1.899999999999999E-003   -2.125202812166076E-037
 -1.799999999999999E-003   -1.917678268400763E-037
 -1.699999999999999E-003   -1.223451641275069E-037
 -1.599999999999999E-003    3.776113646974049E-040
 -1.499999999999999E-003    1.715770045457168E-037
 -1.399999999999999E-003    3.742909629423252E-037
 -1.299999999999999E-003    5.782651922927324E-037
 -1.199999999999999E-003    7.411725231529695E-037
 -1.099999999999999E-003    8.128628122043129E-037
 -9.999999999999989E-004    7.429113212502159E-037
 -8.999999999999990E-004    4.911317028698081E-037
 -7.999999999999990E-004    3.996246275534723E-038
 -6.999999999999989E-004   -5.931766263131276E-037
 -5.999999999999990E-004   -1.346180855825695E-036
 -4.999999999999989E-004   -2.108263484411199E-036
 -3.999999999999989E-004   -2.724661475902203E-036
 -2.999999999999989E-004   -3.012340268946261E-036
 -1.999999999999989E-004   -2.787521541108891E-036
 -9.999999999999892E-005   -1.903692998128585E-036
  1.084202172485504E-018   -2.960331394606716E-037
  1.000000000000011E-004    1.974643436450161E-036
  2.000000000000011E-004    4.687799351096961E-036
  3.000000000000011E-004    7.449692950631208E-036
  4.000000000000011E-004    9.710908084062316E-036
  5.000000000000011E-004    1.082262184220497E-035
  6.000000000000011E-004    1.013409451921230E-035
  7.000000000000011E-004    7.126152562252731E-036
  8.000000000000011E-004    1.566076920117884E-036
  9.000000000000012E-004   -6.340444846137958E-036
  1.000000000000001E-003   -1.583278665189940E-035
  1.100000000000001E-003   -2.555114950345705E-035
  1.200000000000001E-003   -3.359963340795753E-035
  1.300000000000001E-003   -3.774204735570371E-035
  1.400000000000001E-003   -3.573746395174992E-035
  1.500000000000001E-003   -2.579620119578186E-035
  1.600000000000001E-003   -7.105130113148971E-036
  1.700000000000001E-003    1.966076551567249E-035
  1.800000000000001E-003    5.195045449386100E-035
  1.900000000000001E-003    8.519522257393471E-035
  2.000000000000001E-003    1.130284367713170E-034
  2.100000000000001E-003    1.279479976571574E-034
  2.200000000000001E-003    1.224401400127789E-034
  2.300000000000001E-003    9.049560911841136E-035
  2.400000000000001E-003    2.934538332181364E-035
  2.500000000000001E-003   -5.886131805129445E-035
  2.600000000000001E-003   -1.657973495513069E-034
  2.700000000000001E-003   -2.765142745757421E-034
  2.800000000000001E-003   -3.701845199954933E-034
  2.900000000000001E-003   -4.222815823447025E-034
  3.000000000000001E-003   -4.082453594764078E-034
  3.100000000000001E-003   -3.083956574015777E-034
  3.200000000000001E-003   -1.135228917912617E-034
  3.300000000000001E-003    1.697417930585237E-034
  3.400000000000001E-003    5.149305878557117E-034
  3.500000000000001E-003    8.743799751574273E-034
  3.600000000000001E-003    1.181658280008048E-033
  3.700000000000001E-003    1.358551006169040E-033
  3.800000000000001E-003    1.326712739434075E-033
  3.900000000000001E-003    1.023193252672204E-033
  4.000000000000001E-003    4.180118167097068E-034
  4.100000000000001E-003   -4.690570770906349E-034
  4.200000000000001E-003   -1.556091078531941E-033
  4.300000000000001E-003   -2.694917801243040E-033
  4.400000000000001E-003   -3.678815855271459E-033
  4.500000000000001E-003   -4.264305838930713E-033
  4.600000000000002E-003   -4.207266209007119E-033
  4.700000000000001E-003   -3.310812742883970E-033
  4.800000000000001E-003   -1.479249067633631E-033
  4.900000000000002E-003    1.230654428722337E-033
  5.000000000000001E-003    4.572023564031855E-033
  5.100000000000001E-003    8.095663224281612E-033
  5.200000000000001E-003    1.117372438864619E-032
  5.300000000000002E-003    1.306594265675762E-032
  5.400000000000001E-003    1.302881136189909E-032
  5.500000000000001E-003    1.045975815013571E-032
  5.600000000000002E-003    5.058956831004149E-033
  5.700000000000001E-003   -3.017427159141806E-033
  5.800000000000001E-003   -1.304525737584011E-032
  5.900000000000002E-003   -2.369641645312149E-032
  6.000000000000001E-003   -3.310931553762751E-032
  6.100000000000001E-003   -3.908500867420369E-032
  6.200000000000002E-003   -3.940934288462549E-032
  6.300000000000002E-003   -3.227690957230068E-032
  6.400000000000001E-003   -1.676553350172322E-032
  6.500000000000001E-003    6.715630441171565E-033
  6.600000000000002E-003    3.609940826856048E-032
  6.700000000000001E-003    6.755548873464296E-032
  6.800000000000001E-003    9.569413825283230E-032
  6.900000000000002E-003    1.141322656031180E-031
  7.000000000000001E-003    1.164212460352937E-031
  7.100000000000001E-003    9.726517837494329E-032
  7.200000000000002E-003    5.388148361015778E-032
  7.300000000000002E-003   -1.271645143172796E-032
  7.400000000000001E-003   -9.678464979173858E-032
  7.500000000000001E-003   -1.875447025308937E-031
  7.600000000000002E-003   -2.697548288145949E-031
  7.700000000000001E-003   -3.253036373875176E-031
  7.800000000000001E-003   -3.358197861238391E-031
  7.900000000000001E-003   -2.860948914760984E-031
  8.000000000000002E-003   -1.679002381905204E-031
  8.100000000000001E-003    1.641776167967397E-032
  8.200000000000001E-003    2.513148447335528E-031
  8.300000000000002E-003    5.071802350018872E-031
  8.400000000000001E-003    7.418922066082555E-031
  8.500000000000002E-003    9.051968110545395E-031
  8.600000000000002E-003    9.458833457665858E-031
  8.700000000000001E-003    8.211905467108914E-031
  8.800000000000002E-003    5.072881381410151E-031
  8.900000000000002E-003    9.150803029686490E-033
  9.000000000000001E-003   -6.322197721035171E-031
  9.100000000000002E-003   -1.337343010543706E-030
  9.200000000000002E-003   -1.992377142328467E-030
  9.300000000000001E-003   -2.460872182617638E-030
  9.400000000000002E-003   -2.603067832746538E-030
  9.500000000000001E-003   -2.301193478391976E-030
  9.600000000000001E-003   -1.487668098140536E-030
  9.700000000000002E-003   -1.716838760050943E-031
  9.800000000000001E-003    1.541273591206804E-030
  9.900000000000001E-003    3.442584750936730E-030
  1.000000000000000E-002    5.231100216628042E-030
  1.010000000000000E-002    6.543973079875011E-030
  1.020000000000000E-002    7.007456820211740E-030
  1.030000000000000E-002    6.303574865146898E-030
  1.040000000000000E-002    4.244482720382771E-030
  1.050000000000000E-002    8.426981958376871E-031
  1.060000000000000E-002   -3.637051942297127E-030
  1.070000000000000E-002   -8.658990169982835E-030
  1.080000000000000E-002   -1.344281974228055E-029
  1.090000000000000E-002   -1.704280953742536E-029
  1.100000000000000E-002   -1.847874578750404E-029
  1.110000000000000E-002   -1.690811138881502E-029
  1.120000000000000E-002   -1.181847593313817E-029
  1.130000000000000E-002   -3.209652662536931E-030
  1.140000000000000E-002    8.270867695900456E-030
  1.150000000000000E-002    2.127661219093114E-029
  1.160000000000000E-002    3.382647352692024E-029
  1.170000000000000E-002    4.350310072641378E-029
  1.180000000000000E-002    4.778347747099429E-029
  1.190000000000000E-002    4.447504885493580E-029
  1.200000000000000E-002    3.220416986661913E-029
  1.210000000000000E-002    1.088028358055546E-029
  1.220000000000000E-002   -1.795590266235479E-029
  1.230000000000000E-002   -5.099423978940270E-029
  1.240000000000000E-002   -8.330613692498559E-029
  1.250000000000000E-002   -1.088308210765597E-028
  1.260000000000000E-002   -1.211930913987419E-028
  1.270000000000000E-002   -1.147865564306930E-028
  1.280000000000000E-002   -8.599104012150212E-029
  1.290000000000000E-002   -3.433512089313330E-029
  1.300000000000000E-002    3.662285704390050E-029
  1.310000000000000E-002    1.189270339958100E-028
  1.320000000000000E-002    2.005653760035692E-028
  1.330000000000000E-002    2.666345918005659E-028
  1.340000000000000E-002    3.013213087988114E-028
  1.350000000000000E-002    2.905412597196712E-028
  1.360000000000000E-002    2.249185536059652E-028
  1.370000000000000E-002    1.026470666244303E-028
  1.380000000000000E-002   -6.831511691867336E-029
  1.390000000000000E-002   -2.692805733775770E-028
  1.400000000000000E-002   -4.715722886590102E-028
  1.410000000000000E-002   -6.392508925371716E-028
  1.420000000000000E-002   -7.338176130933050E-028
  1.430000000000000E-002   -7.205223667562752E-028
  1.440000000000000E-002   -5.755228733505282E-028
  1.450000000000000E-002   -2.928078887817478E-028
  1.460000000000000E-002    1.104242184035021E-028
  1.470000000000000E-002    5.912710899460571E-028
  1.480000000000000E-002    1.082657046568003E-027
  1.490000000000000E-002    1.499569848437515E-027
  1.500000000000000E-002    1.750006638836821E-027
  1.510000000000000E-002    1.749769230826625E-027
  1.520000000000000E-002    1.439364841154321E-027
  1.530000000000000E-002    8.004738023916565E-028
  1.540000000000000E-002   -1.310758924534077E-028
  1.550000000000000E-002   -1.258970764364345E-027
  1.560000000000000E-002   -2.429397004544009E-027
  1.570000000000000E-002   -3.444995615290335E-027
  1.580000000000000E-002   -4.089832985715367E-027
  1.590000000000000E-002   -4.163484676060107E-027
  1.600000000000000E-002   -3.520251072202676E-027
  1.610000000000000E-002   -2.107687424019298E-027
  1.620000000000000E-002    2.583075415686266E-030
  1.630000000000000E-002    2.599031965783894E-027
  1.640000000000000E-002    5.335618689133777E-027
  1.650000000000000E-002    7.762292114670186E-027
  1.660000000000000E-002    9.380898068362091E-027
  1.670000000000000E-002    9.722325358917100E-027
  1.680000000000000E-002    8.435989622622396E-027
  1.690000000000000E-002    5.378584525465689E-027
  1.700000000000000E-002    6.861664320685354E-028
  1.710000000000000E-002   -5.186906147703720E-027
  1.720000000000000E-002   -1.147652810840609E-026
  1.730000000000000E-002   -1.717397198683012E-026
  1.740000000000000E-002   -2.114872705594688E-026
  1.750000000000000E-002   -2.232009733500250E-026
  1.760000000000000E-002   -1.985815356234067E-026
  1.770000000000000E-002   -1.338504136577070E-026
  1.780000000000000E-002   -3.141279640732441E-027
  1.790000000000000E-002    9.919974839175477E-027
  1.800000000000000E-002    2.414307806846481E-026
  1.810000000000000E-002    3.730550421701081E-026
  1.820000000000000E-002    4.688251232615090E-026
  1.830000000000000E-002    5.042234331309001E-026
  1.840000000000000E-002    4.599038356233904E-026
  1.850000000000000E-002    3.261903645672978E-026
  1.860000000000000E-002    1.068596463896075E-026
  1.870000000000000E-002   -1.786103144773770E-026