 -4.000000000000000E-002    0.000000000000000E+000
 -3.990000000000000E-002    0.000000000000000E+000
 -3.980000000000000E-002    0.000000000000000E+000
 -3.970000000000000E-002    0.000000000000000E+000
 -3.960000000000000E-002    0.000000000000000E+000
 -3.950000000000000E-002    0.000000000000000E+000
 -3.940000000000000E-002    0.000000000000000E+000
 -3.930000000000000E-002    0.000000000000000E+000
 -3.920000000000000E-002    0.000000000000000E+000
 -3.910000000000000E-002    0.000000000000000E+000
 -3.900000000000000E-002    0.000000000000000E+000
 -3.890000000000000E-002    0.000000000000000E+000
 -3.880000000000000E-002    0.000000000000000E+000
 -3.870000000000000E-002    0.000000000000000E+000
 -3.860000000000000E-002    0.000000000000000E+000
 -3.850000000000000E-002    0.000000000000000E+000
 -3.840000000000000E-002    0.000000000000000E+000
 -3.830000000000000E-002    0.000000000000000E+000
 -3.820000000000000E-002    0.000000000000000E+000
 -3.810000000000000E-002    0.000000000000000E+000
 -3.800000000000000E-002    0.000000000000000E+000
 -3.790000000000000E-002    0.000000000000000E+000
 -3.780000000000000E-002    0.000000000000000E+000
 -3.770000000000000E-002    0.000000000000000E+000
 -3.760000000000000E-002    0.000000000000000E+000
 -3.750000000000000E-002    0.000000000000000E+000
 -3.740000000000000E-002    0.000000000000000E+000
 -3.730000000000000E-002    0.000000000000000E+000
 -3.720000000000000E-002    0.000000000000000E+000
 -3.710000000000000E-002    0.000000000000000E+000
 -3.700000000000000E-002    0.000000000000000E+000
 -3.690000000000000E-002    0.000000000000000E+000
 -3.680000000000000E-002    0.000000000000000E+000
 -3.670000000000000E-002    0.000000000000000E+000
 -3.660000000000000E-002    0.000000000000000E+000
 -3.650000000000000E-002    0.000000000000000E+000
 -3.640000000000000E-002    0.000000000000000E+000
 -3.630000000000000E-002    0.000000000000000E+000
 -3.620000000000000E-002    0.000000000000000E+000
 -3.610000000000000E-002    0.000000000000000E+000
 -3.600000000000000E-002    0.000000000000000E+000
 -3.590000000000000E-002    0.000000000000000E+000
 -3.580000000000000E-002    0.000000000000000E+000
 -3.570000000000000E-002    0.000000000000000E+000
 -3.560000000000000E-002    0.000000000000000E+000
 -3.550000000000000E-002    0.000000000000000E+000
 -3.540000000000000E-002    0.000000000000000E+000
 -3.530000000000000E-002    0.000000000000000E+000
 -3.520000000000000E-002    0.000000000000000E+000
 -3.510000000000000E-002    0.000000000000000E+000
 -3.500000000000000E-002    0.000000000000000E+000
 -3.490000000000000E-002    0.000000000000000E+000
 -3.480000000000000E-002    0.000000000000000E+000
 -3.470000000000000E-002    0.000000000000000E+000
 -3.460000000000000E-002    0.000000000000000E+000
 -3.450000000000000E-002    0.000000000000000E+000
 -3.440000000000000E-002    0.000000000000000E+000
 -3.430000000000000E-002    0.000000000000000E+000
 -3.420000000000000E-002    0.000000000000000E+000
 -3.410000000000000E-002    0.000000000000000E+000
 -3.400000000000000E-002    0.000000000000000E+000
 -3.390000000000000E-002    0.000000000000000E+000
 -3.380000000000000E-002    0.000000000000000E+000
 -3.370000000000000E-002    0.000000000000000E+000
 -3.360000000000000E-002    0.000000000000000E+000
 -3.350000000000000E-002    0.000000000000000E+000
 -3.340000000000000E-002    0.000000000000000E+000
 -3.330000000000000E-002    0.000000000000000E+000
 -3.320000000000000E-002    0.000000000000000E+000
 -3.310000000000000E-002    0.000000000000000E+000
 -3.300000000000000E-002    0.000000000000000E+000
 -3.290000000000000E-002    0.000000000000000E+000
 -3.280000000000000E-002    0.000000000000000E+000
 -3.270000000000000E-002    0.000000000000000E+000
 -3.260000000000000E-002    0.000000000000000E+000
 -3.250000000000000E-002    0.000000000000000E+000
 -3.240000000000000E-002    0.000000000000000E+000
 -3.230000000000000E-002    0.000000000000000E+000
 -3.220000000000000E-002    0.000000000000000E+000
 -3.210000000000000E-002    0.000000000000000E+000
 -3.200000000000000E-002    0.000000000000000E+000
 -3.190000000000000E-002    0.000000000000000E+000
 -3.180000000000000E-002    0.000000000000000E+000
 -3.170000000000000E-002    0.000000000000000E+000
 -3.160000000000000E-002    0.000000000000000E+000
 -3.150000000000000E-002    0.000000000000000E+000
 -3.140000000000000E-002    0.000000000000000E+000
 -3.130000000000000E-002    0.000000000000000E+000
 -3.120000000000000E-002    0.000000000000000E+000
 -3.110000000000000E-002    0.000000000000000E+000
 -3.100000000000000E-002    0.000000000000000E+000
 -3.090000000000000E-002    0.000000000000000E+000
 -3.080000000000000E-002    0.000000000000000E+000
 -3.070000000000000E-002    0.000000000000000E+000
 -3.060000000000000E-002    0.000000000000000E+000
 -3.050000000000000E-002    0.000000000000000E+000
 -3.040000000000000E-002    0.000000000000000E+000
 -3.030000000000000E-002    0.000000000000000E+000
 -3.020000000000000E-002    0.000000000000000E+000
 -3.010000000000000E-002    0.000000000000000E+000
 -3.000000000000000E-002    0.000000000000000E+000
 -2.990000000000000E-002    0.000000000000000E+000
 -2.980000000000000E-002    0.000000000000000E+000
 -2.970000000000000E-002    0.000000000000000E+000
 -2.960000000000000E-002    0.000000000000000E+000
 -2.950000000000000E-002    0.000000000000000E+000
 -2.940000000000000E-002    0.000000000000000E+000
 -2.930000000000000E-002    0.000000000000000E+000
 -2.920000000000000E-002    0.000000000000000E+000
 -2.910000000000000E-002    0.000000000000000E+000
 -2.900000000000000E-002    0.000000000000000E+000
 -2.890000000000000E-002    0.000000000000000E+000
 -2.880000000000000E-002    0.000000000000000E+000
 -2.870000000000000E-002    0.000000000000000E+000
 -2.860000000000000E-002    0.000000000000000E+000
 -2.850000000000000E-002    0.000000000000000E+000
 -2.840000000000000E-002    0.000000000000000E+000
 -2.830000000000000E-002    0.000000000000000E+000
 -2.820000000000000E-002    0.000000000000000E+000
 -2.810000000000000E-002    0.000000000000000E+000
 -2.800000000000000E-002    0.000000000000000E+000
 -2.790000000000000E-002    0.000000000000000E+000
 -2.780000000000000E-002    0.000000000000000E+000
 -2.770000000000000E-002    0.000000000000000E+000
 -2.760000000000000E-002    0.000000000000000E+000
 -2.750000000000000E-002    0.000000000000000E+000
 -2.740000000000000E-002    0.000000000000000E+000
 -2.730000000000000E-002    0.000000000000000E+000
 -2.720000000000000E-002    0.000000000000000E+000
 -2.710000000000000E-002    0.000000000000000E+000
 -2.700000000000000E-002    0.000000000000000E+000
 -2.690000000000000E-002    0.000000000000000E+000
 -2.680000000000000E-002    0.000000000000000E+000
 -2.670000000000000E-002    0.000000000000000E+000
 -2.660000000000000E-002    0.000000000000000E+000
 -2.650000000000000E-002    0.000000000000000E+000
 -2.640000000000000E-002    0.000000000000000E+000
 -2.630000000000000E-002    0.000000000000000E+000
 -2.620000000000000E-002    0.000000000000000E+000
 -2.610000000000000E-002    0.000000000000000E+000
 -2.600000000000000E-002    0.000000000000000E+000
 -2.590000000000000E-002    0.000000000000000E+000
 -2.580000000000000E-002    0.000000000000000E+000
 -2.570000000000000E-002    0.000000000000000E+000
 -2.560000000000000E-002    0.000000000000000E+000
 -2.550000000000000E-002    0.000000000000000E+000
 -2.540000000000000E-002    0.000000000000000E+000
 -2.530000000000000E-002    0.000000000000000E+000
 -2.520000000000000E-002    0.000000000000000E+000
 -2.510000000000000E-002    0.000000000000000E+000
 -2.500000000000000E-002    0.000000000000000E+000
 -2.490000000000000E-002    0.000000000000000E+000
 -2.480000000000000E-002    0.000000000000000E+000
 -2.470000000000000E-002    0.000000000000000E+000
 -2.460000000000000E-002    0.000000000000000E+000
 -2.450000000000000E-002    0.000000000000000E+000
 -2.440000000000000E-002    0.000000000000000E+000
 -2.430000000000000E-002    0.000000000000000E+000
 -2.420000000000000E-002    0.000000000000000E+000
 -2.410000000000000E-002    0.000000000000000E+000
 -2.400000000000000E-002    0.000000000000000E+000
 -2.390000000000000E-002    0.000000000000000E+000
 -2.380000000000000E-002    0.000000000000000E+000
 -2.370000000000000E-002    0.000000000000000E+000
 -2.360000000000000E-002    0.000000000000000E+000
 -2.350000000000000E-002    0.000000000000000E+000
 -2.340000000000000E-002    0.000000000000000E+000
 -2.330000000000000E-002    0.000000000000000E+000
 -2.320000000000000E-002    0.000000000000000E+000
 -2.310000000000000E-002    0.000000000000000E+000
 -2.300000000000000E-002    0.000000000000000E+000
 -2.290000000000000E-002    0.000000000000000E+000
 -2.280000000000000E-002    0.000000000000000E+000
 -2.270000000000000E-002    0.000000000000000E+000
 -2.260000000000000E-002    0.000000000000000E+000
 -2.250000000000000E-002    0.000000000000000E+000
 -2.240000000000000E-002    0.000000000000000E+000
 -2.230000000000000E-002    0.000000000000000E+000
 -2.220000000000000E-002    0.000000000000000E+000
 -2.210000000000000E-002    0.000000000000000E+000
 -2.200000000000000E-002    0.000000000000000E+000
 -2.190000000000000E-002    0.000000000000000E+000
 -2.180000000000000E-002    0.000000000000000E+000
 -2.170000000000000E-002    0.000000000000000E+000
 -2.160000000000000E-002    0.000000000000000E+000
 -2.150000000000000E-002    0.000000000000000E+000
 -2.140000000000000E-002    0.000000000000000E+000
 -2.130000000000000E-002    0.000000000000000E+000
 -2.120000000000000E-002    0.000000000000000E+000
 -2.110000000000000E-002    0.000000000000000E+000
 -2.100000000000000E-002    0.000000000000000E+000
 -2.090000000000000E-002    0.000000000000000E+000
 -2.080000000000000E-002    0.000000000000000E+000
 -2.070000000000000E-002    0.000000000000000E+000
 -2.060000000000000E-002    0.000000000000000E+000
 -2.050000000000000E-002    0.000000000000000E+000
 -2.040000000000000E-002    0.000000000000000E+000
 -2.030000000000000E-002    0.000000000000000E+000
 -2.020000000000000E-002    0.000000000000000E+000
 -2.010000000000000E-002    0.000000000000000E+000
 -2.000000000000000E-002    0.000000000000000E+000
 -1.990000000000000E-002    0.000000000000000E+000
 -1.980000000000000E-002    0.000000000000000E+000
 -1.970000000000000E-002    0.000000000000000E+000
 -1.960000000000000E-002    0.000000000000000E+000
 -1.950000000000000E-002    0.000000000000000E+000
 -1.940000000000000E-002   -6.414635304221270E-048
 -1.930000000000000E-002   -1.282927060844254E-047
 -1.920000000000000E-002   -1.924390591266381E-047
 -1.910000000000000E-002   -1.924390591266381E-047
 -1.900000000000000E-002   -6.414635304221270E-048
 -1.890000000000000E-002   -3.556105290147081E-047
 -1.880000000000000E-002   -2.615292112194628E-047
 -1.870000000000000E-002   -1.033015403820049E-047
 -1.860000000000000E-002   -1.289600815988899E-047
 -1.850000000000000E-002   -3.487876380364465E-048
 -1.840000000000000E-002    5.546003086702476E-047
 -1.830000000000000E-002    2.356581487918814E-046
 -1.820000000000000E-002    3.180057358711209E-046
 -1.810000000000000E-002    3.625873207293693E-046
 -1.800000000000000E-002    6.026409816960696E-046
 -1.790000000000000E-002    6.751923202434628E-046
 -1.780000000000000E-002    5.253568094252535E-046
 -1.770000000000000E-002    1.732064228163990E-046
 -1.760000000000000E-002   -9.780724764276778E-046
 -1.750000000000000E-002   -1.095613346458850E-045
 -1.740000000000000E-002   -2.589117830061672E-045
 -1.730000000000000E-002   -4.241639053682093E-045
 -1.720000000000000E-002   -5.749402045732591E-045
 -1.710000000000000E-002   -6.117284620519497E-045
 -1.700000000000000E-002   -5.904837740721474E-045
 -1.690000000000000E-002   -3.233510730257650E-045
 -1.680000000000000E-002    9.358098427009637E-046
 -1.670000000000000E-002    7.572573241261715E-045
 -1.660000000000000E-002    1.674164711623636E-044
 -1.650000000000000E-002    2.738952988440686E-044
 -1.640000000000000E-002    3.789464375263359E-044
 -1.630000000000000E-002    4.538379184619659E-044
 -1.620000000000000E-002    4.503009010358755E-044
 -1.610000000000000E-002    3.273304932103166E-044
 -1.600000000000000E-002    2.670905564040828E-045
 -1.590000000000000E-002   -4.593361990292883E-044
 -1.580000000000000E-002   -1.131633249045577E-043
 -1.570000000000000E-002   -1.927048818203835E-043
 -1.560000000000000E-002   -2.718512154509005E-043
 -1.550000000000000E-002   -3.294083171846126E-043
 -1.540000000000000E-002   -3.369774211971387E-043
 -1.530000000000000E-002   -2.636033366567812E-043
 -1.520000000000000E-002   -7.733635539765145E-044
 -1.510000000000000E-002    2.415865756962690E-043
 -1.500000000000000E-002    6.920000193636731E-043
 -1.490000000000000E-002    1.237240676505436E-042
 -1.480000000000000E-002    1.795637155220352E-042
 -1.470000000000000E-002    2.232002977960016E-042
 -1.460000000000000E-002    2.364378393358589E-042
 -1.450000000000000E-002    1.979663927267265E-042
 -1.440000000000000E-002    8.742700826758190E-043
 -1.430000000000000E-002   -1.095418375986074E-042
 -1.420000000000000E-002   -3.936413227303945E-042
 -1.410000000000000E-002   -7.439500351292497E-042
 -1.400000000000000E-002   -1.111145082088110E-041
 -1.390000000000000E-002   -1.413546056057263E-041
 -1.380000000000000E-002   -1.539315725862922E-041
 -1.370000000000000E-002   -1.357642792909141E-041
 -1.360000000000000E-002   -7.401300433138189E-042
 -1.350000000000000E-002    4.054788250586307E-042
 -1.340000000000000E-002    2.092133623791359E-041
 -1.330000000000000E-002    4.207500663046947E-041
 -1.320000000000000E-002    6.471856017792641E-041
 -1.310000000000000E-002    8.415782441403395E-041
 -1.300000000000000E-002    9.392027153401568E-041
 -1.290000000000000E-002    8.637846177954544E-041
 -1.280000000000000E-002    5.397881193726937E-041
 -1.270000000000000E-002   -8.873513973138560E-042
 -1.260000000000000E-002   -1.034143936644258E-040
 -1.250000000000000E-002   -2.239096821827883E-040
 -1.240000000000000E-002   -3.553529115132470E-040
 -1.230000000000000E-002   -4.722001230084522E-040
 -1.220000000000000E-002   -5.389873861005557E-040
 -1.210000000000000E-002   -5.136527517671827E-040
 -1.200000000000000E-002   -3.541659327119651E-040
 -1.190000000000000E-002   -2.856247623546808E-041
 -1.180000000000000E-002    4.722923978688215E-040
 -1.170000000000000E-002    1.120866367566290E-039
 -1.160000000000000E-002    1.840810398719901E-039
 -1.150000000000000E-002    2.500260501453944E-039
 -1.140000000000000E-002    2.914896771354778E-039
 -1.130000000000000E-002    2.864918077995977E-039
 -1.120000000000000E-002    2.128832299761786E-039
 -1.110000000000000E-002    5.343884539593048E-040
 -1.100000000000000E-002   -1.976879141363153E-039
 -1.090000000000000E-002   -5.280032313942453E-039
 -1.080000000000000E-002   -9.005855315821786E-039
 -1.070000000000000E-002   -1.250723851290086E-038
 -1.060000000000000E-002   -1.487383904016407E-038
 -1.050000000000000E-002   -1.501486106474482E-038
 -1.040000000000000E-002   -1.182333812648976E-038
 -1.030000000000000E-002   -4.422653294051641E-039
 -1.020000000000000E-002    7.522698225210889E-039
 -1.010000000000000E-002    2.347353494783264E-038
 -1.000000000000000E-002    4.172587890855871E-038
 -9.899999999999999E-003    5.925134997728419E-038
 -9.800000000000000E-003    7.176577599599848E-038
 -9.699999999999999E-003    7.411612720222006E-038
 -9.599999999999999E-003    6.104470434878410E-038
 -9.500000000000000E-003    2.832959968808377E-038
 -9.399999999999999E-003   -2.578585792270720E-038
 -9.299999999999999E-003   -9.906801471140632E-038
 -9.200000000000000E-003   -1.839752261114859E-037
 -9.099999999999999E-003   -2.669401190017916E-037
 -8.999999999999999E-003   -3.286849167070614E-037
 -8.900000000000000E-003   -3.459625296546923E-037
 -8.799999999999999E-003   -2.949683293898703E-037
 -8.699999999999999E-003   -1.563983688929915E-037
 -8.600000000000000E-003    7.825173542558031E-038
 -8.499999999999999E-003    4.000133114051501E-037
 -8.399999999999999E-003    7.767257823215104E-037
 -8.300000000000000E-003    1.149970803480226E-036
 -8.199999999999999E-003    1.436500374099399E-036
 -8.100000000000000E-003    1.535794817880231E-036
 -8.000000000000000E-003    1.344723867592893E-036
 -7.899999999999999E-003    7.791193683703119E-037
 -7.800000000000000E-003   -1.995605657041790E-037
 -7.699999999999999E-003   -1.556194796053564E-036
 -7.599999999999999E-003   -3.158207007159347E-036
 -7.499999999999999E-003   -4.763067819707554E-036
 -7.399999999999999E-003   -6.024629075852027E-036
 -7.299999999999999E-003   -6.524828225057840E-036
 -7.199999999999999E-003   -5.834447272678708E-036
 -7.100000000000000E-003   -3.601761159571654E-036
 -6.999999999999999E-003    3.387266299569130E-037
 -6.899999999999999E-003    5.852882369363831E-036
 -6.800000000000000E-003    1.241171067703561E-035
 -6.699999999999999E-003    1.904252588518553E-035
 -6.599999999999999E-003    2.435618415018544E-035
 -6.499999999999999E-003    2.667557670499798E-035
 -6.399999999999999E-003    2.427876196615658E-035
 -6.299999999999999E-003    1.575054726745905E-035
 -6.199999999999999E-003    4.104591293531121E-037
 -6.100000000000000E-003   -2.124463379749787E-035
 -5.999999999999999E-003   -4.717270954631771E-035
 -5.899999999999999E-003   -7.360268872460987E-035
 -5.800000000000000E-003   -9.514714952298194E-035
 -5.699999999999999E-003   -1.053052304825161E-034
 -5.599999999999999E-003   -9.740233100289569E-035
 -5.499999999999999E-003   -6.593749662964911E-035
 -5.399999999999999E-003   -8.210969857558521E-036
 -5.299999999999999E-003    7.400576476622700E-035
 -5.199999999999999E-003    1.730961211951914E-034
 -5.099999999999999E-003    2.749281139865581E-034
 -4.999999999999999E-003    3.593013468173398E-034
 -4.899999999999999E-003    4.018472527693521E-034
 -4.799999999999999E-003    3.775384402059064E-034
 -4.699999999999999E-003    2.656804795438096E-034
 -4.599999999999999E-003    5.589844407518269E-035
 -4.499999999999999E-003   -2.457655963575544E-034
 -4.399999999999999E-003   -6.118839714425127E-034
 -4.299999999999999E-003   -9.912724070784840E-034
 -4.199999999999999E-003   -1.310688634808323E-033
 -4.099999999999999E-003   -1.481765404806701E-033
 -3.999999999999999E-003   -1.413681823885516E-033
 -3.899999999999999E-003   -1.031051158745262E-033
 -3.799999999999999E-003   -2.952339574778712E-034
 -3.699999999999999E-003    7.741048579147749E-034
 -3.599999999999999E-003    2.081581635777143E-033
 -3.499999999999999E-003    3.447951723238310E-033
 -3.399999999999999E-003    4.616306536569829E-033
 -3.299999999999999E-003    5.276527397878027E-033
 -3.199999999999999E-003    5.109551284564320E-033
 -3.099999999999999E-003    3.849443363562792E-033
 -2.999999999999999E-003    1.356886193255085E-033
 -2.899999999999999E-003   -2.306962971342482E-033
 -2.799999999999999E-003   -6.821292900529423E-033
 -2.699999999999999E-003   -1.157849096658778E-032
 -2.599999999999999E-003   -1.570593393861452E-032
 -2.499999999999999E-003   -1.814949250008846E-032
 -2.399999999999999E-003   -1.782335103798282E-032
 -2.299999999999999E-003   -1.381880346144889E-032
 -2.199999999999999E-003   -5.649959151966279E-033
 -2.099999999999999E-003    6.500825068149672E-033
 -1.999999999999999E-003    2.158778081622379E-032
 -1.899999999999999E-003    3.761382598420245E-032
 -1.799999999999999E-003    5.170467922382875E-032
 -1.699999999999999E-003    6.038534155757384E-032
 -1.599999999999999E-003    6.007224171332718E-032
 -1.499999999999999E-003    4.775476613854188E-032
 -1.399999999999999E-003    2.179294153533379E-032
 -1.299999999999999E-003   -1.729045614805117E-032
 -1.199999999999999E-003   -6.618463113074108E-032
 -1.099999999999999E-003   -1.185141924862682E-031
 -9.999999999999989E-004   -1.650831494353584E-031
 -8.999999999999990E-004   -1.947642921250652E-031
 -7.999999999999990E-004   -1.960695132589514E-031
 -6.999999999999989E-004   -1.593125825125847E-031
 -5.999999999999990E-004   -7.912648134302304E-032
 -4.999999999999989E-004    4.304997198301290E-032
 -3.999999999999989E-004    1.970229407006980E-031
 -2.999999999999989E-004    3.629954751832098E-031
 -1.999999999999989E-004    5.123468312078349E-031
 -9.999999999999892E-005    6.104131702766730E-031
  1.084202172485504E-018    6.213620610561870E-031
  1.000000000000011E-004    5.148702034781009E-031
  2.000000000000011E-004    2.738594947734398E-031
  3.000000000000011E-004   -9.790111738229902E-032
  4.000000000000011E-004   -5.698724258342740E-031
  5.000000000000011E-004   -1.082203141960174E-030
  6.000000000000011E-004   -1.548142333232873E-030
  7.000000000000011E-004   -1.862492256906776E-030
  8.000000000000011E-004   -1.916342918989345E-030
  9.000000000000012E-004   -1.617156054976982E-030
  1.000000000000001E-003   -9.119340298613625E-031
  1.100000000000001E-003    1.901116127743560E-031
  1.200000000000001E-003    1.599985012724142E-030
  1.300000000000001E-003    3.141438799319949E-030
  1.400000000000001E-003    4.558192877862869E-030
  1.500000000000001E-003    5.538942005508719E-030
  1.600000000000001E-003    5.760724921837207E-030
  1.700000000000001E-003    4.947824184469003E-030
  1.800000000000001E-003    2.939454117154763E-030
  1.900000000000001E-003   -2.442311137654722E-031
  2.000000000000001E-003   -4.351147296346268E-030
  2.100000000000001E-003   -8.875707244071406E-030
  2.200000000000001E-003   -1.307968564024314E-029
  2.300000000000001E-003   -1.606417374557241E-029
  2.400000000000001E-003   -1.689401044187794E-029
  2.500000000000001E-003   -1.476623490664160E-029
  2.600000000000001E-003   -9.203173350461201E-030
  2.700000000000001E-003   -2.402548950327227E-031
  2.800000000000001E-003    1.142914908842571E-029
  2.900000000000001E-003    2.439226766578530E-029
  3.000000000000001E-003    3.657507073319696E-029
  3.100000000000001E-003    4.544376184053620E-029
  3.200000000000001E-003    4.835268412067361E-029
  3.300000000000001E-003    4.301452055556915E-029
  3.400000000000001E-003    2.803830413200617E-029
  3.500000000000001E-003    3.452025138601426E-030
  3.600000000000001E-003   -2.889418158456776E-029
  3.700000000000001E-003   -6.515521495952097E-029
  3.800000000000001E-003   -9.964714028102232E-029
  3.900000000000001E-003   -1.253959066486990E-028
  4.000000000000001E-003   -1.350859205646624E-028
  4.100000000000001E-003   -1.223413559542285E-028
  4.200000000000001E-003   -8.319092636644489E-029
  4.300000000000001E-003   -1.749093212193192E-029
  4.400000000000001E-003    6.997453247636563E-029
  4.500000000000001E-003    1.690135219607531E-028
  4.600000000000002E-003    2.644293285654936E-028
  4.700000000000001E-003    3.374747779810289E-028
  4.800000000000001E-003    3.683743035762070E-028
  4.900000000000002E-003    3.397335670469538E-028
  5.000000000000001E-003    2.404389125242355E-028
  5.100000000000001E-003    6.944921241651248E-029
  5.200000000000001E-003   -1.612590967725353E-028
  5.300000000000002E-003   -4.253760512337533E-028
  5.400000000000001E-003   -6.832568795493418E-028
  5.500000000000001E-003   -8.856731452812011E-028
  5.600000000000002E-003   -9.803565514370620E-028
  5.700000000000001E-003   -9.208621665898600E-028
  5.800000000000001E-003   -6.767202330848331E-028
  5.900000000000002E-003   -2.433312564287651E-028
  6.000000000000001E-003    3.503037203795947E-028
  6.100000000000001E-003    1.038023341743107E-027
  6.200000000000002E-003    1.718879894878262E-027
  6.300000000000002E-003    2.266559349690980E-027
  6.400000000000001E-003    2.545952543917799E-027
  6.500000000000001E-003    2.435678460638159E-027
  6.600000000000002E-003    1.853945916477052E-027
  6.700000000000001E-003    7.838426414648178E-028
  6.800000000000001E-003   -7.067511437478301E-028
  6.900000000000002E-003   -2.455688141732437E-027
  7.000000000000001E-003   -4.211931003608693E-027
  7.100000000000001E-003   -5.658606546985751E-027
  7.200000000000002E-003   -6.453997691385494E-027
  7.300000000000002E-003   -6.287525454684230E-027
  7.400000000000001E-003   -4.944245642798840E-027
  7.500000000000001E-003   -2.368210329132625E-027
  7.600000000000002E-003    1.287197215774936E-027
  7.700000000000001E-003    5.634419347076664E-027
  7.800000000000001E-003    1.006330209421635E-026
  7.900000000000001E-003    1.379606067846581E-026
  8.000000000000002E-003    1.598640275082062E-026
  8.100000000000001E-003    1.585572236800950E-026
  8.200000000000001E-003    1.285072446091439E-026
  8.300000000000002E-003    6.799104592663635E-027
  8.400000000000001E-003   -1.965451257623898E-027
  8.500000000000002E-003   -1.253917837235663E-026
  8.600000000000002E-003   -2.347152481708681E-026
  8.700000000000001E-003   -3.289288821495307E-026
  8.800000000000002E-003   -3.874903040789374E-026
  8.900000000000002E-003   -3.912558942386104E-026
  9.000000000000001E-003   -3.262579341239547E-026
  9.100000000000002E-003   -1.874597699080842E-026
  9.200000000000002E-003    1.819288646008725E-027
  9.300000000000001E-003    2.701431463190384E-026
  9.400000000000002E-003    5.346480660463913E-026
  9.500000000000001E-003    7.676703486998499E-026
  9.600000000000001E-003    9.202991622959117E-026
  9.700000000000002E-003    9.463271133370119E-026
  9.800000000000001E-003    8.111294825736762E-026
  9.900000000000001E-003    5.005616653505426E-026
  1.000000000000000E-002    2.828650367647158E-027
  1.010000000000000E-002   -5.601459843664170E-026
  1.020000000000000E-002   -1.187949877426414E-025
  1.030000000000000E-002   -1.753466948084089E-025
  1.040000000000000E-002   -2.142428213981235E-025
  1.050000000000000E-002   -2.245285806799615E-025
  1.060000000000000E-002   -1.977697359244080E-025
  1.070000000000000E-002   -1.301239720643607E-025
  1.080000000000000E-002   -2.407235645516119E-026
  1.090000000000000E-002    1.105738164006855E-025
  1.100000000000000E-002    2.567339536689844E-025
  1.110000000000000E-002    3.914172567552140E-025
  1.120000000000000E-002    4.884330044793767E-025
  1.130000000000000E-002    5.222755662075482E-025
  1.140000000000000E-002    4.727611900801258E-025
  1.150000000000000E-002    3.297661709361966E-025
  1.160000000000000E-002    9.725218192185246E-026
  1.170000000000000E-002   -2.042878028049357E-025
  1.180000000000000E-002   -5.377446748417401E-025
  1.190000000000000E-002   -8.522051711565660E-025
  1.200000000000000E-002   -1.088803733535361E-024
  1.210000000000000E-002   -1.189253372233583E-024
  1.220000000000000E-002   -1.106145627867223E-024
  1.230000000000000E-002   -8.135968242933442E-025
  1.240000000000000E-002   -3.164532363387802E-025
  1.250000000000000E-002    3.438696104338838E-025
  1.260000000000000E-002    1.088663588042576E-024
  1.270000000000000E-002    1.807546432894063E-024
  1.280000000000000E-002    2.370806714094272E-024
  1.290000000000000E-002    2.647759651841471E-024
  1.300000000000000E-002    2.529198103419812E-024
  1.310000000000000E-002    1.950899345830484E-024
  1.320000000000000E-002    9.143205393282506E-025
  1.330000000000000E-002   -4.997127473000682E-025
  1.340000000000000E-002   -2.128181851189911E-024
  1.350000000000000E-002   -3.736692951871673E-024
  1.360000000000000E-002   -5.044918981621330E-024
  1.370000000000000E-002   -5.765319595473171E-024
  1.380000000000000E-002   -5.651195147678973E-024
  1.390000000000000E-002   -4.547702756830467E-024
  1.400000000000000E-002   -2.437615526397655E-024
  1.410000000000000E-002    5.271690482172128E-025
  1.420000000000000E-002    4.016748606721308E-024
  1.430000000000000E-002    7.543172312637861E-024
  1.440000000000000E-002    1.051167936106144E-023
  1.450000000000000E-002    1.230081725282492E-023
  1.460000000000000E-002    1.236351670355984E-023
  1.470000000000000E-002    1.033598824886916E-023
  1.480000000000000E-002    6.137314929591133E-024
  1.490000000000000E-002    4.072747253276270E-026
  1.500000000000000E-002   -7.301401306373251E-024
  1.510000000000000E-002   -1.489242565975767E-023
  1.520000000000000E-002   -2.149223115712900E-023
  1.530000000000000E-002   -2.577988790396257E-023
  1.540000000000000E-002   -2.656267853218990E-023
  1.550000000000000E-002   -2.300492000944971E-023
  1.560000000000000E-002   -1.484145465939390E-023
  1.570000000000000E-002   -2.536239108911879E-024
  1.580000000000000E-002    1.265185078924030E-023
  1.590000000000000E-002    2.872559773770208E-023
  1.600000000000000E-002    4.314271765412115E-023
  1.610000000000000E-002    5.313984280031121E-023
  1.620000000000000E-002    5.615752227293006E-023
  1.630000000000000E-002    5.031372290674809E-023
  1.640000000000000E-002    3.485477046866615E-023
  1.650000000000000E-002    1.050273971915205E-023
  1.660000000000000E-002   -2.037969645437632E-023
  1.670000000000000E-002   -5.387022272657846E-023
  1.680000000000000E-002   -8.484715855245705E-023
  1.690000000000000E-002   -1.076218319888903E-022
  1.700000000000000E-002   -1.167881258932441E-022
  1.710000000000000E-002   -1.081869072418085E-022
  1.720000000000000E-002   -7.984445198108384E-023
  1.730000000000000E-002   -3.272136637399265E-023
  1.740000000000000E-002    2.889034524284259E-023
  1.750000000000000E-002    9.745551621935915E-023
  1.760000000000000E-002    1.628459838218655E-022
  1.770000000000000E-002    2.135490095195931E-022
  1.780000000000000E-002    2.383351761230858E-022
  1.790000000000000E-002    2.281916670506106E-022
  1.800000000000000E-002    1.782449155490486E-022
  1.810000000000000E-002    8.934836519102681E-023
  1.820000000000000E-002   -3.099366100853734E-023
  1.830000000000000E-002   -1.686437552916467E-022
  1.840000000000000E-002   -3.039617621418968E-022
  1.850000000000000E-002   -4.140633440735224E-022
  1.860000000000000E-002   -4.760363632554290E-022
  1.870000000000000E-002   -4.707517514224686E-022