 -4.000000000000000E-002    0.000000000000000E+000
 -3.990000000000000E-002    0.000000000000000E+000
 -3.980000000000000E-002    0.000000000000000E+000
 -3.970000000000000E-002    0.000000000000000E+000
 -3.960000000000000E-002    0.000000000000000E+000
 -3.950000000000000E-002    0.000000000000000E+000
 -3.940000000000000E-002    0.000000000000000E+000
 -3.930000000000000E-002    0.000000000000000E+000
 -3.920000000000000E-002    0.000000000000000E+000
 -3.910000000000000E-002    0.000000000000000E+000
 -3.900000000000000E-002    0.000000000000000E+000
 -3.890000000000000E-002    0.000000000000000E+000
 -3.880000000000000E-002    0.000000000000000E+000
 -3.870000000000000E-002   -4.129528322030410E-041
 -3.860000000000000E-002   -7.969376987794826E-040
 -3.850000000000000E-002   -7.258509652231767E-039
 -3.840000000000000E-002   -3.827286403719049E-038
 -3.830000000000000E-002   -9.276563021063933E-038
 -3.820000000000000E-002    3.530586392551661E-037
 -3.810000000000000E-002    5.425137356365868E-036
 -3.800000000000000E-002    3.617132490866294E-035
 -3.790000000000000E-002    1.758735628845172E-034
 -3.780000000000000E-002    6.951575710292679E-034
 -3.770000000000000E-002    2.328869238678216E-033
 -3.760000000000000E-002    6.722319363358784E-033
 -3.750000000000000E-002    1.669756103330892E-032
 -3.740000000000000E-002    3.477626061175939E-032
 -3.730000000000000E-002    5.536606377647001E-032
 -3.720000000000000E-002    3.989228536402861E-032
 -3.710000000000000E-002   -1.458444549566405E-031
 -3.700000000000000E-002   -8.647096636759632E-031
 -3.690000000000000E-002   -2.948831152251509E-030
 -3.680000000000000E-002   -8.058780146631314E-030
 -3.670000000000000E-002   -1.907041948488404E-029
 -3.660000000000000E-002   -4.015203510228014E-029
 -3.650000000000000E-002   -7.572352412260038E-029
 -3.640000000000000E-002   -1.267525895268850E-028
 -3.630000000000000E-002   -1.819323623735523E-028
 -3.620000000000000E-002   -2.005982419072664E-028
 -3.610000000000000E-002   -8.466549297544355E-029
 -3.600000000000000E-002    3.600036745256882E-028
 -3.590000000000000E-002    1.464351299563510E-027
 -3.580000000000000E-002    3.715119152339348E-027
 -3.570000000000000E-002    7.704069669629736E-027
 -3.560000000000000E-002    1.392830953736903E-026
 -3.550000000000000E-002    2.233308255782012E-026
 -3.540000000000000E-002    3.147892454501189E-026
 -3.530000000000000E-002    3.725729664375687E-026
 -3.520000000000000E-002    3.121649778580907E-026
 -3.510000000000000E-002   -1.160714810513105E-027
 -3.500000000000000E-002   -8.143051845774134E-026
 -3.490000000000000E-002   -2.370000649338323E-025
 -3.480000000000000E-002   -4.956961802330016E-025
 -3.470000000000000E-002   -8.735310162132650E-025
 -3.460000000000000E-002   -1.353238783671301E-024
 -3.450000000000000E-002   -1.852476390270237E-024
 -3.440000000000000E-002   -2.183750113845880E-024
 -3.430000000000000E-002   -2.013672998078660E-024
 -3.420000000000000E-002   -8.371131471493936E-025
 -3.410000000000000E-002    2.008631810713122E-024
 -3.400000000000000E-002    7.255609442884708E-024
 -3.390000000000000E-002    1.550460656638551E-023
 -3.380000000000000E-002    2.687990866134634E-023
 -3.370000000000000E-002    4.053014203567636E-023
 -3.360000000000000E-002    5.401221637871609E-023
 -3.350000000000000E-002    6.266762979139909E-023
 -3.340000000000000E-002    5.919487424098751E-023
 -3.330000000000000E-002    3.372343611408506E-023
 -3.320000000000000E-002   -2.522393280702712E-023
 -3.310000000000000E-002   -1.284766188303927E-022
 -3.300000000000000E-002   -2.823652498628599E-022
 -3.290000000000000E-002   -4.832414661859714E-022
 -3.280000000000000E-002   -7.108148205248314E-022
 -3.270000000000000E-002   -9.214395760618012E-022
 -3.260000000000000E-002   -1.043308453279692E-021
 -3.250000000000000E-002   -9.763143243072293E-022
 -3.240000000000000E-002   -5.998700238990667E-022
 -3.230000000000000E-002    2.081085245839276E-022
 -3.220000000000000E-002    1.538929036210055E-021
 -3.210000000000000E-002    3.407815754815176E-021
 -3.200000000000000E-002    5.699653252598228E-021
 -3.190000000000000E-002    8.114927941023280E-021
 -3.180000000000000E-002    1.013064428405679E-020
 -3.170000000000000E-002    1.099592733036521E-020
 -3.160000000000000E-002    9.784538948066006E-021
 -3.150000000000000E-002    5.524357781429701E-021
 -3.140000000000000E-002   -2.584796553386052E-021
 -3.130000000000000E-002   -1.487042916564918E-020
 -3.120000000000000E-002   -3.083396573755197E-020
 -3.110000000000000E-002   -4.880550792733144E-020
 -3.100000000000000E-002   -6.569910581355414E-020
 -3.090000000000000E-002   -7.698546592064980E-020
 -3.080000000000000E-002   -7.700662806630255E-020
 -3.070000000000000E-002   -5.973677690369604E-020
 -3.060000000000000E-002   -2.003629824200315E-020
 -3.050000000000000E-002    4.465289159552559E-020
 -3.040000000000000E-002    1.323579764627723E-019
 -3.030000000000000E-002    2.347170552985552E-019
 -3.020000000000000E-002    3.357075117989001E-019
 -3.010000000000000E-002    4.115588343430063E-019
 -3.000000000000000E-002    4.324545464326990E-019
 -2.990000000000000E-002    3.664912732496565E-019
 -2.980000000000000E-002    1.860496607943014E-019
 -2.970000000000000E-002   -1.237664039334332E-019
 -2.960000000000000E-002   -5.556108285243684E-019
 -2.950000000000000E-002   -1.070994532464111E-018
 -2.940000000000000E-002   -1.594333100618701E-018
 -2.930000000000000E-002   -2.012643378414681E-018
 -2.920000000000000E-002   -2.183509820862856E-018
 -2.910000000000000E-002   -1.953210081174500E-018
 -2.900000000000000E-002   -1.185433596762432E-018
 -2.890000000000000E-002    2.011635863549923E-019
 -2.880000000000000E-002    2.191030691930368E-018
 -2.870000000000000E-002    4.632721544473870E-018
 -2.860000000000000E-002    7.212511364928090E-018
 -2.850000000000000E-002    9.451532704744544E-018
 -2.840000000000000E-002    1.073665778086421E-017
 -2.830000000000000E-002    1.039219983577297E-017
 -2.820000000000000E-002    7.793564089194056E-018
 -2.810000000000000E-002    2.515550189146640E-018
 -2.800000000000000E-002   -5.502083635839771E-018
 -2.790000000000000E-002   -1.579938919855308E-017
 -2.780000000000000E-002   -2.728704272771070E-017
 -2.770000000000000E-002   -3.822258113352201E-017
 -2.760000000000000E-002   -4.630813586623324E-017
 -2.750000000000000E-002   -4.893385106145981E-017
 -2.740000000000000E-002   -4.357012039465777E-017
 -2.730000000000000E-002   -2.828272698279679E-017
 -2.720000000000000E-002   -2.311354391270416E-018
 -2.710000000000000E-002    3.338094777980720E-017
 -2.700000000000000E-002    7.570484980005459E-017
 -2.690000000000000E-002    1.193157334555317E-016
 -2.680000000000000E-002    1.568728754301904E-016
 -2.670000000000000E-002    1.797618359979721E-016
 -2.660000000000000E-002    1.792875123643511E-016
 -2.650000000000000E-002    1.482555103956139E-016
 -2.640000000000000E-002    8.275872098486863E-017
 -2.630000000000000E-002   -1.611060089051454E-017
 -2.620000000000000E-002   -1.409724983234453E-016
 -2.610000000000000E-002   -2.776661310716442E-016
 -2.600000000000000E-002   -4.058792399059362E-016
 -2.590000000000000E-002   -5.011070655869396E-016
 -2.580000000000000E-002   -5.379507739133800E-016
 -2.570000000000000E-002   -4.945117050739300E-016
 -2.560000000000000E-002   -3.573585356197680E-016
 -2.550000000000000E-002   -1.262877319932588E-016
 -2.540000000000000E-002    1.820781207994240E-016
 -2.530000000000000E-002    5.328511227879637E-016
 -2.520000000000000E-002    8.744563194242626E-016
 -2.510000000000000E-002    1.143740961543909E-015
 -2.500000000000000E-002    1.274599197161333E-015
 -2.490000000000000E-002    1.209422621900065E-015
 -2.480000000000000E-002    9.119703287441386E-016
 -2.470000000000000E-002    3.796180705742443E-016
 -2.460000000000000E-002   -3.474741971258278E-016
 -2.450000000000000E-002   -1.182786398404790E-015
 -2.440000000000000E-002   -1.997566630670285E-015
 -2.430000000000000E-002   -2.633865507816428E-015
 -2.420000000000000E-002   -2.926322172160196E-015
 -2.410000000000000E-002   -2.730880940937988E-015
 -2.400000000000000E-002   -1.956869585127289E-015
 -2.390000000000000E-002   -5.973666124072377E-016
 -2.380000000000000E-002    1.248145542086931E-015
 -2.370000000000000E-002    3.364901035790675E-015
 -2.360000000000000E-002    5.432741284235930E-015
 -2.350000000000000E-002    7.057553703665889E-015
 -2.340000000000000E-002    7.823775533762392E-015
 -2.330000000000000E-002    7.363568925208083E-015
 -2.320000000000000E-002    5.434210219049481E-015
 -2.310000000000000E-002    1.991831437868102E-015
 -2.300000000000000E-002   -2.752447300674403E-015
 -2.290000000000000E-002   -8.307990664180565E-015
 -2.280000000000000E-002   -1.392326847699593E-014
 -2.270000000000000E-002   -1.865414838954690E-014
 -2.260000000000000E-002   -2.148107253822919E-014
 -2.250000000000000E-002   -2.146564378212182E-014
 -2.240000000000000E-002   -1.792820904104055E-014
 -2.230000000000000E-002   -1.062047551225845E-014
 -2.220000000000000E-002    1.374385109083822E-016
 -2.210000000000000E-002    1.338637763503199E-014
 -2.200000000000000E-002    2.754980291636611E-014
 -2.190000000000000E-002    4.056310651778386E-014
 -2.180000000000000E-002    5.011082082002097E-014
 -2.170000000000000E-002    5.395368033896364E-014
 -2.160000000000000E-002    5.030887105057470E-014
 -2.150000000000000E-002    3.823067728927518E-014
 -2.140000000000000E-002    1.792858390830249E-014
 -2.130000000000000E-002   -9.041727519694484E-015
 -2.120000000000000E-002   -3.976999192520995E-014
 -2.110000000000000E-002   -7.020115113954532E-014
 -2.100000000000000E-002   -9.556954849556585E-014
 -2.090000000000000E-002   -1.110276992097403E-013
 -2.080000000000000E-002   -1.124028710204769E-013
 -2.070000000000000E-002   -9.698159008424107E-014
 -2.060000000000000E-002   -6.420024519454959E-014
 -2.050000000000000E-002   -1.611389100670246E-014
 -2.040000000000000E-002    4.247074182631513E-014
 -2.030000000000000E-002    1.042773801845394E-013
 -2.020000000000000E-002    1.602832200779433E-013
 -2.010000000000000E-002    2.008420818225203E-013
 -2.000000000000000E-002    2.170960312815805E-013
 -1.990000000000000E-002    2.024989766400891E-013
 -1.980000000000000E-002    1.542292334953747E-013
 -1.970000000000000E-002    7.424882513251572E-014
 -1.960000000000000E-002   -3.021549832414757E-014
 -1.950000000000000E-002   -1.469394064095658E-013
 -1.940000000000000E-002   -2.597951415494158E-013
 -1.930000000000000E-002   -3.506337352082044E-013
 -1.920000000000000E-002   -4.017863561621439E-013
 -1.910000000000000E-002   -3.988917570278278E-013
 -1.900000000000000E-002   -3.336595572478930E-013
 -1.890000000000000E-002   -2.061288063617954E-013
 -1.880000000000000E-002   -2.599001520654476E-014
 -1.870000000000000E-002    1.873818509399537E-013
 -1.860000000000000E-002    4.063903705533305E-013
 -1.850000000000000E-002    5.981840477930016E-013
 -1.840000000000000E-002    7.289012309460554E-013
 -1.830000000000000E-002    7.687370815187060E-013
 -1.820000000000000E-002    6.971777801922469E-013
 -1.810000000000000E-002    5.076204169409706E-013
 -1.800000000000000E-002    2.105722225412617E-013
 -1.790000000000000E-002   -1.652853805271130E-013
 -1.780000000000000E-002   -5.746623697495578E-013
 -1.770000000000000E-002   -9.600236563055957E-013
 -1.760000000000000E-002   -1.258514860482706E-012
 -1.750000000000000E-002   -1.410786350559413E-012
 -1.740000000000000E-002   -1.370655497985562E-012
 -1.730000000000000E-002   -1.114256471380095E-012
 -1.720000000000000E-002   -6.471950898850506E-013
 -1.710000000000000E-002   -8.299979962123522E-015
 -1.700000000000000E-002    7.311350449767713E-013
 -1.690000000000000E-002    1.473204816100630E-012
 -1.680000000000000E-002    2.104239707009047E-012
 -1.670000000000000E-002    2.509764282721903E-012
 -1.660000000000000E-002    2.591915149490332E-012
 -1.650000000000000E-002    2.287032019297713E-012
 -1.640000000000000E-002    1.580751614282221E-012
 -1.630000000000000E-002    5.179034736460964E-013
 -1.620000000000000E-002   -7.951235015592414E-013
 -1.610000000000000E-002   -2.197071801658676E-012
 -1.600000000000000E-002   -3.487944682788572E-012
 -1.590000000000000E-002   -4.453554229978124E-012
 -1.580000000000000E-002   -4.896023849773106E-012
 -1.570000000000000E-002   -4.666468999744877E-012
 -1.560000000000000E-002   -3.695167288060011E-012
 -1.550000000000000E-002   -2.014207841524131E-012
 -1.540000000000000E-002    2.320251740085056E-013
 -1.530000000000000E-002    2.791971900095657E-012
 -1.520000000000000E-002    5.329190581012234E-012
 -1.510000000000000E-002    7.460953800333203E-012
 -1.500000000000000E-002    8.809627427316176E-012
 -1.490000000000000E-002    9.060794145954111E-012
 -1.480000000000000E-002    8.020141812327524E-012
 -1.470000000000000E-002    5.660141873889542E-012
 -1.460000000000000E-002    2.147821431698369E-012
 -1.450000000000000E-002   -2.153386927152352E-012
 -1.440000000000000E-002   -6.711709915119127E-012
 -1.430000000000000E-002   -1.088490711818260E-011
 -1.420000000000000E-002   -1.400315057214883E-011
 -1.410000000000000E-002   -1.546754060893130E-011
 -1.400000000000000E-002   -1.485108581906123E-011
 -1.390000000000000E-002   -1.198675541038424E-011
 -1.380000000000000E-002   -7.027118152875685E-012
 -1.370000000000000E-002   -4.624059921060805E-013
 -1.360000000000000E-002    6.911418219797037E-012
 -1.350000000000000E-002    1.407625321071080E-011
 -1.340000000000000E-002    1.992085981136032E-011
 -1.330000000000000E-002    2.340101689088224E-011
 -1.320000000000000E-002    2.370973226373637E-011
 -1.310000000000000E-002    2.043206391068529E-011
 -1.300000000000000E-002    1.365822484948467E-011
 -1.290000000000000E-002    4.031787874683169E-012
 -1.280000000000000E-002   -7.282821285245096E-012
 -1.270000000000000E-002   -1.871863154428571E-011
 -1.260000000000000E-002   -2.850227736698777E-011
 -1.250000000000000E-002   -3.490674977744905E-011
 -1.240000000000000E-002   -3.652777877406966E-011
 -1.230000000000000E-002   -3.254306976093797E-011
 -1.220000000000000E-002   -2.291131116259415E-011
 -1.210000000000000E-002   -8.472164201038771E-012
 -1.200000000000000E-002    9.080482668968164E-012
 -1.190000000000000E-002    2.736292106629708E-011
 -1.180000000000000E-002    4.359403769850585E-011
 -1.170000000000000E-002    5.498459785573185E-011
 -1.160000000000000E-002    5.917319679915903E-011
 -1.150000000000000E-002    5.464542464676161E-011
 -1.140000000000000E-002    4.106821913062666E-011
 -1.130000000000000E-002    1.947689386426107E-011
 -1.120000000000000E-002   -7.731195829905210E-012
 -1.110000000000000E-002   -3.701701817509657E-011
 -1.100000000000000E-002   -6.412331727638656E-011
 -1.090000000000000E-002   -8.465681631948299E-011
 -1.080000000000000E-002   -9.475492116410400E-011
 -1.070000000000000E-002   -9.174131903477041E-011
 -1.060000000000000E-002   -7.466644583372109E-011
 -1.050000000000000E-002   -4.463581474148576E-011
 -1.040000000000000E-002   -4.852817638442525E-012
 -1.030000000000000E-002    3.966025723677824E-011
 -1.020000000000000E-002    8.265217301530787E-011
 -1.010000000000000E-002    1.174827995921293E-010
 -1.000000000000000E-002    1.381070767535979E-010
 -9.899999999999999E-003    1.400634078027243E-010
 -9.800000000000000E-003    1.213129578278769E-010
 -9.699999999999999E-003    8.278445962697083E-011
 -9.599999999999999E-003    2.851161325857710E-011
 -9.500000000000000E-003   -3.469676290003664E-011
 -9.399999999999999E-003   -9.804632182500177E-011
 -9.299999999999999E-003   -1.519263018226043E-010
 -9.200000000000000E-003   -1.873112298684042E-010
 -9.099999999999999E-003   -1.971991019014703E-010
 -8.999999999999999E-003   -1.778658864218696E-010
 -8.900000000000000E-003   -1.297261889427215E-010
 -8.799999999999999E-003   -5.763186304575426E-011
 -8.699999999999999E-003    2.948611826894027E-011
 -8.600000000000000E-003    1.196337873201021E-010
 -8.499999999999999E-003    1.993273246551058E-010
 -8.399999999999999E-003    2.555275738131612E-010
 -8.300000000000000E-003    2.776676800932948E-010
 -8.199999999999999E-003    2.594698904492796E-010
 -8.100000000000000E-003    2.002547632578668E-010
 -8.000000000000000E-003    1.055006224118244E-010
 -7.899999999999999E-003   -1.349194003714198E-011
 -7.800000000000000E-003   -1.408497778335846E-010
 -7.699999999999999E-003   -2.581710843310955E-010
 -7.599999999999999E-003   -3.471117185729376E-010
 -7.499999999999999E-003   -3.921607729958754E-010
 -7.399999999999999E-003   -3.831952137587098E-010
 -7.299999999999999E-003   -3.174081439898539E-010
 -7.199999999999999E-003   -2.002707440745435E-010
 -7.100000000000000E-003   -4.531133542190697E-011
 -6.999999999999999E-003    1.273402952003188E-010
 -6.899999999999999E-003    2.935093006419310E-010
 -6.800000000000000E-003    4.283227301243117E-010
 -6.699999999999999E-003    5.098940023126664E-010
 -6.599999999999999E-003    5.228091682053358E-010
 -6.499999999999999E-003    4.608737178113213E-010
 -6.399999999999999E-003    3.286530675697435E-010
 -6.299999999999999E-003    1.414929490612681E-010
 -6.199999999999999E-003   -7.608468793825513E-011
 -6.100000000000000E-003   -2.934752114718516E-010
 -5.999999999999999E-003   -4.782043795508491E-010
 -5.899999999999999E-003   -6.006976763720149E-010
 -5.800000000000000E-003   -6.389219309335985E-010
 -5.699999999999999E-003   -5.821893793205143E-010
 -5.599999999999999E-003   -4.334982307824461E-010
 -5.499999999999999E-003   -2.099609091886526E-010
 -5.399999999999999E-003    5.886583875521351E-011
 -5.299999999999999E-003    3.346320569317483E-010
 -5.199999999999999E-003    5.754044837415943E-010
 -5.099999999999999E-003    7.417514241851190E-010
 -4.999999999999999E-003    8.028456306577122E-010
 -4.899999999999999E-003    7.416712168544066E-010
 -4.799999999999999E-003    5.584998419706862E-010
 -4.699999999999999E-003    2.720069496908514E-010
 -4.599999999999999E-003   -8.228554424427754E-011
 -4.499999999999999E-003   -4.561760276370082E-010
 -4.399999999999999E-003   -7.951008439159644E-010
 -4.299999999999999E-003   -1.045797751833301E-009
 -4.199999999999999E-003   -1.164261981530510E-009
 -4.099999999999999E-003   -1.122835225026729E-009
 -3.999999999999999E-003   -9.153266967468248E-010
 -3.899999999999999E-003   -5.592928435327453E-010
 -3.799999999999999E-003   -9.497049205018599E-011
 -3.699999999999999E-003    4.191768060406287E-010
 -3.599999999999999E-003    9.138433508472888E-010
 -3.499999999999999E-003    1.318281696714589E-009
 -3.399999999999999E-003    1.570455913807827E-009
 -3.299999999999999E-003    1.626501964383852E-009
 -3.199999999999999E-003    1.468072111279764E-009
 -3.099999999999999E-003    1.106369468139172E-009
 -2.999999999999999E-003    5.821002000632849E-010
 -2.899999999999999E-003   -3.887064115499151E-011
 -2.799999999999999E-003   -6.737572936662101E-010
 -2.699999999999999E-003   -1.233987979280615E-009
 -2.599999999999999E-003   -1.637760087606926E-009
 -2.499999999999999E-003   -1.822253419571590E-009
 -2.399999999999999E-003   -1.753693778790354E-009
 -2.299999999999999E-003   -1.433680071750966E-009
 -2.199999999999999E-003   -9.006527716860568E-010
 -2.099999999999999E-003   -2.260372233472091E-010
 -1.999999999999999E-003    4.946491476464172E-010
 -1.899999999999999E-003    1.154679573751463E-009
 -1.799999999999999E-003    1.651302729492914E-009
 -1.699999999999999E-003    1.901120235096017E-009
 -1.599999999999999E-003    1.853404364375372E-009
 -1.499999999999999E-003    1.499296644547094E-009
 -1.399999999999999E-003    8.753239592402409E-010
 -1.299999999999999E-003    6.042855813964977E-011
 -1.199999999999999E-003   -8.333790485756405E-010
 -1.099999999999999E-003   -1.675690419758013E-009
 -9.999999999999989E-004   -2.335803347750525E-009
 -8.999999999999990E-004   -2.701768902232940E-009
 -7.999999999999990E-004   -2.697629538034915E-009
 -6.999999999999989E-004   -2.296227139266736E-009
 -5.999999999999990E-004   -1.525485529157897E-009
 -4.999999999999989E-004   -4.669326214215444E-010
 -3.999999999999989E-004    7.536840121446123E-010
 -2.999999999999989E-004    1.982676347667111E-009
 -1.999999999999989E-004    3.059506568286065E-009
 -9.999999999999892E-005    3.839796454195161E-009
  1.084202172485504E-018    4.216937921010228E-009
  1.000000000000011E-004    4.139040452468456E-009
  2.000000000000011E-004    3.618484415486283E-009
  3.000000000000011E-004    2.732316187423652E-009
  4.000000000000011E-004    1.613000129699591E-009
  5.000000000000011E-004    4.304478021432531E-010
  6.000000000000011E-004   -6.324136271765903E-010
  7.000000000000011E-004   -1.407202883093150E-009
  8.000000000000011E-004   -1.766820087089809E-009
  9.000000000000012E-004   -1.647327922815520E-009
  1.000000000000001E-003   -1.061475079295809E-009
  1.100000000000001E-003   -1.014159990423464E-010
  1.200000000000001E-003    1.070345366646940E-009
  1.300000000000001E-003    2.241082809457792E-009
  1.400000000000001E-003    3.176691269896409E-009
  1.500000000000001E-003    3.655522361332439E-009
  1.600000000000001E-003    3.502605795932254E-009
  1.700000000000001E-003    2.619400367835473E-009
  1.800000000000001E-003    1.004696532643000E-009
  1.900000000000001E-003   -1.236599225072863E-009
  2.000000000000001E-003   -3.898411609595112E-009
  2.100000000000001E-003   -6.691845653092131E-009
  2.200000000000001E-003   -9.274633389915895E-009
  2.300000000000001E-003   -1.128766743657090E-008
  2.400000000000001E-003   -1.239343158834147E-008
  2.500000000000001E-003   -1.231068125408704E-008
  2.600000000000001E-003   -1.084007712253554E-008
  2.700000000000001E-003   -7.876621600253179E-009
  2.800000000000001E-003   -3.406550798843627E-009
  2.900000000000001E-003    2.511474164468624E-009
  3.000000000000001E-003    9.778724780931294E-009
  3.100000000000001E-003    1.829807946544093E-008
  3.200000000000001E-003    2.801929915779192E-008
  3.300000000000001E-003    3.898143236496109E-008
  3.400000000000001E-003    5.134606320091631E-008
  3.500000000000001E-003    6.541632421540303E-008
  3.600000000000001E-003    8.163830190309264E-008
  3.700000000000001E-003    1.005841448904512E-007
  3.800000000000001E-003    1.229186723671460E-007
  3.900000000000001E-003    1.493536846483138E-007
  4.000000000000001E-003    1.805962664648471E-007
  4.100000000000001E-003    2.172982061696796E-007
  4.200000000000001E-003    2.600138602905825E-007
  4.300000000000001E-003    3.091727702020229E-007
  4.400000000000001E-003    3.650712913600324E-007
  4.500000000000001E-003    4.278848533442721E-007
  4.600000000000002E-003    4.976998997613028E-007
  4.700000000000001E-003    5.745611460503755E-007
  4.800000000000001E-003    6.585279392913056E-007
  4.900000000000002E-003    7.497319335932869E-007
  5.000000000000001E-003    8.484280398238362E-007
  5.100000000000001E-003    9.550308607244324E-007
  5.200000000000001E-003    1.070131805044125E-006
  5.300000000000002E-003    1.194493734513725E-006
  5.400000000000001E-003    1.329024220432465E-006
  5.500000000000001E-003    1.474730478659604E-006
  5.600000000000002E-003    1.632662452367533E-006
  5.700000000000001E-003    1.803853224635495E-006
  5.800000000000001E-003    1.989264208829563E-006
  5.900000000000002E-003    2.189745378936829E-006
  6.000000000000001E-003    2.406015188291044E-006
  6.100000000000001E-003    2.638665034137971E-006
  6.200000000000002E-003    2.888188291593976E-006
  6.300000000000002E-003    3.155031229845780E-006
  6.400000000000001E-003    3.439658753383787E-006
  6.500000000000001E-003    3.742624965704763E-006
  6.600000000000002E-003    4.064642845387556E-006
  6.700000000000001E-003    4.406638209767074E-006
  6.800000000000001E-003    4.769784415191069E-006
  6.900000000000002E-003    5.155511762962598E-006
  7.000000000000001E-003    5.565487064071278E-006
  7.100000000000001E-003    6.001570892631167E-006
  7.200000000000002E-003    6.465755002306050E-006
  7.300000000000002E-003    6.960092225316429E-006
  7.400000000000001E-003    7.486623626967711E-006
  7.500000000000001E-003    8.047322006828299E-006
  7.600000000000002E-003    8.644054300898498E-006
  7.700000000000001E-003    9.278571458067320E-006
  7.800000000000001E-003    9.952528706454992E-006
  7.900000000000001E-003    1.066753510031141E-005
  8.000000000000002E-003    1.142522604119243E-005
  8.100000000000001E-003    1.222734915880343E-005
  8.200000000000001E-003    1.307584934110180E-005
  8.300000000000002E-003    1.397295147848543E-005
  8.400000000000001E-003    1.492121671279091E-005
  8.500000000000002E-003    1.592357505885668E-005
  8.600000000000002E-003    1.698332204846148E-005
  8.700000000000001E-003    1.810408913036352E-005
  8.800000000000002E-003    1.928978264359635E-005
  8.900000000000002E-003    2.054451081103454E-005
  9.000000000000001E-003    2.187250082061935E-005
  9.100000000000002E-003    2.327802652049126E-005
  9.200000000000002E-003    2.476535353989514E-005
  9.300000000000001E-003    2.633872141752866E-005
  9.400000000000002E-003    2.800234412764369E-005
  9.500000000000001E-003    2.976046381667926E-005
  9.600000000000001E-003    3.161742880898899E-005
  9.700000000000002E-003    3.357778078050406E-005
  9.800000000000001E-003    3.564637790841663E-005
  9.900000000000001E-003    3.782847927583037E-005
  1.000000000000000E-002    4.012984966249286E-005
  1.010000000000000E-002    4.255680092294386E-005
  1.020000000000000E-002    4.511621481933630E-005
  1.030000000000000E-002    4.781552532027734E-005
  1.040000000000000E-002    5.066266788741834E-005
  1.050000000000000E-002    5.366599086992370E-005
  1.060000000000000E-002    5.683417937270014E-005
  1.070000000000000E-002    6.017613979707467E-005
  1.080000000000000E-002    6.370094702819148E-005
  1.090000000000000E-002    6.741779095375125E-005
  1.100000000000000E-002    7.133597283562974E-005
  1.110000000000000E-002    7.546494238706589E-005
  1.120000000000000E-002    7.981438455861254E-005
  1.130000000000000E-002    8.439430719776762E-005
  1.140000000000000E-002    8.921520575110461E-005
  1.150000000000000E-002    9.428817193852732E-005
  1.160000000000000E-002    9.962503164803585E-005
  1.170000000000000E-002    1.052384456635743E-004
  1.180000000000000E-002    1.111419627668339E-004
  1.190000000000000E-002    1.173500269291560E-004
  1.200000000000000E-002    1.238779782707975E-004
  1.210000000000000E-002    1.307419718233179E-004
  1.220000000000000E-002    1.379588840263279E-004
  1.230000000000000E-002    1.455462244182467E-004
  1.240000000000000E-002    1.535220339772003E-004
  1.250000000000000E-002    1.619048340782079E-004
  1.260000000000000E-002    1.707135462380598E-004
  1.270000000000000E-002    1.799675519914249E-004
  1.280000000000000E-002    1.896867339971602E-004
  1.290000000000000E-002    1.998915620381164E-004
  1.300000000000000E-002    2.106032229810773E-004
  1.310000000000000E-002    2.218437993999113E-004
  1.320000000000000E-002    2.336363591349302E-004
  1.330000000000000E-002    2.460051724280377E-004
  1.340000000000000E-002    2.589757726701818E-004
  1.350000000000000E-002    2.725749899734596E-004
  1.360000000000000E-002    2.868310482695072E-004
  1.370000000000000E-002    3.017735057641423E-004
  1.380000000000000E-002    3.174332004833952E-004
  1.390000000000000E-002    3.338421724963895E-004
  1.400000000000000E-002    3.510336105569783E-004
  1.410000000000000E-002    3.690417123237206E-004
  1.420000000000000E-002    3.879017234014040E-004
  1.430000000000000E-002    4.076498226572519E-004
  1.440000000000000E-002    4.283232060701653E-004
  1.450000000000000E-002    4.499601989332713E-004
  1.460000000000000E-002    4.726002426855387E-004
  1.470000000000000E-002    4.962840929265552E-004
  1.480000000000000E-002    5.210539974092921E-004
  1.490000000000000E-002    5.469537600091915E-004
  1.500000000000000E-002    5.740288643076170E-004
  1.510000000000000E-002    6.023266557931414E-004
  1.520000000000000E-002    6.318963927788031E-004
  1.530000000000000E-002    6.627891913366037E-004
  1.540000000000000E-002    6.950580547351253E-004
  1.550000000000000E-002    7.287579129844271E-004
  1.560000000000000E-002    7.639454655906082E-004
  1.570000000000000E-002    8.006792201113253E-004
  1.580000000000000E-002    8.390193686673166E-004
  1.590000000000000E-002    8.790280009179005E-004
  1.600000000000000E-002    9.207688662930559E-004
  1.610000000000000E-002    9.643074349936320E-004
  1.620000000000000E-002    1.009711213504693E-003
  1.630000000000000E-002    1.057049772841911E-003
  1.640000000000000E-002    1.106394630239004E-003
  1.650000000000000E-002    1.157819649277357E-003
  1.660000000000000E-002    1.211400933196722E-003
  1.670000000000000E-002    1.267217028083698E-003
  1.680000000000000E-002    1.325348975688415E-003
  1.690000000000000E-002    1.385880282848544E-003
  1.700000000000000E-002    1.448896858514114E-003
  1.710000000000000E-002    1.514487212060879E-003
  1.720000000000000E-002    1.582742230451950E-003
  1.730000000000000E-002    1.653754939735809E-003
  1.740000000000000E-002    1.727620913018156E-003
  1.750000000000000E-002    1.804438066571406E-003
  1.760000000000000E-002    1.884306755811055E-003
  1.770000000000000E-002    1.967329720669227E-003
  1.780000000000000E-002    2.053611930255576E-003
  1.790000000000000E-002    2.143261103411023E-003
  1.800000000000000E-002    2.236388070882441E-003
  1.810000000000000E-002    2.333105924058144E-003
  1.820000000000000E-002    2.433531252158743E-003
  1.830000000000000E-002    2.537783183696910E-003
  1.840000000000000E-002    2.645984161326012E-003
  1.850000000000000E-002    2.758259584014111E-003
  1.860000000000000E-002    2.874737884460376E-003
  1.870000000000000E-002    2.995550433519133E-003