 -4.000000000000000E-002    0.000000000000000E+000
 -3.990000000000000E-002    0.000000000000000E+000
 -3.980000000000000E-002    0.000000000000000E+000
 -3.970000000000000E-002    0.000000000000000E+000
 -3.960000000000000E-002    0.000000000000000E+000
 -3.950000000000000E-002    0.000000000000000E+000
 -3.940000000000000E-002    0.000000000000000E+000
 -3.930000000000000E-002    0.000000000000000E+000
 -3.920000000000000E-002    0.000000000000000E+000
 -3.910000000000000E-002    0.000000000000000E+000
 -3.900000000000000E-002    0.000000000000000E+000
 -3.890000000000000E-002    0.000000000000000E+000
 -3.880000000000000E-002    0.000000000000000E+000
 -3.870000000000000E-002    0.000000000000000E+000
 -3.860000000000000E-002    0.000000000000000E+000
 -3.850000000000000E-002    0.000000000000000E+000
 -3.840000000000000E-002    0.000000000000000E+000
 -3.830000000000000E-002    0.000000000000000E+000
 -3.820000000000000E-002    0.000000000000000E+000
 -3.810000000000000E-002    0.000000000000000E+000
 -3.800000000000000E-002    0.000000000000000E+000
 -3.790000000000000E-002    0.000000000000000E+000
 -3.780000000000000E-002    0.000000000000000E+000
 -3.770000000000000E-002    0.000000000000000E+000
 -3.760000000000000E-002    0.000000000000000E+000
 -3.750000000000000E-002    0.000000000000000E+000
 -3.740000000000000E-002    0.000000000000000E+000
 -3.730000000000000E-002    0.000000000000000E+000
 -3.720000000000000E-002    0.000000000000000E+000
 -3.710000000000000E-002    0.000000000000000E+000
 -3.700000000000000E-002    0.000000000000000E+000
 -3.690000000000000E-002    0.000000000000000E+000
 -3.680000000000000E-002    0.000000000000000E+000
 -3.670000000000000E-002    0.000000000000000E+000
 -3.660000000000000E-002    0.000000000000000E+000
 -3.650000000000000E-002    0.000000000000000E+000
 -3.640000000000000E-002    0.000000000000000E+000
 -3.630000000000000E-002    0.000000000000000E+000
 -3.620000000000000E-002    0.000000000000000E+000
 -3.610000000000000E-002    0.000000000000000E+000
 -3.600000000000000E-002    0.000000000000000E+000
 -3.590000000000000E-002    0.000000000000000E+000
 -3.580000000000000E-002    0.000000000000000E+000
 -3.570000000000000E-002    0.000000000000000E+000
 -3.560000000000000E-002    0.000000000000000E+000
 -3.550000000000000E-002    0.000000000000000E+000
 -3.540000000000000E-002    0.000000000000000E+000
 -3.530000000000000E-002    0.000000000000000E+000
 -3.520000000000000E-002    0.000000000000000E+000
 -3.510000000000000E-002    0.000000000000000E+000
 -3.500000000000000E-002    0.000000000000000E+000
 -3.490000000000000E-002    0.000000000000000E+000
 -3.480000000000000E-002    0.000000000000000E+000
 -3.470000000000000E-002    0.000000000000000E+000
 -3.460000000000000E-002    0.000000000000000E+000
 -3.450000000000000E-002    0.000000000000000E+000
 -3.440000000000000E-002    0.000000000000000E+000
 -3.430000000000000E-002    0.000000000000000E+000
 -3.420000000000000E-002    0.000000000000000E+000
 -3.410000000000000E-002    0.000000000000000E+000
 -3.400000000000000E-002    0.000000000000000E+000
 -3.390000000000000E-002    0.000000000000000E+000
 -3.380000000000000E-002    0.000000000000000E+000
 -3.370000000000000E-002    0.000000000000000E+000
 -3.360000000000000E-002    0.000000000000000E+000
 -3.350000000000000E-002    0.000000000000000E+000
 -3.340000000000000E-002    0.000000000000000E+000
 -3.330000000000000E-002    0.000000000000000E+000
 -3.320000000000000E-002    0.000000000000000E+000
 -3.310000000000000E-002    0.000000000000000E+000
 -3.300000000000000E-002    0.000000000000000E+000
 -3.290000000000000E-002    0.000000000000000E+000
 -3.280000000000000E-002    0.000000000000000E+000
 -3.270000000000000E-002    0.000000000000000E+000
 -3.260000000000000E-002    0.000000000000000E+000
 -3.250000000000000E-002    0.000000000000000E+000
 -3.240000000000000E-002    0.000000000000000E+000
 -3.230000000000000E-002    0.000000000000000E+000
 -3.220000000000000E-002    0.000000000000000E+000
 -3.210000000000000E-002    0.000000000000000E+000
 -3.200000000000000E-002    0.000000000000000E+000
 -3.190000000000000E-002    0.000000000000000E+000
 -3.180000000000000E-002    0.000000000000000E+000
 -3.170000000000000E-002    0.000000000000000E+000
 -3.160000000000000E-002    0.000000000000000E+000
 -3.150000000000000E-002    0.000000000000000E+000
 -3.140000000000000E-002    0.000000000000000E+000
 -3.130000000000000E-002    0.000000000000000E+000
 -3.120000000000000E-002    0.000000000000000E+000
 -3.110000000000000E-002    0.000000000000000E+000
 -3.100000000000000E-002    0.000000000000000E+000
 -3.090000000000000E-002    0.000000000000000E+000
 -3.080000000000000E-002    0.000000000000000E+000
 -3.070000000000000E-002    0.000000000000000E+000
 -3.060000000000000E-002    0.000000000000000E+000
 -3.050000000000000E-002    0.000000000000000E+000
 -3.040000000000000E-002    0.000000000000000E+000
 -3.030000000000000E-002    0.000000000000000E+000
 -3.020000000000000E-002    0.000000000000000E+000
 -3.010000000000000E-002    0.000000000000000E+000
 -3.000000000000000E-002    0.000000000000000E+000
 -2.990000000000000E-002    0.000000000000000E+000
 -2.980000000000000E-002    0.000000000000000E+000
 -2.970000000000000E-002    0.000000000000000E+000
 -2.960000000000000E-002    0.000000000000000E+000
 -2.950000000000000E-002    0.000000000000000E+000
 -2.940000000000000E-002    0.000000000000000E+000
 -2.930000000000000E-002    0.000000000000000E+000
 -2.920000000000000E-002    0.000000000000000E+000
 -2.910000000000000E-002    0.000000000000000E+000
 -2.900000000000000E-002    0.000000000000000E+000
 -2.890000000000000E-002    0.000000000000000E+000
 -2.880000000000000E-002    0.000000000000000E+000
 -2.870000000000000E-002    0.000000000000000E+000
 -2.860000000000000E-002    0.000000000000000E+000
 -2.850000000000000E-002    0.000000000000000E+000
 -2.840000000000000E-002    0.000000000000000E+000
 -2.830000000000000E-002    0.000000000000000E+000
 -2.820000000000000E-002    0.000000000000000E+000
 -2.810000000000000E-002    0.000000000000000E+000
 -2.800000000000000E-002    0.000000000000000E+000
 -2.790000000000000E-002    0.000000000000000E+000
 -2.780000000000000E-002    0.000000000000000E+000
 -2.770000000000000E-002    0.000000000000000E+000
 -2.760000000000000E-002    0.000000000000000E+000
 -2.750000000000000E-002    0.000000000000000E+000
 -2.740000000000000E-002    0.000000000000000E+000
 -2.730000000000000E-002    0.000000000000000E+000
 -2.720000000000000E-002    0.000000000000000E+000
 -2.710000000000000E-002    0.000000000000000E+000
 -2.700000000000000E-002    0.000000000000000E+000
 -2.690000000000000E-002    0.000000000000000E+000
 -2.680000000000000E-002    0.000000000000000E+000
 -2.670000000000000E-002    0.000000000000000E+000
 -2.660000000000000E-002    0.000000000000000E+000
 -2.650000000000000E-002    0.000000000000000E+000
 -2.640000000000000E-002    0.000000000000000E+000
 -2.630000000000000E-002    0.000000000000000E+000
 -2.620000000000000E-002    0.000000000000000E+000
 -2.610000000000000E-002    0.000000000000000E+000
 -2.600000000000000E-002    0.000000000000000E+000
 -2.590000000000000E-002    0.000000000000000E+000
 -2.580000000000000E-002    0.000000000000000E+000
 -2.570000000000000E-002    0.000000000000000E+000
 -2.560000000000000E-002    0.000000000000000E+000
 -2.550000000000000E-002    0.000000000000000E+000
 -2.540000000000000E-002    0.000000000000000E+000
 -2.530000000000000E-002    0.000000000000000E+000
 -2.520000000000000E-002    0.000000000000000E+000
 -2.510000000000000E-002    0.000000000000000E+000
 -2.500000000000000E-002    0.000000000000000E+000
 -2.490000000000000E-002    0.000000000000000E+000
 -2.480000000000000E-002    0.000000000000000E+000
 -2.470000000000000E-002    0.000000000000000E+000
 -2.460000000000000E-002    0.000000000000000E+000
 -2.450000000000000E-002    0.000000000000000E+000
 -2.440000000000000E-002    0.000000000000000E+000
 -2.430000000000000E-002    0.000000000000000E+000
 -2.420000000000000E-002    0.000000000000000E+000
 -2.410000000000000E-002    0.000000000000000E+000
 -2.400000000000000E-002    0.000000000000000E+000
 -2.390000000000000E-002    0.000000000000000E+000
 -2.380000000000000E-002    0.000000000000000E+000
 -2.370000000000000E-002    0.000000000000000E+000
 -2.360000000000000E-002    0.000000000000000E+000
 -2.350000000000000E-002    0.000000000000000E+000
 -2.340000000000000E-002    6.414635304221270E-048
 -2.330000000000000E-002    6.121959411835589E-047
 -2.320000000000000E-002    1.245774000047855E-046
 -2.310000000000000E-002    1.879352058912152E-046
 -2.300000000000000E-002    2.512930117776448E-046
 -2.290000000000000E-002    3.018215470556319E-046
 -2.280000000000000E-002    2.825776411429681E-046
 -2.270000000000000E-002    1.043447342819993E-046
 -2.260000000000000E-002   -2.682380137744060E-046
 -2.250000000000000E-002   -1.015274766354722E-045
 -2.240000000000000E-002   -2.005185158743280E-045
 -2.230000000000000E-002   -3.009635396249523E-045
 -2.220000000000000E-002   -3.955164943553313E-045
 -2.210000000000000E-002   -4.365474178418981E-045
 -2.200000000000000E-002   -3.499246385916251E-045
 -2.190000000000000E-002   -2.295469340970027E-045
 -2.180000000000000E-002    1.604080834812212E-045
 -2.170000000000000E-002    8.029523868987451E-045
 -2.160000000000000E-002    1.603547174288557E-044
 -2.150000000000000E-002    2.639919125099423E-044
 -2.140000000000000E-002    3.728707368996340E-044
 -2.130000000000000E-002    4.566297826374510E-044
 -2.120000000000000E-002    4.673791313512827E-044
 -2.110000000000000E-002    3.561527918255703E-044
 -2.100000000000000E-002    5.800398176199018E-045
 -2.090000000000000E-002   -4.824828132220774E-044
 -2.080000000000000E-002   -1.285903091474741E-043
 -2.070000000000000E-002   -2.287918931968852E-043
 -2.060000000000000E-002   -3.365866100132874E-043
 -2.050000000000000E-002   -4.242967295796539E-043
 -2.040000000000000E-002   -4.529803231220526E-043
 -2.030000000000000E-002   -3.726783012915252E-043
 -2.020000000000000E-002   -1.287380990375000E-043
 -2.010000000000000E-002    3.230444337646331E-043
 -2.000000000000000E-002    9.990059814965327E-043
 -1.990000000000000E-002    1.863515798202043E-042
 -1.980000000000000E-002    2.801695119852151E-042
 -1.970000000000000E-002    3.598141013268529E-042
 -1.960000000000000E-002    3.936474145390728E-042
 -1.950000000000000E-002    3.413066023175334E-042
 -1.940000000000000E-002    1.597367886235267E-042
 -1.930000000000000E-002   -1.869037146584436E-042
 -1.920000000000000E-002   -7.122343611623964E-042
 -1.910000000000000E-002   -1.389414425106281E-041
 -1.900000000000000E-002   -2.132660771632992E-041
 -1.890000000000000E-002   -2.782344889156358E-041
 -1.880000000000000E-002   -3.101920441773799E-041
 -1.870000000000000E-002   -2.793789237294676E-041
 -1.860000000000000E-002   -1.541225694221831E-041
 -1.850000000000000E-002    9.174435289170685E-042
 -1.840000000000000E-002    4.683696615066542E-041
 -1.830000000000000E-002    9.572025198504908E-041
 -1.820000000000000E-002    1.498245975774281E-040
 -1.810000000000000E-002    1.980670359991425E-040
 -1.800000000000000E-002    2.241340535803368E-040
 -1.790000000000000E-002    2.076431809908333E-040
 -1.780000000000000E-002    1.270835258350442E-040
 -1.770000000000000E-002   -3.518539466147626E-041
 -1.760000000000000E-002   -2.859869440051088E-040
 -1.750000000000000E-002   -6.131301059238505E-040
 -1.740000000000000E-002   -9.773948443914323E-040
 -1.730000000000000E-002   -1.306903079715875E-039
 -1.720000000000000E-002   -1.496758020175529E-039
 -1.710000000000000E-002   -1.417050408037187E-039
 -1.700000000000000E-002   -9.319566672172350E-040
 -1.690000000000000E-002    6.873809124022749E-041
 -1.680000000000000E-002    1.626820029354385E-039
 -1.670000000000000E-002    3.666227944456783E-039
 -1.660000000000000E-002    5.946079168787918E-039
 -1.650000000000000E-002    8.029561006832362E-039
 -1.640000000000000E-002    9.285414311019645E-039
 -1.630000000000000E-002    8.939603457720499E-039
 -1.620000000000000E-002    6.191491197599996E-039
 -1.610000000000000E-002    4.001782556824460E-040
 -1.600000000000000E-002   -8.668122133282438E-039
 -1.590000000000000E-002   -2.056120907729717E-038
 -1.580000000000000E-002   -3.388378244035871E-038
 -1.570000000000000E-002   -4.613822809062447E-038
 -1.560000000000000E-002   -5.375505751763964E-038
 -1.550000000000000E-002   -5.240544949705491E-038
 -1.540000000000000E-002   -3.766624085539116E-038
 -1.530000000000000E-002   -6.056298054600357E-039
 -1.520000000000000E-002    4.361935086917907E-038
 -1.510000000000000E-002    1.087904436321652E-037
 -1.500000000000000E-002    1.818023714390312E-037
 -1.490000000000000E-002    2.491628816298041E-037
 -1.480000000000000E-002    2.918273161558690E-037
 -1.470000000000000E-002    2.869786034271956E-037
 -1.460000000000000E-002    2.116213109489179E-037
 -1.450000000000000E-002    4.802552112191320E-038
 -1.440000000000000E-002   -2.093773521843491E-037
 -1.430000000000000E-002   -5.465947794096791E-037
 -1.420000000000000E-002   -9.237074663118541E-037
 -1.410000000000000E-002   -1.271579339200550E-036
 -1.400000000000000E-002   -1.493939882893290E-036
 -1.390000000000000E-002   -1.476955526010667E-036
 -1.380000000000000E-002   -1.107631894271085E-036
 -1.370000000000000E-002   -3.009140942053389E-037
 -1.360000000000000E-002    9.667893235979576E-037
 -1.350000000000000E-002    2.622555853662427E-036
 -1.340000000000000E-002    4.467951072472621E-036
 -1.330000000000000E-002    6.165809781456168E-036
 -1.320000000000000E-002    7.253350081401304E-036
 -1.310000000000000E-002    7.190885683735935E-036
 -1.300000000000000E-002    5.451315532052121E-036
 -1.290000000000000E-002    1.648365136425653E-036
 -1.280000000000000E-002   -4.308486173512646E-036
 -1.270000000000000E-002   -1.205625956309908E-035
 -1.260000000000000E-002   -2.065335010331087E-035
 -1.250000000000000E-002   -2.853099544041732E-035
 -1.240000000000000E-002   -3.356737128863122E-035
 -1.230000000000000E-002   -3.332264787978238E-035
 -1.220000000000000E-002   -2.545319205819267E-035
 -1.210000000000000E-002   -8.289791092249109E-036
 -1.200000000000000E-002    1.847983932825581E-035
 -1.190000000000000E-002    5.313448966880237E-035
 -1.180000000000000E-002    9.140640938885592E-035
 -1.170000000000000E-002    1.263208286945640E-034
 -1.160000000000000E-002    1.485792753356755E-034
 -1.150000000000000E-002    1.476367193601968E-034
 -1.140000000000000E-002    1.135293188577224E-034
 -1.130000000000000E-002    3.936353375185323E-035
 -1.120000000000000E-002   -7.581153844797934E-035
 -1.110000000000000E-002   -2.242322192647872E-034
 -1.100000000000000E-002   -3.874154600069019E-034
 -1.090000000000000E-002   -5.356979680169421E-034
 -1.080000000000000E-002   -6.300749606470757E-034
 -1.070000000000000E-002   -6.268959229089330E-034
 -1.060000000000000E-002   -4.855666322439239E-034
 -1.050000000000000E-002   -1.787953038730601E-034
 -1.040000000000000E-002    2.958384042134596E-034
 -1.030000000000000E-002    9.050121362123896E-034
 -1.020000000000000E-002    1.572183870143833E-033
 -1.010000000000000E-002    2.176553270213925E-033
 -1.000000000000000E-002    2.561320496877065E-033
 -9.899999999999999E-003    2.553202879104109E-033
 -9.800000000000000E-003    1.993475931981246E-033
 -9.699999999999999E-003    7.783725393721873E-034
 -9.599999999999999E-003   -1.096250505871195E-033
 -9.500000000000000E-003   -3.494037956490489E-033
 -9.399999999999999E-003   -6.111479288083385E-033
 -9.299999999999999E-003   -8.476901989748912E-033
 -9.200000000000000E-003   -9.985452461529535E-033
 -9.099999999999999E-003   -9.976605762777310E-033
 -8.999999999999999E-003   -7.854037854034805E-033
 -8.900000000000000E-003   -3.238453011853213E-033
 -8.799999999999999E-003    3.866850664418656E-033
 -8.699999999999999E-003    1.292841111894029E-032
 -8.600000000000000E-003    2.279168196045979E-032
 -8.499999999999999E-003    3.168793776730507E-032
 -8.399999999999999E-003    3.737482172268947E-032
 -8.300000000000000E-003    3.743116011962022E-032
 -8.199999999999999E-003    2.970140552871002E-032
 -8.100000000000000E-003    1.285125157107157E-032
 -8.000000000000000E-003   -1.304214490261542E-032
 -7.899999999999999E-003   -4.597776398429664E-032
 -7.800000000000000E-003   -8.173378040224598E-032
 -7.699999999999999E-003   -1.139285941860989E-031
 -7.599999999999999E-003   -1.345588141898254E-031
 -7.499999999999999E-003   -1.350756855863010E-031
 -7.399999999999999E-003   -1.079699394241121E-031
 -7.299999999999999E-003   -4.871665295119103E-032
 -7.199999999999999E-003    4.219761732104207E-032
 -7.100000000000000E-003    1.575608954616438E-031
 -6.999999999999999E-003    2.825059828838823E-031
 -6.899999999999999E-003    3.948400934211463E-031
 -6.800000000000000E-003    4.670134006403877E-031
 -6.699999999999999E-003    4.698988391983266E-031
 -6.599999999999999E-003    3.782369163185577E-031
 -6.499999999999999E-003    1.772013432628671E-031
 -6.399999999999999E-003   -1.308826462684110E-031
 -6.299999999999999E-003   -5.210045228633479E-031
 -6.199999999999999E-003   -9.426741339961814E-031
 -6.100000000000000E-003   -1.321393316908265E-030
 -5.999999999999999E-003   -1.565560309312100E-030
 -5.899999999999999E-003   -1.579253525242220E-030
 -5.800000000000000E-003   -1.280280640086237E-030
 -5.699999999999999E-003   -6.215857652011560E-031
 -5.599999999999999E-003    3.872300585802962E-031
 -5.499999999999999E-003    1.662634527896127E-030
 -5.399999999999999E-003    3.039093830907688E-030
 -5.299999999999999E-003    4.274935647557760E-030
 -5.199999999999999E-003    5.075604535147332E-030
 -5.099999999999999E-003    5.135367841853781E-030
 -4.999999999999999E-003    4.195119136709044E-030
 -4.899999999999999E-003    2.109876816524391E-030
 -4.799999999999999E-003   -1.084495805554985E-030
 -4.699999999999999E-003   -5.119081830086301E-030
 -4.599999999999999E-003   -9.469475334787339E-030
 -4.499999999999999E-003   -1.337730931947902E-029
 -4.399999999999999E-003   -1.592562465826833E-029
 -4.299999999999999E-003   -1.617027702297253E-029
 -4.199999999999999E-003   -1.331899498058075E-029
 -4.099999999999999E-003   -6.937445066201269E-030
 -3.999999999999999E-003    2.850326398218450E-030
 -3.899999999999999E-003    1.520890296874027E-029
 -3.799999999999999E-003    2.853142936294386E-029
 -3.699999999999999E-003    4.051368975350870E-029
 -3.599999999999999E-003    4.838954733612954E-029
 -3.499999999999999E-003    4.933134507746493E-029
 -3.399999999999999E-003    4.098704675995466E-029
 -3.299999999999999E-003    2.209002509612726E-029
 -3.199999999999999E-003   -6.956754765103784E-030
 -3.099999999999999E-003   -4.364546284491420E-029
 -2.999999999999999E-003   -8.320845318651374E-029
 -2.899999999999999E-003   -1.188595296697420E-028
 -2.799999999999999E-003   -1.425041571718331E-028
 -2.699999999999999E-003   -1.459207769534543E-028
 -2.599999999999999E-003   -1.223229998411587E-028
 -2.499999999999999E-003   -6.811084828414469E-029
 -2.399999999999999E-003    1.547554196916480E-029
 -2.299999999999999E-003    1.211520127457459E-028
 -2.199999999999999E-003    2.352045918496129E-028
 -2.099999999999999E-003    3.382386357412920E-028
 -1.999999999999999E-003    4.072503976921544E-028
 -1.899999999999999E-003    4.190057984080043E-028
 -1.799999999999999E-003    3.544505815408369E-028
 -1.699999999999999E-003    2.035966434198967E-028
 -1.599999999999999E-003   -2.992507583169226E-029
 -1.499999999999999E-003   -3.256221560524367E-028
 -1.399999999999999E-003   -6.452120572777731E-028
 -1.299999999999999E-003   -9.348483087163841E-028
 -1.199999999999999E-003   -1.130971228733779E-027
 -1.099999999999999E-003   -1.169685496107515E-027
 -9.999999999999989E-004   -9.988585222366556E-028
 -8.999999999999990E-004   -5.913815439582781E-028
 -7.999999999999990E-004    4.262436482913850E-029
 -6.999999999999989E-004    8.472908484051547E-028
 -5.999999999999990E-004    1.718831366296837E-027
 -4.999999999999989E-004    2.511891241867931E-027
 -3.999999999999989E-004    3.055560381126450E-027
 -2.999999999999989E-004    3.178653939703743E-027
 -1.999999999999989E-004    2.741990626672847E-027
 -9.999999999999892E-005    1.673433892468650E-027
  1.084202172485504E-018   -2.054341006096003E-031
  1.000000000000011E-004   -2.131307864112298E-027
  2.000000000000011E-004   -4.446487916589092E-027
  3.000000000000011E-004   -6.564009072990703E-027
  4.000000000000011E-004   -8.036285138686033E-027
  5.000000000000011E-004   -8.416126041283851E-027
  6.000000000000011E-004   -7.340548265228171E-027
  7.000000000000011E-004   -4.621009600725557E-027
  8.000000000000011E-004   -3.247815489199697E-028
  9.000000000000012E-004    5.170155230330023E-027
  1.000000000000001E-003    1.116392600518532E-026
  1.100000000000001E-003    1.668078684631201E-026
  1.200000000000001E-003    2.057856752001878E-026
  1.300000000000001E-003    2.171749721045897E-026
  1.400000000000001E-003    1.917214440247561E-026
  1.500000000000001E-003    1.245798934733275E-026
  1.600000000000001E-003    1.734155333159571E-027
  1.700000000000001E-003   -1.206153292523613E-026
  1.800000000000001E-003   -2.718740267361628E-026
  1.900000000000001E-003   -4.121518352828152E-026
  2.000000000000001E-003   -5.130368764545791E-026
  2.100000000000001E-003   -5.461742906997101E-026
  2.200000000000001E-003   -4.884888425826974E-026
  2.300000000000001E-003   -3.277363509531512E-026
  2.400000000000001E-003   -6.743987328182078E-027
  2.500000000000001E-003    2.698508097496142E-026
  2.600000000000001E-003    6.419899790584703E-026
  2.700000000000001E-003    9.901189499048439E-026
  2.800000000000001E-003    1.245315036951167E-025
  2.900000000000001E-003    1.338697849638597E-025
  3.000000000000001E-003    1.213977835963638E-025
  3.100000000000001E-003    8.407359875427372E-026
  3.200000000000001E-003    2.261802943889468E-026
  3.300000000000001E-003   -5.771337308169135E-026
  3.400000000000001E-003   -1.469990186738419E-025
  3.500000000000001E-003   -2.313365872569808E-025
  3.600000000000001E-003   -2.944128234963951E-025
  3.700000000000001E-003   -3.198809872953917E-025
  3.800000000000001E-003   -2.943024302077649E-025
  3.900000000000001E-003   -2.102501560288773E-025
  4.000000000000001E-003   -6.904941399072267E-026
  4.100000000000001E-003    1.174254675384869E-025
  4.200000000000001E-003    3.264413057685009E-025
  4.300000000000001E-003    5.259803724049188E-025
  4.400000000000001E-003    6.783466866017343E-025
  4.500000000000001E-003    7.456169225884213E-025
  4.600000000000002E-003    6.963727344905849E-025
  4.700000000000001E-003    5.127930917325126E-025
  4.800000000000001E-003    1.969120494512742E-025
  4.900000000000002E-003   -2.252681560697464E-025
  5.000000000000001E-003   -7.030283102835773E-025
  5.100000000000001E-003   -1.164428755682111E-024
  5.200000000000001E-003   -1.524370192720882E-024
  5.300000000000002E-003   -1.696784186025012E-024
  5.400000000000001E-003   -1.609686558310967E-024
  5.500000000000001E-003   -1.221034938645109E-024
  5.600000000000002E-003   -5.327396585374415E-025
  5.700000000000001E-003    4.000670209467323E-025
  5.800000000000001E-003    1.467183255557410E-024
  5.900000000000002E-003    2.510838397973552E-024
  6.000000000000001E-003    3.343225701138578E-024
  6.100000000000001E-003    3.773106842261912E-024
  6.200000000000002E-003    3.638712630337290E-024
  6.300000000000002E-003    2.842461419847232E-024
  6.400000000000001E-003    1.381744640547477E-024
  6.500000000000001E-003   -6.304860878327239E-025
  6.600000000000002E-003   -2.961100800398513E-024
  6.700000000000001E-003   -5.272294424956684E-024
  6.800000000000001E-003   -7.158695420877408E-024
  6.900000000000002E-003   -8.204024392758183E-024
  7.000000000000001E-003   -8.051419647890780E-024
  7.100000000000001E-003   -6.477907940266290E-024
  7.200000000000002E-003   -3.460834816448015E-024
  7.300000000000002E-003    7.770217759585366E-025
  7.400000000000001E-003    5.755868756620198E-024
  7.500000000000001E-003    1.076967945016596E-023
  7.600000000000002E-003    1.496253189263191E-023
  7.700000000000001E-003    1.744637638361672E-023
  7.800000000000001E-003    1.744805753294284E-023
  7.900000000000001E-003    1.446588509774001E-023
  8.000000000000002E-003    8.410474517470875E-024
  8.100000000000001E-003   -2.976746281150108E-025
  8.200000000000001E-003   -1.069931380418388E-023
  8.300000000000002E-003   -2.135477381573566E-023
  8.400000000000001E-003   -3.049649319500053E-023
  8.500000000000002E-003   -3.626782623398979E-023
  8.600000000000002E-003   -3.702364823016335E-023
  8.700000000000001E-003   -3.165303650760628E-023
  8.800000000000002E-003   -1.987272989639170E-023
  8.900000000000002E-003   -2.435355618823996E-024
  9.000000000000001E-003    1.879963984537905E-023
  9.100000000000002E-003    4.097058942268330E-023
  9.200000000000002E-003    6.050920603351470E-023
  9.300000000000001E-003    7.361266907447374E-023
  9.400000000000002E-003    7.684477219777330E-023
  9.500000000000001E-003    6.778773150624811E-023
  9.600000000000001E-003    4.564298015176664E-023
  9.700000000000002E-003    1.166931509515868E-023
  9.800000000000001E-003   -3.064645825081372E-023
  9.900000000000001E-003   -7.576452695076976E-023
  1.000000000000000E-002   -1.166467372358289E-022
  1.010000000000000E-002   -1.456661757568775E-022
  1.020000000000000E-002   -1.557825385141488E-022
  1.030000000000000E-002   -1.418326424317948E-022
  1.040000000000000E-002   -1.017390162742079E-022
  1.050000000000000E-002   -3.741769796883200E-023
  1.060000000000000E-002    4.482157981423276E-023
  1.070000000000000E-002    1.345411201738269E-022
  1.080000000000000E-002    2.181809964558798E-022
  1.090000000000000E-002    2.807665021467704E-022
  1.100000000000000E-002    3.081552629555411E-022
  1.110000000000000E-002    2.895422048955136E-022
  1.120000000000000E-002    2.198477963901878E-022
  1.130000000000000E-002    1.015698148822663E-022
  1.140000000000000E-002   -5.430444186484743E-023
  1.150000000000000E-002   -2.286406197002658E-022
  1.160000000000000E-002   -3.959142236883968E-022
  1.170000000000000E-002   -5.273331311993781E-022
  1.180000000000000E-002   -5.950397751517301E-022
  1.190000000000000E-002   -5.768791482439120E-022
  1.200000000000000E-002   -4.610373732882627E-022
  1.210000000000000E-002   -2.497585814852922E-022
  1.220000000000000E-002    3.863129045811884E-023
  1.230000000000000E-002    3.700149559947057E-022
  1.240000000000000E-002    6.974280083662504E-022
  1.250000000000000E-002    9.666165393879244E-022
  1.260000000000000E-002    1.123725250184047E-021
  1.270000000000000E-002    1.124202869438322E-021
  1.280000000000000E-002    9.416607080187896E-022
  1.290000000000000E-002    5.752179596879983E-022
  1.300000000000000E-002    5.387653339028904E-023
  1.310000000000000E-002   -5.632784927471527E-022
  1.320000000000000E-002   -1.191771271121918E-021
  1.330000000000000E-002   -1.731346150369342E-021
  1.340000000000000E-002   -2.079724162398599E-021
  1.350000000000000E-002   -2.148929015503412E-021
  1.360000000000000E-002   -1.881928180178616E-021
  1.370000000000000E-002   -1.266923028266720E-021
  1.380000000000000E-002   -3.465849840478171E-022
  1.390000000000000E-002    7.800794235506477E-022
  1.400000000000000E-002    1.964708882554633E-021
  1.410000000000000E-002    3.025686185933180E-021
  1.420000000000000E-002    3.772189949607813E-021
  1.430000000000000E-002    4.033542899660803E-021
  1.440000000000000E-002    3.689952676019414E-021
  1.450000000000000E-002    2.699872732592636E-021
  1.460000000000000E-002    1.119040785750191E-021
  1.470000000000000E-002   -8.931855605510389E-022
  1.480000000000000E-002   -3.083181064894107E-021
  1.490000000000000E-002   -5.129025684349485E-021
  1.500000000000000E-002   -6.681484329695053E-021
  1.510000000000000E-002   -7.415694633072024E-021
  1.520000000000000E-002   -7.086914561916166E-021
  1.530000000000000E-002   -5.581996667945512E-021
  1.540000000000000E-002   -2.957668548416011E-021
  1.550000000000000E-002    5.424973503165025E-022
  1.560000000000000E-002    4.498388941530199E-021
  1.570000000000000E-002    8.353394607942918E-021
  1.580000000000000E-002    1.148224371249151E-020
  1.590000000000000E-002    1.327999836301350E-020
  1.600000000000000E-002    1.326114192187669E-020
  1.610000000000000E-002    1.115449188636057E-020
  1.620000000000000E-002    6.978170844973131E-021
  1.630000000000000E-002    1.079778008703839E-021
  1.640000000000000E-002   -5.869756341804991E-021
  1.650000000000000E-002   -1.293448358119149E-020
  1.660000000000000E-002   -1.902228957608068E-020
  1.670000000000000E-002   -2.303435443719435E-020
  1.680000000000000E-002   -2.403749951750981E-020
  1.690000000000000E-002   -2.143536093038499E-020
  1.700000000000000E-002   -1.511116035607153E-020
  1.710000000000000E-002   -5.515356628545998E-021
  1.720000000000000E-002    6.323590084768097E-021
  1.730000000000000E-002    1.887798099544779E-020
  1.740000000000000E-002    3.028958387914131E-020
  1.750000000000000E-002    3.861436774797904E-020
  1.760000000000000E-002    4.211542449594914E-020
  1.770000000000000E-002    3.956469690253792E-020
  1.780000000000000E-002    3.050721089257297E-020
  1.790000000000000E-002    1.544087206147498E-020
  1.800000000000000E-002   -4.128105724854710E-021
  1.810000000000000E-002   -2.578043744370577E-020
  1.820000000000000E-002   -4.643531949668376E-020
  1.830000000000000E-002   -6.274063498324715E-020
  1.840000000000000E-002   -7.155941641209089E-020
  1.850000000000000E-002   -7.048954234321801E-020
  1.860000000000000E-002   -5.833953519673283E-020
  1.870000000000000E-002   -3.548014464894001E-020