 -4.000000000000000E-002    0.000000000000000E+000
 -3.990000000000000E-002    0.000000000000000E+000
 -3.980000000000000E-002    0.000000000000000E+000
 -3.970000000000000E-002    0.000000000000000E+000
 -3.960000000000000E-002    0.000000000000000E+000
 -3.950000000000000E-002    0.000000000000000E+000
 -3.940000000000000E-002    0.000000000000000E+000
 -3.930000000000000E-002    0.000000000000000E+000
 -3.920000000000000E-002    0.000000000000000E+000
 -3.910000000000000E-002    0.000000000000000E+000
 -3.900000000000000E-002    0.000000000000000E+000
 -3.890000000000000E-002    0.000000000000000E+000
 -3.880000000000000E-002    0.000000000000000E+000
 -3.870000000000000E-002    0.000000000000000E+000
 -3.860000000000000E-002    0.000000000000000E+000
 -3.850000000000000E-002    0.000000000000000E+000
 -3.840000000000000E-002    0.000000000000000E+000
 -3.830000000000000E-002    0.000000000000000E+000
 -3.820000000000000E-002    0.000000000000000E+000
 -3.810000000000000E-002    0.000000000000000E+000
 -3.800000000000000E-002    0.000000000000000E+000
 -3.790000000000000E-002    0.000000000000000E+000
 -3.780000000000000E-002    0.000000000000000E+000
 -3.770000000000000E-002    0.000000000000000E+000
 -3.760000000000000E-002    0.000000000000000E+000
 -3.750000000000000E-002    0.000000000000000E+000
 -3.740000000000000E-002    0.000000000000000E+000
 -3.730000000000000E-002    0.000000000000000E+000
 -3.720000000000000E-002    0.000000000000000E+000
 -3.710000000000000E-002    0.000000000000000E+000
 -3.700000000000000E-002    0.000000000000000E+000
 -3.690000000000000E-002    0.000000000000000E+000
 -3.680000000000000E-002    0.000000000000000E+000
 -3.670000000000000E-002    0.000000000000000E+000
 -3.660000000000000E-002    0.000000000000000E+000
 -3.650000000000000E-002    0.000000000000000E+000
 -3.640000000000000E-002    0.000000000000000E+000
 -3.630000000000000E-002    0.000000000000000E+000
 -3.620000000000000E-002    0.000000000000000E+000
 -3.610000000000000E-002    0.000000000000000E+000
 -3.600000000000000E-002    0.000000000000000E+000
 -3.590000000000000E-002    0.000000000000000E+000
 -3.580000000000000E-002    0.000000000000000E+000
 -3.570000000000000E-002    0.000000000000000E+000
 -3.560000000000000E-002    0.000000000000000E+000
 -3.550000000000000E-002    0.000000000000000E+000
 -3.540000000000000E-002    0.000000000000000E+000
 -3.530000000000000E-002    0.000000000000000E+000
 -3.520000000000000E-002    0.000000000000000E+000
 -3.510000000000000E-002    0.000000000000000E+000
 -3.500000000000000E-002    0.000000000000000E+000
 -3.490000000000000E-002    0.000000000000000E+000
 -3.480000000000000E-002    0.000000000000000E+000
 -3.470000000000000E-002    0.000000000000000E+000
 -3.460000000000000E-002    0.000000000000000E+000
 -3.450000000000000E-002    0.000000000000000E+000
 -3.440000000000000E-002    0.000000000000000E+000
 -3.430000000000000E-002    0.000000000000000E+000
 -3.420000000000000E-002    0.000000000000000E+000
 -3.410000000000000E-002    0.000000000000000E+000
 -3.400000000000000E-002    0.000000000000000E+000
 -3.390000000000000E-002    0.000000000000000E+000
 -3.380000000000000E-002    0.000000000000000E+000
 -3.370000000000000E-002    0.000000000000000E+000
 -3.360000000000000E-002    0.000000000000000E+000
 -3.350000000000000E-002    0.000000000000000E+000
 -3.340000000000000E-002    0.000000000000000E+000
 -3.330000000000000E-002    0.000000000000000E+000
 -3.320000000000000E-002    0.000000000000000E+000
 -3.310000000000000E-002    0.000000000000000E+000
 -3.300000000000000E-002    0.000000000000000E+000
 -3.290000000000000E-002    0.000000000000000E+000
 -3.280000000000000E-002    0.000000000000000E+000
 -3.270000000000000E-002    0.000000000000000E+000
 -3.260000000000000E-002    0.000000000000000E+000
 -3.250000000000000E-002    0.000000000000000E+000
 -3.240000000000000E-002    0.000000000000000E+000
 -3.230000000000000E-002    0.000000000000000E+000
 -3.220000000000000E-002    0.000000000000000E+000
 -3.210000000000000E-002    0.000000000000000E+000
 -3.200000000000000E-002    0.000000000000000E+000
 -3.190000000000000E-002    0.000000000000000E+000
 -3.180000000000000E-002    0.000000000000000E+000
 -3.170000000000000E-002    0.000000000000000E+000
 -3.160000000000000E-002    0.000000000000000E+000
 -3.150000000000000E-002    0.000000000000000E+000
 -3.140000000000000E-002    0.000000000000000E+000
 -3.130000000000000E-002    0.000000000000000E+000
 -3.120000000000000E-002    0.000000000000000E+000
 -3.110000000000000E-002    0.000000000000000E+000
 -3.100000000000000E-002    0.000000000000000E+000
 -3.090000000000000E-002    0.000000000000000E+000
 -3.080000000000000E-002    0.000000000000000E+000
 -3.070000000000000E-002    0.000000000000000E+000
 -3.060000000000000E-002    0.000000000000000E+000
 -3.050000000000000E-002    0.000000000000000E+000
 -3.040000000000000E-002    0.000000000000000E+000
 -3.030000000000000E-002    0.000000000000000E+000
 -3.020000000000000E-002    0.000000000000000E+000
 -3.010000000000000E-002    0.000000000000000E+000
 -3.000000000000000E-002    0.000000000000000E+000
 -2.990000000000000E-002    0.000000000000000E+000
 -2.980000000000000E-002    0.000000000000000E+000
 -2.970000000000000E-002    0.000000000000000E+000
 -2.960000000000000E-002    0.000000000000000E+000
 -2.950000000000000E-002    0.000000000000000E+000
 -2.940000000000000E-002    0.000000000000000E+000
 -2.930000000000000E-002    0.000000000000000E+000
 -2.920000000000000E-002    0.000000000000000E+000
 -2.910000000000000E-002    0.000000000000000E+000
 -2.900000000000000E-002    0.000000000000000E+000
 -2.890000000000000E-002    0.000000000000000E+000
 -2.880000000000000E-002    0.000000000000000E+000
 -2.870000000000000E-002    0.000000000000000E+000
 -2.860000000000000E-002    0.000000000000000E+000
 -2.850000000000000E-002    0.000000000000000E+000
 -2.840000000000000E-002    0.000000000000000E+000
 -2.830000000000000E-002    0.000000000000000E+000
 -2.820000000000000E-002    0.000000000000000E+000
 -2.810000000000000E-002    0.000000000000000E+000
 -2.800000000000000E-002    0.000000000000000E+000
 -2.790000000000000E-002    0.000000000000000E+000
 -2.780000000000000E-002    0.000000000000000E+000
 -2.770000000000000E-002    0.000000000000000E+000
 -2.760000000000000E-002    0.000000000000000E+000
 -2.750000000000000E-002    0.000000000000000E+000
 -2.740000000000000E-002    0.000000000000000E+000
 -2.730000000000000E-002    0.000000000000000E+000
 -2.720000000000000E-002    0.000000000000000E+000
 -2.710000000000000E-002    0.000000000000000E+000
 -2.700000000000000E-002    0.000000000000000E+000
 -2.690000000000000E-002    0.000000000000000E+000
 -2.680000000000000E-002    0.000000000000000E+000
 -2.670000000000000E-002    0.000000000000000E+000
 -2.660000000000000E-002    0.000000000000000E+000
 -2.650000000000000E-002    0.000000000000000E+000
 -2.640000000000000E-002    0.000000000000000E+000
 -2.630000000000000E-002    0.000000000000000E+000
 -2.620000000000000E-002    0.000000000000000E+000
 -2.610000000000000E-002    0.000000000000000E+000
 -2.600000000000000E-002    0.000000000000000E+000
 -2.590000000000000E-002    0.000000000000000E+000
 -2.580000000000000E-002    0.000000000000000E+000
 -2.570000000000000E-002    0.000000000000000E+000
 -2.560000000000000E-002    0.000000000000000E+000
 -2.550000000000000E-002    0.000000000000000E+000
 -2.540000000000000E-002    0.000000000000000E+000
 -2.530000000000000E-002    0.000000000000000E+000
 -2.520000000000000E-002    0.000000000000000E+000
 -2.510000000000000E-002    0.000000000000000E+000
 -2.500000000000000E-002    0.000000000000000E+000
 -2.490000000000000E-002    0.000000000000000E+000
 -2.480000000000000E-002    0.000000000000000E+000
 -2.470000000000000E-002    0.000000000000000E+000
 -2.460000000000000E-002    0.000000000000000E+000
 -2.450000000000000E-002    0.000000000000000E+000
 -2.440000000000000E-002    0.000000000000000E+000
 -2.430000000000000E-002    0.000000000000000E+000
 -2.420000000000000E-002    0.000000000000000E+000
 -2.410000000000000E-002    0.000000000000000E+000
 -2.400000000000000E-002    0.000000000000000E+000
 -2.390000000000000E-002    0.000000000000000E+000
 -2.380000000000000E-002    0.000000000000000E+000
 -2.370000000000000E-002    0.000000000000000E+000
 -2.360000000000000E-002    0.000000000000000E+000
 -2.350000000000000E-002    0.000000000000000E+000
 -2.340000000000000E-002    0.000000000000000E+000
 -2.330000000000000E-002    0.000000000000000E+000
 -2.320000000000000E-002    0.000000000000000E+000
 -2.310000000000000E-002    0.000000000000000E+000
 -2.300000000000000E-002    0.000000000000000E+000
 -2.290000000000000E-002    0.000000000000000E+000
 -2.280000000000000E-002    0.000000000000000E+000
 -2.270000000000000E-002    0.000000000000000E+000
 -2.260000000000000E-002    0.000000000000000E+000
 -2.250000000000000E-002    0.000000000000000E+000
 -2.240000000000000E-002    0.000000000000000E+000
 -2.230000000000000E-002    0.000000000000000E+000
 -2.220000000000000E-002    0.000000000000000E+000
 -2.210000000000000E-002    0.000000000000000E+000
 -2.200000000000000E-002    0.000000000000000E+000
 -2.190000000000000E-002    0.000000000000000E+000
 -2.180000000000000E-002    0.000000000000000E+000
 -2.170000000000000E-002    0.000000000000000E+000
 -2.160000000000000E-002    0.000000000000000E+000
 -2.150000000000000E-002    0.000000000000000E+000
 -2.140000000000000E-002    0.000000000000000E+000
 -2.130000000000000E-002    0.000000000000000E+000
 -2.120000000000000E-002    0.000000000000000E+000
 -2.110000000000000E-002    0.000000000000000E+000
 -2.100000000000000E-002    0.000000000000000E+000
 -2.090000000000000E-002    0.000000000000000E+000
 -2.080000000000000E-002    0.000000000000000E+000
 -2.070000000000000E-002    0.000000000000000E+000
 -2.060000000000000E-002    0.000000000000000E+000
 -2.050000000000000E-002    0.000000000000000E+000
 -2.040000000000000E-002    0.000000000000000E+000
 -2.030000000000000E-002    0.000000000000000E+000
 -2.020000000000000E-002    0.000000000000000E+000
 -2.010000000000000E-002    0.000000000000000E+000
 -2.000000000000000E-002    0.000000000000000E+000
 -1.990000000000000E-002    0.000000000000000E+000
 -1.980000000000000E-002    0.000000000000000E+000
 -1.970000000000000E-002    0.000000000000000E+000
 -1.960000000000000E-002    0.000000000000000E+000
 -1.950000000000000E-002    0.000000000000000E+000
 -1.940000000000000E-002    0.000000000000000E+000
 -1.930000000000000E-002    0.000000000000000E+000
 -1.920000000000000E-002    0.000000000000000E+000
 -1.910000000000000E-002    0.000000000000000E+000
 -1.900000000000000E-002    0.000000000000000E+000
 -1.890000000000000E-002    0.000000000000000E+000
 -1.880000000000000E-002    0.000000000000000E+000
 -1.870000000000000E-002    0.000000000000000E+000
 -1.860000000000000E-002    0.000000000000000E+000
 -1.850000000000000E-002    0.000000000000000E+000
 -1.840000000000000E-002    0.000000000000000E+000
 -1.830000000000000E-002    0.000000000000000E+000
 -1.820000000000000E-002    0.000000000000000E+000
 -1.810000000000000E-002    0.000000000000000E+000
 -1.800000000000000E-002    0.000000000000000E+000
 -1.790000000000000E-002    0.000000000000000E+000
 -1.780000000000000E-002    0.000000000000000E+000
 -1.770000000000000E-002    0.000000000000000E+000
 -1.760000000000000E-002    0.000000000000000E+000
 -1.750000000000000E-002    0.000000000000000E+000
 -1.740000000000000E-002    0.000000000000000E+000
 -1.730000000000000E-002    0.000000000000000E+000
 -1.720000000000000E-002    0.000000000000000E+000
 -1.710000000000000E-002    0.000000000000000E+000
 -1.700000000000000E-002    0.000000000000000E+000
 -1.690000000000000E-002    0.000000000000000E+000
 -1.680000000000000E-002    0.000000000000000E+000
 -1.670000000000000E-002    0.000000000000000E+000
 -1.660000000000000E-002    0.000000000000000E+000
 -1.650000000000000E-002    0.000000000000000E+000
 -1.640000000000000E-002    0.000000000000000E+000
 -1.630000000000000E-002    0.000000000000000E+000
 -1.620000000000000E-002    0.000000000000000E+000
 -1.610000000000000E-002    0.000000000000000E+000
 -1.600000000000000E-002    0.000000000000000E+000
 -1.590000000000000E-002    0.000000000000000E+000
 -1.580000000000000E-002    0.000000000000000E+000
 -1.570000000000000E-002    0.000000000000000E+000
 -1.560000000000000E-002    0.000000000000000E+000
 -1.550000000000000E-002    0.000000000000000E+000
 -1.540000000000000E-002    0.000000000000000E+000
 -1.530000000000000E-002    0.000000000000000E+000
 -1.520000000000000E-002    0.000000000000000E+000
 -1.510000000000000E-002    0.000000000000000E+000
 -1.500000000000000E-002    0.000000000000000E+000
 -1.490000000000000E-002    0.000000000000000E+000
 -1.480000000000000E-002    0.000000000000000E+000
 -1.470000000000000E-002    0.000000000000000E+000
 -1.460000000000000E-002    0.000000000000000E+000
 -1.450000000000000E-002    0.000000000000000E+000
 -1.440000000000000E-002    0.000000000000000E+000
 -1.430000000000000E-002    0.000000000000000E+000
 -1.420000000000000E-002    0.000000000000000E+000
 -1.410000000000000E-002    0.000000000000000E+000
 -1.400000000000000E-002    0.000000000000000E+000
 -1.390000000000000E-002    0.000000000000000E+000
 -1.380000000000000E-002    0.000000000000000E+000
 -1.370000000000000E-002    0.000000000000000E+000
 -1.360000000000000E-002    0.000000000000000E+000
 -1.350000000000000E-002    0.000000000000000E+000
 -1.340000000000000E-002    0.000000000000000E+000
 -1.330000000000000E-002    0.000000000000000E+000
 -1.320000000000000E-002    0.000000000000000E+000
 -1.310000000000000E-002    0.000000000000000E+000
 -1.300000000000000E-002    0.000000000000000E+000
 -1.290000000000000E-002    0.000000000000000E+000
 -1.280000000000000E-002    0.000000000000000E+000
 -1.270000000000000E-002    0.000000000000000E+000
 -1.260000000000000E-002    0.000000000000000E+000
 -1.250000000000000E-002    0.000000000000000E+000
 -1.240000000000000E-002    0.000000000000000E+000
 -1.230000000000000E-002    0.000000000000000E+000
 -1.220000000000000E-002    0.000000000000000E+000
 -1.210000000000000E-002    0.000000000000000E+000
 -1.200000000000000E-002    0.000000000000000E+000
 -1.190000000000000E-002    0.000000000000000E+000
 -1.180000000000000E-002    0.000000000000000E+000
 -1.170000000000000E-002    0.000000000000000E+000
 -1.160000000000000E-002   -6.414635304221270E-048
 -1.150000000000000E-002   -6.977244119065092E-047
 -1.140000000000000E-002   -1.331302470770806E-046
 -1.130000000000000E-002   -1.964880529635102E-046
 -1.120000000000000E-002   -2.512930117776448E-046
 -1.110000000000000E-002   -2.384637411692023E-046
 -1.100000000000000E-002   -1.473091822978138E-046
 -1.090000000000000E-002    9.428153044958465E-047
 -1.080000000000000E-002    4.690692278255101E-046
 -1.070000000000000E-002    9.384993604531886E-046
 -1.060000000000000E-002    1.375656103905421E-045
 -1.050000000000000E-002    1.744189858124954E-045
 -1.040000000000000E-002    1.845407620828758E-045
 -1.030000000000000E-002    1.299723679249543E-045
 -1.020000000000000E-002    3.341493805105149E-046
 -1.010000000000000E-002   -7.323939996214497E-046
 -1.000000000000000E-002   -2.274648672582421E-045
 -9.899999999999999E-003   -4.139345680168915E-045
 -9.800000000000000E-003   -6.822905091942866E-045
 -9.699999999999999E-003   -8.838007686143659E-045
 -9.599999999999999E-003   -9.969036715197876E-045
 -9.500000000000000E-003   -8.893601377206528E-045
 -9.399999999999999E-003   -5.250531797652696E-045
 -9.299999999999999E-003    1.297767676845340E-045
 -9.200000000000000E-003    1.178717433641206E-044
 -9.099999999999999E-003    2.522002244198718E-044
 -8.999999999999999E-003    3.886281291832893E-044
 -8.900000000000000E-003    5.066128889889507E-044
 -8.799999999999999E-003    5.704967039433771E-044
 -8.699999999999999E-003    5.295108501168847E-044
 -8.600000000000000E-003    3.336549122673487E-044
 -8.499999999999999E-003   -5.265871963981739E-045
 -8.399999999999999E-003   -6.241384204604892E-044
 -8.300000000000000E-003   -1.337514546370758E-043
 -8.199999999999999E-003   -2.098408103346953E-043
 -8.100000000000000E-003   -2.748380903737797E-043
 -8.000000000000000E-003   -3.085119470973436E-043
 -7.899999999999999E-003   -2.854044971338974E-043
 -7.800000000000000E-003   -1.846014470700487E-043
 -7.699999999999999E-003    9.286508016811255E-045
 -7.599999999999999E-003    2.975057971005785E-043
 -7.499999999999999E-003    6.583371833186938E-043
 -7.399999999999999E-003    1.042807008135035E-042
 -7.299999999999999E-003    1.372861140676878E-042
 -7.199999999999999E-003    1.544454195568859E-042
 -7.100000000000000E-003    1.441126177103431E-042
 -6.999999999999999E-003    9.536080694257806E-043
 -6.899999999999999E-003    9.838233574622675E-045
 -6.800000000000000E-003   -1.389897496077958E-042
 -6.699999999999999E-003   -3.139862987036915E-042
 -6.599999999999999E-003   -5.002887063237484E-042
 -6.499999999999999E-003   -6.602947097980527E-042
 -6.399999999999999E-003   -7.447140225013593E-042
 -6.299999999999999E-003   -6.984586592133765E-042
 -6.199999999999999E-003   -4.709983747010877E-042
 -6.100000000000000E-003   -2.965589512203435E-043
 -5.999999999999999E-003    6.242892820448040E-042
 -5.899999999999999E-003    1.440154921325322E-041
 -5.800000000000000E-003    2.306862973395602E-041
 -5.699999999999999E-003    3.050860386509038E-041
 -5.599999999999999E-003    3.446878012176653E-041
 -5.499999999999999E-003    3.246243898361302E-041
 -5.399999999999999E-003    2.222814199501400E-041
 -5.299999999999999E-003    2.345956033224837E-042
 -5.199999999999999E-003   -2.705983855544190E-041
 -5.099999999999999E-003   -6.365484312622678E-041
 -4.999999999999999E-003   -1.024378383858757E-040
 -4.899999999999999E-003   -1.356838671570504E-040
 -4.799999999999999E-003   -1.534767521174904E-040
 -4.699999999999999E-003   -1.449808506169247E-040
 -4.599999999999999E-003   -1.004741847992101E-040
 -4.499999999999999E-003   -1.402281473767524E-041
 -4.399999999999999E-003    1.135299247492960E-040
 -4.299999999999999E-003    2.717991640715410E-040
 -4.199999999999999E-003    4.390370026676394E-040
 -4.099999999999999E-003    5.820699703095992E-040
 -3.999999999999999E-003    6.587737241704321E-040
 -3.899999999999999E-003    6.236054913947712E-040
 -3.799999999999999E-003    4.362688321697466E-040
 -3.699999999999999E-003    7.289633790032368E-041
 -3.599999999999999E-003   -4.616695067337335E-040
 -3.499999999999999E-003   -1.122783039825827E-039
 -3.399999999999999E-003   -1.819054055356440E-039
 -3.299999999999999E-003   -2.412846443860171E-039
 -3.199999999999999E-003   -2.731205726162184E-039
 -3.099999999999999E-003   -2.589155396437522E-039
 -2.999999999999999E-003   -1.825327789177111E-039
 -2.899999999999999E-003   -3.471586641480707E-040
 -2.799999999999999E-003    1.820378979766770E-039
 -2.699999999999999E-003    4.491793514676408E-039
 -2.599999999999999E-003    7.295644518434818E-039
 -2.499999999999999E-003    9.679424277571348E-039
 -2.399999999999999E-003    1.095600078582822E-038
 -2.299999999999999E-003    1.039828758443197E-038
 -2.199999999999999E-003    7.380918467111055E-039
 -2.099999999999999E-003    1.556899635118297E-039
 -1.999999999999999E-003   -6.955246023313719E-039
 -1.899999999999999E-003   -1.741041399137213E-038
 -1.799999999999999E-003   -2.834731752424163E-038
 -1.699999999999999E-003   -3.761821815920397E-038
 -1.599999999999999E-003   -4.257870121256349E-038
 -1.499999999999999E-003   -4.045957736193561E-038
 -1.399999999999999E-003   -2.891204828123232E-038
 -1.299999999999999E-003   -6.676308041373351E-039
 -1.199999999999999E-003    2.572235485983449E-038
 -1.099999999999999E-003    6.538912095221705E-038
 -9.999999999999989E-004    1.067558229912774E-037
 -8.999999999999990E-004    1.417313451074892E-037
 -7.999999999999990E-004    1.604489467188073E-037
 -6.999999999999989E-004    1.526796827825698E-037
 -5.999999999999990E-004    1.098644242575953E-037
 -4.999999999999989E-004    2.756664352674249E-038
 -3.999999999999989E-004   -9.201715538200754E-038
 -2.999999999999989E-004   -2.380020981107888E-037
 -1.999999999999989E-004   -3.898231854956692E-037
 -9.999999999999892E-005   -5.179181020028503E-037
  1.084202172485504E-018   -5.865672487463479E-037
  1.000000000000011E-004   -5.590960189559392E-037
  2.000000000000011E-004   -4.052185069106612E-037
  3.000000000000011E-004   -1.097664713101816E-037
  4.000000000000011E-004    3.185247490649650E-037
  5.000000000000011E-004    8.400037448738232E-037
  6.000000000000011E-004    1.380990116848311E-036
  7.000000000000011E-004    1.836644251600792E-036
  8.000000000000011E-004    2.081401153705700E-036
  9.000000000000012E-004    1.987533923575877E-036
  1.000000000000001E-003    1.450910431191685E-036
  1.100000000000001E-003    4.211581453963837E-037
  1.200000000000001E-003   -1.068470647101874E-036
  1.300000000000001E-003   -2.877870246129148E-036
  1.400000000000001E-003   -4.750698490429596E-036
  1.500000000000001E-003   -6.325735162107490E-036
  1.600000000000001E-003   -7.173994326303539E-036
  1.700000000000001E-003   -6.863019885538186E-036
  1.800000000000001E-003   -5.044641450884667E-036
  1.900000000000001E-003   -1.556295153184662E-036
  2.000000000000001E-003    3.480284895188092E-036
  2.100000000000001E-003    9.584291812352614E-036
  2.200000000000001E-003    1.588875745294812E-035
  2.300000000000001E-003    2.118330546442819E-035
  2.400000000000001E-003    2.404214148643948E-035
  2.500000000000001E-003    2.304043120134379E-035
  2.600000000000001E-003    1.704507559898859E-035
  2.700000000000001E-003    5.545800956588909E-036
  2.800000000000001E-003   -1.102743975919162E-035
  2.900000000000001E-003   -3.107035387053500E-035
  3.000000000000001E-003   -5.172962603511665E-035
  3.100000000000001E-003   -6.905689396344055E-035
  3.200000000000001E-003   -7.843730655121182E-035
  3.300000000000001E-003   -7.529778252430215E-035
  3.400000000000001E-003   -5.604483038098530E-035
  3.500000000000001E-003   -1.911826743275652E-035
  3.600000000000001E-003    3.401440716792452E-035
  3.700000000000001E-003    9.814417390599839E-035
  3.800000000000001E-003    1.641247476914584E-034
  3.900000000000001E-003    2.194056634459864E-034
  4.000000000000001E-003    2.494265580702560E-034
  4.100000000000001E-003    2.398740311704960E-034
  4.200000000000001E-003    1.796285944582844E-034
  4.300000000000001E-003    6.403353769979238E-035
  4.400000000000001E-003   -1.020670664677999E-034
  4.500000000000001E-003   -3.022062783895769E-034
  4.600000000000002E-003   -5.078099685761155E-034
  4.700000000000001E-003   -6.799752781147540E-034
  4.800000000000001E-003   -7.738823978997829E-034
  4.900000000000002E-003   -7.458005925728025E-034
  5.000000000000001E-003   -5.621170215777262E-034
  5.100000000000001E-003   -2.092297901626358E-034
  5.200000000000001E-003    2.973921375877573E-034
  5.300000000000002E-003    9.070506261646564E-034
  5.400000000000001E-003    1.532701214458033E-033
  5.500000000000001E-003    2.056682780807791E-033
  5.600000000000002E-003    2.344303430183828E-033
  5.700000000000001E-003    2.265041225795522E-033
  5.800000000000001E-003    1.719531833025560E-033
  5.900000000000002E-003    6.688005284598477E-034
  6.000000000000001E-003   -8.393454713649145E-034
  6.100000000000001E-003   -2.652852456030592E-033
  6.200000000000002E-003   -4.513068909108657E-033
  6.300000000000002E-003   -6.072611440553260E-033
  6.400000000000001E-003   -6.936102808974060E-033
  6.500000000000001E-003   -6.722745659161073E-033
  6.600000000000002E-003   -5.145072545906844E-033
  6.700000000000001E-003   -2.093318529178500E-033
  6.800000000000001E-003    2.289421054346785E-033
  6.900000000000002E-003    7.558738050761592E-033
  7.000000000000001E-003    1.296464920397601E-032
  7.100000000000001E-003    1.750557463032333E-032
  7.200000000000002E-003    2.004737742750029E-032
  7.300000000000002E-003    1.950359335349190E-032
  7.400000000000001E-003    1.505987622471456E-032
  7.500000000000001E-003    6.412016279293513E-033
  7.600000000000002E-003   -6.024701915536562E-033
  7.700000000000001E-003   -2.098391228138538E-032
  7.800000000000001E-003   -3.634259798824044E-032
  7.900000000000001E-003   -4.927942967458989E-032
  8.000000000000002E-003   -5.661394675936361E-032
  8.100000000000001E-003   -5.531346375715674E-032
  8.200000000000001E-003   -4.311819483253524E-032
  8.300000000000002E-003   -1.919794385721046E-032
  8.400000000000001E-003    1.527715241064970E-032
  8.500000000000002E-003    5.678649165523726E-032
  8.600000000000002E-003    9.945974916610438E-032
  8.700000000000001E-003    1.355283578014758E-031
  8.800000000000002E-003    1.562685984078651E-031
  8.900000000000002E-003    1.533946669865177E-031
  9.000000000000001E-003    1.207611599872432E-031
  9.100000000000002E-003    5.613602906230446E-032
  9.200000000000002E-003   -3.727572889215300E-032
  9.300000000000001E-003   -1.499183692195441E-031
  9.400000000000002E-003   -2.659264040758706E-031
  9.500000000000001E-003   -3.643774384762568E-031
  9.600000000000001E-003   -4.218532617347975E-031
  9.700000000000002E-003   -4.161824561088200E-031
  9.800000000000001E-003   -3.309775908028129E-031
  9.900000000000001E-003   -1.603217319296059E-031
  1.000000000000000E-002    8.724449018140759E-032
  1.010000000000000E-002    3.863830636583468E-031
  1.020000000000000E-002    6.951573308781815E-031
  1.030000000000000E-002    9.584189151946309E-031
  1.040000000000000E-002    1.114603284146834E-030
  1.050000000000000E-002    1.105567948625239E-030
  1.060000000000000E-002    8.884294856657548E-031
  1.070000000000000E-002    4.477026138625151E-031
  1.080000000000000E-002   -1.944682344150151E-031
  1.090000000000000E-002   -9.724193701544304E-031
  1.100000000000000E-002   -1.777682068689405E-030
  1.110000000000000E-002   -2.467908616027619E-030
  1.120000000000000E-002   -2.884502192345964E-030
  1.130000000000000E-002   -2.877927817280867E-030
  1.140000000000000E-002   -2.337966496444486E-030
  1.150000000000000E-002   -1.224541161086516E-030
  1.160000000000000E-002    4.065113361646882E-031
  1.170000000000000E-002    2.388853670214898E-030
  1.180000000000000E-002    4.447867877011757E-030
  1.190000000000000E-002    6.223601981626356E-030
  1.200000000000000E-002    7.315499889763052E-030
  1.210000000000000E-002    7.346162676789700E-030
  1.220000000000000E-002    6.037136274732163E-030
  1.230000000000000E-002    3.285698228197777E-030
  1.240000000000000E-002   -7.713827472822011E-031
  1.250000000000000E-002   -5.722249448472652E-030
  1.260000000000000E-002   -1.088623405363937E-029
  1.270000000000000E-002   -1.537140498689369E-029
  1.280000000000000E-002   -1.818558942091785E-029
  1.290000000000000E-002   -1.839371065733327E-029
  1.300000000000000E-002   -1.530391955240563E-029
  1.310000000000000E-002   -8.655290951255056E-030
  1.320000000000000E-002    1.227134571940067E-030
  1.330000000000000E-002    1.334668859720612E-029
  1.340000000000000E-002    2.605157048572146E-029
  1.350000000000000E-002    3.717566444927869E-029
  1.360000000000000E-002    4.430821486130370E-029
  1.370000000000000E-002    4.517419500282088E-029
  1.380000000000000E-002    3.808263916898615E-029
  1.390000000000000E-002    2.237708848768756E-029
  1.400000000000000E-002   -1.193842126073323E-030
  1.410000000000000E-002   -3.027289369690242E-029
  1.420000000000000E-002   -6.093495908933260E-029
  1.430000000000000E-002   -8.802344872186857E-029
  1.440000000000000E-002   -1.057913655903887E-028
  1.450000000000000E-002   -1.088027024650210E-028
  1.460000000000000E-002   -9.299178242921674E-029
  1.470000000000000E-002   -5.672482529836326E-029
  1.480000000000000E-002   -1.671155773007422E-030
  1.490000000000000E-002    6.671925147689189E-029
  1.500000000000000E-002    1.393108527697386E-028
  1.510000000000000E-002    2.040672055951740E-028
  1.520000000000000E-002    2.475433320098042E-028
  1.530000000000000E-002    2.569801593380306E-028
  1.540000000000000E-002    2.227609816981321E-028
  1.550000000000000E-002    1.408693553063950E-028
  1.560000000000000E-002    1.490422685855897E-029
  1.570000000000000E-002   -1.428131887144093E-028
  1.580000000000000E-002   -3.114485738847094E-028
  1.590000000000000E-002   -4.634425655235655E-028
  1.600000000000000E-002   -5.679143024065564E-028
  1.610000000000000E-002   -5.954346318146372E-028
  1.620000000000000E-002   -5.236192829110831E-028
  1.630000000000000E-002   -3.427224547785912E-028
  1.640000000000000E-002   -6.022548514354246E-029
  1.650000000000000E-002    2.966272224290575E-028
  1.660000000000000E-002    6.812594947094759E-028
  1.670000000000000E-002    1.031743939388769E-027
  1.680000000000000E-002    1.278408223669053E-027
  1.690000000000000E-002    1.354510018383092E-027
  1.700000000000000E-002    1.208747053205938E-027
  1.710000000000000E-002    8.177756985980216E-028
  1.720000000000000E-002    1.965046174853739E-028
  1.730000000000000E-002   -5.961593849914066E-028
  1.740000000000000E-002   -1.458125391948236E-027
  1.750000000000000E-002   -2.252775678291717E-027
  1.760000000000000E-002   -2.825626210303046E-027
  1.770000000000000E-002   -3.027757579663693E-027
  1.780000000000000E-002   -2.743314636020737E-027
  1.790000000000000E-002   -1.917071856324984E-027
  1.800000000000000E-002   -5.771911569055326E-028
  1.810000000000000E-002    1.151883916415744E-027
  1.820000000000000E-002    3.050777442537806E-027
  1.830000000000000E-002    4.823558944852335E-027
  1.840000000000000E-002    6.133498066306716E-027
  1.850000000000000E-002    6.653556526014870E-027
  1.860000000000000E-002    6.125803279697420E-027
  1.870000000000000E-002    4.421155319752680E-027