 -4.000000000000000E-002    0.000000000000000E+000
 -3.990000000000000E-002    0.000000000000000E+000
 -3.980000000000000E-002    0.000000000000000E+000
 -3.970000000000000E-002    0.000000000000000E+000
 -3.960000000000000E-002    0.000000000000000E+000
 -3.950000000000000E-002    0.000000000000000E+000
 -3.940000000000000E-002    0.000000000000000E+000
 -3.930000000000000E-002    0.000000000000000E+000
 -3.920000000000000E-002    0.000000000000000E+000
 -3.910000000000000E-002    0.000000000000000E+000
 -3.900000000000000E-002    0.000000000000000E+000
 -3.890000000000000E-002    0.000000000000000E+000
 -3.880000000000000E-002    0.000000000000000E+000
 -3.870000000000000E-002    0.000000000000000E+000
 -3.860000000000000E-002    0.000000000000000E+000
 -3.850000000000000E-002    0.000000000000000E+000
 -3.840000000000000E-002    0.000000000000000E+000
 -3.830000000000000E-002    0.000000000000000E+000
 -3.820000000000000E-002    0.000000000000000E+000
 -3.810000000000000E-002    0.000000000000000E+000
 -3.800000000000000E-002    0.000000000000000E+000
 -3.790000000000000E-002    0.000000000000000E+000
 -3.780000000000000E-002    0.000000000000000E+000
 -3.770000000000000E-002    0.000000000000000E+000
 -3.760000000000000E-002    0.000000000000000E+000
 -3.750000000000000E-002    0.000000000000000E+000
 -3.740000000000000E-002    0.000000000000000E+000
 -3.730000000000000E-002    0.000000000000000E+000
 -3.720000000000000E-002    0.000000000000000E+000
 -3.710000000000000E-002    0.000000000000000E+000
 -3.700000000000000E-002    0.000000000000000E+000
 -3.690000000000000E-002    0.000000000000000E+000
 -3.680000000000000E-002    0.000000000000000E+000
 -3.670000000000000E-002    0.000000000000000E+000
 -3.660000000000000E-002    0.000000000000000E+000
 -3.650000000000000E-002    0.000000000000000E+000
 -3.640000000000000E-002    0.000000000000000E+000
 -3.630000000000000E-002    0.000000000000000E+000
 -3.620000000000000E-002    0.000000000000000E+000
 -3.610000000000000E-002    0.000000000000000E+000
 -3.600000000000000E-002    0.000000000000000E+000
 -3.590000000000000E-002    0.000000000000000E+000
 -3.580000000000000E-002    0.000000000000000E+000
 -3.570000000000000E-002    0.000000000000000E+000
 -3.560000000000000E-002    0.000000000000000E+000
 -3.550000000000000E-002    0.000000000000000E+000
 -3.540000000000000E-002    0.000000000000000E+000
 -3.530000000000000E-002    0.000000000000000E+000
 -3.520000000000000E-002    0.000000000000000E+000
 -3.510000000000000E-002    0.000000000000000E+000
 -3.500000000000000E-002    0.000000000000000E+000
 -3.490000000000000E-002    0.000000000000000E+000
 -3.480000000000000E-002    0.000000000000000E+000
 -3.470000000000000E-002    0.000000000000000E+000
 -3.460000000000000E-002    0.000000000000000E+000
 -3.450000000000000E-002    0.000000000000000E+000
 -3.440000000000000E-002    0.000000000000000E+000
 -3.430000000000000E-002    0.000000000000000E+000
 -3.420000000000000E-002    0.000000000000000E+000
 -3.410000000000000E-002    0.000000000000000E+000
 -3.400000000000000E-002    0.000000000000000E+000
 -3.390000000000000E-002    0.000000000000000E+000
 -3.380000000000000E-002    0.000000000000000E+000
 -3.370000000000000E-002    0.000000000000000E+000
 -3.360000000000000E-002    0.000000000000000E+000
 -3.350000000000000E-002    0.000000000000000E+000
 -3.340000000000000E-002    0.000000000000000E+000
 -3.330000000000000E-002    0.000000000000000E+000
 -3.320000000000000E-002    0.000000000000000E+000
 -3.310000000000000E-002    0.000000000000000E+000
 -3.300000000000000E-002    0.000000000000000E+000
 -3.290000000000000E-002    0.000000000000000E+000
 -3.280000000000000E-002    0.000000000000000E+000
 -3.270000000000000E-002    0.000000000000000E+000
 -3.260000000000000E-002    0.000000000000000E+000
 -3.250000000000000E-002    0.000000000000000E+000
 -3.240000000000000E-002    0.000000000000000E+000
 -3.230000000000000E-002    0.000000000000000E+000
 -3.220000000000000E-002    0.000000000000000E+000
 -3.210000000000000E-002    0.000000000000000E+000
 -3.200000000000000E-002    0.000000000000000E+000
 -3.190000000000000E-002    0.000000000000000E+000
 -3.180000000000000E-002    0.000000000000000E+000
 -3.170000000000000E-002    0.000000000000000E+000
 -3.160000000000000E-002    0.000000000000000E+000
 -3.150000000000000E-002    0.000000000000000E+000
 -3.140000000000000E-002    0.000000000000000E+000
 -3.130000000000000E-002    0.000000000000000E+000
 -3.120000000000000E-002    0.000000000000000E+000
 -3.110000000000000E-002    0.000000000000000E+000
 -3.100000000000000E-002    0.000000000000000E+000
 -3.090000000000000E-002    0.000000000000000E+000
 -3.080000000000000E-002    0.000000000000000E+000
 -3.070000000000000E-002    0.000000000000000E+000
 -3.060000000000000E-002    0.000000000000000E+000
 -3.050000000000000E-002    0.000000000000000E+000
 -3.040000000000000E-002    0.000000000000000E+000
 -3.030000000000000E-002    0.000000000000000E+000
 -3.020000000000000E-002    0.000000000000000E+000
 -3.010000000000000E-002    0.000000000000000E+000
 -3.000000000000000E-002    0.000000000000000E+000
 -2.990000000000000E-002    0.000000000000000E+000
 -2.980000000000000E-002    0.000000000000000E+000
 -2.970000000000000E-002    0.000000000000000E+000
 -2.960000000000000E-002    0.000000000000000E+000
 -2.950000000000000E-002    0.000000000000000E+000
 -2.940000000000000E-002    0.000000000000000E+000
 -2.930000000000000E-002    0.000000000000000E+000
 -2.920000000000000E-002    0.000000000000000E+000
 -2.910000000000000E-002    0.000000000000000E+000
 -2.900000000000000E-002    0.000000000000000E+000
 -2.890000000000000E-002    0.000000000000000E+000
 -2.880000000000000E-002    0.000000000000000E+000
 -2.870000000000000E-002    0.000000000000000E+000
 -2.860000000000000E-002    0.000000000000000E+000
 -2.850000000000000E-002    0.000000000000000E+000
 -2.840000000000000E-002    0.000000000000000E+000
 -2.830000000000000E-002    0.000000000000000E+000
 -2.820000000000000E-002    0.000000000000000E+000
 -2.810000000000000E-002    0.000000000000000E+000
 -2.800000000000000E-002    0.000000000000000E+000
 -2.790000000000000E-002    0.000000000000000E+000
 -2.780000000000000E-002    0.000000000000000E+000
 -2.770000000000000E-002    0.000000000000000E+000
 -2.760000000000000E-002    0.000000000000000E+000
 -2.750000000000000E-002    0.000000000000000E+000
 -2.740000000000000E-002    0.000000000000000E+000
 -2.730000000000000E-002    0.000000000000000E+000
 -2.720000000000000E-002    0.000000000000000E+000
 -2.710000000000000E-002    0.000000000000000E+000
 -2.700000000000000E-002    0.000000000000000E+000
 -2.690000000000000E-002    0.000000000000000E+000
 -2.680000000000000E-002    0.000000000000000E+000
 -2.670000000000000E-002    0.000000000000000E+000
 -2.660000000000000E-002    0.000000000000000E+000
 -2.650000000000000E-002    0.000000000000000E+000
 -2.640000000000000E-002    0.000000000000000E+000
 -2.630000000000000E-002    0.000000000000000E+000
 -2.620000000000000E-002    0.000000000000000E+000
 -2.610000000000000E-002    0.000000000000000E+000
 -2.600000000000000E-002    0.000000000000000E+000
 -2.590000000000000E-002    0.000000000000000E+000
 -2.580000000000000E-002    0.000000000000000E+000
 -2.570000000000000E-002    0.000000000000000E+000
 -2.560000000000000E-002    0.000000000000000E+000
 -2.550000000000000E-002    0.000000000000000E+000
 -2.540000000000000E-002    0.000000000000000E+000
 -2.530000000000000E-002    0.000000000000000E+000
 -2.520000000000000E-002    0.000000000000000E+000
 -2.510000000000000E-002    0.000000000000000E+000
 -2.500000000000000E-002    0.000000000000000E+000
 -2.490000000000000E-002    0.000000000000000E+000
 -2.480000000000000E-002    0.000000000000000E+000
 -2.470000000000000E-002    0.000000000000000E+000
 -2.460000000000000E-002    0.000000000000000E+000
 -2.450000000000000E-002    0.000000000000000E+000
 -2.440000000000000E-002    0.000000000000000E+000
 -2.430000000000000E-002    0.000000000000000E+000
 -2.420000000000000E-002    0.000000000000000E+000
 -2.410000000000000E-002    0.000000000000000E+000
 -2.400000000000000E-002    0.000000000000000E+000
 -2.390000000000000E-002    0.000000000000000E+000
 -2.380000000000000E-002    0.000000000000000E+000
 -2.370000000000000E-002    0.000000000000000E+000
 -2.360000000000000E-002    0.000000000000000E+000
 -2.350000000000000E-002    0.000000000000000E+000
 -2.340000000000000E-002    0.000000000000000E+000
 -2.330000000000000E-002    0.000000000000000E+000
 -2.320000000000000E-002    0.000000000000000E+000
 -2.310000000000000E-002    0.000000000000000E+000
 -2.300000000000000E-002    0.000000000000000E+000
 -2.290000000000000E-002    0.000000000000000E+000
 -2.280000000000000E-002    0.000000000000000E+000
 -2.270000000000000E-002    0.000000000000000E+000
 -2.260000000000000E-002    0.000000000000000E+000
 -2.250000000000000E-002    0.000000000000000E+000
 -2.240000000000000E-002    0.000000000000000E+000
 -2.230000000000000E-002    0.000000000000000E+000
 -2.220000000000000E-002    0.000000000000000E+000
 -2.210000000000000E-002    0.000000000000000E+000
 -2.200000000000000E-002    0.000000000000000E+000
 -2.190000000000000E-002    0.000000000000000E+000
 -2.180000000000000E-002    0.000000000000000E+000
 -2.170000000000000E-002    0.000000000000000E+000
 -2.160000000000000E-002    0.000000000000000E+000
 -2.150000000000000E-002    0.000000000000000E+000
 -2.140000000000000E-002    0.000000000000000E+000
 -2.130000000000000E-002    0.000000000000000E+000
 -2.120000000000000E-002    0.000000000000000E+000
 -2.110000000000000E-002    0.000000000000000E+000
 -2.100000000000000E-002    0.000000000000000E+000
 -2.090000000000000E-002    0.000000000000000E+000
 -2.080000000000000E-002    0.000000000000000E+000
 -2.070000000000000E-002    0.000000000000000E+000
 -2.060000000000000E-002    0.000000000000000E+000
 -2.050000000000000E-002    0.000000000000000E+000
 -2.040000000000000E-002    0.000000000000000E+000
 -2.030000000000000E-002    0.000000000000000E+000
 -2.020000000000000E-002    0.000000000000000E+000
 -2.010000000000000E-002    0.000000000000000E+000
 -2.000000000000000E-002    0.000000000000000E+000
 -1.990000000000000E-002    0.000000000000000E+000
 -1.980000000000000E-002    0.000000000000000E+000
 -1.970000000000000E-002    0.000000000000000E+000
 -1.960000000000000E-002    0.000000000000000E+000
 -1.950000000000000E-002    0.000000000000000E+000
 -1.940000000000000E-002    0.000000000000000E+000
 -1.930000000000000E-002    0.000000000000000E+000
 -1.920000000000000E-002    0.000000000000000E+000
 -1.910000000000000E-002    0.000000000000000E+000
 -1.900000000000000E-002    0.000000000000000E+000
 -1.890000000000000E-002    0.000000000000000E+000
 -1.880000000000000E-002    0.000000000000000E+000
 -1.870000000000000E-002    0.000000000000000E+000
 -1.860000000000000E-002    0.000000000000000E+000
 -1.850000000000000E-002    0.000000000000000E+000
 -1.840000000000000E-002    0.000000000000000E+000
 -1.830000000000000E-002    0.000000000000000E+000
 -1.820000000000000E-002    0.000000000000000E+000
 -1.810000000000000E-002    0.000000000000000E+000
 -1.800000000000000E-002    1.924390591266381E-047
 -1.790000000000000E-002    3.848781182532762E-047
 -1.780000000000000E-002    3.848781182532762E-047
 -1.770000000000000E-002    1.924390591266381E-047
 -1.760000000000000E-002    0.000000000000000E+000
 -1.750000000000000E-002    8.743925279174863E-047
 -1.740000000000000E-002    7.845876336583885E-047
 -1.730000000000000E-002    5.023436802726527E-047
 -1.720000000000000E-002    2.200997268869168E-047
 -1.710000000000000E-002    3.868802447966698E-047
 -1.700000000000000E-002    6.434656569655206E-047
 -1.690000000000000E-002   -8.870972664782703E-046
 -1.680000000000000E-002   -1.399673790881184E-045
 -1.670000000000000E-002   -1.855801524606950E-045
 -1.660000000000000E-002   -2.516315086315631E-045
 -1.650000000000000E-002   -2.478027487144643E-045
 -1.640000000000000E-002   -1.327729960538961E-045
 -1.630000000000000E-002    1.281616906548908E-045
 -1.620000000000000E-002    3.424160272343672E-045
 -1.610000000000000E-002    6.973392707381641E-045
 -1.600000000000000E-002    1.076816701197680E-044
 -1.590000000000000E-002    1.414335743521923E-044
 -1.580000000000000E-002    1.645030919509347E-044
 -1.570000000000000E-002    1.510190051324850E-044
 -1.560000000000000E-002    8.873728113759213E-045
 -1.550000000000000E-002   -3.631737627243729E-045
 -1.540000000000000E-002   -2.357868535255381E-044
 -1.530000000000000E-002   -4.937569292229191E-044
 -1.520000000000000E-002   -7.886060411151244E-044
 -1.510000000000000E-002   -1.070661818675870E-043
 -1.500000000000000E-002   -1.261361578284124E-043
 -1.490000000000000E-002   -1.244973330509443E-043
 -1.480000000000000E-002   -8.858117502592052E-044
 -1.470000000000000E-002   -9.014289365468417E-045
 -1.460000000000000E-002    1.228763607824912E-043
 -1.450000000000000E-002    3.041695036334960E-043
 -1.440000000000000E-002    5.174219035243536E-043
 -1.430000000000000E-002    7.268811730169433E-043
 -1.420000000000000E-002    8.768840839712533E-043
 -1.410000000000000E-002    8.944209857770602E-043
 -1.400000000000000E-002    6.942041530369615E-043
 -1.390000000000000E-002    1.989674906288112E-043
 -1.380000000000000E-002   -6.406331893545331E-043
 -1.370000000000000E-002   -1.815150200855073E-042
 -1.360000000000000E-002   -3.225211037165503E-042
 -1.350000000000000E-002   -4.651556958080195E-042
 -1.340000000000000E-002   -5.745216036237853E-042
 -1.330000000000000E-002   -6.040181437077519E-042
 -1.320000000000000E-002   -5.003497595279943E-042
 -1.310000000000000E-002   -2.130033761054478E-042
 -1.300000000000000E-002    2.911805735176910E-042
 -1.290000000000000E-002    1.010264638028127E-041
 -1.280000000000000E-002    1.887784341127903E-041
 -1.270000000000000E-002    2.796346520931849E-041
 -1.260000000000000E-002    3.529853875131359E-041
 -1.250000000000000E-002    3.810963275038349E-041
 -1.240000000000000E-002    3.320219815165052E-041
 -1.230000000000000E-002    1.751716022213055E-041
 -1.220000000000000E-002   -1.104064015171728E-041
 -1.210000000000000E-002   -5.257114783049457E-041
 -1.200000000000000E-002   -1.040702672660169E-040
 -1.190000000000000E-002   -1.584947830779139E-040
 -1.180000000000000E-002   -2.043093729436470E-040
 -1.170000000000000E-002   -2.258921616719551E-040
 -1.160000000000000E-002   -2.051436503441129E-040
 -1.150000000000000E-002   -1.245473703067551E-040
 -1.140000000000000E-002    2.830226592788902E-041
 -1.130000000000000E-002    2.550519699077396E-040
 -1.120000000000000E-002    5.405865061372455E-040
 -1.110000000000000E-002    8.479514962497423E-040
 -1.100000000000000E-002    1.115902194268931E-039
 -1.090000000000000E-002    1.260989393827292E-039
 -1.080000000000000E-002    1.186020690219537E-039
 -1.070000000000000E-002    7.960778950020501E-040
 -1.060000000000000E-002    2.209121401421629E-041
 -1.050000000000000E-002   -1.149847854957376E-039
 -1.040000000000000E-002   -2.647533342397196E-039
 -1.030000000000000E-002   -4.286576947911758E-039
 -1.020000000000000E-002   -5.757792698084835E-039
 -1.010000000000000E-002   -6.637670808204372E-039
 -1.000000000000000E-002   -6.430772174826635E-039
 -9.899999999999999E-003   -4.649716010959126E-039
 -9.800000000000000E-003   -9.322498721557788E-040
 -9.699999999999999E-003    4.814001946901457E-039
 -9.599999999999999E-003    1.225960901653963E-038
 -9.500000000000000E-003    2.052616122275513E-038
 -9.399999999999999E-003    2.812529225350277E-038
 -9.299999999999999E-003    3.300954058669597E-038
 -9.200000000000000E-003    3.277632369283496E-038
 -9.099999999999999E-003    2.504996619628785E-038
 -8.999999999999999E-003    8.037366482893849E-039
 -8.900000000000000E-003   -1.878961380387853E-038
 -8.799999999999999E-003   -5.398292158135976E-038
 -8.699999999999999E-003   -9.352824212796282E-038
 -8.600000000000000E-003   -1.305672694446972E-037
 -8.499999999999999E-003   -1.556395484539433E-037
 -8.399999999999999E-003   -1.576269147804402E-037
 -8.300000000000000E-003   -1.255054459451248E-037
 -8.199999999999999E-003   -5.087353123177357E-038
 -8.100000000000000E-003    6.896772311033870E-038
 -8.000000000000000E-003    2.278309826823123E-037
 -7.899999999999999E-003    4.080316563060327E-037
 -7.800000000000000E-003    5.791950436907838E-037
 -7.699999999999999E-003    6.993837392155373E-037
 -7.599999999999999E-003    7.193201397360391E-037
 -7.499999999999999E-003    5.901220229594113E-037
 -7.399999999999999E-003    2.743605340222256E-037
 -7.299999999999999E-003   -2.405845728604285E-037
 -7.199999999999999E-003   -9.288584191022865E-037
 -7.100000000000000E-003   -1.715075645005343E-036
 -6.999999999999999E-003   -2.469477769767859E-036
 -6.899999999999999E-003   -3.013067235142648E-036
 -6.800000000000000E-003   -3.135868160722475E-036
 -6.699999999999999E-003   -2.629883826906231E-036
 -6.599999999999999E-003   -1.335718345541134E-036
 -6.499999999999999E-003    8.016601940511766E-037
 -6.399999999999999E-003    3.676475068661512E-036
 -6.299999999999999E-003    6.977200732504099E-036
 -6.199999999999999E-003    1.016788275072512E-035
 -6.100000000000000E-003    1.251085420549304E-035
 -5.999999999999999E-003    1.314314926639228E-035
 -5.899999999999999E-003    1.121218844941322E-035
 -5.800000000000000E-003    6.065570399025343E-036
 -5.699999999999999E-003   -2.524205431175964E-036
 -5.599999999999999E-003   -1.413486073969597E-035
 -5.499999999999999E-003   -2.751833797382894E-035
 -5.399999999999999E-003   -4.053200368172018E-035
 -5.299999999999999E-003   -5.023574826445748E-035
 -5.199999999999999E-003   -5.320125681715261E-035
 -5.099999999999999E-003   -4.605210453108668E-035
 -4.999999999999999E-003   -2.621071663999204E-035
 -4.899999999999999E-003    7.226278711602423E-036
 -4.799999999999999E-003    5.262216262186456E-035
 -4.699999999999999E-003    1.051342257488935E-034
 -4.599999999999999E-003    1.564707567213905E-034
 -4.499999999999999E-003    1.952906085657168E-034
 -4.399999999999999E-003    2.084132313570902E-034
 -4.299999999999999E-003    1.828979287629658E-034
 -4.199999999999999E-003    1.088879219900364E-034
 -4.099999999999999E-003   -1.709072924411959E-035
 -3.999999999999999E-003   -1.889026291049523E-034
 -3.899999999999999E-003   -3.883650565495688E-034
 -3.799999999999999E-003   -5.844218915143723E-034
 -3.699999999999999E-003   -7.347252621816396E-034
 -3.599999999999999E-003   -7.902122802083488E-034
 -3.499999999999999E-003   -7.028500032348676E-034
 -3.399999999999999E-003   -4.361167546803042E-034
 -3.299999999999999E-003    2.296032454287592E-035
 -3.199999999999999E-003    6.521620679380273E-034
 -3.099999999999999E-003    1.385431876852284E-033
 -2.999999999999999E-003    2.110172332573805E-033
 -2.899999999999999E-003    2.673273507010643E-033
 -2.799999999999999E-003    2.897859525069139E-033
 -2.699999999999999E-003    2.611222372730363E-033
 -2.599999999999999E-003    1.682231839871825E-033
 -2.499999999999999E-003    6.389548342892532E-035
 -2.399999999999999E-003   -2.165925751871524E-033
 -2.299999999999999E-003   -4.774808305659557E-033
 -2.199999999999999E-003   -7.367263213551972E-033
 -2.099999999999999E-003   -9.406915869768020E-033
 -1.999999999999999E-003   -1.027585558320418E-032
 -1.899999999999999E-003   -9.372283322448689E-033
 -1.799999999999999E-003   -6.239977460213975E-033
 -1.699999999999999E-003   -7.142024253452185E-034
 -1.599999999999999E-003    6.940206131758645E-033
 -1.499999999999999E-003    1.592986300055874E-032
 -1.399999999999999E-003    2.490721888045932E-032
 -1.299999999999999E-003    3.204949022242232E-032
 -1.199999999999999E-003    3.526276403459514E-032
 -1.099999999999999E-003    3.251319214394284E-032
 -9.999999999999989E-004    2.226192490666811E-032
 -8.999999999999990E-004    3.950739301903944E-033
 -7.999999999999990E-004   -2.154332571450903E-032
 -6.999999999999989E-004   -5.158796662384484E-032
 -5.999999999999990E-004   -8.172196687898940E-032
 -4.999999999999989E-004   -1.059276491610567E-031
 -3.999999999999989E-004   -1.173125323613807E-031
 -2.999999999999989E-004   -1.092011327738063E-031
 -1.999999999999989E-004   -7.655500371125772E-032
 -9.999999999999892E-005   -1.754383578956548E-032
  1.084202172485504E-018    6.499940289653148E-032
  1.000000000000011E-004    1.625731601691675E-031
  2.000000000000011E-004    2.608061508108115E-031
  3.000000000000011E-004    3.403699624663088E-031
  4.000000000000011E-004    3.791931488734707E-031
  5.000000000000011E-004    3.559630709321197E-031
  6.000000000000011E-004    2.546375371768265E-031
  7.000000000000011E-004    6.939233769377817E-032
  8.000000000000011E-004   -1.908451027393631E-031
  9.000000000000012E-004   -4.993218297849042E-031
  1.000000000000001E-003   -8.109384812303361E-031
  1.100000000000001E-003   -1.065218371294721E-030
  1.200000000000001E-003   -1.193306747064623E-030
  1.300000000000001E-003   -1.128908746130129E-030
  1.400000000000001E-003   -8.222535107821091E-031
  1.500000000000001E-003   -2.552779930932463E-031
  1.600000000000001E-003    5.446035995915504E-031
  1.700000000000001E-003    1.495333203965404E-030
  1.800000000000001E-003    2.458936368586480E-030
  1.900000000000001E-003    3.250900566144709E-030
  2.000000000000001E-003    3.661723856137134E-030
  2.100000000000001E-003    3.490206120984871E-030
  2.200000000000001E-003    2.585598046932776E-030
  2.300000000000001E-003    8.930546099374267E-031
  2.400000000000001E-003   -1.505540152540431E-030
  2.500000000000001E-003   -4.364868492982371E-030
  2.600000000000001E-003   -7.273242988485732E-030
  2.700000000000001E-003   -9.681378592326613E-030
  2.800000000000001E-003   -1.096700842940776E-029
  2.900000000000001E-003   -1.053369345127144E-029
  3.000000000000001E-003   -7.934943697255824E-030
  3.100000000000001E-003   -3.007085633665106E-030
  3.200000000000001E-003    4.012463117944133E-030
  3.300000000000001E-003    1.240904836583578E-029
  3.400000000000001E-003    2.098439200287888E-029
  3.500000000000001E-003    2.814229556763695E-029
  3.600000000000001E-003    3.207739948345299E-029
  3.700000000000001E-003    3.106126463724767E-029
  3.800000000000001E-003    2.379922961372308E-029
  3.900000000000001E-003    9.809830189886521E-030
  4.000000000000001E-003   -1.024002870352276E-029
  4.100000000000001E-003   -3.432227200961292E-029
  4.200000000000001E-003   -5.903448740412696E-029
  4.300000000000001E-003   -7.984770363594147E-029
  4.400000000000001E-003   -9.164387913483211E-029
  4.500000000000001E-003   -8.952398464100510E-029
  4.600000000000002E-003   -6.980997757174871E-029
  4.700000000000001E-003   -3.110406097397574E-029
  4.800000000000001E-003    2.478192999957999E-029
  4.900000000000002E-003    9.224295910546558E-029
  5.000000000000001E-003    1.618545330360409E-028
  5.100000000000001E-003    2.210686782228923E-028
  5.200000000000001E-003    2.557053888899115E-028
  5.300000000000002E-003    2.521806508972487E-028
  5.400000000000001E-003    2.002550977159863E-028
  5.500000000000001E-003    9.592525132426193E-029
  5.600000000000002E-003   -5.605314327673138E-029
  5.700000000000001E-003   -2.405943066851877E-028
  5.800000000000001E-003   -4.322296602121588E-028
  5.900000000000002E-003   -5.970078261622133E-028
  6.000000000000001E-003   -6.965302017157404E-028
  6.100000000000001E-003   -6.939498022583088E-028
  6.200000000000002E-003   -5.613389230119044E-028
  6.300000000000002E-003   -2.874089014674182E-028
  6.400000000000001E-003    1.157810994434898E-028
  6.500000000000001E-003    6.086728080766240E-028
  6.600000000000002E-003    1.124095920101045E-027
  6.700000000000001E-003    1.572313983396160E-027
  6.800000000000001E-003    1.851681302841478E-027
  6.900000000000002E-003    1.864419104491194E-027
  7.000000000000001E-003    1.535928325897153E-027
  7.100000000000001E-003    8.349582950550463E-028
  7.200000000000002E-003   -2.089247725410323E-028
  7.300000000000002E-003   -1.494563950282657E-027
  7.400000000000001E-003   -2.848937304659224E-027
  7.500000000000001E-003   -4.040218058823818E-027
  7.600000000000002E-003   -4.805255212873887E-027
  7.700000000000001E-003   -4.890142568066383E-027
  7.800000000000001E-003   -4.099747267474076E-027
  7.900000000000001E-003   -2.349299318213818E-027
  8.000000000000002E-003    2.910229666479488E-028
  8.100000000000001E-003    3.568640008444518E-027
  8.200000000000001E-003    7.047806409584026E-027
  8.300000000000002E-003    1.014257986113764E-026
  8.400000000000001E-003    1.218610338797152E-026
  8.500000000000002E-003    1.253269322918428E-026
  8.600000000000002E-003    1.068221508183268E-026
  8.700000000000001E-003    6.409407437113918E-027
  8.800000000000002E-003   -1.245032609517789E-028
  8.900000000000002E-003   -8.303040065035966E-027
  9.000000000000001E-003   -1.705210927047073E-026
  9.100000000000002E-003   -2.492122902876106E-026
  9.200000000000002E-003   -3.025443798993915E-026
  9.300000000000001E-003   -3.144185010783457E-026
  9.400000000000002E-003   -2.722579191343578E-026
  9.500000000000001E-003   -1.701878380542324E-026
  9.600000000000001E-003   -1.177894569090779E-027
  9.700000000000002E-003    1.882567585334838E-026
  9.800000000000001E-003    4.039884958543076E-026
  9.900000000000001E-003    6.002197202659995E-026
  1.000000000000000E-002    7.366136086911929E-026
  1.010000000000000E-002    7.737674396471468E-026
  1.020000000000000E-002    6.806024323477756E-026
  1.030000000000000E-002    4.420384817403125E-026
  1.040000000000000E-002    6.562388766532008E-027
  1.050000000000000E-002   -4.143421917624737E-026
  1.060000000000000E-002   -9.365500690820287E-026
  1.070000000000000E-002   -1.417257461665571E-025
  1.080000000000000E-002   -1.760034345003409E-025
  1.090000000000000E-002   -1.870137253398713E-025
  1.100000000000000E-002   -1.672009002395638E-025
  1.110000000000000E-002   -1.127472501022127E-025
  1.120000000000000E-002   -2.514865003439560E-026
  1.130000000000000E-002    8.779636278161976E-026
  1.140000000000000E-002    2.119007867348576E-025
  1.150000000000000E-002    3.276341240977679E-025
  1.160000000000000E-002    4.123739519176125E-025
  1.170000000000000E-002    4.437390359068734E-025
  1.180000000000000E-002    4.036552398916495E-025
  1.190000000000000E-002    2.825913990918418E-025
  1.200000000000000E-002    8.324299024268369E-026
  1.210000000000000E-002   -1.771259620103318E-025
  1.220000000000000E-002   -4.664108796023404E-025
  1.230000000000000E-002   -7.399871371850597E-025
  1.240000000000000E-002   -9.457978373056974E-025
  1.250000000000000E-002   -1.031927886398577E-024
  1.260000000000000E-002   -9.558704733777741E-025
  1.270000000000000E-002   -6.942137987916026E-025
  1.280000000000000E-002   -2.511104295789115E-025
  1.290000000000000E-002    3.362550329261978E-025
  1.300000000000000E-002    9.968470111110353E-025
  1.310000000000000E-002    1.630791896194743E-024
  1.320000000000000E-002    2.120627679304997E-024
  1.330000000000000E-002    2.348169930835628E-024
  1.340000000000000E-002    2.215239367292898E-024
  1.350000000000000E-002    1.665417412866553E-024
  1.360000000000000E-002    7.031957170994453E-025
  1.370000000000000E-002   -5.934494206366017E-025
  1.380000000000000E-002   -2.070719721058253E-024
  1.390000000000000E-002   -3.509539120066568E-024
  1.400000000000000E-002   -4.649907223141740E-024
  1.410000000000000E-002   -5.227742105878519E-024
  1.420000000000000E-002   -5.020403074894365E-024
  1.430000000000000E-002   -3.894711791420889E-024
  1.440000000000000E-002   -1.849541835083284E-024
  1.450000000000000E-002    9.556960005804850E-025
  1.460000000000000E-002    4.194697677273531E-024
  1.470000000000000E-002    7.395866259401274E-024
  1.480000000000000E-002    9.993981521958192E-024
  1.490000000000000E-002    1.140923035088825E-023
  1.500000000000000E-002    1.114545720515398E-023
  1.510000000000000E-002    8.894446523218916E-024
  1.520000000000000E-002    4.629185053834682E-024
  1.530000000000000E-002   -1.332524719732595E-024
  1.540000000000000E-002   -8.311440305643596E-024
  1.550000000000000E-002   -1.530990439086106E-023
  1.560000000000000E-002   -2.111936818585414E-023
  1.570000000000000E-002   -2.448693137015534E-023
  1.580000000000000E-002   -2.432399842630023E-023
  1.590000000000000E-002   -1.992923697787509E-023
  1.600000000000000E-002   -1.118995846708397E-023
  1.610000000000000E-002    1.277649974870572E-024
  1.620000000000000E-002    1.608629451760940E-023
  1.630000000000000E-002    3.116061361147111E-023
  1.640000000000000E-002    4.395645293140782E-023
  1.650000000000000E-002    5.180580753485234E-023
  1.660000000000000E-002    5.235288729253377E-023
  1.670000000000000E-002    4.402398281020548E-023
  1.680000000000000E-002    2.645642741583156E-023
  1.690000000000000E-002    8.042432202138429E-025
  1.700000000000000E-002   -3.015709518043840E-023
  1.710000000000000E-002   -6.218476589669710E-023
  1.720000000000000E-002   -9.000626699853934E-023
  1.730000000000000E-002   -1.080212879348073E-022
  1.740000000000000E-002   -1.111984932354676E-022
  1.750000000000000E-002   -9.605130464853029E-023
  1.760000000000000E-002   -6.153978037167631E-023
  1.770000000000000E-002   -9.729095244288476E-024
  1.780000000000000E-002    5.395613333237950E-023
  1.790000000000000E-002    1.210039139859880E-022
  1.800000000000000E-002    1.806687258660419E-022
  1.810000000000000E-002    2.213729493968181E-022
  1.820000000000000E-002    2.325212882879414E-022
  1.830000000000000E-002    2.064966481467252E-022
  1.840000000000000E-002    1.405304810624626E-022
  1.850000000000000E-002    3.810384173586670E-023
  1.860000000000000E-002   -9.044988686145913E-023
  1.870000000000000E-002   -2.283951472453426E-022