 -4.000000000000000E-002    0.000000000000000E+000
 -3.990000000000000E-002    0.000000000000000E+000
 -3.980000000000000E-002    0.000000000000000E+000
 -3.970000000000000E-002    0.000000000000000E+000
 -3.960000000000000E-002    0.000000000000000E+000
 -3.950000000000000E-002    0.000000000000000E+000
 -3.940000000000000E-002    0.000000000000000E+000
 -3.930000000000000E-002    0.000000000000000E+000
 -3.920000000000000E-002    0.000000000000000E+000
 -3.910000000000000E-002    0.000000000000000E+000
 -3.900000000000000E-002    0.000000000000000E+000
 -3.890000000000000E-002    0.000000000000000E+000
 -3.880000000000000E-002    0.000000000000000E+000
 -3.870000000000000E-002    0.000000000000000E+000
 -3.860000000000000E-002    0.000000000000000E+000
 -3.850000000000000E-002    0.000000000000000E+000
 -3.840000000000000E-002    0.000000000000000E+000
 -3.830000000000000E-002    0.000000000000000E+000
 -3.820000000000000E-002    0.000000000000000E+000
 -3.810000000000000E-002    0.000000000000000E+000
 -3.800000000000000E-002    0.000000000000000E+000
 -3.790000000000000E-002    0.000000000000000E+000
 -3.780000000000000E-002    0.000000000000000E+000
 -3.770000000000000E-002    0.000000000000000E+000
 -3.760000000000000E-002    0.000000000000000E+000
 -3.750000000000000E-002    0.000000000000000E+000
 -3.740000000000000E-002    0.000000000000000E+000
 -3.730000000000000E-002    0.000000000000000E+000
 -3.720000000000000E-002    0.000000000000000E+000
 -3.710000000000000E-002    0.000000000000000E+000
 -3.700000000000000E-002    0.000000000000000E+000
 -3.690000000000000E-002    0.000000000000000E+000
 -3.680000000000000E-002    0.000000000000000E+000
 -3.670000000000000E-002    0.000000000000000E+000
 -3.660000000000000E-002    0.000000000000000E+000
 -3.650000000000000E-002    0.000000000000000E+000
 -3.640000000000000E-002    0.000000000000000E+000
 -3.630000000000000E-002    0.000000000000000E+000
 -3.620000000000000E-002    0.000000000000000E+000
 -3.610000000000000E-002    0.000000000000000E+000
 -3.600000000000000E-002    0.000000000000000E+000
 -3.590000000000000E-002    0.000000000000000E+000
 -3.580000000000000E-002    0.000000000000000E+000
 -3.570000000000000E-002    0.000000000000000E+000
 -3.560000000000000E-002    0.000000000000000E+000
 -3.550000000000000E-002    0.000000000000000E+000
 -3.540000000000000E-002    0.000000000000000E+000
 -3.530000000000000E-002    0.000000000000000E+000
 -3.520000000000000E-002    0.000000000000000E+000
 -3.510000000000000E-002    0.000000000000000E+000
 -3.500000000000000E-002    0.000000000000000E+000
 -3.490000000000000E-002    0.000000000000000E+000
 -3.480000000000000E-002    1.900734176592889E-046
 -3.470000000000000E-002    5.573909823694243E-046
 -3.460000000000000E-002    1.614441229370281E-045
 -3.450000000000000E-002    3.792888289068548E-045
 -3.440000000000000E-002    7.856874613283912E-045
 -3.430000000000000E-002    1.415467407346818E-044
 -3.420000000000000E-002    2.102422241738015E-044
 -3.410000000000000E-002    2.358172764784149E-044
 -3.400000000000000E-002    9.879111476003752E-045
 -3.390000000000000E-002   -4.666351548637692E-044
 -3.380000000000000E-002   -1.931809981992821E-043
 -3.370000000000000E-002   -5.084002899497770E-043
 -3.360000000000000E-002   -1.095395378878009E-042
 -3.350000000000000E-002   -2.058807105702213E-042
 -3.340000000000000E-002   -3.419952466363486E-042
 -3.330000000000000E-002   -4.936187286802408E-042
 -3.320000000000000E-002   -5.785237354283639E-042
 -3.310000000000000E-002   -4.060948966001944E-042
 -3.300000000000000E-002    3.869189301661076E-042
 -3.290000000000000E-002    2.396513509926500E-041
 -3.280000000000000E-002    6.462816905083400E-041
 -3.270000000000000E-002    1.354244458760646E-040
 -3.260000000000000E-002    2.430094257228434E-040
 -3.250000000000000E-002    3.822940443915252E-040
 -3.240000000000000E-002    5.208201382964093E-040
 -3.230000000000000E-002    5.751534011282954E-040
 -3.220000000000000E-002    3.810015147752898E-040
 -3.210000000000000E-002   -3.353683982267350E-040
 -3.200000000000000E-002   -1.966846416197936E-039
 -3.190000000000000E-002   -4.984728614997901E-039
 -3.180000000000000E-002   -9.799731773213398E-039
 -3.170000000000000E-002   -1.646443517433374E-038
 -3.160000000000000E-002   -2.415869869453979E-038
 -3.150000000000000E-002   -3.043319832997296E-038
 -3.140000000000000E-002   -3.027375528364661E-038
 -3.130000000000000E-002   -1.521358671383714E-038
 -3.120000000000000E-002    2.702535498805789E-038
 -3.110000000000000E-002    1.115514418625020E-037
 -3.100000000000000E-002    2.528335063897436E-037
 -3.090000000000000E-002    4.573883263373010E-037
 -3.080000000000000E-002    7.114432526650649E-037
 -3.070000000000000E-002    9.632764492157366E-037
 -3.060000000000000E-002    1.101921147192716E-036
 -3.050000000000000E-002    9.373172357655887E-037
 -3.040000000000000E-002    1.918488420978098E-037
 -3.030000000000000E-002   -1.481014740552490E-036
 -3.020000000000000E-002   -4.430005203581406E-036
 -3.010000000000000E-002   -8.868255049747149E-036
 -3.000000000000000E-002   -1.464657858097520E-035
 -2.990000000000000E-002   -2.093740181519596E-035
 -2.980000000000000E-002   -2.586347843687340E-035
 -2.970000000000000E-002   -2.616011010230621E-035
 -2.960000000000000E-002   -1.703194239640672E-035
 -2.950000000000000E-002    7.555653648555709E-036
 -2.940000000000000E-002    5.384880384927954E-035
 -2.930000000000000E-002    1.262332359993805E-034
 -2.920000000000000E-002    2.239125248704277E-034
 -2.910000000000000E-002    3.363986825302666E-034
 -2.900000000000000E-002    4.383584118603358E-034
 -2.890000000000000E-002    4.850633974054941E-034
 -2.880000000000000E-002    4.105622148107860E-034
 -2.870000000000000E-002    1.315545397662033E-034
 -2.860000000000000E-002   -4.394987930493455E-034
 -2.850000000000000E-002   -1.368702763845092E-033
 -2.840000000000000E-002   -2.660674407529292E-033
 -2.830000000000000E-002   -4.205638383921460E-033
 -2.820000000000000E-002   -5.720711935225333E-033
 -2.810000000000000E-002   -6.699953368130002E-033
 -2.800000000000000E-002   -6.396373444174038E-033
 -2.790000000000000E-002   -3.866806052961720E-033
 -2.780000000000000E-002    1.885870138630935E-033
 -2.770000000000000E-002    1.164349815316597E-032
 -2.760000000000000E-002    2.556463657604457E-032
 -2.750000000000000E-002    4.266093754732718E-032
 -2.740000000000000E-002    6.023430645779043E-032
 -2.730000000000000E-002    7.341928959727504E-032
 -2.720000000000000E-002    7.504719422681759E-032
 -2.710000000000000E-002    5.610515397621046E-032
 -2.700000000000000E-002    7.076144095212101E-033
 -2.690000000000000E-002   -7.961911633142863E-032
 -2.680000000000000E-002   -2.060344356419532E-031
 -2.670000000000000E-002   -3.642317831757833E-031
 -2.660000000000000E-002   -5.316458965628105E-031
 -2.650000000000000E-002   -6.675181632320083E-031
 -2.640000000000000E-002   -7.121537373512491E-031
 -2.630000000000000E-002   -5.910967682546866E-031
 -2.620000000000000E-002   -2.262724807655197E-031
 -2.610000000000000E-002    4.445247140027273E-031
 -2.600000000000000E-002    1.439913412029266E-030
 -2.590000000000000E-002    2.701506792756212E-030
 -2.580000000000000E-002    4.060532362670107E-030
 -2.570000000000000E-002    5.213820292744126E-030
 -2.560000000000000E-002    5.721669131712608E-030
 -2.550000000000000E-002    5.041732309258485E-030
 -2.540000000000000E-002    2.611742766377718E-030
 -2.530000000000000E-002   -2.011775051331637E-030
 -2.520000000000000E-002   -8.962683814561127E-030
 -2.510000000000000E-002   -1.784268679436597E-029
 -2.500000000000000E-002   -2.750806919596168E-029
 -2.490000000000000E-002   -3.592825899665258E-029
 -2.480000000000000E-002   -4.019577466173815E-029
 -2.470000000000000E-002   -3.677252820288669E-029
 -2.460000000000000E-002   -2.204315890060866E-029
 -2.450000000000000E-002    6.795087938144845E-030
 -2.440000000000000E-002    5.054851984908787E-029
 -2.430000000000000E-002    1.066925387623717E-028
 -2.420000000000000E-002    1.681485281954495E-028
 -2.410000000000000E-002    2.225489619625767E-028
 -2.400000000000000E-002    2.524462609369518E-028
 -2.390000000000000E-002    2.369243110329238E-028
 -2.380000000000000E-002    1.549572931944471E-028
 -2.370000000000000E-002   -9.402018276356713E-030
 -2.360000000000000E-002   -2.603446915724375E-028
 -2.350000000000000E-002   -5.830339792898909E-028
 -2.340000000000000E-002   -9.372503443828393E-028
 -2.330000000000000E-002   -1.254012366947646E-027
 -2.320000000000000E-002   -1.437542837029788E-027
 -2.310000000000000E-002   -1.374819770660686E-027
 -2.300000000000000E-002   -9.542006840268663E-028
 -2.290000000000000E-002   -9.310538268081987E-029
 -2.280000000000000E-002    1.227491678234464E-027
 -2.270000000000000E-002    2.926793447678755E-027
 -2.260000000000000E-002    4.794066263968839E-027
 -2.250000000000000E-002    6.474965775280742E-027
 -2.240000000000000E-002    7.485558553671369E-027
 -2.230000000000000E-002    7.263987995970129E-027
 -2.220000000000000E-002    5.265387708513603E-027
 -2.210000000000000E-002    1.097904999348876E-027
 -2.200000000000000E-002   -5.313149573113928E-027
 -2.190000000000000E-002   -1.355876651410500E-026
 -2.180000000000000E-002   -2.261550912458972E-026
 -2.170000000000000E-002   -3.079784936802400E-026
 -2.160000000000000E-002   -3.584271482744142E-026
 -2.150000000000000E-002   -3.516653228374556E-026
 -2.140000000000000E-002   -2.631263297511562E-026
 -2.130000000000000E-002   -7.570378330351347E-027
 -2.120000000000000E-002    2.130106574353648E-026
 -2.110000000000000E-002    5.836513936440579E-026
 -2.100000000000000E-002    9.898652145048760E-026
 -2.090000000000000E-002    1.356967690510352E-025
 -2.080000000000000E-002    1.586452987590444E-025
 -2.070000000000000E-002    1.567844170710013E-025
 -2.060000000000000E-002    1.198323152245052E-025
 -2.050000000000000E-002    4.089862612375532E-026
 -2.040000000000000E-002   -8.054236959546447E-026
 -2.030000000000000E-002   -2.358563769012006E-025
 -2.020000000000000E-002   -4.053349678063524E-025
 -2.010000000000000E-002   -5.579568816713293E-025
 -2.000000000000000E-002   -6.535667735970001E-025
 -1.990000000000000E-002   -6.479718124192210E-025
 -1.980000000000000E-002   -5.010047801906351E-025
 -1.970000000000000E-002   -1.869579931698355E-025
 -1.960000000000000E-002    2.939748800820802E-025
 -1.950000000000000E-002    9.053776899587703E-025
 -1.940000000000000E-002    1.568132335918413E-024
 -1.930000000000000E-002    2.160717823329751E-024
 -1.920000000000000E-002    2.528874976679867E-024
 -1.910000000000000E-002    2.506160615094664E-024
 -1.900000000000000E-002    1.945111044932026E-024
 -1.890000000000000E-002    7.562969019268031E-025
 -1.880000000000000E-002   -1.050204303960229E-024
 -1.870000000000000E-002   -3.329000053339325E-024
 -1.860000000000000E-002   -5.779122338761499E-024
 -1.850000000000000E-002   -7.949524665387547E-024
 -1.840000000000000E-002   -9.278760514864519E-024
 -1.830000000000000E-002   -9.172994718357615E-024
 -1.820000000000000E-002   -7.119761403453749E-024
 -1.810000000000000E-002   -2.826240967935541E-024
 -1.800000000000000E-002    3.638508104665066E-024
 -1.790000000000000E-002    1.172620277116209E-023
 -1.780000000000000E-002    2.035075969421585E-023
 -1.770000000000000E-002    2.792194404895927E-023
 -1.760000000000000E-002    3.249696508947145E-023
 -1.750000000000000E-002    3.205979008460499E-023
 -1.740000000000000E-002    2.491437485470464E-023
 -1.730000000000000E-002    1.014909361120794E-023
 -1.720000000000000E-002   -1.190010326917530E-023
 -1.710000000000000E-002   -3.928502624818867E-023
 -1.700000000000000E-002   -6.828894545271068E-023
 -1.690000000000000E-002   -9.358236161379784E-023
 -1.680000000000000E-002   -1.087645034877699E-022
 -1.670000000000000E-002   -1.073087222189437E-022
 -1.660000000000000E-002   -8.385205819532998E-023
 -1.650000000000000E-002   -3.567796004533969E-023
 -1.640000000000000E-002    3.584864876579883E-023
 -1.630000000000000E-002    1.242042659742041E-022
 -1.620000000000000E-002    2.173255934910512E-022
 -1.610000000000000E-002    2.982288734251449E-022
 -1.600000000000000E-002    3.468277016431702E-022
 -1.590000000000000E-002    3.429653598676143E-022
 -1.580000000000000E-002    2.704346500462370E-022
 -1.570000000000000E-002    1.214850408624763E-022
 -1.560000000000000E-002   -9.894056106520146E-023
 -1.550000000000000E-002   -3.701795054931640E-022
 -1.540000000000000E-002   -6.550220189395887E-022
 -1.530000000000000E-002   -9.019324876946843E-022
 -1.520000000000000E-002   -1.050816626788984E-021
 -1.510000000000000E-002   -1.042268371422072E-021
 -1.500000000000000E-002   -8.295114614045544E-022
 -1.490000000000000E-002   -3.914706537470821E-022
 -1.480000000000000E-002    2.552895125299457E-022
 -1.470000000000000E-002    1.048473540328074E-021
 -1.460000000000000E-002    1.878565859804095E-021
 -1.450000000000000E-002    2.596200165132822E-021
 -1.440000000000000E-002    3.029545187918155E-021
 -1.430000000000000E-002    3.011215611515207E-021
 -1.420000000000000E-002    2.412183586799191E-021
 -1.410000000000000E-002    1.178052117338893E-021
 -1.400000000000000E-002   -6.387571100293553E-022
 -1.390000000000000E-002   -2.858386316475605E-021
 -1.380000000000000E-002   -5.171839535343846E-021
 -1.370000000000000E-002   -7.163902132910548E-021
 -1.360000000000000E-002   -8.363168202007138E-021
 -1.350000000000000E-002   -8.317045241222165E-021
 -1.340000000000000E-002   -6.684131248041130E-021
 -1.330000000000000E-002   -3.330851714287903E-021
 -1.320000000000000E-002    1.585210099084162E-021
 -1.310000000000000E-002    7.565071956633511E-021
 -1.300000000000000E-002    1.376998093221866E-020
 -1.290000000000000E-002    1.908871233366514E-020
 -1.280000000000000E-002    2.227535698081058E-020
 -1.270000000000000E-002    2.215009275698490E-020
 -1.260000000000000E-002    1.784125946807267E-020
 -1.250000000000000E-002    9.033334148617209E-021
 -1.240000000000000E-002   -3.825079890801986E-021
 -1.230000000000000E-002   -1.940355116984066E-020
 -1.220000000000000E-002   -3.550854173444197E-020
 -1.210000000000000E-002   -4.927059949967509E-020
 -1.200000000000000E-002   -5.750817445578616E-020
 -1.190000000000000E-002   -5.724457736520999E-020
 -1.180000000000000E-002   -4.631951285818075E-020
 -1.170000000000000E-002   -2.400358565816354E-020
 -1.160000000000000E-002    8.499469807845866E-021
 -1.150000000000000E-002    4.778595122601086E-020
 -1.140000000000000E-002    8.833015232572101E-020
 -1.130000000000000E-002    1.229787127621450E-019
 -1.120000000000000E-002    1.438721914979453E-019
 -1.110000000000000E-002    1.437269064178373E-019
 -1.100000000000000E-002    1.173260411809730E-019
 -1.090000000000000E-002    6.299287048052492E-020
 -1.080000000000000E-002   -1.623286065093394E-020
 -1.070000000000000E-002   -1.120060837407460E-019
 -1.060000000000000E-002   -2.109260179480703E-019
 -1.050000000000000E-002   -2.957786249081157E-019
 -1.040000000000000E-002   -3.477784002600252E-019
 -1.030000000000000E-002   -3.496316472242707E-019
 -1.020000000000000E-002   -2.890497340621189E-019
 -1.010000000000000E-002   -1.621699797849730E-019
 -1.000000000000000E-002    2.376630270322863E-020
 -9.899999999999999E-003    2.491427266681816E-019
 -9.800000000000000E-003    4.826610051210596E-019
 -9.699999999999999E-003    6.843216371918445E-019
 -9.599999999999999E-003    8.106686727957470E-019
 -9.500000000000000E-003    8.218543366488139E-019
 -9.399999999999999E-003    6.896468463031065E-019
 -9.299999999999999E-003    4.051354571229814E-019
 -9.200000000000000E-003   -1.533418267984308E-020
 -9.099999999999999E-003   -5.274637814664186E-019
 -8.999999999999999E-003   -1.060747701868843E-018
 -8.900000000000000E-003   -1.525319630260143E-018
 -8.799999999999999E-003   -1.823776209226357E-018
 -8.699999999999999E-003   -1.866927895151309E-018
 -8.600000000000000E-003   -1.591487974103419E-018
 -8.499999999999999E-003   -9.769371483021536E-019
 -8.399999999999999E-003   -5.835993628915708E-020
 -8.300000000000000E-003    1.067903358019680E-018
 -8.199999999999999E-003    2.248319223642216E-018
 -8.100000000000000E-003    3.287255234052200E-018
 -8.000000000000000E-003    3.972720688134649E-018
 -7.899999999999999E-003    4.110381318401973E-018
 -7.800000000000000E-003    3.561512258215170E-018
 -7.699999999999999E-003    2.278955474952052E-018
 -7.599999999999999E-003    3.342979614551234E-019
 -7.499999999999999E-003   -2.070337614238425E-018
 -7.399999999999999E-003   -4.611090338996972E-018
 -7.299999999999999E-003   -6.874353248554584E-018
 -7.199999999999999E-003   -8.410971728501621E-018
 -7.100000000000000E-003   -8.807545028372888E-018
 -6.999999999999999E-003   -7.765693505323643E-018
 -6.899999999999999E-003   -5.176953366559002E-018
 -6.800000000000000E-003   -1.179309250724692E-018
 -6.699999999999999E-003    3.818123135733615E-018
 -6.599999999999999E-003    9.152788525749689E-018
 -6.499999999999999E-003    1.397388445389624E-017
 -6.399999999999999E-003    1.735286887896602E-017
 -6.299999999999999E-003    1.842875657054322E-017
 -6.199999999999999E-003    1.656962214697376E-017
 -6.100000000000000E-003    1.152537417831898E-017
 -5.999999999999999E-003    3.543705691478165E-018
 -5.899999999999999E-003   -6.577777265935634E-018
 -5.800000000000000E-003   -1.752420935055196E-017
 -5.699999999999999E-003   -2.759110069115651E-017
 -5.599999999999999E-003   -3.490262709725617E-017
 -5.499999999999999E-003   -3.769981878532631E-017
 -5.399999999999999E-003   -3.466209740036146E-017
 -5.299999999999999E-003   -2.521314044435174E-017
 -5.199999999999999E-003   -9.755925481677530E-018
 -5.099999999999999E-003    1.021604599022382E-017
 -4.999999999999999E-003    3.217270634653103E-017
 -4.899999999999999E-003    5.278708811233789E-017
 -4.799999999999999E-003    6.835321580723953E-017
 -4.699999999999999E-003    7.534306172334823E-017
 -4.599999999999999E-003    7.103288458111002E-017
 -4.499999999999999E-003    5.410519678107048E-017
 -4.399999999999999E-003    2.512028378939455E-017
 -4.299999999999999E-003   -1.324507045605122E-017
 -4.199999999999999E-003   -5.627261929113404E-017
 -4.099999999999999E-003   -9.763336140451769E-017
 -3.999999999999999E-003   -1.301631661167493E-016
 -3.899999999999999E-003   -1.469126904488603E-016
 -3.799999999999999E-003   -1.423428487844868E-016
 -3.699999999999999E-003   -1.134906909040076E-016
 -3.599999999999999E-003   -6.090587728508254E-017
 -3.499999999999999E-003    1.083756817809260E-017
 -3.399999999999999E-003    9.321136143560895E-017
 -3.299999999999999E-003    1.744715557762794E-016
 -3.199999999999999E-003    2.410552006721220E-016
 -3.099999999999999E-003    2.795137457472779E-016
 -2.999999999999999E-003    2.787519518342954E-016
 -2.899999999999999E-003    2.322530331643489E-016
 -2.799999999999999E-003    1.399190519185890E-016
 -2.699999999999999E-003    9.159360506282087E-018
 -2.599999999999999E-003   -1.450769012235424E-016
 -2.499999999999999E-003   -3.015034235753703E-016
 -2.399999999999999E-003   -4.349391234001908E-016
 -2.299999999999999E-003   -5.197916664227156E-016
 -2.199999999999999E-003   -5.341798842299552E-016
 -2.099999999999999E-003   -4.641221000283585E-016
 -1.999999999999999E-003   -3.071147181488659E-016
 -1.899999999999999E-003   -7.441582857242213E-017
 -1.799999999999999E-003    2.085498558524009E-016
 -1.699999999999999E-003    5.040336127016980E-016
 -1.599999999999999E-003    7.661142206170200E-016
 -1.499999999999999E-003    9.468514558902372E-016
 -1.399999999999999E-003    1.003759056038618E-015
 -1.299999999999999E-003    9.075899722284802E-016
 -1.199999999999999E-003    6.492152305986685E-016
 -1.099999999999999E-003    2.443323349227596E-016
 -9.999999999999989E-004   -2.651091934693310E-016
 -8.999999999999990E-004   -8.135184268383486E-016
 -7.999999999999990E-004   -1.318526833664909E-015
 -6.999999999999989E-004   -1.691664205946031E-015
 -5.999999999999990E-004   -1.851716525470390E-015
 -4.999999999999989E-004   -1.739021430486960E-015
 -3.999999999999989E-004   -1.328531177117137E-015
 -2.999999999999989E-004   -6.393289519258061E-016
 -1.999999999999989E-004    2.615012977001084E-016
 -9.999999999999892E-005    1.262166240718416E-015
  1.084202172485504E-018    2.217206290951600E-015
  1.000000000000011E-004    2.965714862667714E-015
  2.000000000000011E-004    3.354907904612752E-015
  3.000000000000011E-004    3.266061199380767E-015
  4.000000000000011E-004    2.638986579102159E-015
  5.000000000000011E-004    1.490856008455305E-015
  6.000000000000011E-004   -7.455194256236591E-017
  7.000000000000011E-004   -1.870168106539859E-015
  8.000000000000011E-004   -3.642922819099505E-015
  9.000000000000012E-004   -5.104375906617023E-015
  1.000000000000001E-003   -5.971791026748056E-015
  1.100000000000001E-003   -6.014619869530334E-015
  1.200000000000001E-003   -5.099700344189219E-015
  1.300000000000001E-003   -3.227661447567403E-015
  1.400000000000001E-003   -5.532847330407817E-016
  1.500000000000001E-003    2.615932483563621E-015
  1.600000000000001E-003    5.846114015919931E-015
  1.700000000000001E-003    8.627779786007784E-015
  1.800000000000001E-003    1.044655812735274E-014
  1.900000000000001E-003    1.086541227661446E-014
  2.000000000000001E-003    9.606807091426832E-015
  2.100000000000001E-003    6.621486107429653E-015
  2.200000000000001E-003    2.130693970613767E-015
  2.300000000000001E-003   -3.369007053444907E-015
  2.400000000000001E-003   -9.144734225149879E-015
  2.500000000000001E-003   -1.431033599983549E-014
  2.600000000000001E-003   -1.794662419042479E-014
  2.700000000000001E-003   -1.924482137509669E-014
  2.800000000000001E-003   -1.765340429487037E-014
  2.900000000000001E-003   -1.300500625374882E-014
  3.000000000000001E-003   -5.599836824862123E-015
  3.100000000000001E-003    3.774357857646600E-015
  3.200000000000001E-003    1.389835756103627E-014
  3.300000000000001E-003    2.325559593866877E-014
  3.400000000000001E-003    3.023399573387345E-014
  3.500000000000001E-003    3.337253420424459E-014
  3.600000000000001E-003    3.161900683004584E-014
  3.700000000000001E-003    2.455867325762105E-014
  3.800000000000001E-003    1.257242106094282E-014
  3.900000000000001E-003   -3.111409980666175E-015
  4.000000000000001E-003   -2.049521496155927E-014
  4.100000000000001E-003   -3.702615739848780E-014
  4.200000000000001E-003   -4.993055575657543E-014
  4.300000000000001E-003   -5.663126933215394E-014
  4.400000000000001E-003   -5.519186026424270E-014
  4.500000000000001E-003   -4.471903068821772E-014
  4.600000000000002E-003   -2.565194239578361E-014
  4.700000000000001E-003    1.244434218490311E-016
  4.800000000000001E-003    2.938495855152794E-014
  4.900000000000002E-003    5.790187902906437E-014
  5.000000000000001E-003    8.099163547964114E-014
  5.100000000000001E-003    9.421034809728752E-014
  5.200000000000001E-003    9.410518928758369E-014
  5.300000000000002E-003    7.890689879475460E-014
  5.400000000000001E-003    4.904260556428007E-014
  5.500000000000001E-003    7.361233280627290E-015
  5.600000000000002E-003   -4.100398489113496E-014
  5.700000000000001E-003   -8.916202243548053E-014
  5.800000000000001E-003   -1.293458682281279E-013
  5.900000000000002E-003   -1.540531543829481E-013
  6.000000000000001E-003   -1.572941492273249E-013
  6.100000000000001E-003   -1.357580654562264E-013
  6.200000000000002E-003   -8.969709962579651E-014
  6.300000000000002E-003   -2.334751841277367E-014
  6.400000000000001E-003    5.524088734838718E-014
  6.500000000000001E-003    1.350156819153539E-013
  6.600000000000002E-003    2.033234747040526E-013
  6.700000000000001E-003    2.477500752174102E-013
  6.800000000000001E-003    2.581556780760410E-013
  6.900000000000002E-003    2.285989480782773E-013
  7.000000000000001E-003    1.588231879839787E-013
  7.100000000000001E-003    5.500798776615725E-014
  7.200000000000002E-003   -7.042748377757057E-014
  7.300000000000002E-003   -2.000556562796807E-013
  7.400000000000001E-003   -3.136340939522412E-013
  7.500000000000001E-003   -3.910239085757414E-013
  7.600000000000002E-003   -4.154479983386916E-013
  7.700000000000001E-003   -3.766018948821047E-013
  7.800000000000001E-003   -2.730947005028371E-013
  7.900000000000001E-003   -1.137433599491383E-013
  8.000000000000002E-003    8.262708773590351E-014
  8.100000000000001E-003    2.890232576135382E-013
  8.200000000000001E-003    4.736600310632355E-013
  8.300000000000002E-003    6.045084784684099E-013
  8.400000000000001E-003    6.544165203087114E-013
  8.500000000000002E-003    6.060405589074083E-013
  8.600000000000002E-003    4.557679543328269E-013
  8.700000000000001E-003    2.158794896529824E-013
  8.800000000000002E-003   -8.560065482072999E-014
  8.900000000000002E-003   -4.076076017879888E-013
  9.000000000000001E-003   -7.011451374545236E-013
  9.100000000000002E-003   -9.162492469474515E-013
  9.200000000000002E-003   -1.009890445879601E-012
  9.300000000000001E-003   -9.536448436027495E-013
  9.400000000000002E-003   -7.398708429910111E-013
  9.500000000000001E-003   -3.852302256320822E-013
  9.600000000000001E-003    6.930705706681617E-014
  9.700000000000002E-003    5.623603696977572E-013
  9.800000000000001E-003    1.019736021462188E-012
  9.900000000000001E-003    1.364903953721028E-012
  1.000000000000000E-002    1.530977627228084E-012
  1.010000000000000E-002    1.472433440438506E-012
  1.020000000000000E-002    1.174656731396595E-012
  1.030000000000000E-002    6.595507176875370E-013
  1.040000000000000E-002   -1.410736548524665E-014
  1.050000000000000E-002   -7.561721784370112E-013
  1.060000000000000E-002   -1.456226576993389E-012
  1.070000000000000E-002   -1.999069833701193E-012
  1.080000000000000E-002   -2.282568006270029E-012
  1.090000000000000E-002   -2.235252137641787E-012
  1.100000000000000E-002   -1.830818444661418E-012
  1.110000000000000E-002   -1.096898293023184E-012
  1.120000000000000E-002   -1.161145003643629E-013
  1.130000000000000E-002    9.815181022795861E-013
  1.140000000000000E-002    2.034499055176262E-012
  1.150000000000000E-002    2.872341306254086E-012
  1.160000000000000E-002    3.341722720773619E-012
  1.170000000000000E-002    3.332479019247058E-012
  1.180000000000000E-002    2.799279111965885E-012
  1.190000000000000E-002    1.775108430625072E-012
  1.200000000000000E-002    3.736238421729368E-013
  1.210000000000000E-002   -1.221065975794805E-012
  1.220000000000000E-002   -2.776770532034051E-012
  1.230000000000000E-002   -4.045337132015121E-012
  1.240000000000000E-002   -4.800338658019009E-012
  1.250000000000000E-002   -4.874870046709708E-012
  1.260000000000000E-002   -4.193465389334749E-012
  1.270000000000000E-002   -2.792525156014532E-012
  1.280000000000000E-002   -8.249541875144086E-013
  1.290000000000000E-002    1.453177332791552E-012
  1.300000000000000E-002    3.713485935252926E-012
  1.310000000000000E-002    5.600352270753039E-012
  1.320000000000000E-002    6.784384286924102E-012
  1.330000000000000E-002    7.016575246884726E-012
  1.340000000000000E-002    6.174661859174959E-012
  1.350000000000000E-002    4.293675418768912E-012
  1.360000000000000E-002    1.574462083604127E-012
  1.370000000000000E-002   -1.633115329340843E-012
  1.380000000000000E-002   -4.871868142222581E-012
  1.390000000000000E-002   -7.639474923499942E-012
  1.400000000000000E-002   -9.463177952495646E-012
  1.410000000000000E-002   -9.976312154937980E-012
  1.420000000000000E-002   -8.984806717080622E-012
  1.430000000000000E-002   -6.512358075457106E-012
  1.440000000000000E-002   -2.815374017969297E-012
  1.450000000000000E-002    1.637213692316574E-012
  1.460000000000000E-002    6.219060980725517E-012
  1.470000000000000E-002    1.023073778345686E-011
  1.480000000000000E-002    1.300250999238862E-011
  1.490000000000000E-002    1.400103149522745E-011
  1.500000000000000E-002    1.292359334555793E-011
  1.510000000000000E-002    9.764191890015358E-012
  1.520000000000000E-002    4.838810410774319E-012
  1.530000000000000E-002   -1.237343607287567E-012
  1.540000000000000E-002   -7.620967794161977E-012
  1.550000000000000E-002   -1.335296664708186E-011
  1.560000000000000E-002   -1.749773173296852E-011
  1.570000000000000E-002   -1.928986769738231E-011
  1.580000000000000E-002   -1.826615279445729E-011
  1.590000000000000E-002   -1.436105424459866E-011
  1.600000000000000E-002   -7.948117589953366E-012
  1.610000000000000E-002    1.834056262101570E-013
  1.620000000000000E-002    8.918084442646588E-012
  1.630000000000000E-002    1.696121801493806E-011
  1.640000000000000E-002    2.302475743629570E-011
  1.650000000000000E-002    2.602643806667243E-011
  1.660000000000000E-002    2.527230411309013E-011
  1.670000000000000E-002    2.059312850017238E-011
  1.680000000000000E-002    1.241015944101300E-011
  1.690000000000000E-002    1.714745560132866E-012
  1.700000000000000E-002   -1.004146000933300E-011
  1.710000000000000E-002   -2.113541426559592E-011
  1.720000000000000E-002   -2.981743276078941E-011
  1.730000000000000E-002   -3.457813867967360E-011
  1.740000000000000E-002   -3.439810302010602E-011
  1.750000000000000E-002   -2.894045858804622E-011
  1.760000000000000E-002   -1.865266645044727E-011
  1.770000000000000E-002   -4.755153920187219E-012
  1.780000000000000E-002    1.088956746261167E-011
  1.790000000000000E-002    2.601583374501557E-011
  1.800000000000000E-002    3.827283971628597E-011
  1.810000000000000E-002    4.557854128539892E-011
  1.820000000000000E-002    4.645769447251628E-011
  1.830000000000000E-002    4.031103438587750E-011
  1.840000000000000E-002    2.756944257187060E-011
  1.850000000000000E-002    9.701381842020256E-012
  1.860000000000000E-002   -1.093785612828679E-011
  1.870000000000000E-002   -3.140309020277715E-011