 -4.000000000000000E-002    0.000000000000000E+000
 -3.990000000000000E-002    0.000000000000000E+000
 -3.980000000000000E-002    0.000000000000000E+000
 -3.970000000000000E-002    0.000000000000000E+000
 -3.960000000000000E-002    0.000000000000000E+000
 -3.950000000000000E-002    0.000000000000000E+000
 -3.940000000000000E-002    0.000000000000000E+000
 -3.930000000000000E-002    0.000000000000000E+000
 -3.920000000000000E-002    0.000000000000000E+000
 -3.910000000000000E-002    0.000000000000000E+000
 -3.900000000000000E-002    0.000000000000000E+000
 -3.890000000000000E-002    0.000000000000000E+000
 -3.880000000000000E-002    0.000000000000000E+000
 -3.870000000000000E-002    0.000000000000000E+000
 -3.860000000000000E-002    0.000000000000000E+000
 -3.850000000000000E-002    0.000000000000000E+000
 -3.840000000000000E-002    0.000000000000000E+000
 -3.830000000000000E-002    0.000000000000000E+000
 -3.820000000000000E-002    0.000000000000000E+000
 -3.810000000000000E-002    0.000000000000000E+000
 -3.800000000000000E-002    0.000000000000000E+000
 -3.790000000000000E-002    0.000000000000000E+000
 -3.780000000000000E-002    0.000000000000000E+000
 -3.770000000000000E-002    0.000000000000000E+000
 -3.760000000000000E-002    0.000000000000000E+000
 -3.750000000000000E-002    0.000000000000000E+000
 -3.740000000000000E-002    0.000000000000000E+000
 -3.730000000000000E-002    0.000000000000000E+000
 -3.720000000000000E-002    0.000000000000000E+000
 -3.710000000000000E-002    0.000000000000000E+000
 -3.700000000000000E-002    0.000000000000000E+000
 -3.690000000000000E-002    0.000000000000000E+000
 -3.680000000000000E-002    0.000000000000000E+000
 -3.670000000000000E-002    0.000000000000000E+000
 -3.660000000000000E-002    0.000000000000000E+000
 -3.650000000000000E-002    0.000000000000000E+000
 -3.640000000000000E-002    0.000000000000000E+000
 -3.630000000000000E-002    0.000000000000000E+000
 -3.620000000000000E-002    0.000000000000000E+000
 -3.610000000000000E-002    0.000000000000000E+000
 -3.600000000000000E-002    0.000000000000000E+000
 -3.590000000000000E-002    0.000000000000000E+000
 -3.580000000000000E-002    0.000000000000000E+000
 -3.570000000000000E-002    0.000000000000000E+000
 -3.560000000000000E-002    0.000000000000000E+000
 -3.550000000000000E-002    0.000000000000000E+000
 -3.540000000000000E-002    0.000000000000000E+000
 -3.530000000000000E-002    0.000000000000000E+000
 -3.520000000000000E-002    0.000000000000000E+000
 -3.510000000000000E-002    0.000000000000000E+000
 -3.500000000000000E-002    0.000000000000000E+000
 -3.490000000000000E-002    0.000000000000000E+000
 -3.480000000000000E-002    0.000000000000000E+000
 -3.470000000000000E-002    0.000000000000000E+000
 -3.460000000000000E-002    0.000000000000000E+000
 -3.450000000000000E-002    0.000000000000000E+000
 -3.440000000000000E-002    0.000000000000000E+000
 -3.430000000000000E-002    0.000000000000000E+000
 -3.420000000000000E-002    0.000000000000000E+000
 -3.410000000000000E-002    0.000000000000000E+000
 -3.400000000000000E-002    0.000000000000000E+000
 -3.390000000000000E-002    0.000000000000000E+000
 -3.380000000000000E-002    0.000000000000000E+000
 -3.370000000000000E-002    0.000000000000000E+000
 -3.360000000000000E-002    0.000000000000000E+000
 -3.350000000000000E-002    0.000000000000000E+000
 -3.340000000000000E-002    0.000000000000000E+000
 -3.330000000000000E-002    0.000000000000000E+000
 -3.320000000000000E-002    0.000000000000000E+000
 -3.310000000000000E-002    0.000000000000000E+000
 -3.300000000000000E-002    0.000000000000000E+000
 -3.290000000000000E-002    0.000000000000000E+000
 -3.280000000000000E-002    0.000000000000000E+000
 -3.270000000000000E-002    0.000000000000000E+000
 -3.260000000000000E-002    0.000000000000000E+000
 -3.250000000000000E-002    0.000000000000000E+000
 -3.240000000000000E-002    0.000000000000000E+000
 -3.230000000000000E-002    0.000000000000000E+000
 -3.220000000000000E-002    0.000000000000000E+000
 -3.210000000000000E-002    0.000000000000000E+000
 -3.200000000000000E-002    0.000000000000000E+000
 -3.190000000000000E-002    0.000000000000000E+000
 -3.180000000000000E-002    0.000000000000000E+000
 -3.170000000000000E-002    0.000000000000000E+000
 -3.160000000000000E-002    0.000000000000000E+000
 -3.150000000000000E-002    0.000000000000000E+000
 -3.140000000000000E-002    0.000000000000000E+000
 -3.130000000000000E-002    0.000000000000000E+000
 -3.120000000000000E-002    0.000000000000000E+000
 -3.110000000000000E-002    0.000000000000000E+000
 -3.100000000000000E-002    0.000000000000000E+000
 -3.090000000000000E-002    0.000000000000000E+000
 -3.080000000000000E-002    0.000000000000000E+000
 -3.070000000000000E-002    0.000000000000000E+000
 -3.060000000000000E-002    0.000000000000000E+000
 -3.050000000000000E-002    0.000000000000000E+000
 -3.040000000000000E-002    0.000000000000000E+000
 -3.030000000000000E-002    0.000000000000000E+000
 -3.020000000000000E-002    0.000000000000000E+000
 -3.010000000000000E-002    0.000000000000000E+000
 -3.000000000000000E-002    0.000000000000000E+000
 -2.990000000000000E-002    0.000000000000000E+000
 -2.980000000000000E-002    0.000000000000000E+000
 -2.970000000000000E-002    0.000000000000000E+000
 -2.960000000000000E-002    0.000000000000000E+000
 -2.950000000000000E-002    0.000000000000000E+000
 -2.940000000000000E-002    0.000000000000000E+000
 -2.930000000000000E-002    0.000000000000000E+000
 -2.920000000000000E-002    0.000000000000000E+000
 -2.910000000000000E-002    0.000000000000000E+000
 -2.900000000000000E-002    0.000000000000000E+000
 -2.890000000000000E-002    0.000000000000000E+000
 -2.880000000000000E-002    0.000000000000000E+000
 -2.870000000000000E-002    0.000000000000000E+000
 -2.860000000000000E-002    0.000000000000000E+000
 -2.850000000000000E-002    0.000000000000000E+000
 -2.840000000000000E-002    0.000000000000000E+000
 -2.830000000000000E-002    0.000000000000000E+000
 -2.820000000000000E-002    0.000000000000000E+000
 -2.810000000000000E-002    0.000000000000000E+000
 -2.800000000000000E-002    0.000000000000000E+000
 -2.790000000000000E-002    0.000000000000000E+000
 -2.780000000000000E-002    0.000000000000000E+000
 -2.770000000000000E-002    0.000000000000000E+000
 -2.760000000000000E-002    0.000000000000000E+000
 -2.750000000000000E-002    0.000000000000000E+000
 -2.740000000000000E-002    0.000000000000000E+000
 -2.730000000000000E-002    0.000000000000000E+000
 -2.720000000000000E-002    0.000000000000000E+000
 -2.710000000000000E-002    0.000000000000000E+000
 -2.700000000000000E-002    0.000000000000000E+000
 -2.690000000000000E-002    0.000000000000000E+000
 -2.680000000000000E-002    0.000000000000000E+000
 -2.670000000000000E-002    0.000000000000000E+000
 -2.660000000000000E-002    0.000000000000000E+000
 -2.650000000000000E-002    0.000000000000000E+000
 -2.640000000000000E-002    0.000000000000000E+000
 -2.630000000000000E-002    0.000000000000000E+000
 -2.620000000000000E-002    0.000000000000000E+000
 -2.610000000000000E-002    1.924390591266381E-047
 -2.600000000000000E-002    1.924390591266381E-047
 -2.590000000000000E-002    1.924390591266381E-047
 -2.580000000000000E-002    0.000000000000000E+000
 -2.570000000000000E-002    1.066831587044124E-046
 -2.560000000000000E-002    9.770266927850266E-047
 -2.550000000000000E-002   -2.052683297350806E-047
 -2.540000000000000E-002   -1.387563352255188E-046
 -2.530000000000000E-002    3.848781182532762E-048
 -2.520000000000000E-002    3.592195770363911E-047
 -2.510000000000000E-002   -4.366836151587629E-046
 -2.500000000000000E-002   -7.954695844081946E-046
 -2.490000000000000E-002   -1.051060271333578E-045
 -2.480000000000000E-002   -1.387675575746489E-045
 -2.470000000000000E-002   -1.111084927554128E-045
 -2.460000000000000E-002    5.501452915914546E-046
 -2.450000000000000E-002    2.947108640742059E-045
 -2.440000000000000E-002    6.159928966738129E-045
 -2.430000000000000E-002    1.061445252530923E-044
 -2.420000000000000E-002    1.558804927241195E-044
 -2.410000000000000E-002    1.853569376751789E-044
 -2.400000000000000E-002    1.877195995163407E-044
 -2.390000000000000E-002    1.130263664849529E-044
 -2.380000000000000E-002   -5.263017405270299E-045
 -2.370000000000000E-002   -3.584222830229244E-044
 -2.360000000000000E-002   -8.325655628055842E-044
 -2.350000000000000E-002   -1.443322313752819E-043
 -2.340000000000000E-002   -2.120791006694156E-043
 -2.330000000000000E-002   -2.704269398375882E-043
 -2.320000000000000E-002   -2.940434570120059E-043
 -2.310000000000000E-002   -2.442816871882522E-043
 -2.300000000000000E-002   -7.712512441473759E-044
 -2.290000000000000E-002    2.533066737031711E-043
 -2.280000000000000E-002    7.762461700705889E-043
 -2.270000000000000E-002    1.488620617144672E-042
 -2.260000000000000E-002    2.322102802273687E-042
 -2.250000000000000E-002    3.119952266063689E-042
 -2.240000000000000E-002    3.610299185565801E-042
 -2.230000000000000E-002    3.401843623385966E-042
 -2.220000000000000E-002    2.009581918361521E-042
 -2.210000000000000E-002   -1.070145258168264E-042
 -2.200000000000000E-002   -6.221903667484949E-042
 -2.190000000000000E-002   -1.350398863357698E-041
 -2.180000000000000E-002   -2.238721310636537E-041
 -2.170000000000000E-002   -3.146947345034650E-041
 -2.160000000000000E-002   -3.824570712716348E-041
 -2.150000000000000E-002   -3.902800772901409E-041
 -2.140000000000000E-002   -2.916232510740868E-041
 -2.130000000000000E-002   -3.679820754414538E-042
 -2.120000000000000E-002    4.149006966375898E-041
 -2.110000000000000E-002    1.076971206720004E-040
 -2.100000000000000E-002    1.912432067832620E-040
 -2.090000000000000E-002    2.808802813898516E-040
 -2.080000000000000E-002    3.556989499481334E-040
 -2.070000000000000E-002    3.843305569182534E-040
 -2.060000000000000E-002    3.265472494147700E-040
 -2.050000000000000E-002    1.384784109708432E-040
 -2.040000000000000E-002   -2.176093353752085E-040
 -2.030000000000000E-002   -7.586311901706490E-040
 -2.020000000000000E-002   -1.461961587769671E-039
 -2.010000000000000E-002   -2.245212470761319E-039
 -2.000000000000000E-002   -2.949154589781055E-039
 -1.990000000000000E-002   -3.330578638170049E-039
 -1.980000000000000E-002   -3.073559909347123E-039
 -1.970000000000000E-002   -1.827931604280821E-039
 -1.960000000000000E-002    7.180674750018459E-040
 -1.950000000000000E-002    4.728960733471169E-039
 -1.940000000000000E-002    1.008364715480430E-038
 -1.930000000000000E-002    1.622631711491216E-038
 -1.920000000000000E-002    2.204025061511399E-038
 -1.910000000000000E-002    2.579273742317223E-038
 -1.900000000000000E-002    2.521004588396246E-038
 -1.890000000000000E-002    1.774241902660351E-038
 -1.880000000000000E-002    1.065097934314244E-039
 -1.870000000000000E-002   -2.617416598802450E-038
 -1.860000000000000E-002   -6.340964193548035E-038
 -1.850000000000000E-002   -1.071446737854980E-037
 -1.840000000000000E-002   -1.500971885188289E-037
 -1.830000000000000E-002   -1.808220947869194E-037
 -1.820000000000000E-002   -1.841916641726471E-037
 -1.810000000000000E-002   -1.431129173701488E-037
 -1.800000000000000E-002   -4.176026490818490E-038
 -1.790000000000000E-002    1.296330391112918E-037
 -1.780000000000000E-002    3.687603788892954E-037
 -1.770000000000000E-002    6.548491950592510E-037
 -1.760000000000000E-002    9.433151569389443E-037
 -1.750000000000000E-002    1.163429729448495E-036
 -1.740000000000000E-002    1.221302057838311E-036
 -1.730000000000000E-002    1.010411265413900E-036
 -1.720000000000000E-002    4.312421448193201E-037
 -1.710000000000000E-002   -5.798636484076072E-037
 -1.700000000000000E-002   -2.014827738656345E-036
 -1.690000000000000E-002   -3.756074864661202E-036
 -1.680000000000000E-002   -5.545351036742369E-036
 -1.670000000000000E-002   -6.970519806728966E-036
 -1.660000000000000E-002   -7.483423628776536E-036
 -1.650000000000000E-002   -6.461138700029273E-036
 -1.640000000000000E-002   -3.318776550809907E-036
 -1.630000000000000E-002    2.326517966068148E-036
 -1.620000000000000E-002    1.045364575874370E-035
 -1.610000000000000E-002    2.042733489188902E-035
 -1.600000000000000E-002    3.082699272285967E-035
 -1.590000000000000E-002    3.937702269847267E-035
 -1.580000000000000E-002    4.304876267235942E-035
 -1.570000000000000E-002    3.839839738028159E-035
 -1.560000000000000E-002    2.218073766681792E-035
 -1.550000000000000E-002   -7.767844859016934E-036
 -1.540000000000000E-002   -5.145312576859972E-035
 -1.530000000000000E-002   -1.056143404513990E-034
 -1.520000000000000E-002   -1.628334748106577E-034
 -1.510000000000000E-002   -2.111863374614527E-034
 -1.500000000000000E-002   -2.347913716078999E-034
 -1.490000000000000E-002   -2.155739213801589E-034
 -1.480000000000000E-002   -1.364312254422748E-034
 -1.470000000000000E-002    1.425989032391116E-035
 -1.460000000000000E-002    2.371979177700429E-034
 -1.450000000000000E-002    5.166002565292212E-034
 -1.440000000000000E-002    8.157901411646323E-034
 -1.430000000000000E-002    1.075517676046922E-033
 -1.420000000000000E-002    1.216730069164173E-033
 -1.410000000000000E-002    1.149282593120666E-033
 -1.400000000000000E-002    7.874017946265533E-034
 -1.390000000000000E-002    7.152136787912215E-035
 -1.380000000000000E-002   -1.005552180511017E-033
 -1.370000000000000E-002   -2.372153735303509E-033
 -1.360000000000000E-002   -3.856912702719689E-033
 -1.350000000000000E-002   -5.180968877010793E-033
 -1.340000000000000E-002   -5.971102703147129E-033
 -1.330000000000000E-002   -5.800429595118075E-033
 -1.320000000000000E-002   -4.260049794756409E-033
 -1.310000000000000E-002   -1.059469226697352E-033
 -1.300000000000000E-002    3.853910671263956E-033
 -1.290000000000000E-002    1.017470023979672E-032
 -1.280000000000000E-002    1.714569950817489E-032
 -1.270000000000000E-002    2.352330143378852E-032
 -1.260000000000000E-002    2.763628431692136E-032
 -1.250000000000000E-002    2.756631895814777E-032
 -1.240000000000000E-002    2.146338477174611E-032
 -1.230000000000000E-002    7.985013509633931E-033
 -1.220000000000000E-002   -1.318462661533860E-032
 -1.210000000000000E-002   -4.081648526138924E-032
 -1.200000000000000E-002   -7.173475433017329E-032
 -1.190000000000000E-002   -1.006705715450804E-031
 -1.180000000000000E-002   -1.205133427845457E-031
 -1.170000000000000E-002   -1.230738635443743E-031
 -1.160000000000000E-002   -1.004085204085287E-031
 -1.150000000000000E-002   -4.665087801252745E-032
 -1.140000000000000E-002    3.983811192591531E-032
 -1.130000000000000E-002    1.543385022756165E-031
 -1.120000000000000E-002    2.841323262217352E-031
 -1.110000000000000E-002    4.079190156294589E-031
 -1.100000000000000E-002    4.968483804217889E-031
 -1.090000000000000E-002    5.176117153631253E-031
 -1.080000000000000E-002    4.377623455190623E-031
 -1.070000000000000E-002    2.330223444814126E-031
 -1.060000000000000E-002   -1.041999406338842E-031
 -1.050000000000000E-002   -5.564305058580653E-031
 -1.040000000000000E-002   -1.074750159900722E-030
 -1.030000000000000E-002   -1.576587709190817E-030
 -1.020000000000000E-002   -1.949823672320687E-030
 -1.010000000000000E-002   -2.064827587337876E-030
 -1.000000000000000E-002   -1.794988401210241E-030
 -9.899999999999999E-003   -1.044692384720841E-030
 -9.800000000000000E-003    2.183028931889875E-031
 -9.699999999999999E-003    1.931280252691831E-030
 -9.599999999999999E-003    3.912778922462890E-030
 -9.500000000000000E-003    5.854686072590773E-030
 -9.399999999999999E-003    7.337989573113916E-030
 -9.299999999999999E-003    7.877934318547849E-030
 -9.200000000000000E-003    7.000285104643161E-030
 -9.099999999999999E-003    4.344416295149128E-030
 -8.999999999999999E-003   -2.182810511243064E-031
 -8.900000000000000E-003   -6.469822713079684E-030
 -8.799999999999999E-003   -1.376034052831763E-029
 -8.699999999999999E-003   -2.098091469677054E-029
 -8.600000000000000E-003   -2.662186626631722E-029
 -8.499999999999999E-003   -2.893601434170833E-029
 -8.399999999999999E-003   -2.621165521074512E-029
 -8.300000000000000E-003   -1.713877660207916E-029
 -8.199999999999999E-003   -1.226581886627186E-030
 -8.100000000000000E-003    2.079561281952454E-029
 -8.000000000000000E-003    4.668312840030765E-029
 -7.899999999999999E-003    7.258569311398035E-029
 -7.800000000000000E-003    9.325461186722331E-029
 -7.699999999999999E-003    1.026114045450319E-028
 -7.599999999999999E-003    9.468994934503646E-029
 -7.499999999999999E-003    6.489148581430506E-029
 -7.399999999999999E-003    1.140582118830956E-029
 -7.299999999999999E-003   -6.343359037815140E-029
 -7.199999999999999E-003   -1.521611188031023E-028
 -7.100000000000000E-003   -2.418869955031869E-028
 -6.999999999999999E-003   -3.150038255776597E-028
 -6.899999999999999E-003   -3.510944267673626E-028
 -6.800000000000000E-003   -3.300683492837115E-028
 -6.699999999999999E-003   -2.363125800636823E-028
 -6.599999999999999E-003   -6.336442498693397E-029
 -6.499999999999999E-003    1.816616102264439E-028
 -6.399999999999999E-003    4.748697287122597E-028
 -6.299999999999999E-003    7.746610839979057E-028
 -6.199999999999999E-003    1.024048674118314E-027
 -6.100000000000000E-003    1.156828811976405E-027
 -5.999999999999999E-003    1.107657477855670E-027
 -5.899999999999999E-003    8.253110453685371E-028
 -5.800000000000000E-003    2.875317246561220E-028
 -5.699999999999999E-003   -4.849864967523042E-028
 -5.599999999999999E-003   -1.418545357001976E-027
 -5.499999999999999E-003   -2.383611984104125E-027
 -5.399999999999999E-003   -3.202123956748670E-027
 -5.299999999999999E-003   -3.666767803478621E-027
 -5.199999999999999E-003   -3.572265567292129E-027
 -5.099999999999999E-003   -2.756333772362653E-027
 -4.999999999999999E-003   -1.145305101290029E-027
 -4.899999999999999E-003    1.203119858832190E-027
 -4.799999999999999E-003    4.069338192365364E-027
 -4.699999999999999E-003    7.063415523119084E-027
 -4.599999999999999E-003    9.647373531525371E-027
 -4.499999999999999E-003    1.119346543834969E-026
 -4.399999999999999E-003    1.107821955327674E-026
 -4.299999999999999E-003    8.804947021510962E-027
 -4.199999999999999E-003    4.139534682098522E-027
 -4.099999999999999E-003   -2.762947051887594E-027
 -3.999999999999999E-003   -1.126837117246029E-026
 -3.899999999999999E-003   -2.023922073079287E-026
 -3.799999999999999E-003   -2.810051005767192E-026
 -3.699999999999999E-003   -3.301056922176008E-026
 -3.599999999999999E-003   -3.313517060648537E-026
 -3.499999999999999E-003   -2.700296007038090E-026
 -3.399999999999999E-003   -1.389759300970313E-026
 -3.299999999999999E-003    5.778369997431408E-027
 -3.199999999999999E-003    3.024667889235127E-026
 -3.099999999999999E-003    5.628512209508213E-026
 -2.999999999999999E-003    7.941666315689543E-026
 -2.899999999999999E-003    9.439530324867425E-026
 -2.799999999999999E-003    9.598212174533318E-026
 -2.699999999999999E-003    7.994697121904113E-026
 -2.599999999999999E-003    4.416899006764788E-026
 -2.499999999999999E-003   -1.034661207688634E-026
 -2.399999999999999E-003   -7.875454560194201E-026
 -2.299999999999999E-003   -1.521821440630895E-025
 -2.199999999999999E-003   -2.182554501830319E-025
 -2.099999999999999E-003   -2.624419552552814E-025
 -1.999999999999999E-003   -2.701857498261678E-025
 -1.899999999999999E-003   -2.296531452907070E-025
 -1.799999999999999E-003   -1.347378640975771E-025
 -1.699999999999999E-003    1.217223198700138E-026
 -1.599999999999999E-003    1.982592949857056E-025
 -1.499999999999999E-003    3.997695561252372E-025
 -1.399999999999999E-003    5.834302118435665E-025
 -1.299999999999999E-003    7.100542112170314E-025
 -1.199999999999999E-003    7.402533475855484E-025
 -1.099999999999999E-003    6.417618312285235E-025
 -9.999999999999989E-004    3.974288377164459E-025
 -8.999999999999990E-004    1.255715989713073E-026
 -7.999999999999990E-004   -4.799704128049129E-025
 -6.999999999999989E-004   -1.018339239917832E-024
 -5.999999999999990E-004   -1.515495410419683E-024
 -4.999999999999989E-004   -1.868546822861542E-024
 -3.999999999999989E-004   -1.973634352749058E-024
 -2.999999999999989E-004   -1.744953707187440E-024
 -1.999999999999989E-004   -1.135469349858125E-024
 -9.999999999999892E-005   -1.559041161329367E-025
  1.084202172485504E-018    1.111989989691719E-024
  1.000000000000011E-004    2.511853282172750E-024
  2.000000000000011E-004    3.822029488842369E-024
  3.000000000000011E-004    4.779391064922012E-024
  4.000000000000011E-004    5.117018256313003E-024
  5.000000000000011E-004    4.612329897306357E-024
  6.000000000000011E-004    3.139429932948405E-024
  7.000000000000011E-004    7.170741249158493E-025
  8.000000000000011E-004   -2.457729351095966E-024
  9.000000000000012E-004   -6.000346619509004E-024
  1.000000000000001E-003   -9.361234906996241E-024
  1.100000000000001E-003   -1.188466521961450E-023
  1.200000000000001E-003   -1.290171439111525E-023
  1.300000000000001E-003   -1.184897995308980E-023
  1.400000000000001E-003   -8.397681344591079E-024
  1.500000000000001E-003   -2.572008070100066E-024
  1.600000000000001E-003    5.167607384018350E-024
  1.700000000000001E-003    1.390022003924665E-023
  1.800000000000001E-003    2.229802675004945E-023
  1.900000000000001E-003    2.876723151265381E-023
  2.000000000000001E-003    3.167171771837719E-023
  2.100000000000001E-003    2.961882194553629E-023
  2.200000000000001E-003    2.177025972284416E-023
  2.300000000000001E-003    8.127661739857728E-024
  2.400000000000001E-003   -1.026526118306809E-023
  2.500000000000001E-003   -3.126061076266759E-023
  2.600000000000001E-003   -5.172891064278896E-023
  2.700000000000001E-003   -6.788816072863815E-023
  2.800000000000001E-003   -7.582859223824565E-023
  2.900000000000001E-003   -7.218451557206325E-023
  3.000000000000001E-003   -5.486629438212918E-023
  3.100000000000001E-003   -2.373463409241720E-023
  3.200000000000001E-003    1.891803051195257E-023
  3.300000000000001E-003    6.821048667814784E-023
  3.400000000000001E-003    1.169434717532064E-022
  3.500000000000001E-003    1.563481576684776E-022
  3.600000000000001E-003    1.772879405228741E-022
  3.700000000000001E-003    1.718017136553885E-022
  3.800000000000001E-003    1.347900205040603E-022
  3.900000000000001E-003    6.557464915858063E-023
  4.000000000000001E-003   -3.097587206401162E-023
  4.100000000000001E-003   -1.440540305913296E-022
  4.200000000000001E-003   -2.574892800788456E-022
  4.300000000000001E-003   -3.514064857229379E-022
  4.400000000000001E-003   -4.049129118400298E-022
  4.500000000000001E-003   -3.995648124360793E-022
  4.600000000000002E-003   -3.231697049466716E-022
  4.700000000000001E-003   -1.733229284384296E-022
  4.800000000000001E-003    4.000707580500972E-023
  4.900000000000002E-003    2.935120397604585E-022
  5.000000000000001E-003    5.517205822833278E-022
  5.100000000000001E-003    7.705768439412646E-022
  5.200000000000001E-003    9.033087734337158E-022
  5.300000000000002E-003    9.080463431204129E-022
  5.400000000000001E-003    7.562201342253985E-022
  5.500000000000001E-003    4.404297958953392E-022
  5.600000000000002E-003   -1.971884186331978E-023
  5.700000000000001E-003   -5.752662180797603E-022
  5.800000000000001E-003   -1.150195342079949E-021
  5.900000000000002E-003   -1.648950734762695E-021
  6.000000000000001E-003   -1.968965227371753E-021
  6.100000000000001E-003   -2.017044871903908E-021
  6.200000000000002E-003   -1.727559483260530E-021
  6.300000000000002E-003   -1.079624930261816E-021
  6.400000000000001E-003   -1.100704894458634E-022
  6.500000000000001E-003    1.080949289610770E-021
  6.600000000000002E-003    2.334196043606665E-021
  6.700000000000001E-003    3.446730394345326E-021
  6.800000000000001E-003    4.198045150212088E-021
  6.900000000000002E-003    4.384594906714655E-021
  7.000000000000001E-003    3.858437418843497E-021
  7.100000000000001E-003    2.564108588493146E-021
  7.200000000000002E-003    5.669763727308311E-022
  7.300000000000002E-003   -1.933556618957459E-021
  7.400000000000001E-003   -4.611336091087187E-021
  7.500000000000001E-003   -7.044065455171155E-021
  7.600000000000002E-003   -8.766611499368916E-021
  7.700000000000001E-003   -9.342313409928811E-021
  7.800000000000001E-003   -8.443570917638697E-021
  7.900000000000001E-003   -5.929647777960171E-021
  8.000000000000002E-003   -1.907749439078669E-021
  8.100000000000001E-003    3.236413429566662E-021
  8.200000000000001E-003    8.849810058665655E-021
  8.300000000000002E-003    1.407123074067685E-020
  8.400000000000001E-003    1.793758405142499E-020
  8.500000000000002E-003    1.952824246245549E-020
  8.600000000000002E-003    1.813008013057218E-020
  8.700000000000001E-003    1.339897151692517E-020
  8.800000000000002E-003    5.489420596925457E-021
  8.900000000000002E-003   -4.875872005666949E-021
  9.000000000000001E-003   -1.641983027144255E-020
  9.100000000000002E-003   -2.742171812234175E-020
  9.200000000000002E-003   -3.592422124194333E-020
  9.300000000000001E-003   -4.001986947387322E-020
  9.400000000000002E-003   -3.818302502330473E-020
  9.500000000000001E-003   -2.959959875310900E-020
  9.600000000000001E-003   -1.443810845073426E-020
  9.700000000000002E-003    5.994812488361648E-021
  9.800000000000001E-003    2.926227711707517E-020
  9.900000000000001E-003    5.199727578613719E-020
  1.000000000000000E-002    7.029674526745647E-020
  1.010000000000000E-002    8.027869474456003E-020
  1.020000000000000E-002    7.873818086223313E-020
  1.030000000000000E-002    6.380950023005855E-020
  1.040000000000000E-002    3.552426661314179E-020
  1.050000000000000E-002   -3.847753319883726E-021
  1.060000000000000E-002   -4.977168671377674E-020
  1.070000000000000E-002   -9.579576178807238E-020
  1.080000000000000E-002   -1.342836536044152E-019
  1.090000000000000E-002   -1.574771104569897E-019
  1.100000000000000E-002   -1.587696000136443E-019
  1.110000000000000E-002   -1.340150459981223E-019
  1.120000000000000E-002   -8.265868605798154E-020
  1.130000000000000E-002   -8.469043047056133E-021
  1.140000000000000E-002    8.032207542158757E-020
  1.150000000000000E-002    1.715994706260879E-019
  1.160000000000000E-002    2.506941560353326E-019
  1.170000000000000E-002    3.023723267743621E-019
  1.180000000000000E-002    3.132672466255013E-019
  1.190000000000000E-002    2.744255964524559E-019
  1.200000000000000E-002    1.835642216035469E-019
  1.210000000000000E-002    4.661071288992570E-020
  1.220000000000000E-002   -1.218524969337323E-019
  1.230000000000000E-002   -2.995041711219687E-019
  1.240000000000000E-002   -4.586421745743722E-019
  1.250000000000000E-002   -5.698401102894141E-019
  1.260000000000000E-002   -6.065175702088048E-019
  1.270000000000000E-002   -5.498226315840090E-019
  1.280000000000000E-002   -3.930698140884162E-019
  1.290000000000000E-002   -1.449219091031766E-019
  1.300000000000000E-002    1.694242284029581E-019
  1.310000000000000E-002    5.095831875299388E-019
  1.320000000000000E-002    8.240627511572047E-019
  1.330000000000000E-002    1.056868494670308E-018
  1.340000000000000E-002    1.155965694848365E-018
  1.350000000000000E-002    1.082509911825340E-018
  1.360000000000000E-002    8.194543234027443E-019
  1.370000000000000E-002    3.780077955396948E-019
  1.380000000000000E-002   -1.994799228989531E-019
  1.390000000000000E-002   -8.412747692543894E-019
  1.400000000000000E-002   -1.453139105298130E-018
  1.410000000000000E-002   -1.930051373060605E-018
  1.420000000000000E-002   -2.171636925971685E-018
  1.430000000000000E-002   -2.099384811015293E-018
  1.440000000000000E-002   -1.673112078051731E-018
  1.450000000000000E-002   -9.038506469317740E-019
  1.460000000000000E-002    1.395479846745764E-019
  1.470000000000000E-002    1.332198051294011E-018
  1.480000000000000E-002    2.504429341240923E-018
  1.490000000000000E-002    3.462198565219806E-018
  1.500000000000000E-002    4.014800460951103E-018
  1.510000000000000E-002    4.006520886414125E-018
  1.520000000000000E-002    3.347691868926136E-018
  1.530000000000000E-002    2.039961404773383E-018
  1.540000000000000E-002    1.907236527462767E-019
  1.550000000000000E-002   -1.987391373669475E-018
  1.560000000000000E-002   -4.194272882150708E-018
  1.570000000000000E-002   -6.077179908311939E-018
  1.580000000000000E-002   -7.279714758370108E-018
  1.590000000000000E-002   -7.499170003850215E-018
  1.600000000000000E-002   -6.544210905941904E-018
  1.610000000000000E-002   -4.383548875301129E-018
  1.620000000000000E-002   -1.176233984653465E-018
  1.630000000000000E-002    2.724246643294027E-018
  1.640000000000000E-002    6.796847312629069E-018
  1.650000000000000E-002    1.041128475772241E-017
  1.660000000000000E-002    1.291320230904336E-017
  1.670000000000000E-002    1.372650064452144E-017
  1.680000000000000E-002    1.245882594615447E-017
  1.690000000000000E-002    8.993557429579844E-018
  1.700000000000000E-002    3.551214731203381E-018
  1.710000000000000E-002   -3.294397632120779E-018
  1.720000000000000E-002   -1.065490507911223E-017
  1.730000000000000E-002   -1.742305241633939E-017
  1.740000000000000E-002   -2.241854577510176E-017
  1.750000000000000E-002   -2.456797526902971E-017
  1.760000000000000E-002   -2.309476952838706E-017
  1.770000000000000E-002   -1.768984858406292E-017
  1.780000000000000E-002   -8.632299040297005E-018
  1.790000000000000E-002    3.167089081757065E-018
  1.800000000000000E-002    1.621814124174714E-017
  1.810000000000000E-002    2.860541575806420E-017
  1.820000000000000E-002    3.823438157048314E-017
  1.830000000000000E-002    4.314348578536356E-017
  1.840000000000000E-002    4.184127373427144E-017
  1.850000000000000E-002    3.361758911099455E-017
  1.860000000000000E-002    1.877442986848443E-017
  1.870000000000000E-002   -1.272923307908238E-018