 -4.000000000000000E-002    0.000000000000000E+000
 -3.990000000000000E-002    0.000000000000000E+000
 -3.980000000000000E-002    0.000000000000000E+000
 -3.970000000000000E-002    0.000000000000000E+000
 -3.960000000000000E-002    0.000000000000000E+000
 -3.950000000000000E-002    0.000000000000000E+000
 -3.940000000000000E-002    0.000000000000000E+000
 -3.930000000000000E-002    0.000000000000000E+000
 -3.920000000000000E-002    0.000000000000000E+000
 -3.910000000000000E-002    0.000000000000000E+000
 -3.900000000000000E-002    1.640415361933852E-033
 -3.890000000000000E-002    3.460708529983734E-032
 -3.880000000000000E-002    3.725400178621366E-031
 -3.870000000000000E-002    2.718710016686770E-030
 -3.860000000000000E-002    1.507007746162514E-029
 -3.850000000000000E-002    6.734501936199671E-029
 -3.840000000000000E-002    2.511039489603081E-028
 -3.830000000000000E-002    7.961654662900843E-028
 -3.820000000000000E-002    2.160122425697148E-027
 -3.810000000000000E-002    4.966081464483902E-027
 -3.800000000000000E-002    9.266916812180859E-027
 -3.790000000000000E-002    1.192072423831351E-026
 -3.780000000000000E-002   -1.576505100185814E-028
 -3.770000000000000E-002   -6.401530438347727E-026
 -3.760000000000000E-002   -2.645877189652113E-025
 -3.750000000000000E-002   -7.665568653816769E-025
 -3.740000000000000E-002   -1.839335121233836E-024
 -3.730000000000000E-002   -3.834616183025557E-024
 -3.720000000000000E-002   -7.034998287329151E-024
 -3.710000000000000E-002   -1.124156792169979E-023
 -3.700000000000000E-002   -1.492966995326709E-023
 -3.690000000000000E-002   -1.382108226589455E-023
 -3.680000000000000E-002    1.128026453737335E-024
 -3.670000000000000E-002    4.594608701193677E-023
 -3.660000000000000E-002    1.450054231027638E-022
 -3.650000000000000E-002    3.294385882104422E-022
 -3.640000000000000E-002    6.293298619618228E-022
 -3.630000000000000E-002    1.055431181358049E-021
 -3.620000000000000E-002    1.566169774155576E-021
 -3.610000000000000E-002    2.017822740469449E-021
 -3.600000000000000E-002    2.101242357236268E-021
 -3.590000000000000E-002    1.278429925098640E-021
 -3.580000000000000E-002   -1.253202544996556E-021
 -3.570000000000000E-002   -6.523623186312583E-021
 -3.560000000000000E-002   -1.561891147089693E-020
 -3.550000000000000E-002   -2.930830908099874E-020
 -3.540000000000000E-002   -4.741580976922820E-020
 -3.530000000000000E-002   -6.792922685622980E-020
 -3.520000000000000E-002   -8.592957652569238E-020
 -3.510000000000000E-002   -9.255960811357503E-020
 -3.500000000000000E-002   -7.442150938495446E-020
 -3.490000000000000E-002   -1.396766546727624E-020
 -3.480000000000000E-002    1.084322841238337E-019
 -3.470000000000000E-002    3.100786431811830E-019
 -3.460000000000000E-002    5.987545975874633E-019
 -3.450000000000000E-002    9.628841851077535E-019
 -3.440000000000000E-002    1.360052378786055E-018
 -3.430000000000000E-002    1.706100746489935E-018
 -3.420000000000000E-002    1.868352262364195E-018
 -3.410000000000000E-002    1.667678481013038E-018
 -3.400000000000000E-002    8.946570324877751E-019
 -3.390000000000000E-002   -6.555580404029993E-019
 -3.380000000000000E-002   -3.127348705079223E-018
 -3.370000000000000E-002   -6.529752740379384E-018
 -3.360000000000000E-002   -1.065089565548000E-017
 -3.350000000000000E-002   -1.497769012774612E-017
 -3.340000000000000E-002   -1.864432115853111E-017
 -3.330000000000000E-002   -2.043867183661417E-017
 -3.320000000000000E-002   -1.889661155089820E-017
 -3.310000000000000E-002   -1.250778186287933E-017
 -3.300000000000000E-002   -4.068911075894004E-020
 -3.290000000000000E-002    1.903088193826923E-017
 -3.280000000000000E-002    4.405204744941225E-017
 -3.270000000000000E-002    7.275128877691840E-017
 -3.260000000000000E-002    1.009684311593827E-016
 -3.250000000000000E-002    1.226882068900972E-016
 -3.240000000000000E-002    1.305149172751481E-016
 -3.230000000000000E-002    1.166802583950170E-016
 -3.220000000000000E-002    7.459197387618712E-017
 -3.210000000000000E-002    8.064078228998583E-019
 -3.200000000000000E-002   -1.028430217651357E-016
 -3.190000000000000E-002   -2.273828092685064E-016
 -3.180000000000000E-002   -3.556428755952437E-016
 -3.170000000000000E-002   -4.625915922074002E-016
 -3.160000000000000E-002   -5.175723099490531E-016
 -3.150000000000000E-002   -4.887308959797623E-016
 -3.140000000000000E-002   -3.495417162829150E-016
 -3.130000000000000E-002   -8.683049678000087E-017
 -3.120000000000000E-002    2.908874436060238E-016
 -3.110000000000000E-002    7.464724470157033E-016
 -3.100000000000000E-002    1.210715653559906E-015
 -3.090000000000000E-002    1.584510204312128E-015
 -3.080000000000000E-002    1.748356016674704E-015
 -3.070000000000000E-002    1.579975579499377E-015
 -3.060000000000000E-002    9.793690317225994E-016
 -3.050000000000000E-002   -1.012040414972767E-016
 -3.040000000000000E-002   -1.626782302856367E-015
 -3.030000000000000E-002   -3.454982427332613E-015
 -3.020000000000000E-002   -5.324175133903786E-015
 -3.010000000000000E-002   -6.861593694501009E-015
 -3.000000000000000E-002   -7.616765246086475E-015
 -2.990000000000000E-002   -7.122345175375287E-015
 -2.980000000000000E-002   -4.979622325294995E-015
 -2.970000000000000E-002   -9.601630482008223E-016
 -2.960000000000000E-002    4.890916037377292E-015
 -2.950000000000000E-002    1.216945799660884E-014
 -2.940000000000000E-002    2.006661668843449E-014
 -2.930000000000000E-002    2.738419290014011E-014
 -2.920000000000000E-002    3.262679094811528E-014
 -2.910000000000000E-002    3.417679387393988E-014
 -2.900000000000000E-002    3.054422518203964E-014
 -2.890000000000000E-002    2.066733011559863E-014
 -2.880000000000000E-002    4.223522263579367E-015
 -2.870000000000000E-002   -1.810266462579708E-014
 -2.860000000000000E-002   -4.445449600395436E-014
 -2.850000000000000E-002   -7.179766337550600E-014
 -2.840000000000000E-002   -9.611729093894715E-014
 -2.830000000000000E-002   -1.128341665763946E-013
 -2.820000000000000E-002   -1.174219665480717E-013
 -2.810000000000000E-002   -1.061667686747623E-013
 -2.800000000000000E-002   -7.697060964583017E-014
 -2.790000000000000E-002   -3.007003993901256E-014
 -2.780000000000000E-002    3.147414175393080E-014
 -2.770000000000000E-002    1.016522050825774E-013
 -2.760000000000000E-002    1.718481376368511E-013
 -2.750000000000000E-002    2.316920986659914E-013
 -2.740000000000000E-002    2.703854106400698E-013
 -2.730000000000000E-002    2.783699385083053E-013
 -2.720000000000000E-002    2.491267222566384E-013
 -2.710000000000000E-002    1.808226731778757E-013
 -2.700000000000000E-002    7.749215208975241E-014
 -2.690000000000000E-002   -5.054038630358596E-014
 -2.680000000000000E-002   -1.872181085581185E-013
 -2.670000000000000E-002   -3.123840335359195E-013
 -2.660000000000000E-002   -4.044151136081429E-013
 -2.650000000000000E-002   -4.435970582937629E-013
 -2.640000000000000E-002   -4.158036842750207E-013
 -2.630000000000000E-002   -3.159072212924104E-013
 -2.620000000000000E-002   -1.502871092113123E-013
 -2.610000000000000E-002    6.215943673380393E-014
 -2.600000000000000E-002    2.909556912952197E-013
 -2.590000000000000E-002    4.971336986567078E-013
 -2.580000000000000E-002    6.383459922778222E-013
 -2.570000000000000E-002    6.755093842451090E-013
 -2.560000000000000E-002    5.801438883134137E-013
 -2.550000000000000E-002    3.413042442558340E-013
 -2.540000000000000E-002   -2.912494069069676E-014
 -2.530000000000000E-002   -4.939446926411950E-013
 -2.520000000000000E-002   -9.918829398699208E-013
 -2.510000000000000E-002   -1.443025164885231E-012
 -2.500000000000000E-002   -1.758295770169876E-012
 -2.490000000000000E-002   -1.852173767409537E-012
 -2.480000000000000E-002   -1.657171389703041E-012
 -2.470000000000000E-002   -1.138072962201068E-012
 -2.460000000000000E-002   -3.036484547160472E-013
 -2.450000000000000E-002    7.864289354407758E-013
 -2.440000000000000E-002    2.021342961515937E-012
 -2.430000000000000E-002    3.246723162054710E-012
 -2.420000000000000E-002    4.280186817770325E-012
 -2.410000000000000E-002    4.933760353944664E-012
 -2.400000000000000E-002    5.040892780065699E-012
 -2.390000000000000E-002    4.484731053331688E-012
 -2.380000000000000E-002    3.223617526450497E-012
 -2.370000000000000E-002    1.309584799159313E-012
 -2.360000000000000E-002   -1.103978557652241E-012
 -2.350000000000000E-002   -3.768286319390677E-012
 -2.340000000000000E-002   -6.359936570424737E-012
 -2.330000000000000E-002   -8.515725431591153E-012
 -2.320000000000000E-002   -9.878513568215770E-012
 -2.310000000000000E-002   -1.014913926028544E-011
 -2.300000000000000E-002   -9.137724629335836E-012
 -2.290000000000000E-002   -6.806855799154371E-012
 -2.280000000000000E-002   -3.299167920142824E-012
 -2.270000000000000E-002    1.056957014168616E-012
 -2.260000000000000E-002    5.767648606525287E-012
 -2.250000000000000E-002    1.022065718698564E-011
 -2.240000000000000E-002    1.375647077351764E-011
 -2.230000000000000E-002    1.575666497624083E-011
 -2.220000000000000E-002    1.573922820643004E-011
 -2.210000000000000E-002    1.344797570800944E-011
 -2.200000000000000E-002    8.922186214480676E-012
 -2.190000000000000E-002    2.533281431145022E-012
 -2.180000000000000E-002   -5.021755295655972E-012
 -2.170000000000000E-002   -1.277575906875855E-011
 -2.160000000000000E-002   -1.959472954875995E-011
 -2.150000000000000E-002   -2.432113524483192E-011
 -2.140000000000000E-002   -2.594194634025891E-011
 -2.130000000000000E-002   -2.376015608174498E-011
 -2.120000000000000E-002   -1.754475315215914E-011
 -2.110000000000000E-002   -7.633457948318408E-012
 -2.100000000000000E-002    5.034351401145761E-012
 -2.090000000000000E-002    1.896997097113931E-011
 -2.080000000000000E-002    3.227794377982188E-011
 -2.070000000000000E-002    4.288081540078792E-011
 -2.060000000000000E-002    4.880430221794894E-011
 -2.050000000000000E-002    4.848844616653528E-011
 -2.040000000000000E-002    4.108118486955654E-011
 -2.030000000000000E-002    2.666681606870575E-011
 -2.020000000000000E-002    6.384757237324715E-012
 -2.010000000000000E-002   -1.759564658854842E-011
 -2.000000000000000E-002   -4.226123491753491E-011
 -1.990000000000000E-002   -6.409643906353627E-011
 -1.980000000000000E-002   -7.954931917164252E-011
 -1.970000000000000E-002   -8.556743670698160E-011
 -1.960000000000000E-002   -8.013006772022460E-011
 -1.950000000000000E-002   -6.269308133782680E-011
 -1.940000000000000E-002   -3.446491682820789E-011
 -1.930000000000000E-002    1.552978845241740E-012
 -1.920000000000000E-002    4.079973574245339E-011
 -1.910000000000000E-002    7.766311917189214E-011
 -1.900000000000000E-002    1.062189385821364E-010
 -1.890000000000000E-002    1.211161066097172E-010
 -1.880000000000000E-002    1.184867149429796E-010
 -1.870000000000000E-002    9.674040269967763E-011
 -1.860000000000000E-002    5.710215841100059E-011
 -1.850000000000000E-002    3.774844807927588E-012
 -1.840000000000000E-002   -5.634762719580324E-011
 -1.830000000000000E-002   -1.144284343021040E-010
 -1.820000000000000E-002   -1.608372326402848E-010
 -1.810000000000000E-002   -1.865688187643631E-010
 -1.800000000000000E-002   -1.847400093798267E-010
 -1.790000000000000E-002   -1.519371133196955E-010
 -1.780000000000000E-002   -8.918281729738483E-011
 -1.770000000000000E-002   -2.323547468072025E-012
 -1.760000000000000E-002    9.829280271446922E-011
 -1.750000000000000E-002    1.988816155455069E-010
 -1.740000000000000E-002    2.839472577067813E-010
 -1.730000000000000E-002    3.384746029279220E-010
 -1.720000000000000E-002    3.502947127399554E-010
 -1.710000000000000E-002    3.122739945208301E-010
 -1.700000000000000E-002    2.239649733171057E-010
 -1.690000000000000E-002    9.240340461608170E-011
 -1.680000000000000E-002   -6.816224833196693E-011
 -1.670000000000000E-002   -2.376774389283566E-010
 -1.660000000000000E-002   -3.927205703118172E-010
 -1.650000000000000E-002   -5.096983833900473E-010
 -1.640000000000000E-002   -5.683761514449395E-010
 -1.630000000000000E-002   -5.552274677518302E-010
 -1.620000000000000E-002   -4.660679546963828E-010
 -1.610000000000000E-002   -3.075006083118049E-010
 -1.600000000000000E-002   -9.684186922119961E-011
 -1.590000000000000E-002    1.395932479959276E-010
 -1.580000000000000E-002    3.697233074193847E-010
 -1.570000000000000E-002    5.600786479896207E-010
 -1.560000000000000E-002    6.807433524958460E-010
 -1.550000000000000E-002    7.101424462701198E-010
 -1.540000000000000E-002    6.389224760897267E-010
 -1.530000000000000E-002    4.722511812267715E-010
 -1.520000000000000E-002    2.300593786795160E-010
 -1.510000000000000E-002   -5.497133509333440E-011
 -1.500000000000000E-002   -3.415329821828685E-010
 -1.490000000000000E-002   -5.854466514241892E-010
 -1.480000000000000E-002   -7.462769944547338E-010
 -1.470000000000000E-002   -7.938429794391169E-010
 -1.460000000000000E-002   -7.136084797857727E-010
 -1.450000000000000E-002   -5.100356266303594E-010
 -1.440000000000000E-002   -2.072370210297719E-010
 -1.430000000000000E-002    1.533669736183165E-010
 -1.420000000000000E-002    5.182337816070331E-010
 -1.410000000000000E-002    8.291251235000299E-010
 -1.400000000000000E-002    1.031784934239986E-009
 -1.390000000000000E-002    1.084618555394437E-009
 -1.380000000000000E-002    9.660390118109006E-010
 -1.370000000000000E-002    6.792639653522403E-010
 -1.360000000000000E-002    2.536563101489382E-010
 -1.350000000000000E-002   -2.578249943173574E-010
 -1.340000000000000E-002   -7.849333638271391E-010
 -1.330000000000000E-002   -1.249489833958805E-009
 -1.320000000000000E-002   -1.576563818135055E-009
 -1.310000000000000E-002   -1.705909296377112E-009
 -1.300000000000000E-002   -1.601950875500763E-009
 -1.290000000000000E-002   -1.260730942622413E-009
 -1.280000000000000E-002   -7.125967390009335E-010
 -1.270000000000000E-002   -1.997054071879132E-011
 -1.260000000000000E-002    7.297504691335847E-010
 -1.250000000000000E-002    1.435390647815673E-009
 -1.240000000000000E-002    1.995862962331197E-009
 -1.230000000000000E-002    2.324802855848580E-009
 -1.220000000000000E-002    2.363856773355389E-009
 -1.210000000000000E-002    2.092594488706873E-009
 -1.200000000000000E-002    1.533418436725516E-009
 -1.190000000000000E-002    7.504906403337453E-010
 -1.180000000000000E-002   -1.574650637824879E-010
 -1.170000000000000E-002   -1.069733520890906E-009
 -1.160000000000000E-002   -1.859975332060641E-009
 -1.150000000000000E-002   -2.414179170522196E-009
 -1.140000000000000E-002   -2.647649615164628E-009
 -1.130000000000000E-002   -2.518500451662825E-009
 -1.120000000000000E-002   -2.035514009996236E-009
 -1.110000000000000E-002   -1.258950098875663E-009
 -1.100000000000000E-002   -2.938518720444641E-010
 -1.090000000000000E-002    7.235318584879098E-010
 -1.080000000000000E-002    1.644551389917470E-009
 -1.070000000000000E-002    2.329689279002704E-009
 -1.060000000000000E-002    2.669808451011511E-009
 -1.050000000000000E-002    2.603990719813435E-009
 -1.040000000000000E-002    2.131188216730053E-009
 -1.030000000000000E-002    1.313670314508726E-009
 -1.020000000000000E-002    2.713384485010319E-010
 -1.010000000000000E-002   -8.327437312348200E-010
 -1.000000000000000E-002   -1.813966537952437E-009
 -9.899999999999999E-003   -2.492189812802456E-009
 -9.800000000000000E-003   -2.718631941187695E-009
 -9.699999999999999E-003   -2.399812501031348E-009
 -9.599999999999999E-003   -1.514954505913149E-009
 -9.500000000000000E-003   -1.240194640187688E-010
 -9.399999999999999E-003    1.635253142727426E-009
 -9.299999999999999E-003    3.561431317797983E-009
 -9.200000000000000E-003    5.413149029754734E-009
 -9.099999999999999E-003    6.939631294046556E-009
 -8.999999999999999E-003    7.913985698476000E-009
 -8.900000000000000E-003    8.164688356399951E-009
 -8.799999999999999E-003    7.600744275015550E-009
 -8.699999999999999E-003    6.226742363172245E-009
 -8.600000000000000E-003    4.145317562284113E-009
 -8.499999999999999E-003    1.546267521309714E-009
 -8.399999999999999E-003   -1.316503084787281E-009
 -8.300000000000000E-003   -4.157192572812637E-009
 -8.199999999999999E-003   -6.694962619157473E-009
 -8.100000000000000E-003   -8.690034002669010E-009
 -8.000000000000000E-003   -9.973463826180020E-009
 -7.899999999999999E-003   -1.046570942400917E-008
 -7.800000000000000E-003   -1.018050217242371E-008
 -7.699999999999999E-003   -9.212569073190811E-009
 -7.599999999999999E-003   -7.710051441736517E-009
 -7.499999999999999E-003   -5.834805813661632E-009
 -7.399999999999999E-003   -3.715715138604160E-009
 -7.299999999999999E-003   -1.401457819610498E-009
 -7.199999999999999E-003    1.180407927055173E-009
 -7.100000000000000E-003    4.251770959942616E-009
 -6.999999999999999E-003    8.194944790014824E-009
 -6.899999999999999E-003    1.354387572574714E-008
 -6.800000000000000E-003    2.095590096248877E-008
 -6.699999999999999E-003    3.116728897211460E-008
 -6.599999999999999E-003    4.493823973770406E-008
 -6.499999999999999E-003    6.299492411176664E-008
 -6.399999999999999E-003    8.597670622357037E-008
 -6.299999999999999E-003    1.143965772593232E-007
 -6.199999999999999E-003    1.486208407205464E-007
 -6.100000000000000E-003    1.888718961688634E-007
 -5.999999999999999E-003    2.352544151660479E-007
 -5.899999999999999E-003    2.878020645287366E-007
 -5.800000000000000E-003    3.465385806454779E-007
 -5.699999999999999E-003    4.115449987556267E-007
 -5.599999999999999E-003    4.830230932163421E-007
 -5.499999999999999E-003    5.613464509236382E-007
 -5.399999999999999E-003    6.470904317080252E-007
 -5.299999999999999E-003    7.410369766291069E-007
 -5.199999999999999E-003    8.441523346974699E-007
 -5.099999999999999E-003    9.575405084105913E-007
 -4.999999999999999E-003    1.082379034814007E-006
 -4.899999999999999E-003    1.219844700411665E-006
 -4.799999999999999E-003    1.371042003887972E-006
 -4.699999999999999E-003    1.536943329530972E-006
 -4.599999999999999E-003    1.718350339122438E-006
 -4.499999999999999E-003    1.915884112731093E-006
 -4.399999999999999E-003    2.130004448180608E-006
 -4.299999999999999E-003    2.361058171638316E-006
 -4.199999999999999E-003    2.609349173034632E-006
 -4.099999999999999E-003    2.875222298812768E-006
 -3.999999999999999E-003    3.159147223896277E-006
 -3.899999999999999E-003    3.461793597112533E-006
 -3.799999999999999E-003    3.784084260921964E-006
 -3.699999999999999E-003    4.127221420343529E-006
 -3.599999999999999E-003    4.492680342821261E-006
 -3.499999999999999E-003    4.882172611610276E-006
 -3.399999999999999E-003    5.297583603520374E-006
 -3.299999999999999E-003    5.740894717075360E-006
 -3.199999999999999E-003    6.214101492424293E-006
 -3.099999999999999E-003    6.719140413476017E-006
 -2.999999999999999E-003    7.257834918539344E-006
 -2.899999999999999E-003    7.831868529377477E-006
 -2.799999999999999E-003    8.442794306522013E-006
 -2.699999999999999E-003    9.092073767844559E-006
 -2.599999999999999E-003    9.781147808142130E-006
 -2.499999999999999E-003    1.051152172524577E-005
 -2.399999999999999E-003    1.128486274943558E-005
 -2.299999999999999E-003    1.210308882075017E-005
 -2.199999999999999E-003    1.296844005339341E-005
 -2.099999999999999E-003    1.388352285789024E-005
 -1.999999999999999E-003    1.485132139925731E-005
 -1.899999999999999E-003    1.587517985683874E-005
 -1.799999999999999E-003    1.695874379787686E-005
 -1.699999999999999E-003    1.810589073862111E-005
 -1.599999999999999E-003    1.932064751414623E-005
 -1.499999999999999E-003    2.060710940814978E-005
 -1.399999999999999E-003    2.196938170252729E-005
 -1.299999999999999E-003    2.341153694256614E-005
 -1.199999999999999E-003    2.493762390932019E-005
 -1.099999999999999E-003    2.655169290378397E-005
 -9.999999999999989E-004    2.825787138910205E-005
 -8.999999999999990E-004    3.006044838706195E-005
 -7.999999999999990E-004    3.196398734660984E-005
 -6.999999999999989E-004    3.397341995773204E-005
 -5.999999999999990E-004    3.609414214144709E-005
 -4.999999999999989E-004    3.833207334485634E-005
 -3.999999999999989E-004    4.069367816077542E-005
 -2.999999999999989E-004    4.318596717206994E-005
 -1.999999999999989E-004    4.581643794869073E-005
 -9.999999999999892E-005    4.859300922835749E-005
  1.084202172485504E-018    5.152393048862955E-005
  1.000000000000011E-004    5.461768743503339E-005
  2.000000000000011E-004    5.788292762982468E-005
  3.000000000000011E-004    6.132842269971297E-005
  4.000000000000011E-004    6.496305689353588E-005
  5.000000000000011E-004    6.879585980132930E-005
  6.000000000000011E-004    7.283608647424768E-005
  7.000000000000011E-004    7.709332352595485E-005
  8.000000000000011E-004    8.157765516097573E-005
  9.000000000000012E-004    8.629977920209160E-005
  1.000000000000001E-003    9.127114592966554E-005
  1.100000000000001E-003    9.650406417405581E-005
  1.200000000000001E-003    1.020117803009599E-004
  1.300000000000001E-003    1.078084712364277E-004
  1.400000000000001E-003    1.139092216889189E-004
  1.500000000000001E-003    1.203299750612680E-004
  1.600000000000001E-003    1.270873784533730E-004
  1.700000000000001E-003    1.341987134408027E-004
  1.800000000000001E-003    1.416817280774692E-004
  1.900000000000001E-003    1.495545941595831E-004
  2.000000000000001E-003    1.578358206882169E-004
  2.100000000000001E-003    1.665442633610512E-004
  2.200000000000001E-003    1.756992130783142E-004
  2.300000000000001E-003    1.853204603868570E-004
  2.400000000000001E-003    1.954284603494334E-004
  2.500000000000001E-003    2.060445257343894E-004
  2.600000000000001E-003    2.171910248968632E-004
  2.700000000000001E-003    2.288915585882091E-004
  2.800000000000001E-003    2.411710504474532E-004
  2.900000000000001E-003    2.540559292227340E-004
  3.000000000000001E-003    2.675740865761037E-004
  3.100000000000001E-003    2.817549535109427E-004
  3.200000000000001E-003    2.966293867334578E-004
  3.300000000000001E-003    3.122295583323639E-004
  3.400000000000001E-003    3.285888899380650E-004
  3.500000000000001E-003    3.457418861950978E-004
  3.600000000000001E-003    3.637240755146561E-004
  3.700000000000001E-003    3.825719259453487E-004
  3.800000000000001E-003    4.023228516384139E-004
  3.900000000000001E-003    4.230152912431170E-004
  4.000000000000001E-003    4.446886822096777E-004
  4.100000000000001E-003    4.673837359252832E-004
  4.200000000000001E-003    4.911425417125704E-004
  4.300000000000001E-003    5.160086871147331E-004
  4.400000000000001E-003    5.420274555415061E-004
  4.500000000000001E-003    5.692460722319147E-004
  4.600000000000002E-003    5.977137114630702E-004
  4.700000000000001E-003    6.274814910502113E-004
  4.800000000000001E-003    6.586026880676824E-004
  4.900000000000002E-003    6.911326722064359E-004
  5.000000000000001E-003    7.251288078234567E-004
  5.100000000000001E-003    7.606504399660601E-004
  5.200000000000001E-003    7.977589937609912E-004
  5.300000000000002E-003    8.365176832352386E-004
  5.400000000000001E-003    8.769918052858570E-004
  5.500000000000001E-003    9.192486644289060E-004
  5.600000000000002E-003    9.633573413447489E-004
  5.700000000000001E-003    1.009389277074174E-003
  5.800000000000001E-003    1.057417755211409E-003
  5.900000000000002E-003    1.107518598421376E-003
  6.000000000000001E-003    1.159769740378508E-003
  6.100000000000001E-003    1.214251563969627E-003
  6.200000000000002E-003    1.271046949711602E-003
  6.300000000000002E-003    1.330241176183844E-003
  6.400000000000001E-003    1.391922146937864E-003
  6.500000000000001E-003    1.456180242247058E-003
  6.600000000000002E-003    1.523108438244201E-003
  6.700000000000001E-003    1.592802269626767E-003
  6.800000000000001E-003    1.665359969615554E-003
  6.900000000000002E-003    1.740882436564063E-003
  7.000000000000001E-003    1.819473240263294E-003
  7.100000000000001E-003    1.901238966518598E-003
  7.200000000000002E-003    1.986288810756648E-003
  7.300000000000002E-003    2.074735362663643E-003
  7.400000000000001E-003    2.166693927431995E-003
  7.500000000000001E-003    2.262283289776040E-003
  7.600000000000002E-003    2.361625278135281E-003
  7.700000000000001E-003    2.464844960165862E-003
  7.800000000000001E-003    2.572070467087257E-003
  7.900000000000001E-003    2.683433203277798E-003
  8.000000000000002E-003    2.799067803237710E-003
  8.100000000000001E-003    2.919111733535204E-003
  8.200000000000001E-003    3.043705488784332E-003
  8.300000000000002E-003    3.172992142760732E-003
  8.400000000000001E-003    3.307117929903148E-003
  8.500000000000002E-003    3.446231882845796E-003
  8.600000000000002E-003    3.590485882397901E-003
  8.700000000000001E-003    3.740034798070197E-003
  8.800000000000002E-003    3.895036277102599E-003
  8.900000000000002E-003    4.055651664726607E-003
  9.000000000000001E-003    4.222044954066429E-003
  9.100000000000002E-003    4.394383751567539E-003
  9.200000000000002E-003    4.572838862648193E-003
  9.300000000000001E-003    4.757585024021173E-003
  9.400000000000002E-003    4.948799845660646E-003
  9.500000000000001E-003    5.146664295823928E-003
  9.600000000000001E-003    5.351362571487357E-003
  9.700000000000002E-003    5.563082189932865E-003
  9.800000000000001E-003    5.782013823156681E-003
  9.900000000000001E-003    6.008350035382679E-003
  1.000000000000000E-002    6.242286829059712E-003
  1.010000000000000E-002    6.484022707363827E-003
  1.020000000000000E-002    6.733758066665415E-003
  1.030000000000000E-002    6.991695968921822E-003
  1.040000000000000E-002    7.258041871263373E-003
  1.050000000000000E-002    7.533002465262576E-003
  1.060000000000000E-002    7.816787709860737E-003
  1.070000000000000E-002    8.109608493713501E-003
  1.080000000000000E-002    8.411677993088139E-003
  1.090000000000000E-002    8.723212132904100E-003
  1.100000000000000E-002    9.044428080403401E-003
  1.110000000000000E-002    9.375544622934589E-003
  1.120000000000000E-002    9.716781512071906E-003
  1.130000000000000E-002    1.006836024843122E-002
  1.140000000000000E-002    1.043050328641162E-002
  1.150000000000000E-002    1.080343470992791E-002
  1.160000000000000E-002    1.118737833208986E-002
  1.170000000000000E-002    1.158255941075010E-002
  1.180000000000000E-002    1.198920274731362E-002
  1.190000000000000E-002    1.240753384144903E-002
  1.200000000000000E-002    1.283777756918582E-002
  1.210000000000000E-002    1.328015856536685E-002
  1.220000000000000E-002    1.373490146780866E-002
  1.230000000000000E-002    1.420222924904643E-002
  1.240000000000000E-002    1.468236410822786E-002
  1.250000000000000E-002    1.517552849581364E-002
  1.260000000000000E-002    1.568194247505794E-002
  1.270000000000000E-002    1.620182307265055E-002
  1.280000000000000E-002    1.673538727218683E-002
  1.290000000000000E-002    1.728284790428636E-002
  1.300000000000000E-002    1.784441534471637E-002
  1.310000000000000E-002    1.842029829297417E-002
  1.320000000000000E-002    1.901069855022819E-002
  1.330000000000000E-002    1.961581591169616E-002
  1.340000000000000E-002    2.023584511735288E-002
  1.350000000000000E-002    2.087097428526436E-002
  1.360000000000000E-002    2.152138924376383E-002
  1.370000000000000E-002    2.218726811815370E-002
  1.380000000000000E-002    2.286878422922083E-002
  1.390000000000000E-002    2.356610233068072E-002
  1.400000000000000E-002    2.427938172657694E-002
  1.410000000000000E-002    2.500877548900542E-002
  1.420000000000000E-002    2.575442865178647E-002
  1.430000000000000E-002    2.651647614530707E-002
  1.440000000000000E-002    2.729504602501764E-002
  1.450000000000000E-002    2.809025907877277E-002
  1.460000000000000E-002    2.890222201135059E-002
  1.470000000000000E-002    2.973103802404036E-002
  1.480000000000000E-002    3.057679282804301E-002
  1.490000000000000E-002    3.143956881503131E-002
  1.500000000000000E-002    3.231943032606285E-002
  1.510000000000000E-002    3.321643490589005E-002
  1.520000000000000E-002    3.413062351635766E-002
  1.530000000000000E-002    3.506202918346880E-002
  1.540000000000000E-002    3.601066786884089E-002
  1.550000000000000E-002    3.697654222621624E-002
  1.560000000000000E-002    3.795963960478035E-002
  1.570000000000000E-002    3.895992831789809E-002
  1.580000000000000E-002    3.997736710161252E-002
  1.590000000000000E-002    4.101189906065734E-002
  1.600000000000000E-002    4.206344322810161E-002
  1.610000000000000E-002    4.313190453736949E-002
  1.620000000000000E-002    4.421716853999682E-002
  1.630000000000000E-002    4.531910485676336E-002
  1.640000000000000E-002    4.643756096713798E-002
  1.650000000000000E-002    4.757236471026626E-002
  1.660000000000000E-002    4.872332475618257E-002
  1.670000000000000E-002    4.989022822750413E-002
  1.680000000000000E-002    5.107284310654204E-002
  1.690000000000000E-002    5.227091624014325E-002
  1.700000000000000E-002    5.348416843054782E-002
  1.710000000000000E-002    5.471230291177188E-002
  1.720000000000000E-002    5.595499940909883E-002
  1.730000000000000E-002    5.721190922421387E-002
  1.740000000000000E-002    5.848266833857437E-002
  1.750000000000000E-002    5.976688005146197E-002
  1.760000000000000E-002    6.106413486078148E-002
  1.770000000000000E-002    6.237397972501206E-002
  1.780000000000000E-002    6.369594546847265E-002
  1.790000000000000E-002    6.502954226795879E-002
  1.800000000000000E-002    6.637424092672857E-002
  1.810000000000000E-002    6.772948880783583E-002
  1.820000000000000E-002    6.909470540441023E-002
  1.830000000000000E-002    7.046928081028961E-002
  1.840000000000000E-002    7.185258479841415E-002
  1.850000000000000E-002    7.324395073820163E-002
  1.860000000000000E-002    7.464267744029975E-002
  1.870000000000000E-002    7.604805616222515E-002