 -4.000000000000000E-002    0.000000000000000E+000
 -3.990000000000000E-002    0.000000000000000E+000
 -3.980000000000000E-002    0.000000000000000E+000
 -3.970000000000000E-002    0.000000000000000E+000
 -3.960000000000000E-002    0.000000000000000E+000
 -3.950000000000000E-002    0.000000000000000E+000
 -3.940000000000000E-002    0.000000000000000E+000
 -3.930000000000000E-002    0.000000000000000E+000
 -3.920000000000000E-002    0.000000000000000E+000
 -3.910000000000000E-002    0.000000000000000E+000
 -3.900000000000000E-002    0.000000000000000E+000
 -3.890000000000000E-002    0.000000000000000E+000
 -3.880000000000000E-002    0.000000000000000E+000
 -3.870000000000000E-002    0.000000000000000E+000
 -3.860000000000000E-002    0.000000000000000E+000
 -3.850000000000000E-002    0.000000000000000E+000
 -3.840000000000000E-002    0.000000000000000E+000
 -3.830000000000000E-002    0.000000000000000E+000
 -3.820000000000000E-002    0.000000000000000E+000
 -3.810000000000000E-002    0.000000000000000E+000
 -3.800000000000000E-002    0.000000000000000E+000
 -3.790000000000000E-002    0.000000000000000E+000
 -3.780000000000000E-002    0.000000000000000E+000
 -3.770000000000000E-002    0.000000000000000E+000
 -3.760000000000000E-002    0.000000000000000E+000
 -3.750000000000000E-002    0.000000000000000E+000
 -3.740000000000000E-002    0.000000000000000E+000
 -3.730000000000000E-002    0.000000000000000E+000
 -3.720000000000000E-002    0.000000000000000E+000
 -3.710000000000000E-002    0.000000000000000E+000
 -3.700000000000000E-002    0.000000000000000E+000
 -3.690000000000000E-002    0.000000000000000E+000
 -3.680000000000000E-002    0.000000000000000E+000
 -3.670000000000000E-002    0.000000000000000E+000
 -3.660000000000000E-002    0.000000000000000E+000
 -3.650000000000000E-002    0.000000000000000E+000
 -3.640000000000000E-002    0.000000000000000E+000
 -3.630000000000000E-002    0.000000000000000E+000
 -3.620000000000000E-002    0.000000000000000E+000
 -3.610000000000000E-002    0.000000000000000E+000
 -3.600000000000000E-002    0.000000000000000E+000
 -3.590000000000000E-002    0.000000000000000E+000
 -3.580000000000000E-002    0.000000000000000E+000
 -3.570000000000000E-002    0.000000000000000E+000
 -3.560000000000000E-002    0.000000000000000E+000
 -3.550000000000000E-002   -1.900734176592889E-046
 -3.540000000000000E-002   -7.282204941160494E-046
 -3.530000000000000E-002   -2.368520477357555E-045
 -3.520000000000000E-002   -6.313194584914404E-045
 -3.510000000000000E-002   -1.421517185798220E-044
 -3.500000000000000E-002   -2.926909614996740E-044
 -3.490000000000000E-002   -5.175698101202935E-044
 -3.480000000000000E-002   -8.009136323105491E-044
 -3.470000000000000E-002   -9.729518626430932E-044
 -3.460000000000000E-002   -5.190077124808729E-044
 -3.450000000000000E-002    1.781814648632987E-043
 -3.440000000000000E-002    8.355683532889393E-043
 -3.430000000000000E-002    2.348809019085091E-042
 -3.420000000000000E-002    5.362544842708566E-042
 -3.410000000000000E-002    1.066160242772679E-041
 -3.400000000000000E-002    1.879796992908991E-041
 -3.390000000000000E-002    2.913831838352742E-041
 -3.380000000000000E-002    3.792145779735689E-041
 -3.370000000000000E-002    3.489552625996407E-041
 -3.360000000000000E-002   -1.650385744795184E-042
 -3.350000000000000E-002   -1.108269086733301E-040
 -3.340000000000000E-002   -3.536165533728244E-040
 -3.330000000000000E-002   -8.102816615706752E-040
 -3.320000000000000E-002   -1.560335215747546E-039
 -3.310000000000000E-002   -2.628998799378916E-039
 -3.300000000000000E-002   -3.879412242340437E-039
 -3.290000000000000E-002   -4.830717359721655E-039
 -3.280000000000000E-002   -4.396288483323152E-039
 -3.270000000000000E-002   -5.747620400645014E-040
 -3.260000000000000E-002    9.798216471495744E-039
 -3.250000000000000E-002    3.100822715439264E-038
 -3.240000000000000E-002    6.773707994810342E-038
 -3.230000000000000E-002    1.230863580052069E-037
 -3.220000000000000E-002    1.946731627985997E-037
 -3.210000000000000E-002    2.682236282281828E-037
 -3.200000000000000E-002    3.086168697807975E-037
 -3.190000000000000E-002    2.495504610584043E-037
 -3.180000000000000E-002   -1.484347634643658E-038
 -3.170000000000000E-002   -6.299192493629904E-037
 -3.160000000000000E-002   -1.761558882894993E-036
 -3.150000000000000E-002   -3.544283799205841E-036
 -3.140000000000000E-002   -5.981016457006059E-036
 -3.130000000000000E-002   -8.783144517650903E-036
 -3.120000000000000E-002   -1.115326337263970E-035
 -3.110000000000000E-002   -1.154084892946574E-035
 -3.100000000000000E-002   -7.446187655842588E-036
 -3.090000000000000E-002    4.590950825112694E-036
 -3.080000000000000E-002    2.861332715621780E-035
 -3.070000000000000E-002    6.822068236186015E-035
 -3.060000000000000E-002    1.246359128165673E-034
 -3.050000000000000E-002    1.937029495195406E-034
 -3.040000000000000E-002    2.619214779141963E-034
 -3.030000000000000E-002    3.021069719984182E-034
 -3.020000000000000E-002    2.699852432777978E-034
 -3.010000000000000E-002    1.039328388338614E-034
 -3.000000000000000E-002   -2.690186960610067E-034
 -2.990000000000000E-002   -9.172259230677685E-034
 -2.980000000000000E-002   -1.875117691246503E-033
 -2.970000000000000E-002   -3.098908676334667E-033
 -2.960000000000000E-002   -4.409710193015061E-033
 -2.950000000000000E-002   -5.433033593294097E-033
 -2.940000000000000E-002   -5.552838838711469E-033
 -2.930000000000000E-002   -3.908872583213455E-033
 -2.920000000000000E-002    5.244856358302074E-034
 -2.910000000000000E-002    8.735510086612739E-033
 -2.900000000000000E-002    2.131319559290594E-032
 -2.890000000000000E-002    3.791549492606840E-032
 -2.880000000000000E-002    5.660542451532180E-032
 -2.870000000000000E-002    7.316682216600476E-032
 -2.860000000000000E-002    8.060698602023723E-032
 -2.850000000000000E-002    6.915492796258550E-032
 -2.840000000000000E-002    2.714291011005774E-032
 -2.830000000000000E-002   -5.682740155833357E-032
 -2.820000000000000E-002   -1.901376355620272E-031
 -2.810000000000000E-002   -3.708048432436840E-031
 -2.800000000000000E-002   -5.810008921125319E-031
 -2.790000000000000E-002   -7.806017386804660E-031
 -2.780000000000000E-002   -9.027631979080807E-031
 -2.770000000000000E-002   -8.543307628363916E-031
 -2.760000000000000E-002   -5.244129232246713E-031
 -2.750000000000000E-002    1.956802274811065E-031
 -2.740000000000000E-002    1.379115650543389E-030
 -2.730000000000000E-002    3.017415256788835E-030
 -2.720000000000000E-002    4.966301048884037E-030
 -2.710000000000000E-002    6.893852242636102E-030
 -2.700000000000000E-002    8.247548233954117E-030
 -2.690000000000000E-002    8.262244101104767E-030
 -2.680000000000000E-002    6.033742814635090E-030
 -2.670000000000000E-002    6.798050968911146E-031
 -2.660000000000000E-002   -8.400466963486637E-030
 -2.650000000000000E-002   -2.117887321978767E-029
 -2.640000000000000E-002   -3.660317713819215E-029
 -2.630000000000000E-002   -5.223514393174664E-029
 -2.620000000000000E-002   -6.404207408672719E-029
 -2.610000000000000E-002   -6.649376606258201E-029
 -2.600000000000000E-002   -5.312488108980347E-029
 -2.590000000000000E-002   -1.769146332599808E-029
 -2.580000000000000E-002    4.403483397648059E-029
 -2.570000000000000E-002    1.319384926839286E-028
 -2.560000000000000E-002    2.390065281337082E-028
 -2.550000000000000E-002    3.490981400963694E-028
 -2.540000000000000E-002    4.358161323692103E-028
 -2.530000000000000E-002    4.634102733012390E-028
 -2.520000000000000E-002    3.906328097420582E-028
 -2.510000000000000E-002    1.782052915400497E-028
 -2.500000000000000E-002   -2.000230538028840E-028
 -2.490000000000000E-002   -7.430633901090509E-028
 -2.480000000000000E-002   -1.407961092855857E-027
 -2.470000000000000E-002   -2.097512316664074E-027
 -2.460000000000000E-002   -2.655037587986089E-027
 -2.450000000000000E-002   -2.871331454229627E-027
 -2.440000000000000E-002   -2.508519228678607E-027
 -2.430000000000000E-002   -1.343747673781683E-027
 -2.420000000000000E-002    7.678496986512887E-028
 -2.410000000000000E-002    3.816615727655823E-027
 -2.400000000000000E-002    7.560296368397049E-027
 -2.390000000000000E-002    1.146298566251721E-026
 -2.380000000000000E-002    1.467480393823647E-026
 -2.370000000000000E-002    1.607783546655606E-026
 -2.360000000000000E-002    1.442023169179033E-026
 -2.350000000000000E-002    8.549551032130825E-027
 -2.340000000000000E-002   -2.262443749433450E-027
 -2.330000000000000E-002   -1.793739473533735E-026
 -2.320000000000000E-002   -3.721457838521538E-026
 -2.310000000000000E-002   -5.737515299945603E-026
 -2.300000000000000E-002   -7.418015909359088E-026
 -2.290000000000000E-002   -8.213845312594647E-026
 -2.280000000000000E-002   -7.519619575984106E-026
 -2.270000000000000E-002   -4.788176918453721E-026
 -2.260000000000000E-002    3.152657739284782E-027
 -2.250000000000000E-002    7.737250164391219E-026
 -2.240000000000000E-002    1.686976324672654E-025
 -2.230000000000000E-002    2.643662076393437E-025
 -2.220000000000000E-002    3.448270154999247E-025
 -2.210000000000000E-002    3.851451094278581E-025
 -2.200000000000000E-002    3.582677537155124E-025
 -2.190000000000000E-002    2.402183236400583E-025
 -2.180000000000000E-002    1.686923837914459E-026
 -2.170000000000000E-002   -3.085698417549285E-025
 -2.160000000000000E-002   -7.087492658924878E-025
 -2.150000000000000E-002   -1.127902985552955E-024
 -2.140000000000000E-002   -1.482144044958066E-024
 -2.130000000000000E-002   -1.666196720167118E-024
 -2.120000000000000E-002   -1.567749762109994E-024
 -2.110000000000000E-002   -1.089379196511948E-024
 -2.100000000000000E-002   -1.762594677503559E-025
 -2.090000000000000E-002    1.154152804464863E-024
 -2.080000000000000E-002    2.786277484696556E-024
 -2.070000000000000E-002    4.491718810126141E-024
 -2.060000000000000E-002    5.933477079731488E-024
 -2.050000000000000E-002    6.695707461528308E-024
 -2.040000000000000E-002    6.342626873632449E-024
 -2.030000000000000E-002    4.505131839600509E-024
 -2.020000000000000E-002    9.870020769286859E-025
 -2.010000000000000E-002   -4.124918248633938E-024
 -2.000000000000000E-002   -1.036908604443476E-023
 -1.990000000000000E-002   -1.686329046825563E-023
 -1.980000000000000E-002   -2.233183329619238E-023
 -1.970000000000000E-002   -2.522783817399498E-023
 -1.960000000000000E-002   -2.396022499980387E-023
 -1.950000000000000E-002   -1.721576757545567E-023
 -1.940000000000000E-002   -4.342450864986886E-024
 -1.930000000000000E-002    1.426538082005792E-023
 -1.920000000000000E-002    3.686193814044511E-023
 -1.910000000000000E-002    6.021953818729399E-023
 -1.900000000000000E-002    7.976432220513249E-023
 -1.890000000000000E-002    9.004585337343222E-023
 -1.880000000000000E-002    8.556129891077551E-023
 -1.870000000000000E-002    6.188689774833804E-023
 -1.860000000000000E-002    1.698726393614307E-023
 -1.850000000000000E-002   -4.751028623980787E-023
 -1.840000000000000E-002   -1.253564582635590E-022
 -1.830000000000000E-002   -2.053470615201915E-022
 -1.820000000000000E-002   -2.719039532700370E-022
 -1.810000000000000E-002   -3.067645254127948E-022
 -1.800000000000000E-002   -2.918090397654812E-022
 -1.790000000000000E-002   -2.128272137080931E-022
 -1.780000000000000E-002   -6.376274776579126E-023
 -1.770000000000000E-002    1.492802350313716E-022
 -1.760000000000000E-002    4.051748717415059E-022
 -1.750000000000000E-002    6.670237022279786E-022
 -1.740000000000000E-002    8.843793771231382E-022
 -1.730000000000000E-002    9.989567643751024E-022
 -1.720000000000000E-002    9.538128746187404E-022
 -1.710000000000000E-002    7.052508458898543E-022
 -1.700000000000000E-002    2.359083070693267E-022
 -1.690000000000000E-002   -4.332455580196452E-022
 -1.680000000000000E-002   -1.234782313578607E-021
 -1.670000000000000E-002   -2.053426870507497E-021
 -1.660000000000000E-002   -2.733816883040498E-021
 -1.650000000000000E-002   -3.098717766574420E-021
 -1.640000000000000E-002   -2.977294472059017E-021
 -1.630000000000000E-002   -2.240895128353741E-021
 -1.620000000000000E-002   -8.415019099174057E-022
 -1.610000000000000E-002    1.154001858171421E-021
 -1.600000000000000E-002    3.541847700589379E-021
 -1.590000000000000E-002    5.979763085766394E-021
 -1.580000000000000E-002    8.012162551920088E-021
 -1.570000000000000E-002    9.125170881743077E-021
 -1.560000000000000E-002    8.829471173451462E-021
 -1.550000000000000E-002    6.762856410336808E-021
 -1.540000000000000E-002    2.798078386940659E-021
 -1.530000000000000E-002   -2.863642124421774E-021
 -1.520000000000000E-002   -9.635948861280169E-021
 -1.510000000000000E-002   -1.654924083209265E-020
 -1.500000000000000E-002   -2.232753705487996E-020
 -1.490000000000000E-002   -2.554670724779671E-020
 -1.480000000000000E-002   -2.486629372265707E-020
 -1.470000000000000E-002   -1.931062440161850E-020
 -1.460000000000000E-002   -8.558461120177042E-021
 -1.450000000000000E-002    6.812546198988897E-021
 -1.440000000000000E-002    2.518638822792141E-020
 -1.430000000000000E-002    4.393006086352810E-020
 -1.420000000000000E-002    5.961569727938158E-020
 -1.410000000000000E-002    6.845543272489163E-020
 -1.400000000000000E-002    6.692307138350584E-020
 -1.390000000000000E-002    5.249366677660576E-020
 -1.380000000000000E-002    2.439104145059634E-020
 -1.370000000000000E-002   -1.579753938197381E-020
 -1.360000000000000E-002   -6.379203372784961E-020
 -1.350000000000000E-002   -1.127135142323139E-019
 -1.340000000000000E-002   -1.536944007221918E-019
 -1.330000000000000E-002   -1.770237188158622E-019
 -1.320000000000000E-002   -1.737490581022812E-019
 -1.310000000000000E-002   -1.375498264102166E-019
 -1.300000000000000E-002   -6.659758503852389E-020
 -1.290000000000000E-002    3.495070955027684E-020
 -1.280000000000000E-002    1.562006515740952E-019
 -1.270000000000000E-002    2.798379222671241E-019
 -1.260000000000000E-002    3.837239811714748E-019
 -1.250000000000000E-002    4.437901310551158E-019
 -1.240000000000000E-002    4.380108243600762E-019
 -1.230000000000000E-002    3.509810421933696E-019
 -1.220000000000000E-002    1.783931687174277E-019
 -1.210000000000000E-002   -6.944388945957911E-020
 -1.200000000000000E-002   -3.659290985045055E-019
 -1.190000000000000E-002   -6.690925699036021E-019
 -1.180000000000000E-002   -9.255706067548358E-019
 -1.170000000000000E-002   -1.077626380914672E-018
 -1.160000000000000E-002   -1.072644565360904E-018
 -1.150000000000000E-002   -8.739359012464605E-019
 -1.140000000000000E-002   -4.711736201635789E-019
 -1.130000000000000E-002    1.115380098326305E-019
 -1.120000000000000E-002    8.119905293729225E-019
 -1.110000000000000E-002    1.532278503885928E-018
 -1.100000000000000E-002    2.148242255809023E-018
 -1.090000000000000E-002    2.525830523550723E-018
 -1.080000000000000E-002    2.542976354976837E-018
 -1.070000000000000E-002    2.114257642124977E-018
 -1.060000000000000E-002    1.214496107627771E-018
 -1.050000000000000E-002   -1.032121400311762E-019
 -1.040000000000000E-002   -1.699526096628400E-018
 -1.030000000000000E-002   -3.354604904010768E-018
 -1.020000000000000E-002   -4.789539219319714E-018
 -1.010000000000000E-002   -5.703034497265414E-018
 -1.000000000000000E-002   -5.820070465638239E-018
 -9.899999999999999E-003   -4.946392676602881E-018
 -9.800000000000000E-003   -3.020343957538468E-018
 -9.699999999999999E-003   -1.522050870791830E-019
 -9.599999999999999E-003    3.358612754824288E-018
 -9.500000000000000E-003    7.036255986781112E-018
 -9.399999999999999E-003    1.027499930606314E-017
 -9.299999999999999E-003    1.241850032648420E-017
 -9.200000000000000E-003    1.286446103138164E-017
 -9.099999999999999E-003    1.118142129105151E-017
 -8.999999999999999E-003    7.219541278586641E-018
 -8.900000000000000E-003    1.194597990728408E-018
 -8.799999999999999E-003   -6.275015680165339E-018
 -8.699999999999999E-003   -1.419428843294658E-017
 -8.600000000000000E-003   -2.128864843477141E-017
 -8.499999999999999E-003   -2.616926900824793E-017
 -8.399999999999999E-003   -2.755122411527130E-017
 -8.300000000000000E-003   -2.449683034776252E-017
 -8.199999999999999E-003   -1.664665018972823E-017
 -8.100000000000000E-003   -4.395516130771799E-018
 -8.000000000000000E-003    1.102774935012745E-017
 -7.899999999999999E-003    2.760937882426649E-017
 -7.800000000000000E-003    4.274477811594129E-017
 -7.699999999999999E-003    5.357188304327658E-017
 -7.599999999999999E-003    5.741268784065339E-017
 -7.499999999999999E-003    5.226724919709637E-017
 -7.399999999999999E-003    3.728495262855849E-017
 -7.299999999999999E-003    1.312767045320432E-017
 -7.199999999999999E-003   -1.785776407167138E-017
 -7.100000000000000E-003   -5.172282648087788E-017
 -6.999999999999999E-003   -8.328943167560287E-017
 -6.899999999999999E-003   -1.068004817294036E-016
 -6.800000000000000E-003   -1.167888849432414E-016
 -6.699999999999999E-003   -1.090568029692765E-016
 -6.599999999999999E-003   -8.161849817973505E-017
 -6.499999999999999E-003   -3.543999988764678E-017
 -6.399999999999999E-003    2.518645674949783E-017
 -6.299999999999999E-003    9.276217007818404E-017
 -6.199999999999999E-003    1.572637962343896E-016
 -6.100000000000000E-003    2.073721350816427E-016
 -5.999999999999999E-003    2.321373165176461E-016
 -5.899999999999999E-003    2.228771823395091E-016
 -5.800000000000000E-003    1.750305611502037E-016
 -5.699999999999999E-003    8.964655369338778E-017
 -5.599999999999999E-003   -2.580298632188600E-017
 -5.499999999999999E-003   -1.575411018382771E-016
 -5.399999999999999E-003   -2.866744219836247E-016
 -5.299999999999999E-003   -3.914386988157850E-016
 -5.199999999999999E-003   -4.503082733799455E-016
 -5.099999999999999E-003   -4.455993869431413E-016
 -4.999999999999999E-003   -3.670531863516293E-016
 -4.899999999999999E-003   -2.148001429084467E-016
 -4.799999999999999E-003   -1.110868383233727E-018
 -4.699999999999999E-003    2.495606666015163E-016
 -4.599999999999999E-003    5.025348694655386E-016
 -4.499999999999999E-003    7.168764270374210E-016
 -4.399999999999999E-003    8.510572711756607E-016
 -4.299999999999999E-003    8.696617931201215E-016
 -4.199999999999999E-003    7.502043381994156E-016
 -4.099999999999999E-003    4.889583402862100E-016
 -3.999999999999999E-003    1.046785630049588E-016
 -3.899999999999999E-003   -3.607389440256580E-016
 -3.799999999999999E-003   -8.452682267692196E-016
 -3.699999999999999E-003   -1.273542529333687E-015
 -3.599999999999999E-003   -1.566927703134790E-015
 -3.499999999999999E-003   -1.655769412319182E-015
 -3.399999999999999E-003   -1.492169814007462E-015
 -3.299999999999999E-003   -1.061298987843649E-015
 -3.199999999999999E-003   -3.891640969867366E-016
 -3.099999999999999E-003    4.549956262967716E-016
 -2.999999999999999E-003    1.362941020340783E-015
 -2.899999999999999E-003    2.198665763480036E-015
 -2.799999999999999E-003    2.815926679925988E-015
 -2.699999999999999E-003    3.080236427518642E-015
 -2.599999999999999E-003    2.892464064098855E-015
 -2.499999999999999E-003    2.210479678905803E-015
 -2.399999999999999E-003    1.065028968300551E-015
 -2.299999999999999E-003   -4.336432618923366E-016
 -2.199999999999999E-003   -2.100955398275232E-015
 -2.099999999999999E-003   -3.695964443352370E-015
 -1.999999999999999E-003   -4.951269921520284E-015
 -1.899999999999999E-003   -5.611896803300349E-015
 -1.799999999999999E-003   -5.478291208581664E-015
 -1.699999999999999E-003   -4.447133958947504E-015
 -1.599999999999999E-003   -2.543046942445349E-015
 -1.499999999999999E-003    6.535066441948953E-017
 -1.399999999999999E-003    3.070069574355202E-015
 -1.299999999999999E-003    6.051543017965943E-015
 -1.199999999999999E-003    8.528711306847784E-015
 -1.099999999999999E-003    1.002679047710289E-014
 -9.999999999999989E-004    1.015454365758844E-014
 -8.999999999999990E-004    8.680070921453221E-015
 -7.999999999999990E-004    5.592667536580581E-015
 -6.999999999999989E-004    1.138622074320005E-015
 -5.999999999999990E-004   -4.178839498913326E-015
 -4.999999999999989E-004   -9.640976696623348E-015
 -3.999999999999989E-004   -1.439600828437218E-014
 -2.999999999999989E-004   -1.757563360129314E-014
 -1.999999999999989E-004   -1.843201830565444E-014
 -9.999999999999892E-005   -1.647628035338799E-014
  1.084202172485504E-018   -1.159635152420021E-014
  1.000000000000011E-004   -4.132052323554406E-015
  2.000000000000011E-004    5.111239020616326E-015
  3.000000000000011E-004    1.492184636786796E-014
  4.000000000000011E-004    2.381544716291502E-014
  5.000000000000011E-004    3.023276613012408E-014
  6.000000000000011E-004    3.277901855186350E-014
  7.000000000000011E-004    3.047267880199229E-014
  8.000000000000011E-004    2.296477697057836E-014
  9.000000000000012E-004    1.068887732578923E-014
  1.000000000000001E-003   -5.092867368727268E-015
  1.100000000000001E-003   -2.237044875112644E-014
  1.200000000000001E-003   -3.859928765027809E-014
  1.300000000000001E-003   -5.103112601462293E-014
  1.400000000000001E-003   -5.712634650963244E-014
  1.500000000000001E-003   -5.499292990580056E-014
  1.600000000000001E-003   -4.378489400714591E-014
  1.700000000000001E-003   -2.398982039442920E-014
  1.800000000000001E-003    2.457252070022811E-015
  1.900000000000001E-003    3.227715449573266E-014
  2.000000000000001E-003    6.118179372484303E-014
  2.100000000000001E-003    8.442030570772851E-014
  2.200000000000001E-003    9.747790690410974E-014
  2.300000000000001E-003    9.683600791493303E-014
  2.400000000000001E-003    8.067915170648981E-014
  2.500000000000001E-003    4.942661101455711E-014
  2.600000000000001E-003    5.977706739991585E-015
  2.700000000000001E-003   -4.440918731308816E-014
  2.800000000000001E-003   -9.463564233219385E-014
  2.900000000000001E-003   -1.366516405371425E-013
  3.000000000000001E-003   -1.626206299578976E-013
  3.100000000000001E-003   -1.662106177610853E-013
  3.200000000000001E-003   -1.438191655607957E-013
  3.300000000000001E-003   -9.552461852275439E-014
  3.400000000000001E-003   -2.557173530664157E-014
  3.500000000000001E-003    5.775026642882842E-014
  3.600000000000001E-003    1.428998265367076E-013
  3.700000000000001E-003    2.165070884700451E-013
  3.800000000000001E-003    2.652837549747536E-013
  3.900000000000001E-003    2.781737714680224E-013
  4.000000000000001E-003    2.484281074020316E-013
  4.100000000000001E-003    1.752567902684663E-013
  4.200000000000001E-003    6.473474896364187E-014
  4.300000000000001E-003   -7.028338814008239E-014
  4.400000000000001E-003   -2.113551533990102E-013
  4.500000000000001E-003   -3.366991809372417E-013
  4.600000000000002E-003   -4.242733655894386E-013
  4.700000000000001E-003   -4.552896836231073E-013
  4.800000000000001E-003   -4.176518951085446E-013
  4.900000000000002E-003   -3.087491562724209E-013
  5.000000000000001E-003   -1.370710440685741E-013
  5.100000000000001E-003    7.776654824408608E-014
  5.200000000000001E-003    3.067882080129915E-013
  5.300000000000002E-003    5.151565036645110E-013
  5.400000000000001E-003    6.670489464372051E-013
  5.500000000000001E-003    7.312953480728739E-013
  5.600000000000002E-003    6.869569242902667E-013
  5.700000000000001E-003    5.279371726302726E-013
  5.800000000000001E-003    2.657604907066464E-013
  5.900000000000002E-003   -7.015271408767030E-014
  6.000000000000001E-003   -4.350608216740161E-013
  6.100000000000001E-003   -7.742514110527949E-013
  6.200000000000002E-003   -1.030633534971825E-012
  6.300000000000002E-003   -1.153612427168398E-012
  6.400000000000001E-003   -1.107964070774406E-012
  6.500000000000001E-003   -8.812781498339663E-013
  6.600000000000002E-003   -4.886006090636742E-013
  6.700000000000001E-003    2.679772725340673E-014
  6.800000000000001E-003    5.970980571331949E-013
  6.900000000000002E-003    1.137973813928265E-012
  7.000000000000001E-003    1.560197773924672E-012
  7.100000000000001E-003    1.783351935828828E-012
  7.200000000000002E-003    1.749670869556615E-012
  7.300000000000002E-003    1.435806779809057E-012
  7.400000000000001E-003    8.603914100432620E-013
  7.500000000000001E-003    8.571279967537465E-014
  7.600000000000002E-003   -7.874128184181378E-013
  7.700000000000001E-003   -1.631497555002086E-012
  7.800000000000001E-003   -2.309798311283225E-012
  7.900000000000001E-003   -2.697102406519919E-012
  8.000000000000002E-003   -2.700911853325013E-012
  8.100000000000001E-003   -2.279673217629723E-012
  8.200000000000001E-003   -1.454817279145210E-012
  8.300000000000002E-003   -3.140223529918786E-013
  8.400000000000001E-003    9.957473774546183E-013
  8.500000000000002E-003    2.285386484457031E-012
  8.600000000000002E-003    3.349297761397564E-012
  8.700000000000001E-003    3.996327162061685E-012
  8.800000000000002E-003    4.081589347062409E-012
  8.900000000000002E-003    3.534191567564303E-012
  9.000000000000001E-003    2.376013383338431E-012
  9.100000000000002E-003    7.276397150805140E-013
  9.200000000000002E-003   -1.200792973320372E-012
  9.300000000000001E-003   -3.133891591046183E-012
  9.400000000000002E-003   -4.768082241564720E-012
  9.500000000000001E-003   -5.816831428550071E-012
  9.600000000000001E-003   -6.057621909280532E-012
  9.700000000000002E-003   -5.373386559221198E-012
  9.800000000000001E-003   -3.781274117854925E-012
  9.900000000000001E-003   -1.442955287700136E-012
  1.000000000000000E-002    1.346947032239213E-012
  1.010000000000000E-002    4.194561589789764E-012
  1.020000000000000E-002    6.659369783747761E-012
  1.030000000000000E-002    8.319160864681446E-012
  1.040000000000000E-002    8.838212557983121E-012
  1.050000000000000E-002    8.028216312830639E-012
  1.060000000000000E-002    5.891629614788830E-012
  1.070000000000000E-002    2.638978215535714E-012
  1.080000000000000E-002   -1.325019052613437E-012
  1.090000000000000E-002   -5.447167881050064E-012
  1.100000000000000E-002   -9.099041884546669E-012
  1.110000000000000E-002   -1.166869033968942E-011
  1.120000000000000E-002   -1.265801882793305E-011
  1.130000000000000E-002   -1.177101582505166E-011
  1.140000000000000E-002   -8.978120712943785E-012
  1.150000000000000E-002   -4.544498710995291E-012
  1.160000000000000E-002    9.854000800830774E-013
  1.170000000000000E-002    6.848397571793548E-012
  1.180000000000000E-002    1.216267636647303E-011
  1.190000000000000E-002    1.605512508916359E-011
  1.200000000000000E-002    1.779830938197774E-011
  1.210000000000000E-002    1.693643273472826E-011
  1.220000000000000E-002    1.337962251260189E-011
  1.230000000000000E-002    7.449097281289543E-012
  1.240000000000000E-002   -1.379935033310447E-013
  1.250000000000000E-002   -8.346744349921119E-012
  1.260000000000000E-002   -1.595873154862810E-011
  1.270000000000000E-002   -2.174600740420545E-011
  1.280000000000000E-002   -2.466099775441683E-011
  1.290000000000000E-002   -2.401400659750021E-011
  1.300000000000000E-002   -1.960964331686696E-011
  1.310000000000000E-002   -1.181760642098349E-011
  1.320000000000000E-002   -1.561502326451107E-012
  1.330000000000000E-002    9.779177534659331E-012
  1.340000000000000E-002    2.054563085391537E-011
  1.350000000000000E-002    2.903372316791220E-011
  1.360000000000000E-002    3.375361357729689E-011
  1.370000000000000E-002    3.367679696313716E-011
  1.380000000000000E-002    2.843128040105719E-011
  1.390000000000000E-002    1.841065980741552E-011
  1.400000000000000E-002    4.773477055709595E-012
  1.410000000000000E-002   -1.067548457505687E-011
  1.420000000000000E-002   -2.571272152330687E-011
  1.430000000000000E-002   -3.800553633954993E-011
  1.440000000000000E-002   -4.546204358745701E-011
  1.450000000000000E-002   -4.657074470000905E-011
  1.460000000000000E-002   -4.067652381834465E-011
  1.470000000000000E-002   -2.814581308937618E-011
  1.480000000000000E-002   -1.038719959788211E-011
  1.490000000000000E-002    1.028641424220758E-011
  1.500000000000000E-002    3.094462640149569E-011
  1.510000000000000E-002    4.844220841063719E-011
  1.520000000000000E-002    5.988425408076651E-011
  1.530000000000000E-002    6.308698667480101E-011
  1.540000000000000E-002    5.696318175633837E-011
  1.550000000000000E-002    4.176766843564491E-011
  1.560000000000000E-002    1.915523761860455E-011
  1.570000000000000E-002   -7.971352284637189E-012
  1.580000000000000E-002   -3.581493652673532E-011
  1.590000000000000E-002   -6.019926476453579E-011
  1.600000000000000E-002   -7.717867068392483E-011
  1.610000000000000E-002   -8.365551148957543E-011
  1.620000000000000E-002   -7.791155154037616E-011
  1.630000000000000E-002   -5.996607209291956E-011
  1.640000000000000E-002   -3.169404276526392E-011
  1.650000000000000E-002    3.330369188448387E-012
  1.660000000000000E-002    4.025995909425494E-011
  1.670000000000000E-002    7.362389077305394E-011
  1.680000000000000E-002    9.811659713774987E-011
  1.690000000000000E-002    1.094154876957269E-010
  1.700000000000000E-002    1.049048261812352E-010
  1.710000000000000E-002    8.418924766555622E-011
  1.720000000000000E-002    4.930443420075637E-011
  1.730000000000000E-002    4.572640268555853E-012
  1.740000000000000E-002   -4.389887277361497E-011
  1.750000000000000E-002   -8.902408067088253E-011
  1.760000000000000E-002   -1.237468956661943E-010
  1.770000000000000E-002   -1.421125560422538E-010
  1.780000000000000E-002   -1.402430894845810E-010
  1.790000000000000E-002   -1.170625964186113E-010
  1.800000000000000E-002   -7.464572818415122E-011
  1.810000000000000E-002   -1.811187653961489E-011
  1.820000000000000E-002    4.494856270717697E-011
  1.830000000000000E-002    1.054593749030845E-010
  1.840000000000000E-002    1.541325953278622E-010
  1.850000000000000E-002    1.828572479814268E-010
  1.860000000000000E-002    1.859999647802156E-010
  1.870000000000000E-002    1.614150681619791E-010