 -4.000000000000000E-002    0.000000000000000E+000
 -3.990000000000000E-002    0.000000000000000E+000
 -3.980000000000000E-002    0.000000000000000E+000
 -3.970000000000000E-002    0.000000000000000E+000
 -3.960000000000000E-002    0.000000000000000E+000
 -3.950000000000000E-002    0.000000000000000E+000
 -3.940000000000000E-002    0.000000000000000E+000
 -3.930000000000000E-002    0.000000000000000E+000
 -3.920000000000000E-002    0.000000000000000E+000
 -3.910000000000000E-002    0.000000000000000E+000
 -3.900000000000000E-002    0.000000000000000E+000
 -3.890000000000000E-002    0.000000000000000E+000
 -3.880000000000000E-002    0.000000000000000E+000
 -3.870000000000000E-002    0.000000000000000E+000
 -3.860000000000000E-002    0.000000000000000E+000
 -3.850000000000000E-002    0.000000000000000E+000
 -3.840000000000000E-002    0.000000000000000E+000
 -3.830000000000000E-002    0.000000000000000E+000
 -3.820000000000000E-002    0.000000000000000E+000
 -3.810000000000000E-002    0.000000000000000E+000
 -3.800000000000000E-002    0.000000000000000E+000
 -3.790000000000000E-002    0.000000000000000E+000
 -3.780000000000000E-002    0.000000000000000E+000
 -3.770000000000000E-002    0.000000000000000E+000
 -3.760000000000000E-002    0.000000000000000E+000
 -3.750000000000000E-002    0.000000000000000E+000
 -3.740000000000000E-002    0.000000000000000E+000
 -3.730000000000000E-002    0.000000000000000E+000
 -3.720000000000000E-002    0.000000000000000E+000
 -3.710000000000000E-002    0.000000000000000E+000
 -3.700000000000000E-002    0.000000000000000E+000
 -3.690000000000000E-002    0.000000000000000E+000
 -3.680000000000000E-002    0.000000000000000E+000
 -3.670000000000000E-002    0.000000000000000E+000
 -3.660000000000000E-002    0.000000000000000E+000
 -3.650000000000000E-002    0.000000000000000E+000
 -3.640000000000000E-002    0.000000000000000E+000
 -3.630000000000000E-002    0.000000000000000E+000
 -3.620000000000000E-002    0.000000000000000E+000
 -3.610000000000000E-002    0.000000000000000E+000
 -3.600000000000000E-002    0.000000000000000E+000
 -3.590000000000000E-002    0.000000000000000E+000
 -3.580000000000000E-002    0.000000000000000E+000
 -3.570000000000000E-002    0.000000000000000E+000
 -3.560000000000000E-002    0.000000000000000E+000
 -3.550000000000000E-002    0.000000000000000E+000
 -3.540000000000000E-002    0.000000000000000E+000
 -3.530000000000000E-002    0.000000000000000E+000
 -3.520000000000000E-002    0.000000000000000E+000
 -3.510000000000000E-002    0.000000000000000E+000
 -3.500000000000000E-002    0.000000000000000E+000
 -3.490000000000000E-002    0.000000000000000E+000
 -3.480000000000000E-002    0.000000000000000E+000
 -3.470000000000000E-002    0.000000000000000E+000
 -3.460000000000000E-002    0.000000000000000E+000
 -3.450000000000000E-002    0.000000000000000E+000
 -3.440000000000000E-002    0.000000000000000E+000
 -3.430000000000000E-002    0.000000000000000E+000
 -3.420000000000000E-002    0.000000000000000E+000
 -3.410000000000000E-002    0.000000000000000E+000
 -3.400000000000000E-002    0.000000000000000E+000
 -3.390000000000000E-002    0.000000000000000E+000
 -3.380000000000000E-002    0.000000000000000E+000
 -3.370000000000000E-002    0.000000000000000E+000
 -3.360000000000000E-002    0.000000000000000E+000
 -3.350000000000000E-002    0.000000000000000E+000
 -3.340000000000000E-002    0.000000000000000E+000
 -3.330000000000000E-002    0.000000000000000E+000
 -3.320000000000000E-002    0.000000000000000E+000
 -3.310000000000000E-002    0.000000000000000E+000
 -3.300000000000000E-002    0.000000000000000E+000
 -3.290000000000000E-002    0.000000000000000E+000
 -3.280000000000000E-002    0.000000000000000E+000
 -3.270000000000000E-002    0.000000000000000E+000
 -3.260000000000000E-002    0.000000000000000E+000
 -3.250000000000000E-002    0.000000000000000E+000
 -3.240000000000000E-002    0.000000000000000E+000
 -3.230000000000000E-002    0.000000000000000E+000
 -3.220000000000000E-002    0.000000000000000E+000
 -3.210000000000000E-002    0.000000000000000E+000
 -3.200000000000000E-002    0.000000000000000E+000
 -3.190000000000000E-002    0.000000000000000E+000
 -3.180000000000000E-002    0.000000000000000E+000
 -3.170000000000000E-002    0.000000000000000E+000
 -3.160000000000000E-002    0.000000000000000E+000
 -3.150000000000000E-002    0.000000000000000E+000
 -3.140000000000000E-002    0.000000000000000E+000
 -3.130000000000000E-002    0.000000000000000E+000
 -3.120000000000000E-002    0.000000000000000E+000
 -3.110000000000000E-002    0.000000000000000E+000
 -3.100000000000000E-002    0.000000000000000E+000
 -3.090000000000000E-002    0.000000000000000E+000
 -3.080000000000000E-002    0.000000000000000E+000
 -3.070000000000000E-002    0.000000000000000E+000
 -3.060000000000000E-002    0.000000000000000E+000
 -3.050000000000000E-002    0.000000000000000E+000
 -3.040000000000000E-002    0.000000000000000E+000
 -3.030000000000000E-002    0.000000000000000E+000
 -3.020000000000000E-002    0.000000000000000E+000
 -3.010000000000000E-002    0.000000000000000E+000
 -3.000000000000000E-002    0.000000000000000E+000
 -2.990000000000000E-002    0.000000000000000E+000
 -2.980000000000000E-002    0.000000000000000E+000
 -2.970000000000000E-002    0.000000000000000E+000
 -2.960000000000000E-002    0.000000000000000E+000
 -2.950000000000000E-002    0.000000000000000E+000
 -2.940000000000000E-002    0.000000000000000E+000
 -2.930000000000000E-002    0.000000000000000E+000
 -2.920000000000000E-002    0.000000000000000E+000
 -2.910000000000000E-002    0.000000000000000E+000
 -2.900000000000000E-002    0.000000000000000E+000
 -2.890000000000000E-002    0.000000000000000E+000
 -2.880000000000000E-002    0.000000000000000E+000
 -2.870000000000000E-002    0.000000000000000E+000
 -2.860000000000000E-002    0.000000000000000E+000
 -2.850000000000000E-002    0.000000000000000E+000
 -2.840000000000000E-002    0.000000000000000E+000
 -2.830000000000000E-002    0.000000000000000E+000
 -2.820000000000000E-002    0.000000000000000E+000
 -2.810000000000000E-002    0.000000000000000E+000
 -2.800000000000000E-002    0.000000000000000E+000
 -2.790000000000000E-002    0.000000000000000E+000
 -2.780000000000000E-002    0.000000000000000E+000
 -2.770000000000000E-002    0.000000000000000E+000
 -2.760000000000000E-002    0.000000000000000E+000
 -2.750000000000000E-002    0.000000000000000E+000
 -2.740000000000000E-002    0.000000000000000E+000
 -2.730000000000000E-002    0.000000000000000E+000
 -2.720000000000000E-002    0.000000000000000E+000
 -2.710000000000000E-002    0.000000000000000E+000
 -2.700000000000000E-002    0.000000000000000E+000
 -2.690000000000000E-002    0.000000000000000E+000
 -2.680000000000000E-002    0.000000000000000E+000
 -2.670000000000000E-002    0.000000000000000E+000
 -2.660000000000000E-002    0.000000000000000E+000
 -2.650000000000000E-002    0.000000000000000E+000
 -2.640000000000000E-002    0.000000000000000E+000
 -2.630000000000000E-002    0.000000000000000E+000
 -2.620000000000000E-002    0.000000000000000E+000
 -2.610000000000000E-002    0.000000000000000E+000
 -2.600000000000000E-002    0.000000000000000E+000
 -2.590000000000000E-002    0.000000000000000E+000
 -2.580000000000000E-002    0.000000000000000E+000
 -2.570000000000000E-002    0.000000000000000E+000
 -2.560000000000000E-002    0.000000000000000E+000
 -2.550000000000000E-002    0.000000000000000E+000
 -2.540000000000000E-002    0.000000000000000E+000
 -2.530000000000000E-002    0.000000000000000E+000
 -2.520000000000000E-002    0.000000000000000E+000
 -2.510000000000000E-002    0.000000000000000E+000
 -2.500000000000000E-002    0.000000000000000E+000
 -2.490000000000000E-002    0.000000000000000E+000
 -2.480000000000000E-002    0.000000000000000E+000
 -2.470000000000000E-002    0.000000000000000E+000
 -2.460000000000000E-002    0.000000000000000E+000
 -2.450000000000000E-002    0.000000000000000E+000
 -2.440000000000000E-002    0.000000000000000E+000
 -2.430000000000000E-002    0.000000000000000E+000
 -2.420000000000000E-002    0.000000000000000E+000
 -2.410000000000000E-002    0.000000000000000E+000
 -2.400000000000000E-002    0.000000000000000E+000
 -2.390000000000000E-002    0.000000000000000E+000
 -2.380000000000000E-002    0.000000000000000E+000
 -2.370000000000000E-002    0.000000000000000E+000
 -2.360000000000000E-002    0.000000000000000E+000
 -2.350000000000000E-002    0.000000000000000E+000
 -2.340000000000000E-002    0.000000000000000E+000
 -2.330000000000000E-002    0.000000000000000E+000
 -2.320000000000000E-002    0.000000000000000E+000
 -2.310000000000000E-002    0.000000000000000E+000
 -2.300000000000000E-002    0.000000000000000E+000
 -2.290000000000000E-002    0.000000000000000E+000
 -2.280000000000000E-002    0.000000000000000E+000
 -2.270000000000000E-002    0.000000000000000E+000
 -2.260000000000000E-002    0.000000000000000E+000
 -2.250000000000000E-002    0.000000000000000E+000
 -2.240000000000000E-002    0.000000000000000E+000
 -2.230000000000000E-002    0.000000000000000E+000
 -2.220000000000000E-002    0.000000000000000E+000
 -2.210000000000000E-002    0.000000000000000E+000
 -2.200000000000000E-002    0.000000000000000E+000
 -2.190000000000000E-002    0.000000000000000E+000
 -2.180000000000000E-002    0.000000000000000E+000
 -2.170000000000000E-002    0.000000000000000E+000
 -2.160000000000000E-002    0.000000000000000E+000
 -2.150000000000000E-002    0.000000000000000E+000
 -2.140000000000000E-002    0.000000000000000E+000
 -2.130000000000000E-002    0.000000000000000E+000
 -2.120000000000000E-002    0.000000000000000E+000
 -2.110000000000000E-002    0.000000000000000E+000
 -2.100000000000000E-002    0.000000000000000E+000
 -2.090000000000000E-002    0.000000000000000E+000
 -2.080000000000000E-002    0.000000000000000E+000
 -2.070000000000000E-002    0.000000000000000E+000
 -2.060000000000000E-002    0.000000000000000E+000
 -2.050000000000000E-002    0.000000000000000E+000
 -2.040000000000000E-002    0.000000000000000E+000
 -2.030000000000000E-002    0.000000000000000E+000
 -2.020000000000000E-002    0.000000000000000E+000
 -2.010000000000000E-002    0.000000000000000E+000
 -2.000000000000000E-002    0.000000000000000E+000
 -1.990000000000000E-002    0.000000000000000E+000
 -1.980000000000000E-002    0.000000000000000E+000
 -1.970000000000000E-002    0.000000000000000E+000
 -1.960000000000000E-002    0.000000000000000E+000
 -1.950000000000000E-002    0.000000000000000E+000
 -1.940000000000000E-002    0.000000000000000E+000
 -1.930000000000000E-002    0.000000000000000E+000
 -1.920000000000000E-002    0.000000000000000E+000
 -1.910000000000000E-002    0.000000000000000E+000
 -1.900000000000000E-002    0.000000000000000E+000
 -1.890000000000000E-002    0.000000000000000E+000
 -1.880000000000000E-002    0.000000000000000E+000
 -1.870000000000000E-002    0.000000000000000E+000
 -1.860000000000000E-002    0.000000000000000E+000
 -1.850000000000000E-002    0.000000000000000E+000
 -1.840000000000000E-002    0.000000000000000E+000
 -1.830000000000000E-002    0.000000000000000E+000
 -1.820000000000000E-002    0.000000000000000E+000
 -1.810000000000000E-002    0.000000000000000E+000
 -1.800000000000000E-002    0.000000000000000E+000
 -1.790000000000000E-002    0.000000000000000E+000
 -1.780000000000000E-002    0.000000000000000E+000
 -1.770000000000000E-002    0.000000000000000E+000
 -1.760000000000000E-002    0.000000000000000E+000
 -1.750000000000000E-002    0.000000000000000E+000
 -1.740000000000000E-002    0.000000000000000E+000
 -1.730000000000000E-002    0.000000000000000E+000
 -1.720000000000000E-002    0.000000000000000E+000
 -1.710000000000000E-002    0.000000000000000E+000
 -1.700000000000000E-002    0.000000000000000E+000
 -1.690000000000000E-002    0.000000000000000E+000
 -1.680000000000000E-002    0.000000000000000E+000
 -1.670000000000000E-002    0.000000000000000E+000
 -1.660000000000000E-002    0.000000000000000E+000
 -1.650000000000000E-002    0.000000000000000E+000
 -1.640000000000000E-002    0.000000000000000E+000
 -1.630000000000000E-002    0.000000000000000E+000
 -1.620000000000000E-002    0.000000000000000E+000
 -1.610000000000000E-002    0.000000000000000E+000
 -1.600000000000000E-002    0.000000000000000E+000
 -1.590000000000000E-002    0.000000000000000E+000
 -1.580000000000000E-002    0.000000000000000E+000
 -1.570000000000000E-002    0.000000000000000E+000
 -1.560000000000000E-002    0.000000000000000E+000
 -1.550000000000000E-002    0.000000000000000E+000
 -1.540000000000000E-002    0.000000000000000E+000
 -1.530000000000000E-002    0.000000000000000E+000
 -1.520000000000000E-002    0.000000000000000E+000
 -1.510000000000000E-002    0.000000000000000E+000
 -1.500000000000000E-002    0.000000000000000E+000
 -1.490000000000000E-002    0.000000000000000E+000
 -1.480000000000000E-002    0.000000000000000E+000
 -1.470000000000000E-002    0.000000000000000E+000
 -1.460000000000000E-002    0.000000000000000E+000
 -1.450000000000000E-002    0.000000000000000E+000
 -1.440000000000000E-002    0.000000000000000E+000
 -1.430000000000000E-002    0.000000000000000E+000
 -1.420000000000000E-002    0.000000000000000E+000
 -1.410000000000000E-002    0.000000000000000E+000
 -1.400000000000000E-002    0.000000000000000E+000
 -1.390000000000000E-002    0.000000000000000E+000
 -1.380000000000000E-002    0.000000000000000E+000
 -1.370000000000000E-002    0.000000000000000E+000
 -1.360000000000000E-002    0.000000000000000E+000
 -1.350000000000000E-002    6.414635304221270E-048
 -1.340000000000000E-002    1.282927060844254E-047
 -1.330000000000000E-002    1.282927060844254E-047
 -1.320000000000000E-002    1.282927060844254E-047
 -1.310000000000000E-002    0.000000000000000E+000
 -1.300000000000000E-002   -6.763422942257716E-047
 -1.290000000000000E-002   -1.438213059174493E-046
 -1.280000000000000E-002   -2.683987059222349E-046
 -1.270000000000000E-002   -3.886996823908729E-046
 -1.260000000000000E-002   -4.456428529730813E-046
 -1.250000000000000E-002   -4.263989470604175E-046
 -1.240000000000000E-002   -2.503042519675224E-046
 -1.230000000000000E-002    8.030280788319077E-047
 -1.220000000000000E-002    7.947720040373391E-046
 -1.210000000000000E-002    1.554277122423929E-045
 -1.200000000000000E-002    2.535501192637300E-045
 -1.190000000000000E-002    3.284248519726857E-045
 -1.180000000000000E-002    3.664983689546879E-045
 -1.170000000000000E-002    3.322790770736840E-045
 -1.160000000000000E-002    1.357403573019450E-045
 -1.150000000000000E-002   -4.489210210508189E-046
 -1.140000000000000E-002   -3.294095150109275E-045
 -1.130000000000000E-002   -7.199968094696782E-045
 -1.120000000000000E-002   -1.145538553943015E-044
 -1.110000000000000E-002   -1.594045379829680E-044
 -1.100000000000000E-002   -1.908496672373108E-044
 -1.090000000000000E-002   -1.832036118166970E-044
 -1.080000000000000E-002   -1.386184155841591E-044
 -1.070000000000000E-002   -3.508735700439851E-045
 -1.060000000000000E-002    1.344771450400740E-044
 -1.050000000000000E-002    3.628170113542929E-044
 -1.040000000000000E-002    6.395728875189460E-044
 -1.030000000000000E-002    9.039391272320195E-044
 -1.020000000000000E-002    1.080710141654842E-043
 -1.010000000000000E-002    1.098455799004003E-043
 -1.000000000000000E-002    8.683679287781609E-044
 -9.899999999999999E-003    3.065488242294336E-044
 -9.800000000000000E-003   -6.245816857703173E-044
 -9.699999999999999E-003   -1.905281582794444E-043
 -9.599999999999999E-003   -3.383548907407512E-043
 -9.500000000000000E-003   -4.825847382551955E-043
 -9.399999999999999E-003   -5.857451011971786E-043
 -9.299999999999999E-003   -6.031628025309912E-043
 -9.200000000000000E-003   -4.854791227727862E-043
 -9.099999999999999E-003   -1.921920997517591E-043
 -8.999999999999999E-003    2.960895593771100E-043
 -8.900000000000000E-003    9.604329694662491E-043
 -8.799999999999999E-003    1.734103217200989E-042
 -8.699999999999999E-003    2.487078846869381E-042
 -8.600000000000000E-003    3.031676211303972E-042
 -8.499999999999999E-003    3.136361479106659E-042
 -8.399999999999999E-003    2.558647790048857E-042
 -8.300000000000000E-003    1.096014828211012E-042
 -8.199999999999999E-003   -1.342419144240494E-042
 -8.100000000000000E-003   -4.664948625795868E-042
 -8.000000000000000E-003   -8.524406486069339E-042
 -7.899999999999999E-003   -1.228302149700132E-041
 -7.800000000000000E-003   -1.501705561763978E-041
 -7.699999999999999E-003   -1.559880959213931E-041
 -7.599999999999999E-003   -1.286013362795602E-041
 -7.499999999999999E-003   -5.848673543352882E-042
 -7.399999999999999E-003    5.851628009751268E-042
 -7.299999999999999E-003    2.176518842781219E-041
 -7.199999999999999E-003    4.022185012692841E-041
 -7.100000000000000E-003    5.817724476923146E-041
 -6.999999999999999E-003    7.128189514131338E-041
 -6.899999999999999E-003    7.427348125281044E-041
 -6.800000000000000E-003    6.176596117494064E-041
 -6.699999999999999E-003    2.943325608945722E-041
 -6.599999999999999E-003   -2.451138562492492E-041
 -6.499999999999999E-003   -9.774267103925231E-041
 -6.399999999999999E-003   -1.824802184636640E-040
 -6.299999999999999E-003   -2.647843489680908E-040
 -6.199999999999999E-003   -3.249484689003539E-040
 -6.100000000000000E-003   -3.393759914356758E-040
 -5.999999999999999E-003   -2.841993381322538E-040
 -5.899999999999999E-003   -1.405637722298599E-040
 -5.800000000000000E-003    9.886227155153137E-041
 -5.699999999999999E-003    4.231147155249373E-040
 -5.599999999999999E-003    7.973081261219897E-040
 -5.499999999999999E-003    1.159946158866678E-039
 -5.399999999999999E-003    1.425057323000222E-039
 -5.299999999999999E-003    1.490782738370697E-039
 -5.199999999999999E-003    1.255277817840910E-039
 -5.099999999999999E-003    6.395128037627940E-040
 -4.999999999999999E-003   -3.852012185009697E-040
 -4.899999999999999E-003   -1.769091536706134E-039
 -4.799999999999999E-003   -3.361293791544751E-039
 -4.699999999999999E-003   -4.900107265256810E-039
 -4.599999999999999E-003   -6.023804709109594E-039
 -4.499999999999999E-003   -6.308281230759214E-039
 -4.399999999999999E-003   -5.334493896078943E-039
 -4.299999999999999E-003   -2.783186925081555E-039
 -4.199999999999999E-003    1.452712353826769E-039
 -4.099999999999999E-003    7.155591969166672E-039
 -3.999999999999999E-003    1.369544573927347E-038
 -3.899999999999999E-003    1.999664308695317E-038
 -3.799999999999999E-003    2.458902756583630E-038
 -3.699999999999999E-003    2.576680099930780E-038
 -3.599999999999999E-003    2.186440814803317E-038
 -3.499999999999999E-003    1.163659555481168E-038
 -3.399999999999999E-003   -5.298395935439474E-039
 -3.299999999999999E-003   -2.802402691237141E-038
 -3.199999999999999E-003   -5.399764530720788E-038
 -3.099999999999999E-003   -7.894447376620124E-038
 -2.999999999999999E-003   -9.708557446576525E-038
 -2.899999999999999E-003   -1.017838949678577E-037
 -2.799999999999999E-003   -8.663448111643510E-038
 -2.699999999999999E-003   -4.693854139230509E-038
 -2.599999999999999E-003    1.860636217785398E-038
 -2.499999999999999E-003    1.062810224065058E-037
 -2.399999999999999E-003    2.061612819484294E-037
 -2.299999999999999E-003    3.018055332028606E-037
 -2.199999999999999E-003    3.712208182135864E-037
 -2.099999999999999E-003    3.893969678715887E-037
 -1.999999999999999E-003    3.324722171582302E-037
 -1.899999999999999E-003    1.832662943585344E-037
 -1.799999999999999E-003   -6.247915062863961E-038
 -1.699999999999999E-003   -3.902173582409474E-037
 -1.599999999999999E-003   -7.624655860079060E-037
 -1.499999999999999E-003   -1.117977178809044E-036
 -1.399999999999999E-003   -1.375647861193208E-036
 -1.299999999999999E-003   -1.444117771197233E-036
 -1.199999999999999E-003   -1.237175798289864E-036
 -1.099999999999999E-003   -6.938778499464741E-037
 -9.999999999999989E-004    1.991218293954684E-037
 -8.999999999999990E-004    1.386928457805389E-036
 -7.999999999999990E-004    2.732449408362905E-036
 -6.999999999999989E-004    4.014548084702305E-036
 -5.999999999999990E-004    4.943178917801001E-036
 -4.999999999999989E-004    5.194569206378698E-036
 -3.999999999999989E-004    4.466408900760729E-036
 -2.999999999999989E-004    2.548777132589204E-036
 -1.999999999999989E-004   -5.983375529326600E-037
 -9.999999999999892E-005   -4.774771074246588E-036
  1.084202172485504E-018   -9.494500281978508E-036
  1.000000000000011E-004   -1.398296470440915E-035
  2.000000000000011E-004   -1.723343225639286E-035
  3.000000000000011E-004   -1.813182076301126E-035
  4.000000000000011E-004   -1.564846817001499E-035
  5.000000000000011E-004   -9.080816609957199E-036
  6.000000000000011E-004    1.685302765509661E-036
  7.000000000000011E-004    1.594340262766567E-035
  8.000000000000011E-004    3.202140446337094E-035
  9.000000000000012E-004    4.728476588783865E-035
  1.000000000000001E-003    5.833880779460179E-035
  1.100000000000001E-003    6.145812547659792E-035
  1.200000000000001E-003    5.323352070755290E-035
  1.300000000000001E-003    3.137876349925686E-035
  1.400000000000001E-003   -4.413473293704941E-036
  1.500000000000001E-003   -5.172532133368186E-035
  1.600000000000001E-003   -1.049677925975745E-034
  1.700000000000001E-003   -1.554294428950958E-034
  1.800000000000001E-003   -1.919782596940854E-034
  1.900000000000001E-003   -2.024956376167225E-034
  2.000000000000001E-003   -1.759975781522619E-034
  2.100000000000001E-003   -1.052430446371926E-034
  2.200000000000001E-003    1.053796313212269E-035
  2.300000000000001E-003    1.633112353731222E-034
  2.400000000000001E-003    3.349063968728907E-034
  2.500000000000001E-003    4.972903404594162E-034
  2.600000000000001E-003    6.149240929053010E-034
  2.700000000000001E-003    6.494162465014203E-034
  2.800000000000001E-003    5.662904167298658E-034
  2.900000000000001E-003    3.431947632985585E-034
  3.000000000000001E-003   -2.162908381370915E-035
  3.100000000000001E-003   -5.022404471438510E-034
  3.200000000000001E-003   -1.041132402922995E-033
  3.300000000000001E-003   -1.550433199891803E-033
  3.400000000000001E-003   -1.919577183576415E-033
  3.500000000000001E-003   -2.029993485369199E-033
  3.600000000000001E-003   -1.776130085288259E-033
  3.700000000000001E-003   -1.090633648941369E-033
  3.800000000000001E-003    3.001943050415446E-035
  3.900000000000001E-003    1.504417853521052E-033
  4.000000000000001E-003    3.155285744591564E-033
  4.100000000000001E-003    4.714131806879620E-033
  4.200000000000001E-003    5.845470116472574E-033
  4.300000000000001E-003    6.191955015868896E-033
  4.400000000000001E-003    5.438028428374360E-033
  4.500000000000001E-003    3.385238517985038E-033
  4.600000000000002E-003    2.793446206428054E-035
  4.700000000000001E-003   -4.385525641742237E-033
  4.800000000000001E-003   -9.322662246534712E-033
  4.900000000000002E-003   -1.398339559554434E-032
  5.000000000000001E-003   -1.737431184207008E-032
  5.100000000000001E-003   -1.844373434370563E-032
  5.200000000000001E-003   -1.626962578401549E-032
  5.300000000000002E-003   -1.027942988799806E-032
  5.400000000000001E-003   -4.683946500684343E-034
  5.500000000000001E-003    1.242697147738204E-032
  5.600000000000002E-003    2.684785232148236E-032
  5.700000000000001E-003    4.046820311595906E-032
  5.800000000000001E-003    5.041602260973743E-032
  5.900000000000002E-003    5.366729364865488E-032
  6.000000000000001E-003    4.758715103323602E-032
  6.100000000000001E-003    3.055649329883731E-032
  6.200000000000002E-003    2.587256458406442E-033
  6.300000000000002E-003   -3.419677012513420E-032
  6.400000000000001E-003   -7.534666113089662E-032
  6.500000000000001E-003   -1.142625355511043E-031
  6.600000000000002E-003   -1.428347903040547E-031
  6.700000000000001E-003   -1.525643756343011E-031
  6.800000000000001E-003   -1.360842082300979E-031
  6.900000000000002E-003   -8.890401538376345E-032
  7.000000000000001E-003   -1.110562373005424E-032
  7.100000000000001E-003    9.135262561328350E-032
  7.200000000000002E-003    2.060861975094521E-031
  7.300000000000002E-003    3.148111185753806E-031
  7.400000000000001E-003    3.951531242532992E-031
  7.500000000000001E-003    4.237555494164912E-031
  7.600000000000002E-003    3.804574563735398E-031
  7.700000000000001E-003    2.530422257950670E-031
  7.800000000000001E-003    4.180740614883927E-032
  7.900000000000001E-003   -2.369698643220234E-031
  8.000000000000002E-003   -5.496435440986772E-031
  8.100000000000001E-003   -8.467310727571090E-031
  8.200000000000001E-003   -1.067885979999233E-030
  8.300000000000002E-003   -1.150316428451412E-030
  8.400000000000001E-003   -1.039997876053144E-030
  8.500000000000002E-003   -7.043138252641634E-031
  8.600000000000002E-003   -1.441132621347000E-031
  8.700000000000001E-003    5.972670925444806E-031
  8.800000000000002E-003    1.430556328642376E-030
  8.900000000000002E-003    2.224848210734834E-030
  9.000000000000001E-003    2.820931476470326E-030
  9.100000000000002E-003    3.053570865105612E-030
  9.200000000000002E-003    2.780932578366626E-030
  9.300000000000001E-003    1.917516154732590E-030
  9.400000000000002E-003    4.653149258158235E-031
  9.500000000000001E-003   -1.463145497583782E-030
  9.600000000000001E-003   -3.636393140342508E-030
  9.700000000000002E-003   -5.715680790119689E-030
  9.800000000000001E-003   -7.289864949437606E-030
  9.900000000000001E-003   -7.933043417956479E-030
  1.000000000000000E-002   -7.280127244274588E-030
  1.010000000000000E-002   -5.110861530819660E-030
  1.020000000000000E-002   -1.428758843113582E-030
  1.030000000000000E-002    3.481146462724435E-030
  1.040000000000000E-002    9.032038422292973E-030
  1.050000000000000E-002    1.436602434693647E-029
  1.060000000000000E-002    1.844321776208707E-029
  1.070000000000000E-002    2.018760571979304E-029
  1.080000000000000E-002    1.867705888932079E-029
  1.090000000000000E-002    1.335338437527554E-029
  1.100000000000000E-002    4.218475987825722E-030
  1.110000000000000E-002   -8.023448341393507E-030
  1.120000000000000E-002   -2.191754504196587E-029
  1.130000000000000E-002   -3.533665819298836E-029
  1.140000000000000E-002   -4.570360348636449E-029
  1.150000000000000E-002   -5.035230560311872E-029
  1.160000000000000E-002   -4.699575395666419E-029
  1.170000000000000E-002   -3.424085922295588E-029
  1.180000000000000E-002   -1.206684604819048E-029
  1.190000000000000E-002    1.783017121218130E-029
  1.200000000000000E-002    5.192291682571654E-029
  1.210000000000000E-002    8.504670593851107E-029
  1.220000000000000E-002    1.109411961055261E-028
  1.230000000000000E-002    1.231255070879778E-028
  1.240000000000000E-002    1.160274212517324E-028
  1.250000000000000E-002    8.622106333317812E-029
  1.260000000000000E-002    3.357258307373239E-029
  1.270000000000000E-002   -3.793837842892415E-029
  1.280000000000000E-002   -1.199494897671653E-028
  1.290000000000000E-002   -2.001809644476980E-028
  1.300000000000000E-002   -2.637254815146208E-028
  1.310000000000000E-002   -2.951241829285798E-028
  1.320000000000000E-002   -2.810370231988090E-028
  1.330000000000000E-002   -2.131617899433111E-028
  1.340000000000000E-002   -9.092928071266136E-029
  1.350000000000000E-002    7.656837058258528E-029
  1.360000000000000E-002    2.699461760670182E-028
  1.370000000000000E-002    4.606099702116100E-028
  1.380000000000000E-002    6.137583432724546E-028
  1.390000000000000E-002    6.932045640570694E-028
  1.400000000000000E-002    6.675675540844963E-028
  1.410000000000000E-002    5.170277772408338E-028
  1.420000000000000E-002    2.395571135421317E-028
  1.430000000000000E-002   -1.446229223927592E-028
  1.440000000000000E-002   -5.915645803589257E-028
  1.450000000000000E-002   -1.036044245132317E-027
  1.460000000000000E-002   -1.398392521299909E-027
  1.470000000000000E-002   -1.595464719362793E-027
  1.480000000000000E-002   -1.554717415760403E-027
  1.490000000000000E-002   -1.229558526727922E-027
  1.500000000000000E-002   -6.135022911938441E-028
  1.510000000000000E-002    2.496759789094045E-028
  1.520000000000000E-002    1.262499068514117E-027
  1.530000000000000E-002    2.279168790130832E-027
  1.540000000000000E-002    3.120761370950179E-027
  1.550000000000000E-002    3.599688838367524E-027
  1.560000000000000E-002    3.551098258608474E-027
  1.570000000000000E-002    2.867129701946400E-027
  1.580000000000000E-002    1.528547051521047E-027
  1.590000000000000E-002   -3.724632914037384E-028
  1.600000000000000E-002   -2.624305228892582E-027
  1.610000000000000E-002   -4.907436125527811E-027
  1.620000000000000E-002   -6.827433713994238E-027
  1.630000000000000E-002   -7.968460463559295E-027
  1.640000000000000E-002   -7.962022434837696E-027
  1.650000000000000E-002   -6.562094416625411E-027
  1.660000000000000E-002   -3.714683692200862E-027
  1.670000000000000E-002    3.916794767969510E-028
  1.680000000000000E-002    5.307487353845626E-027
  1.690000000000000E-002    1.034586729009186E-026
  1.700000000000000E-002    1.465297605459696E-026
  1.710000000000000E-002    1.732257412613162E-026
  1.720000000000000E-002    1.754385323602827E-026
  1.730000000000000E-002    1.476343049819379E-026
  1.740000000000000E-002    8.835959224793182E-027
  1.750000000000000E-002    1.345254032522804E-028
  1.760000000000000E-002   -1.040689665743375E-026
  1.770000000000000E-002   -2.134033618497341E-026
  1.780000000000000E-002   -3.085027999292786E-026
  1.790000000000000E-002   -3.699442258563779E-026
  1.800000000000000E-002   -3.801576743080687E-026
  1.810000000000000E-002   -3.268612332971900E-026
  1.820000000000000E-002   -2.062733164037248E-026
  1.830000000000000E-002   -2.549596951386500E-027
  1.840000000000000E-002    1.965131183478562E-026
  1.850000000000000E-002    4.298329384744516E-026
  1.860000000000000E-002    6.365553423107599E-026
  1.870000000000000E-002    7.757417511860538E-026