 -4.000000000000000E-002    0.000000000000000E+000
 -3.990000000000000E-002    0.000000000000000E+000
 -3.980000000000000E-002    0.000000000000000E+000
 -3.970000000000000E-002    0.000000000000000E+000
 -3.960000000000000E-002    0.000000000000000E+000
 -3.950000000000000E-002    0.000000000000000E+000
 -3.940000000000000E-002    0.000000000000000E+000
 -3.930000000000000E-002    0.000000000000000E+000
 -3.920000000000000E-002    1.591366858324960E-026
 -3.910000000000000E-002    2.436712229619703E-025
 -3.900000000000000E-002    1.942911914621738E-024
 -3.890000000000000E-002    1.070296332044628E-023
 -3.880000000000000E-002    4.558942318766276E-023
 -3.870000000000000E-002    1.592569412823866E-022
 -3.860000000000000E-002    4.721295779720505E-022
 -3.850000000000000E-002    1.211628597746144E-021
 -3.840000000000000E-002    2.716303624653834E-021
 -3.830000000000000E-002    5.308219449379080E-021
 -3.820000000000000E-002    8.861158390609309E-021
 -3.810000000000000E-002    1.182977408221885E-020
 -3.800000000000000E-002    9.527817218337382E-021
 -3.790000000000000E-002   -8.335872407849004E-021
 -3.780000000000000E-002   -6.030970808887338E-020
 -3.770000000000000E-002   -1.745381504698633E-019
 -3.760000000000000E-002   -3.860083488027018E-019
 -3.750000000000000E-002   -7.256688174555303E-019
 -3.740000000000000E-002   -1.196861678686080E-018
 -3.730000000000000E-002   -1.735789403110129E-018
 -3.720000000000000E-002   -2.157031179528216E-018
 -3.710000000000000E-002   -2.093342635224747E-018
 -3.700000000000000E-002   -9.510183312498885E-019
 -3.690000000000000E-002    2.083919762493561E-018
 -3.680000000000000E-002    7.941829397088062E-018
 -3.670000000000000E-002    1.741852635737969E-017
 -3.660000000000000E-002    3.074308413135871E-017
 -3.650000000000000E-002    4.697044168978683E-017
 -3.640000000000000E-002    6.327412492113036E-017
 -3.630000000000000E-002    7.430798049512062E-017
 -3.620000000000000E-002    7.190711978978846E-017
 -3.610000000000000E-002    4.547730703171508E-017
 -3.600000000000000E-002   -1.656330476767077E-017
 -3.590000000000000E-002   -1.240212487249482E-016
 -3.580000000000000E-002   -2.808166328192174E-016
 -3.570000000000000E-002   -4.798957943824123E-016
 -3.560000000000000E-002   -6.980614644866912E-016
 -3.550000000000000E-002   -8.921676856885577E-016
 -3.540000000000000E-002   -9.985598864491898E-016
 -3.530000000000000E-002   -9.377612004882328E-016
 -3.520000000000000E-002   -6.260125859386419E-016
 -3.510000000000000E-002    5.779953230426084E-018
 -3.500000000000000E-002    9.868819771111369E-016
 -3.490000000000000E-002    2.278819404135321E-015
 -3.480000000000000E-002    3.750618986826560E-015
 -3.470000000000000E-002    5.165088169607720E-015
 -3.460000000000000E-002    6.184827178065984E-015
 -3.450000000000000E-002    6.405551469920761E-015
 -3.440000000000000E-002    5.420712604949441E-015
 -3.430000000000000E-002    2.915266659161318E-015
 -3.420000000000000E-002   -1.221766448740479E-015
 -3.410000000000000E-002   -6.785278879347178E-015
 -3.400000000000000E-002   -1.316968267606870E-014
 -3.390000000000000E-002   -1.934341524325690E-014
 -3.380000000000000E-002   -2.391171152312793E-014
 -3.370000000000000E-002   -2.528727810316891E-014
 -3.360000000000000E-002   -2.197042124291546E-014
 -3.350000000000000E-002   -1.291503977899901E-014
 -3.340000000000000E-002    2.071599957536136E-015
 -3.330000000000000E-002    2.197385375025244E-014
 -3.320000000000000E-002    4.435320763591342E-014
 -3.310000000000000E-002    6.537112195622168E-014
 -3.300000000000000E-002    8.012517530702334E-014
 -3.290000000000000E-002    8.332958000895099E-014
 -3.280000000000000E-002    7.030482784928072E-014
 -3.270000000000000E-002    3.816175082057679E-014
 -3.260000000000000E-002   -1.301309070877640E-014
 -3.250000000000000E-002   -7.922359627004418E-014
 -3.240000000000000E-002   -1.521568536334223E-013
 -3.230000000000000E-002   -2.195461708664839E-013
 -3.220000000000000E-002   -2.664551691518636E-013
 -3.210000000000000E-002   -2.774822461987284E-013
 -3.200000000000000E-002   -2.396910641206016E-013
 -3.190000000000000E-002   -1.458679212390331E-013
 -3.180000000000000E-002    2.469018442072351E-015
 -3.170000000000000E-002    1.929849636974442E-013
 -3.160000000000000E-002    4.020312781433332E-013
 -3.150000000000000E-002    5.962457631550023E-013
 -3.140000000000000E-002    7.364628675051120E-013
 -3.130000000000000E-002    7.837350305425348E-013
 -3.120000000000000E-002    7.067943171740586E-013
 -3.110000000000000E-002    4.898388872380376E-013
 -3.100000000000000E-002    1.392030830125935E-013
 -3.090000000000000E-002   -3.126402180470002E-013
 -3.080000000000000E-002   -8.071237871621336E-013
 -3.070000000000000E-002   -1.264573488530321E-012
 -3.060000000000000E-002   -1.594275158214574E-012
 -3.050000000000000E-002   -1.708809922941003E-012
 -3.040000000000000E-002   -1.540864769759951E-012
 -3.030000000000000E-002   -1.059888304313245E-012
 -3.020000000000000E-002   -2.854645134459002E-013
 -3.010000000000000E-002    7.057191281981336E-013
 -3.000000000000000E-002    1.781844644075712E-012
 -2.990000000000000E-002    2.768233946134365E-012
 -2.980000000000000E-002    3.469638026553349E-012
 -2.970000000000000E-002    3.700390132698797E-012
 -2.960000000000000E-002    3.318474475424442E-012
 -2.950000000000000E-002    2.258189465631238E-012
 -2.940000000000000E-002    5.554531975674854E-013
 -2.930000000000000E-002   -1.639855506545816E-012
 -2.920000000000000E-002   -4.068730412202056E-012
 -2.910000000000000E-002   -6.386908194233772E-012
 -2.900000000000000E-002   -8.206625015157083E-012
 -2.890000000000000E-002   -9.151886416316595E-012
 -2.880000000000000E-002   -8.919985872538545E-012
 -2.870000000000000E-002   -7.339990290182087E-012
 -2.860000000000000E-002   -4.418243553825249E-012
 -2.850000000000000E-002   -3.618670257242906E-013
 -2.840000000000000E-002    4.426215812999466E-012
 -2.830000000000000E-002    9.383293481948457E-012
 -2.820000000000000E-002    1.385175250142729E-011
 -2.810000000000000E-002    1.716582331835894E-011
 -2.800000000000000E-002    1.874900859854177E-011
 -2.790000000000000E-002    1.820827299279192E-011
 -2.780000000000000E-002    1.541027261489664E-011
 -2.770000000000000E-002    1.052638640297313E-011
 -2.760000000000000E-002    4.036885663962440E-012
 -2.750000000000000E-002   -3.310081889382921E-012
 -2.740000000000000E-002   -1.058269828279993E-011
 -2.730000000000000E-002   -1.678441463399732E-011
 -2.720000000000000E-002   -2.099355436829572E-011
 -2.710000000000000E-002   -2.250549451660116E-011
 -2.700000000000000E-002   -2.095763426076361E-011
 -2.690000000000000E-002   -1.641806438832220E-011
 -2.680000000000000E-002   -9.422225507696686E-012
 -2.670000000000000E-002   -9.472523875532027E-013
 -2.660000000000000E-002    7.679223228459162E-012
 -2.650000000000000E-002    1.493107700106957E-011
 -2.640000000000000E-002    1.928372770259740E-011
 -2.630000000000000E-002    1.944202634218801E-011
 -2.620000000000000E-002    1.456988730206668E-011
 -2.610000000000000E-002    4.491699424931848E-012
 -2.600000000000000E-002   -1.016549650096789E-011
 -2.590000000000000E-002   -2.791780454397508E-011
 -2.580000000000000E-002   -4.648094239581225E-011
 -2.570000000000000E-002   -6.295002247605206E-011
 -2.560000000000000E-002   -7.410153750515193E-011
 -2.550000000000000E-002   -7.679961345323746E-011
 -2.540000000000000E-002   -6.847034366069191E-011
 -2.530000000000000E-002   -4.759040200830630E-011
 -2.520000000000000E-002   -1.412214133523903E-011
 -2.510000000000000E-002    3.017979326680061E-011
 -2.500000000000000E-002    8.166280658242318E-011
 -2.490000000000000E-002    1.349293339397954E-010
 -2.480000000000000E-002    1.832788400762181E-010
 -2.470000000000000E-002    2.194303435391827E-010
 -2.460000000000000E-002    2.364705316703176E-010
 -2.450000000000000E-002    2.289247033910942E-010
 -2.440000000000000E-002    1.938066593069922E-010
 -2.430000000000000E-002    1.314776540881793E-010
 -2.420000000000000E-002    4.614221072965469E-011
 -2.410000000000000E-002   -5.416525773279474E-011
 -2.400000000000000E-002   -1.581923160008781E-010
 -2.390000000000000E-002   -2.526851195781759E-010
 -2.380000000000000E-002   -3.241156135403979E-010
 -2.370000000000000E-002   -3.607230969812502E-010
 -2.360000000000000E-002   -3.545856994819272E-010
 -2.350000000000000E-002   -3.033844334163011E-010
 -2.340000000000000E-002   -2.115170375201632E-010
 -2.330000000000000E-002   -9.027426120208358E-011
 -2.320000000000000E-002    4.309608081961117E-011
 -2.310000000000000E-002    1.674486674541607E-010
 -2.300000000000000E-002    2.607444509643479E-010
 -2.290000000000000E-002    3.036297381555834E-010
 -2.280000000000000E-002    2.830670229731860E-010
 -2.270000000000000E-002    1.954072728807274E-010
 -2.260000000000000E-002    4.830085346127791E-011
 -2.250000000000000E-002   -1.390426148972852E-010
 -2.240000000000000E-002   -3.375197946698293E-010
 -2.230000000000000E-002   -5.117056737292389E-010
 -2.220000000000000E-002   -6.249830480763083E-010
 -2.210000000000000E-002   -6.455654656627334E-010
 -2.200000000000000E-002   -5.525090075881125E-010
 -2.190000000000000E-002   -3.406929446585631E-010
 -2.180000000000000E-002   -2.379592525185078E-011
 -2.170000000000000E-002    3.654845056362779E-010
 -2.160000000000000E-002    7.783433566492268E-010
 -2.150000000000000E-002    1.155796069096416E-009
 -2.140000000000000E-002    1.436982781475947E-009
 -2.130000000000000E-002    1.568730752863380E-009
 -2.120000000000000E-002    1.514919577147014E-009
 -2.110000000000000E-002    1.264064256506840E-009
 -2.100000000000000E-002    8.336642796790471E-010
 -2.090000000000000E-002    2.702582545348455E-010
 -2.080000000000000E-002   -3.552619971336607E-010
 -2.070000000000000E-002   -9.567692753978619E-010
 -2.060000000000000E-002   -1.445367060561676E-009
 -2.050000000000000E-002   -1.743451926592005E-009
 -2.040000000000000E-002   -1.798187351428130E-009
 -2.030000000000000E-002   -1.592096474185003E-009
 -2.020000000000000E-002   -1.148760387012464E-009
 -2.010000000000000E-002   -5.322433540933571E-010
 -2.000000000000000E-002    1.602034207760081E-010
 -1.990000000000000E-002    8.115244304475849E-010
 -1.980000000000000E-002    1.302625884405094E-009
 -1.970000000000000E-002    1.531950471094076E-009
 -1.960000000000000E-002    1.433780087427321E-009
 -1.950000000000000E-002    9.921460083561470E-010
 -1.940000000000000E-002    2.477170237351824E-010
 -1.930000000000000E-002   -7.040120547685907E-010
 -1.920000000000000E-002   -1.723597545098594E-009
 -1.910000000000000E-002   -2.646494601991779E-009
 -1.900000000000000E-002   -3.307396949824183E-009
 -1.890000000000000E-002   -3.566523472526580E-009
 -1.880000000000000E-002   -3.333747426469559E-009
 -1.870000000000000E-002   -2.586550886343224E-009
 -1.860000000000000E-002   -1.378527946863073E-009
 -1.850000000000000E-002    1.635109426350509E-010
 -1.840000000000000E-002    1.854064287329745E-009
 -1.830000000000000E-002    3.473468894796266E-009
 -1.820000000000000E-002    4.799118528042096E-009
 -1.810000000000000E-002    5.638809362525423E-009
 -1.800000000000000E-002    5.861083474904670E-009
 -1.790000000000000E-002    5.417660196447158E-009
 -1.780000000000000E-002    4.354078619623525E-009
 -1.770000000000000E-002    2.806360935504831E-009
 -1.760000000000000E-002    9.836219288558643E-010
 -1.750000000000000E-002   -8.612315353400981E-010
 -1.740000000000000E-002   -2.468609126765829E-009
 -1.730000000000000E-002   -3.611659203480117E-009
 -1.720000000000000E-002   -4.131948750546791E-009
 -1.710000000000000E-002   -3.965708149943363E-009
 -1.700000000000000E-002   -3.156225078544329E-009
 -1.690000000000000E-002   -1.849994141494063E-009
 -1.680000000000000E-002   -2.766674550691262E-010
 -1.670000000000000E-002    1.284618297803710E-009
 -1.660000000000000E-002    2.547773264026363E-009
 -1.650000000000000E-002    3.264864561578625E-009
 -1.640000000000000E-002    3.266933420160723E-009
 -1.630000000000000E-002    2.494107202349112E-009
 -1.620000000000000E-002    1.010039353223047E-009
 -1.610000000000000E-002   -1.002049334287644E-009
 -1.600000000000000E-002   -3.261741340170736E-009
 -1.590000000000000E-002   -5.429447654108349E-009
 -1.580000000000000E-002   -7.154905414395355E-009
 -1.570000000000000E-002   -8.129266304571984E-009
 -1.560000000000000E-002   -8.133176822250802E-009
 -1.550000000000000E-002   -7.073645086751518E-009
 -1.540000000000000E-002   -5.003941295405547E-009
 -1.530000000000000E-002   -2.123105706697865E-009
 -1.520000000000000E-002    1.245500032690832E-009
 -1.510000000000000E-002    4.694168161834459E-009
 -1.500000000000000E-002    7.784207677174272E-009
 -1.490000000000000E-002    1.010554089395396E-008
 -1.480000000000000E-002    1.133433145790016E-008
 -1.470000000000000E-002    1.128054135735337E-008
 -1.460000000000000E-002    9.918549161566328E-009
 -1.450000000000000E-002    7.396177225206732E-009
 -1.440000000000000E-002    4.020404367948920E-009
 -1.430000000000000E-002    2.212400088759688E-010
 -1.420000000000000E-002   -3.501652933792213E-009
 -1.410000000000000E-002   -6.642471973590912E-009
 -1.400000000000000E-002   -8.754196069190996E-009
 -1.390000000000000E-002   -9.505699444414698E-009
 -1.380000000000000E-002   -8.722648429388240E-009
 -1.370000000000000E-002   -6.405734033409917E-009
 -1.360000000000000E-002   -2.722721638104898E-009
 -1.350000000000000E-002    2.025669797729409E-009
 -1.340000000000000E-002    7.462384952765659E-009
 -1.330000000000000E-002    1.320614916145732E-008
 -1.320000000000000E-002    1.894960101992253E-008
 -1.310000000000000E-002    2.453264031041783E-008
 -1.300000000000000E-002    3.000035135794277E-008
 -1.290000000000000E-002    3.563649202864591E-008
 -1.280000000000000E-002    4.196654339196079E-008
 -1.270000000000000E-002    4.972825407084711E-008
 -1.260000000000000E-002    5.981216118006976E-008
 -1.250000000000000E-002    7.317900743939020E-008
 -1.240000000000000E-002    9.076451703647402E-008
 -1.230000000000000E-002    1.133844292854446E-007
 -1.220000000000000E-002    1.416534185623235E-007
 -1.210000000000000E-002    1.759299761456605E-007
 -1.200000000000000E-002    2.162967056067118E-007
 -1.190000000000000E-002    2.625799838783746E-007
 -1.180000000000000E-002    3.144085322364610E-007
 -1.170000000000000E-002    3.713035972226651E-007
 -1.160000000000000E-002    4.327893410013750E-007
 -1.150000000000000E-002    4.985078561754341E-007
 -1.140000000000000E-002    5.683221874033538E-007
 -1.130000000000000E-002    6.423920058937090E-007
 -1.120000000000000E-002    7.212086296008557E-007
 -1.110000000000000E-002    8.055843388194185E-007
 -1.100000000000000E-002    8.965938497929100E-007
 -1.090000000000000E-002    9.954769367152685E-007
 -1.080000000000000E-002    1.103514530822778E-006
 -1.070000000000000E-002    1.221896500042629E-006
 -1.060000000000000E-002    1.351601408862862E-006
 -1.050000000000000E-002    1.493306660590993E-006
 -1.040000000000000E-002    1.647345859314653E-006
 -1.030000000000000E-002    1.813718949652217E-006
 -1.020000000000000E-002    1.992159303392775E-006
 -1.010000000000000E-002    2.182246351061239E-006
 -1.000000000000000E-002    2.383551134950360E-006
 -9.899999999999999E-003    2.595791257441067E-006
 -9.800000000000000E-003    2.818974827264114E-006
 -9.699999999999999E-003    3.053508197084572E-006
 -9.599999999999999E-003    3.300251625067849E-006
 -9.500000000000000E-003    3.560513706951487E-006
 -9.399999999999999E-003    3.835983483852192E-006
 -9.299999999999999E-003    4.128607340058746E-006
 -9.200000000000000E-003    4.440432059067869E-006
 -9.099999999999999E-003    4.773435638605499E-006
 -8.999999999999999E-003    5.129371157736105E-006
 -8.900000000000000E-003    5.509652505422035E-006
 -8.799999999999999E-003    5.915295176759185E-006
 -8.699999999999999E-003    6.346925242188392E-006
 -8.600000000000000E-003    6.804862046634093E-006
 -8.499999999999999E-003    7.289250892330123E-006
 -8.399999999999999E-003    7.800244385951137E-006
 -8.300000000000000E-003    8.338185148101059E-006
 -8.199999999999999E-003    8.903784519666532E-006
 -8.100000000000000E-003    9.498249811763079E-006
 -8.000000000000000E-003    1.012335698495916E-005
 -7.899999999999999E-003    1.078144883801251E-005
 -7.800000000000000E-003    1.147536119087251E-005
 -7.699999999999999E-003    1.220828873677106E-005
 -7.599999999999999E-003    1.298361777873919E-005
 -7.499999999999999E-003    1.380473292384063E-005
 -7.399999999999999E-003    1.467485952126783E-005
 -7.299999999999999E-003    1.559693439629369E-005
 -7.199999999999999E-003    1.657354667720726E-005
 -7.100000000000000E-003    1.760695263954176E-005
 -6.999999999999999E-003    1.869915874939777E-005
 -6.899999999999999E-003    1.985207120217768E-005
 -6.800000000000000E-003    2.106768167290886E-005
 -6.699999999999999E-003    2.234825643987083E-005
 -6.599999999999999E-003    2.369652183861058E-005
 -6.499999999999999E-003    2.511580110660183E-005
 -6.399999999999999E-003    2.661007584977006E-005
 -6.299999999999999E-003    2.818399265054043E-005
 -6.199999999999999E-003    2.984279672631179E-005
 -6.100000000000000E-003    3.159218683244297E-005
 -5.999999999999999E-003    3.343815511649192E-005
 -5.899999999999999E-003    3.538680215419917E-005
 -5.800000000000000E-003    3.744417839128445E-005
 -5.699999999999999E-003    3.961615876533076E-005
 -5.599999999999999E-003    4.190837842020233E-005
 -5.499999999999999E-003    4.432624733996301E-005
 -5.399999999999999E-003    4.687502443932054E-005
 -5.299999999999999E-003    4.955996631116550E-005
 -5.199999999999999E-003    5.238648605035563E-005
 -5.099999999999999E-003    5.536036499868199E-005
 -4.999999999999999E-003    5.848792285867153E-005
 -4.899999999999999E-003    6.177616044352271E-005
 -4.799999999999999E-003    6.523284897174398E-005
 -4.699999999999999E-003    6.886656155313190E-005
 -4.599999999999999E-003    7.268662007344912E-005
 -4.499999999999999E-003    7.670300653812300E-005
 -4.399999999999999E-003    8.092621885747230E-005
 -4.299999999999999E-003    8.536710613931312E-005
 -4.199999999999999E-003    9.003673784983030E-005
 -4.099999999999999E-003    9.494626593435846E-005
 -3.999999999999999E-003    1.001068555946609E-004
 -3.899999999999999E-003    1.055296864379904E-004
 -3.799999999999999E-003    1.112259796770698E-004
 -3.699999999999999E-003    1.172070969789649E-004
 -3.599999999999999E-003    1.234847184424943E-004
 -3.499999999999999E-003    1.300709852180650E-004
 -3.399999999999999E-003    1.369787027083325E-004
 -3.299999999999999E-003    1.442214607442650E-004
 -3.199999999999999E-003    1.518138032684276E-004
 -3.099999999999999E-003    1.597712617285210E-004
 -2.999999999999999E-003    1.681103706510679E-004
 -2.899999999999999E-003    1.768486699692715E-004
 -2.799999999999999E-003    1.860045633871840E-004
 -2.699999999999999E-003    1.955972755906000E-004
 -2.599999999999999E-003    2.056466684558623E-004
 -2.499999999999999E-003    2.161731574016410E-004
 -2.399999999999999E-003    2.271976050028898E-004
 -2.299999999999999E-003    2.387413070885440E-004
 -2.199999999999999E-003    2.508259223307288E-004
 -2.099999999999999E-003    2.634735870327499E-004
 -1.999999999999999E-003    2.767069558301477E-004
 -1.899999999999999E-003    2.905493495739754E-004
 -1.799999999999999E-003    3.050248670031126E-004
 -1.699999999999999E-003    3.201585637412243E-004
 -1.599999999999999E-003    3.359765359029748E-004
 -1.499999999999999E-003    3.525060704229077E-004
 -1.399999999999999E-003    3.697756556374542E-004
 -1.299999999999999E-003    3.878150235056445E-004
 -1.199999999999999E-003    4.066550924571302E-004
 -1.099999999999999E-003    4.263279075402732E-004
 -9.999999999999989E-004    4.468666718823438E-004
 -8.999999999999990E-004    4.683055374692679E-004
 -7.999999999999990E-004    4.906795525352142E-004
 -6.999999999999989E-004    5.140246599208294E-004
 -5.999999999999990E-004    5.383777035513974E-004
 -4.999999999999989E-004    5.637763784100487E-004
 -3.999999999999989E-004    5.902593849973857E-004
 -2.999999999999989E-004    6.178664774618101E-004
 -1.999999999999989E-004    6.466386592705337E-004
 -9.999999999999892E-005    6.766182244754525E-004
  1.084202172485504E-018    7.078488720717549E-004
  1.000000000000011E-004    7.403758338449509E-004
  2.000000000000011E-004    7.742458579494296E-004
  3.000000000000011E-004    8.095072476687206E-004
  4.000000000000011E-004    8.462097802939888E-004
  5.000000000000011E-004    8.844046094391894E-004
  6.000000000000011E-004    9.241441666302534E-004
  7.000000000000011E-004    9.654820792862246E-004
  8.000000000000011E-004    1.008473200438541E-003
  9.000000000000012E-004    1.053173362565571E-003
  1.000000000000001E-003    1.099639685981171E-003
  1.100000000000001E-003    1.147930139247428E-003
  1.200000000000001E-003    1.198104194035479E-003
  1.300000000000001E-003    1.250222457569257E-003
  1.400000000000001E-003    1.304347140148677E-003
  1.500000000000001E-003    1.360542053174698E-003
  1.600000000000001E-003    1.418872658924193E-003
  1.700000000000001E-003    1.479406209809647E-003
  1.800000000000001E-003    1.542211798014476E-003
  1.900000000000001E-003    1.607360245704365E-003
  2.000000000000001E-003    1.674923953297872E-003
  2.100000000000001E-003    1.744977048555483E-003
  2.200000000000001E-003    1.817595169440051E-003
  2.300000000000001E-003    1.892854810994325E-003
  2.400000000000001E-003    1.970834095086216E-003
  2.500000000000001E-003    2.051612176235859E-003
  2.600000000000001E-003    2.135269457049616E-003
  2.700000000000001E-003    2.221887400714951E-003
  2.800000000000001E-003    2.311549011269481E-003
  2.900000000000001E-003    2.404338718061758E-003
  3.000000000000001E-003    2.500342146638209E-003
  3.100000000000001E-003    2.599647206165856E-003
  3.200000000000001E-003    2.702342762300317E-003
  3.300000000000001E-003    2.808519826323947E-003
  3.400000000000001E-003    2.918270965843821E-003
  3.500000000000001E-003    3.031690261974489E-003
  3.600000000000001E-003    3.148873153968780E-003
  3.700000000000001E-003    3.269916313447045E-003
  3.800000000000001E-003    3.394917229966814E-003
  3.900000000000001E-003    3.523975053881167E-003
  4.000000000000001E-003    3.657189056430447E-003
  4.100000000000001E-003    3.794659509231382E-003
  4.200000000000001E-003    3.936488027938951E-003
  4.300000000000001E-003    4.082776639393135E-003
  4.400000000000001E-003    4.233628466532966E-003
  4.500000000000001E-003    4.389147872913265E-003
  4.600000000000002E-003    4.549439399035854E-003
  4.700000000000001E-003    4.714609524521787E-003
  4.800000000000001E-003    4.884764983853796E-003
  4.900000000000002E-003    5.060013426833429E-003
  5.000000000000001E-003    5.240463456639817E-003
  5.100000000000001E-003    5.426223014476776E-003
  5.200000000000001E-003    5.617401266079951E-003
  5.300000000000002E-003    5.814106782597190E-003
  5.400000000000001E-003    6.016447315814125E-003
  5.500000000000001E-003    6.224530755044258E-003
  5.600000000000002E-003    6.438464689162119E-003
  5.700000000000001E-003    6.658355187517574E-003
  5.800000000000001E-003    6.884308689971697E-003
  5.900000000000002E-003    7.116430706798896E-003
  6.000000000000001E-003    7.354825421785498E-003
  6.100000000000001E-003    7.599597472285592E-003
  6.200000000000002E-003    7.850849515943932E-003
  6.300000000000002E-003    8.108683474705572E-003
  6.400000000000001E-003    8.373201459601298E-003
  6.500000000000001E-003    8.644503569383059E-003
  6.600000000000002E-003    8.922687574544041E-003
  6.700000000000001E-003    9.207850633606254E-003
  6.800000000000001E-003    9.500087130094516E-003
  6.900000000000002E-003    9.799489101806969E-003
  7.000000000000001E-003    1.010614599830660E-002
  7.100000000000001E-003    1.042014534185308E-002
  7.200000000000002E-003    1.074157074516860E-002
  7.300000000000002E-003    1.107050321769675E-002
  7.400000000000001E-003    1.140702082086682E-002
  7.500000000000001E-003    1.175119897625295E-002
  7.600000000000002E-003    1.210310782172181E-002
  7.700000000000001E-003    1.246281413769725E-002
  7.800000000000001E-003    1.283038305291045E-002
  7.900000000000001E-003    1.320587295965123E-002
  8.000000000000002E-003    1.358933974358980E-002
  8.100000000000001E-003    1.398083306845176E-002
  8.200000000000001E-003    1.438039998772249E-002
  8.300000000000002E-003    1.478808167894117E-002
  8.400000000000001E-003    1.520391334410247E-002
  8.500000000000002E-003    1.562792510950151E-002
  8.600000000000002E-003    1.606014233627438E-002
  8.700000000000001E-003    1.650058334964812E-002
  8.800000000000002E-003    1.694926091427956E-002
  8.900000000000002E-003    1.740618129681023E-002
  9.000000000000001E-003    1.787134507683634E-002
  9.100000000000002E-003    1.834474334895588E-002
  9.200000000000002E-003    1.882636229236683E-002
  9.300000000000001E-003    1.931618061531885E-002
  9.400000000000002E-003    1.981417059750156E-002
  9.500000000000001E-003    2.032029522141501E-002
  9.600000000000001E-003    2.083451102095660E-002
  9.700000000000002E-003    2.135676693483254E-002
  9.800000000000001E-003    2.188700367806914E-002
  9.900000000000001E-003    2.242515283673454E-002
  1.000000000000000E-002    2.297113794088088E-002
  1.010000000000000E-002    2.352487504039756E-002
  1.020000000000000E-002    2.408627080677446E-002
  1.030000000000000E-002    2.465521971315245E-002
  1.040000000000000E-002    2.523160999764153E-002
  1.050000000000000E-002    2.581531691847847E-002
  1.060000000000000E-002    2.640620706409610E-002
  1.070000000000000E-002    2.700413458405378E-002
  1.080000000000000E-002    2.760894524803413E-002
  1.090000000000000E-002    2.822047224245120E-002
  1.100000000000000E-002    2.883853738578009E-002
  1.110000000000000E-002    2.946295686624911E-002
  1.120000000000000E-002    3.009352978580031E-002
  1.130000000000000E-002    3.073004827380546E-002
  1.140000000000000E-002    3.137229373901167E-002
  1.150000000000000E-002    3.202003439533528E-002
  1.160000000000000E-002    3.267302605794926E-002
  1.170000000000000E-002    3.333101796961627E-002
  1.180000000000000E-002    3.399374188248047E-002
  1.190000000000000E-002    3.466091794225981E-002
  1.200000000000000E-002    3.533225434995580E-002
  1.210000000000000E-002    3.600744569063975E-002
  1.220000000000000E-002    3.668617753954030E-002
  1.230000000000000E-002    3.736811328548809E-002
  1.240000000000000E-002    3.805291149284826E-002
  1.250000000000000E-002    3.874021552010241E-002
  1.260000000000000E-002    3.942965708336381E-002
  1.270000000000000E-002    4.012085233652707E-002
  1.280000000000000E-002    4.081341072964292E-002
  1.290000000000000E-002    4.150692984702087E-002
  1.300000000000000E-002    4.220099096110606E-002
  1.310000000000000E-002    4.289516771129639E-002
  1.320000000000000E-002    4.358901849696774E-002
  1.330000000000000E-002    4.428208855292384E-002
  1.340000000000000E-002    4.497391727395191E-002
  1.350000000000000E-002    4.566402300933661E-002
  1.360000000000000E-002    4.635191826171173E-002
  1.370000000000000E-002    4.703709877579553E-002
  1.380000000000000E-002    4.771905172166809E-002
  1.390000000000000E-002    4.839725374654207E-002
  1.400000000000000E-002    4.907116552267180E-002
  1.410000000000000E-002    4.974024549905889E-002
  1.420000000000000E-002    5.040393847616857E-002
  1.430000000000000E-002    5.106167837620469E-002
  1.440000000000000E-002    5.171289103572249E-002
  1.450000000000000E-002    5.235699395523032E-002
  1.460000000000000E-002    5.299339955033151E-002
  1.470000000000000E-002    5.362150430666034E-002
  1.480000000000000E-002    5.424070217478392E-002
  1.490000000000000E-002    5.485038109055801E-002
  1.500000000000000E-002    5.544991658156142E-002
  1.510000000000000E-002    5.603868304213579E-002
  1.520000000000000E-002    5.661604167555526E-002
  1.530000000000000E-002    5.718135380131542E-002
  1.540000000000000E-002    5.773397558332757E-002
  1.550000000000000E-002    5.827326036384274E-002
  1.560000000000000E-002    5.879855500606077E-002
  1.570000000000000E-002    5.930920836744186E-002
  1.580000000000000E-002    5.980456388036476E-002
  1.590000000000000E-002    6.028396942525910E-002
  1.600000000000000E-002    6.074676779143726E-002
  1.610000000000000E-002    6.119230666148061E-002
  1.620000000000000E-002    6.161992631386768E-002
  1.630000000000000E-002    6.202897806272038E-002
  1.640000000000000E-002    6.241881052160737E-002
  1.650000000000000E-002    6.278877445607386E-002
  1.660000000000000E-002    6.313822813081969E-002
  1.670000000000000E-002    6.346653025782331E-002
  1.680000000000000E-002    6.377305666771821E-002
  1.690000000000000E-002    6.405717544014276E-002
  1.700000000000000E-002    6.431827590541045E-002
  1.710000000000000E-002    6.455574421990409E-002
  1.720000000000000E-002    6.476898016755067E-002
  1.730000000000000E-002    6.495740002903889E-002
  1.740000000000000E-002    6.512042803374259E-002
  1.750000000000000E-002    6.525750194223146E-002
  1.760000000000000E-002    6.536806359048945E-002
  1.770000000000000E-002    6.545158233755208E-002
  1.780000000000000E-002    6.550753555982555E-002
  1.790000000000000E-002    6.553540980046765E-002
  1.800000000000000E-002    6.553471598552940E-002
  1.810000000000000E-002    6.550498204618005E-002
  1.820000000000000E-002    6.544575209535966E-002
  1.830000000000000E-002    6.535659759604301E-002
  1.840000000000000E-002    6.523709974512831E-002
  1.850000000000000E-002    6.508687319571146E-002
  1.860000000000000E-002    6.490554449261927E-002
  1.870000000000000E-002    6.469277207224956E-002