 -4.000000000000000E-002    0.000000000000000E+000
 -3.990000000000000E-002    0.000000000000000E+000
 -3.980000000000000E-002    0.000000000000000E+000
 -3.970000000000000E-002    3.414363719798848E-016
 -3.960000000000000E-002    2.072194492090066E-015
 -3.950000000000000E-002    6.926575654244595E-015
 -3.940000000000000E-002    1.682512748782988E-014
 -3.930000000000000E-002    3.345203607277964E-014
 -3.920000000000000E-002    5.916069202522338E-014
 -3.910000000000000E-002    1.007475370826039E-013
 -3.900000000000000E-002    1.771049546499432E-013
 -3.890000000000000E-002    3.302218059692170E-013
 -3.880000000000000E-002    6.366288820185819E-013
 -3.870000000000000E-002    1.213803618068725E-012
 -3.860000000000000E-002    2.214208195283364E-012
 -3.850000000000000E-002    3.799538995082633E-012
 -3.840000000000000E-002    6.090312111102217E-012
 -3.830000000000000E-002    9.091193125813249E-012
 -3.820000000000000E-002    1.260017446525936E-011
 -3.810000000000000E-002    1.611813763234285E-011
 -3.800000000000000E-002    1.878272782406203E-011
 -3.790000000000000E-002    1.935426047667723E-011
 -3.780000000000000E-002    1.627981100989780E-011
 -3.770000000000000E-002    7.853057751957600E-012
 -3.760000000000000E-002   -7.527137659071198E-012
 -3.750000000000000E-002   -3.101636615456711E-011
 -3.740000000000000E-002   -6.294066359723241E-011
 -3.730000000000000E-002   -1.024259324632178E-010
 -3.720000000000000E-002   -1.471101247149140E-010
 -3.710000000000000E-002   -1.930093441619480E-010
 -3.700000000000000E-002   -2.345984953599715E-010
 -3.690000000000000E-002   -2.651440096761788E-010
 -3.680000000000000E-002   -2.772926630161966E-010
 -3.670000000000000E-002   -2.638816672195379E-010
 -3.660000000000000E-002   -2.188955895756933E-010
 -3.650000000000000E-002   -1.384620293157420E-010
 -3.640000000000000E-002   -2.175742925703023E-011
 -3.630000000000000E-002    1.283119320178798E-010
 -3.620000000000000E-002    3.047753315404023E-010
 -3.610000000000000E-002    4.967010142434761E-010
 -3.600000000000000E-002    6.897839851047093E-010
 -3.590000000000000E-002    8.674089784971051E-010
 -3.580000000000000E-002    1.012121003041049E-009
 -3.570000000000000E-002    1.107376747437365E-009
 -3.560000000000000E-002    1.139405049934280E-009
 -3.550000000000000E-002    1.098967639625410E-009
 -3.540000000000000E-002    9.827993717761969E-010
 -3.530000000000000E-002    7.945154063873500E-010
 -3.520000000000000E-002    5.448062949772362E-010
 -3.510000000000000E-002    2.508037050426398E-010
 -3.500000000000000E-002   -6.541804196398307E-011
 -3.490000000000000E-002   -3.791346822038514E-010
 -3.480000000000000E-002   -6.658769736806805E-010
 -3.470000000000000E-002   -9.046516615241019E-010
 -3.460000000000000E-002   -1.081090320866181E-009
 -3.450000000000000E-002   -1.190073605949500E-009
 -3.440000000000000E-002   -1.237373839511490E-009
 -3.430000000000000E-002   -1.239912346697816E-009
 -3.420000000000000E-002   -1.224355032779392E-009
 -3.410000000000000E-002   -1.223966098752108E-009
 -3.400000000000000E-002   -1.273883594329893E-009
 -3.390000000000000E-002   -1.405251765112890E-009
 -3.380000000000000E-002   -1.638893704103583E-009
 -3.370000000000000E-002   -1.979405569877065E-009
 -3.360000000000000E-002   -2.410636508441818E-009
 -3.350000000000000E-002   -2.893477814784983E-009
 -3.340000000000000E-002   -3.366676941005692E-009
 -3.330000000000000E-002   -3.751050153517137E-009
 -3.320000000000000E-002   -3.957003166463437E-009
 -3.310000000000000E-002   -3.894752788353075E-009
 -3.300000000000000E-002   -3.486149853190104E-009
 -3.290000000000000E-002   -2.676604642913829E-009
 -3.280000000000000E-002   -1.445413383459312E-009
 -3.270000000000000E-002    1.871863805140874E-010
 -3.260000000000000E-002    2.157610585071899E-009
 -3.250000000000000E-002    4.362005480713703E-009
 -3.240000000000000E-002    6.664905129357305E-009
 -3.230000000000000E-002    8.912733347747073E-009
 -3.220000000000000E-002    1.095063532890225E-008
 -3.210000000000000E-002    1.264047893895259E-008
 -3.200000000000000E-002    1.387751381786076E-008
 -3.190000000000000E-002    1.460318034853012E-008
 -3.180000000000000E-002    1.481195263653522E-008
 -3.170000000000000E-002    1.455083805210546E-008
 -3.160000000000000E-002    1.391118801273494E-008
 -3.150000000000000E-002    1.301358543460691E-008
 -3.140000000000000E-002    1.198769990237871E-008
 -3.130000000000000E-002    1.094987034946732E-008
 -3.120000000000000E-002    9.981700854213899E-009
 -3.110000000000000E-002    9.112998479537062E-009
 -3.100000000000000E-002    8.311983359906681E-009
 -3.090000000000000E-002    7.484769007561157E-009
 -3.080000000000000E-002    6.484899722290833E-009
 -3.070000000000000E-002    5.132332534570905E-009
 -3.060000000000000E-002    3.239826639575946E-009
 -3.050000000000000E-002    6.435616117419023E-010
 -3.040000000000000E-002   -2.765984614685488E-009
 -3.030000000000000E-002   -7.017137276848125E-009
 -3.020000000000000E-002   -1.203804319525837E-008
 -3.010000000000000E-002   -1.764867780777015E-008
 -3.000000000000000E-002   -2.356566590536731E-008
 -2.990000000000000E-002   -2.942007139730340E-008
 -2.980000000000000E-002   -3.478666233094733E-008
 -2.970000000000000E-002   -3.922153604269454E-008
 -2.960000000000000E-002   -4.230363145633896E-008
 -2.950000000000000E-002   -4.367486732702917E-008
 -2.940000000000000E-002   -4.307328827958083E-008
 -2.930000000000000E-002   -4.035404748192819E-008
 -2.920000000000000E-002   -3.549401125805100E-008
 -2.910000000000000E-002   -2.857739360721109E-008
 -2.900000000000000E-002   -1.976186742782976E-008
 -2.890000000000000E-002   -9.226958520065968E-009
 -2.880000000000000E-002    2.891317026186991E-009
 -2.870000000000000E-002    1.657320137375964E-008
 -2.860000000000000E-002    3.198755403800306E-008
 -2.850000000000000E-002    4.955523709887304E-008
 -2.840000000000000E-002    6.999468427257632E-008
 -2.830000000000000E-002    9.434244066329101E-008
 -2.820000000000000E-002    1.239433059734722E-007
 -2.810000000000000E-002    1.604080744319165E-007
 -2.800000000000000E-002    2.055404773001344E-007
 -2.790000000000000E-002    2.612394619224287E-007
 -2.780000000000000E-002    3.293858183254992E-007
 -2.770000000000000E-002    4.117260659063633E-007
 -2.760000000000000E-002    5.097676085352652E-007
 -2.750000000000000E-002    6.246991855841231E-007
 -2.740000000000000E-002    7.573481200434718E-007
 -2.730000000000000E-002    9.081836538329388E-007
 -2.720000000000000E-002    1.077367818428186E-006
 -2.710000000000000E-002    1.264851330575605E-006
 -2.700000000000000E-002    1.470504623090457E-006
 -2.690000000000000E-002    1.694269257866847E-006
 -2.680000000000000E-002    1.936310123588699E-006
 -2.670000000000000E-002    2.197149339016946E-006
 -2.660000000000000E-002    2.477763174876302E-006
 -2.650000000000000E-002    2.779625980018056E-006
 -2.640000000000000E-002    3.104694483272481E-006
 -2.630000000000000E-002    3.455334294494978E-006
 -2.620000000000000E-002    3.834191487650297E-006
 -2.610000000000000E-002    4.244029675312885E-006
 -2.600000000000000E-002    4.687552835468496E-006
 -2.590000000000000E-002    5.167234601570624E-006
 -2.580000000000000E-002    5.685180749119545E-006
 -2.570000000000000E-002    6.243039348754425E-006
 -2.560000000000000E-002    6.841974621711665E-006
 -2.550000000000000E-002    7.482703294194640E-006
 -2.540000000000000E-002    8.165593007171163E-006
 -2.530000000000000E-002    8.890803522436257E-006
 -2.520000000000000E-002    9.658455153135181E-006
 -2.510000000000000E-002    1.046879988217054E-005
 -2.500000000000000E-002    1.132237885988876E-005
 -2.490000000000000E-002    1.222014032595462E-005
 -2.480000000000000E-002    1.316351708807823E-005
 -2.470000000000000E-002    1.415445088714823E-005
 -2.460000000000000E-002    1.519537611869781E-005
 -2.450000000000000E-002    1.628917233747501E-005
 -2.440000000000000E-002    1.743909351175193E-005
 -2.430000000000000E-002    1.864870044819687E-005
 -2.420000000000000E-002    1.992180006573435E-005
 -2.410000000000000E-002    2.126241055936943E-005
 -2.400000000000000E-002    2.267475124043878E-005
 -2.390000000000000E-002    2.416324382068175E-005
 -2.380000000000000E-002    2.573254601229738E-005
 -2.370000000000000E-002    2.738756808072963E-005
 -2.360000000000000E-002    2.913349673604361E-005
 -2.350000000000000E-002    3.097579175940650E-005
 -2.340000000000000E-002    3.292016444168166E-005
 -2.330000000000000E-002    3.497252739601254E-005
 -2.320000000000000E-002    3.713893711203907E-005
 -2.310000000000000E-002    3.942552731277664E-005
 -2.300000000000000E-002    4.183844845081986E-005
 -2.290000000000000E-002    4.438383724621130E-005
 -2.280000000000000E-002    4.706781451212234E-005
 -2.270000000000000E-002    4.989653339807951E-005
 -2.260000000000000E-002    5.287625831608582E-005
 -2.250000000000000E-002    5.601349027805580E-005
 -2.240000000000000E-002    5.931511345882945E-005
 -2.230000000000000E-002    6.278854379165981E-005
 -2.220000000000000E-002    6.644187806028145E-005
 -2.210000000000000E-002    7.028401922535341E-005
 -2.200000000000000E-002    7.432475560835468E-005
 -2.190000000000000E-002    7.857480792045611E-005
 -2.180000000000000E-002    8.304584281979357E-005
 -2.170000000000000E-002    8.775040071984974E-005
 -2.160000000000000E-002    9.270183535925412E-005
 -2.150000000000000E-002    9.791423072185876E-005
 -2.140000000000000E-002    1.034022512678782E-004
 -2.130000000000000E-002    1.091810587900869E-004
 -2.120000000000000E-002    1.152661792211297E-004
 -2.110000000000000E-002    1.216734171902751E-004
 -2.100000000000000E-002    1.284187915997454E-004
 -2.090000000000000E-002    1.355184777587702E-004
 -2.080000000000000E-002    1.429887950766883E-004
 -2.070000000000000E-002    1.508462443181934E-004
 -2.060000000000000E-002    1.591075556235878E-004
 -2.050000000000000E-002    1.677897984481413E-004
 -2.040000000000000E-002    1.769105383001120E-004
 -2.030000000000000E-002    1.864880507681530E-004
 -2.020000000000000E-002    1.965414589392528E-004
 -2.010000000000000E-002    2.070910140001125E-004
 -2.000000000000000E-002    2.181582914172816E-004
 -1.990000000000000E-002    2.297663282930149E-004
 -1.980000000000000E-002    2.419397705456511E-004
 -1.970000000000000E-002    2.547049056622547E-004
 -1.960000000000000E-002    2.680896218466651E-004
 -1.950000000000000E-002    2.821233308025724E-004
 -1.940000000000000E-002    2.968367272278435E-004
 -1.930000000000000E-002    3.122616977545165E-004
 -1.920000000000000E-002    3.284310613481388E-004
 -1.910000000000000E-002    3.453783961739198E-004
 -1.900000000000000E-002    3.631379955110421E-004
 -1.890000000000000E-002    3.817448469637826E-004
 -1.880000000000000E-002    4.012347280963190E-004
 -1.870000000000000E-002    4.216443358560604E-004
 -1.860000000000000E-002    4.430116272759344E-004
 -1.850000000000000E-002    4.653760619977162E-004
 -1.840000000000000E-002    4.887788016609290E-004
 -1.830000000000000E-002    5.132629477144105E-004
 -1.820000000000000E-002    5.388735829119474E-004
 -1.810000000000000E-002    5.656578139372368E-004
 -1.800000000000000E-002    5.936647249847350E-004
 -1.790000000000000E-002    6.229449527140679E-004
 -1.780000000000000E-002    6.535505159078444E-004
 -1.770000000000000E-002    6.855346860741305E-004
 -1.760000000000000E-002    7.189515524095601E-004
 -1.750000000000000E-002    7.538560245547268E-004
 -1.740000000000000E-002    7.903038073771137E-004
 -1.730000000000000E-002    8.283516206952971E-004
 -1.720000000000000E-002    8.680573589558442E-004
 -1.710000000000000E-002    9.094804902363056E-004
 -1.700000000000000E-002    9.526824504701144E-004
 -1.690000000000000E-002    9.977270437855131E-004
 -1.680000000000000E-002    1.044680687778880E-003
 -1.670000000000000E-002    1.093612535759474E-003
 -1.660000000000000E-002    1.144594597237346E-003
 -1.650000000000000E-002    1.197701577883434E-003
 -1.640000000000000E-002    1.253010766903311E-003
 -1.630000000000000E-002    1.310601711086502E-003
 -1.620000000000000E-002    1.370555818744955E-003
 -1.610000000000000E-002    1.432956324107625E-003
 -1.600000000000000E-002    1.497888043030234E-003
 -1.590000000000000E-002    1.565437207038257E-003
 -1.580000000000000E-002    1.635691660096750E-003
 -1.570000000000000E-002    1.708741075637980E-003
 -1.560000000000000E-002    1.784676811829706E-003
 -1.550000000000000E-002    1.863592379855665E-003
 -1.540000000000000E-002    1.945583433769470E-003
 -1.530000000000000E-002    2.030747574889698E-003
 -1.520000000000000E-002    2.119184697753269E-003
 -1.510000000000000E-002    2.210996817756929E-003
 -1.500000000000000E-002    2.306287387842954E-003
 -1.490000000000000E-002    2.405161347624243E-003
 -1.480000000000000E-002    2.507724806744880E-003
 -1.470000000000000E-002    2.614085629424785E-003
 -1.460000000000000E-002    2.724352501612663E-003
 -1.450000000000000E-002    2.838635380335998E-003
 -1.440000000000000E-002    2.957045719724198E-003
 -1.430000000000000E-002    3.079697220181204E-003
 -1.420000000000000E-002    3.206705375437145E-003
 -1.410000000000000E-002    3.338188003510999E-003
 -1.400000000000000E-002    3.474265534074660E-003
 -1.390000000000000E-002    3.615060768845476E-003
 -1.380000000000000E-002    3.760698847677772E-003
 -1.370000000000000E-002    3.911306684712811E-003
 -1.360000000000000E-002    4.067012718207298E-003
 -1.350000000000000E-002    4.227946490948270E-003
 -1.340000000000000E-002    4.394237687968940E-003
 -1.330000000000000E-002    4.566016544966183E-003
 -1.320000000000000E-002    4.743412367197077E-003
 -1.310000000000000E-002    4.926554506342345E-003
 -1.300000000000000E-002    5.115572259771021E-003
 -1.290000000000000E-002    5.310594026823397E-003
 -1.280000000000000E-002    5.511748360026511E-003
 -1.270000000000000E-002    5.719163734657126E-003
 -1.260000000000000E-002    5.932968890138076E-003
 -1.250000000000000E-002    6.153292578305050E-003
 -1.240000000000000E-002    6.380263118540166E-003
 -1.230000000000000E-002    6.614008182475605E-003
 -1.220000000000000E-002    6.854655071885577E-003
 -1.210000000000000E-002    7.102328705937368E-003
 -1.200000000000000E-002    7.357151898963023E-003
 -1.190000000000000E-002    7.619245788159872E-003
 -1.180000000000000E-002    7.888728105902408E-003
 -1.170000000000000E-002    8.165713467025437E-003
 -1.160000000000000E-002    8.450313103170914E-003
 -1.150000000000000E-002    8.742635179726749E-003
 -1.140000000000000E-002    9.042783601481010E-003
 -1.130000000000000E-002    9.350859499502043E-003
 -1.120000000000000E-002    9.666960139068974E-003
 -1.110000000000000E-002    9.991178822295022E-003
 -1.100000000000000E-002    1.032360445381091E-002
 -1.090000000000000E-002    1.066432040175356E-002
 -1.080000000000000E-002    1.101340489872106E-002
 -1.070000000000000E-002    1.137093001673983E-002
 -1.060000000000000E-002    1.173695963659522E-002
 -1.050000000000000E-002    1.211155242141636E-002
 -1.040000000000000E-002    1.249475830656729E-002
 -1.030000000000000E-002    1.288661818582251E-002
 -1.020000000000000E-002    1.328716551578526E-002
 -1.010000000000000E-002    1.369642380501961E-002
 -1.000000000000000E-002    1.411440884230416E-002
 -9.899999999999999E-003    1.454112637591077E-002
 -9.800000000000000E-003    1.497657247288997E-002
 -9.699999999999999E-003    1.542073185073160E-002
 -9.599999999999999E-003    1.587357844813916E-002
 -9.500000000000000E-003    1.633507367824697E-002
 -9.399999999999999E-003    1.680516701465446E-002
 -9.299999999999999E-003    1.728379384820236E-002
 -9.200000000000000E-003    1.777087263542915E-002
 -9.099999999999999E-003    1.826630967756189E-002
 -8.999999999999999E-003    1.876999306289567E-002
 -8.900000000000000E-003    1.928179567404341E-002
 -8.799999999999999E-003    1.980157225618940E-002
 -8.699999999999999E-003    2.032916241633370E-002
 -8.600000000000000E-003    2.086438692437203E-002
 -8.499999999999999E-003    2.140705016490882E-002
 -8.399999999999999E-003    2.195693561161571E-002
 -8.300000000000000E-003    2.251381087639572E-002
 -8.199999999999999E-003    2.307742136237877E-002
 -8.100000000000000E-003    2.364749418412661E-002
 -8.000000000000000E-003    2.422373229265569E-002
 -7.899999999999999E-003    2.480581867814884E-002
 -7.800000000000000E-003    2.539340839977868E-002
 -7.699999999999999E-003    2.598613330895696E-002
 -7.599999999999999E-003    2.658360051739897E-002
 -7.499999999999999E-003    2.718539260586283E-002
 -7.399999999999999E-003    2.779106474164408E-002
 -7.299999999999999E-003    2.840014619756070E-002
 -7.199999999999999E-003    2.901213934694412E-002
 -7.100000000000000E-003    2.962651692427595E-002
 -6.999999999999999E-003    3.024272656629438E-002
 -6.899999999999999E-003    3.086018638141394E-002
 -6.800000000000000E-003    3.147828398145761E-002
 -6.699999999999999E-003    3.209637792005736E-002
 -6.599999999999999E-003    3.271379324007256E-002
 -6.499999999999999E-003    3.332982280207950E-002
 -6.399999999999999E-003    3.394372409867227E-002
 -6.299999999999999E-003    3.455472509953385E-002
 -6.199999999999999E-003    3.516201260307050E-002
 -6.100000000000000E-003    3.576474025149438E-002
 -5.999999999999999E-003    3.636202451461261E-002
 -5.899999999999999E-003    3.695295223996548E-002
 -5.800000000000000E-003    3.753657312524408E-002
 -5.699999999999999E-003    3.811189665093345E-002
 -5.599999999999999E-003    3.867790221577057E-002
 -5.499999999999999E-003    3.923352750033731E-002
 -5.399999999999999E-003    3.977767838860589E-002
 -5.299999999999999E-003    4.030922204761443E-002
 -5.199999999999999E-003    4.082698347728728E-002
 -5.099999999999999E-003    4.132975207862397E-002
 -4.999999999999999E-003    4.181627552202216E-002
 -4.899999999999999E-003    4.228525927117089E-002
 -4.799999999999999E-003    4.273537442348377E-002
 -4.699999999999999E-003    4.316524911504641E-002
 -4.599999999999999E-003    4.357347270471310E-002
 -4.499999999999999E-003    4.395859383560416E-002
 -4.399999999999999E-003    4.431912338038696E-002
 -4.299999999999999E-003    4.465353100073257E-002
 -4.199999999999999E-003    4.496025076500437E-002
 -4.099999999999999E-003    4.523767642190256E-002
 -3.999999999999999E-003    4.548416873218324E-002
 -3.899999999999999E-003    4.569804280054572E-002
 -3.799999999999999E-003    4.587758589005914E-002
 -3.699999999999999E-003    4.602103372680997E-002
 -3.599999999999999E-003    4.612659353798217E-002
 -3.499999999999999E-003    4.619243068313678E-002
 -3.399999999999999E-003    4.621667565967943E-002
 -3.299999999999999E-003    4.619742104417789E-002
 -3.199999999999999E-003    4.613272862643460E-002
 -3.099999999999999E-003    4.602062007994281E-002
 -2.999999999999999E-003    4.585908776896190E-002
 -2.899999999999999E-003    4.564609376858469E-002
 -2.799999999999999E-003    4.537957003962562E-002
 -2.699999999999999E-003    4.505742353307145E-002
 -2.599999999999999E-003    4.467752959993621E-002
 -2.499999999999999E-003    4.423773634189027E-002
 -2.399999999999999E-003    4.373586764585420E-002
 -2.299999999999999E-003    4.316972492369345E-002
 -2.199999999999999E-003    4.253708312653687E-002
 -2.099999999999999E-003    4.183569804671499E-002
 -1.999999999999999E-003    4.106330026201015E-002
 -1.899999999999999E-003    4.021760873434235E-002
 -1.799999999999999E-003    3.929632173285386E-002
 -1.699999999999999E-003    3.829712931207157E-002
 -1.599999999999999E-003    3.721770682482407E-002
 -1.499999999999999E-003    3.605572201385512E-002
 -1.399999999999999E-003    3.480883904428207E-002
 -1.299999999999999E-003    3.347471422468433E-002
 -1.199999999999999E-003    3.205100738513618E-002
 -1.099999999999999E-003    3.053537331460072E-002
 -9.999999999999989E-004    2.892547181290592E-002
 -8.999999999999990E-004    2.721896549081310E-002
 -7.999999999999990E-004    2.541352596511100E-002
 -6.999999999999989E-004    2.350683501126299E-002
 -5.999999999999990E-004    2.149658528497590E-002
 -4.999999999999989E-004    1.938048906979628E-002
 -3.999999999999989E-004    1.715627316018712E-002
 -2.999999999999989E-004    1.482169189415768E-002
 -1.999999999999989E-004    1.237452586789264E-002
 -9.999999999999892E-005    9.812584305819862E-003
  1.084202172485504E-018    7.133711698111771E-003
  1.000000000000011E-004    4.335786053001246E-003
  2.000000000000011E-004    1.416727119989176E-003
  3.000000000000011E-004   -1.625498132707521E-003
  4.000000000000011E-004   -4.792885168895025E-003
  5.000000000000011E-004   -8.087373829155186E-003
  6.000000000000011E-004   -1.151084874875358E-002
  7.000000000000011E-004   -1.506514182819021E-002
  8.000000000000011E-004   -1.875202358466859E-002
  9.000000000000012E-004   -2.257319163890201E-002
  1.000000000000001E-003   -2.653028811688869E-002
  1.100000000000001E-003   -3.062486691627815E-002
  1.200000000000001E-003   -3.485841846148394E-002
  1.300000000000001E-003   -3.923234129296895E-002
  1.400000000000001E-003   -4.374795492773283E-002
  1.500000000000001E-003   -4.840648724368029E-002
  1.600000000000001E-003   -5.320907575790160E-002
  1.700000000000001E-003   -5.815676224220051E-002
  1.800000000000001E-003   -6.325049106418570E-002
  1.900000000000001E-003   -6.849109847702756E-002
  2.000000000000001E-003   -7.387930902542841E-002
  2.100000000000001E-003   -7.941574611995311E-002
  2.200000000000001E-003   -8.510091242874954E-002
  2.300000000000001E-003   -9.093518654057690E-002
  2.400000000000001E-003   -9.691884219918528E-002
  2.500000000000001E-003   -0.103051995733254     
  2.600000000000001E-003   -0.109334657179894     
  2.700000000000001E-003   -0.115766690047827     
  2.800000000000001E-003   -0.122347828004563     
  2.900000000000001E-003   -0.129077650873128     
  3.000000000000001E-003   -0.135955601041358     
  3.100000000000001E-003   -0.142980972558242     
  3.200000000000001E-003   -0.150152902547779     
  3.300000000000001E-003   -0.157470391417434     
  3.400000000000001E-003   -0.164932244836775     
  3.500000000000001E-003   -0.172537152312550     
  3.600000000000001E-003   -0.180283621743063     
  3.700000000000001E-003   -0.188169983827978     
  3.800000000000001E-003   -0.196194417908791     
  3.900000000000001E-003   -0.204354934119971     
  4.000000000000001E-003   -0.212649353748376     
  4.100000000000001E-003   -0.221075327293562     
  4.200000000000001E-003   -0.229630336906292     
  4.300000000000001E-003   -0.238311678474520     
  4.400000000000001E-003   -0.247116460945281     
  4.500000000000001E-003   -0.256041611491980     
  4.600000000000002E-003   -0.265083885511130     
  4.700000000000001E-003   -0.274239856739218     
  4.800000000000001E-003   -0.283505886080903     
  4.900000000000002E-003   -0.292878181762933     
  5.000000000000001E-003   -0.302352768556097     
  5.100000000000001E-003   -0.311925439392572     
  5.200000000000001E-003   -0.321591833692221     
  5.300000000000002E-003   -0.331347409237115     
  5.400000000000001E-003   -0.341187437450338     
  5.500000000000001E-003   -0.351106990665907     
  5.600000000000002E-003   -0.361100971348956     
  5.700000000000001E-003   -0.371164064523767     
  5.800000000000001E-003   -0.381290850512992     
  5.900000000000002E-003   -0.391475648764403     
  6.000000000000001E-003   -0.401712619152935     
  6.100000000000001E-003   -0.411995782076521     
  6.200000000000002E-003   -0.422318933251457     
  6.300000000000002E-003   -0.432675751784162     
  6.400000000000001E-003   -0.443059680655767     
  6.500000000000001E-003   -0.453464027310371     
  6.600000000000002E-003   -0.463881971704987     
  6.700000000000001E-003   -0.474306510685812     
  6.800000000000001E-003   -0.484730445130926     
  6.900000000000002E-003   -0.495146469528637     
  7.000000000000001E-003   -0.505547159601654     
  7.100000000000001E-003   -0.515924836810510     
  7.200000000000002E-003   -0.526271807404403     
  7.300000000000002E-003   -0.536580201575885     
  7.400000000000001E-003   -0.546841997695332     
  7.500000000000001E-003   -0.557049060585413     
  7.600000000000002E-003   -0.567193217067247     
  7.700000000000001E-003   -0.577266060181050     
  7.800000000000001E-003   -0.587259142319161     
  7.900000000000001E-003   -0.597163947971868     
  8.000000000000002E-003   -0.606971850596987     
  8.100000000000001E-003   -0.616674126698465     
  8.200000000000001E-003   -0.626261961810765     
  8.300000000000002E-003   -0.635726547257455     
  8.400000000000001E-003   -0.645058918320546     
  8.500000000000002E-003   -0.654250133244036     
  8.600000000000002E-003   -0.663291164267867     
  8.700000000000001E-003   -0.672172987229712     
  8.800000000000002E-003   -0.680886482556473     
  8.900000000000002E-003   -0.689422559658625     
  9.000000000000001E-003   -0.697772115597221     
  9.100000000000002E-003   -0.705926083077754     
  9.200000000000002E-003   -0.713875307491847     
  9.300000000000001E-003   -0.721610740037069     
  9.400000000000002E-003   -0.729123251951643     
  9.500000000000001E-003   -0.736403881801127     
  9.600000000000001E-003   -0.743443610450958     
  9.700000000000002E-003   -0.750233529864788     
  9.800000000000001E-003   -0.756764768452225     
  9.900000000000001E-003   -0.763028515536236     
  1.000000000000000E-002   -0.769016100479784     
  1.010000000000000E-002   -0.774718904702163     
  1.020000000000000E-002   -0.780128384944745     
  1.030000000000000E-002   -0.785236211167579     
  1.040000000000000E-002   -0.790034065995458     
  1.050000000000000E-002   -0.794513801078313     
  1.060000000000000E-002   -0.798667432577395     
  1.070000000000000E-002   -0.802487084263902     
  1.080000000000000E-002   -0.805965056243819     
  1.090000000000000E-002   -0.809093894479810     
  1.100000000000000E-002   -0.811866231241583     
  1.110000000000000E-002   -0.814274904417676     
  1.120000000000000E-002   -0.816312986315489     
  1.130000000000000E-002   -0.817973757952406     
  1.140000000000000E-002   -0.819250699622887     
  1.150000000000000E-002   -0.820137494457063     
  1.160000000000000E-002   -0.820628114462296     
  1.170000000000000E-002   -0.820716725548087     
  1.180000000000000E-002   -0.820397791558506     
  1.190000000000000E-002   -0.819666031910715     
  1.200000000000000E-002   -0.818516469990362     
  1.210000000000000E-002   -0.816944307654292     
  1.220000000000000E-002   -0.814945162757579     
  1.230000000000000E-002   -0.812514795974504     
  1.240000000000000E-002   -0.809649431424694     
  1.250000000000000E-002   -0.806345456226311     
  1.260000000000000E-002   -0.802599655095339     
  1.270000000000000E-002   -0.798409055927704     
  1.280000000000000E-002   -0.793771121876648     
  1.290000000000000E-002   -0.788683591133349     
  1.300000000000000E-002   -0.783144571327902     
  1.310000000000000E-002   -0.777152462006385     
  1.320000000000000E-002   -0.770706050730370     
  1.330000000000000E-002   -0.763804495992220     
  1.340000000000000E-002   -0.756447249795154     
  1.350000000000000E-002   -0.748634178411967     
  1.360000000000000E-002   -0.740365527593341     
  1.370000000000000E-002   -0.731641837674331     
  1.380000000000000E-002   -0.722464074464450     
  1.390000000000000E-002   -0.712833593839945     
  1.400000000000000E-002   -0.702752087556567     
  1.410000000000000E-002   -0.692221627899590     
  1.420000000000000E-002   -0.681244659495509     
  1.430000000000000E-002   -0.669824081825525     
  1.440000000000000E-002   -0.657963069414206     
  1.450000000000000E-002   -0.645665201680944     
  1.460000000000000E-002   -0.632934518621376     
  1.470000000000000E-002   -0.619775307055928     
  1.480000000000000E-002   -0.606192368128695     
  1.490000000000000E-002   -0.592190771794331     
  1.500000000000000E-002   -0.577776026932652     
  1.510000000000000E-002   -0.562953948942630     
  1.520000000000000E-002   -0.547730751771376     
  1.530000000000000E-002   -0.532113045538137     
  1.540000000000000E-002   -0.516107703046325     
  1.550000000000000E-002   -0.499722039091438     
  1.560000000000000E-002   -0.482963729377968     
  1.570000000000000E-002   -0.465840701650179     
  1.580000000000000E-002   -0.448361288368509     
  1.590000000000000E-002   -0.430534109747434     
  1.600000000000000E-002   -0.412368218886535     
  1.610000000000000E-002   -0.393872883219471     
  1.620000000000000E-002   -0.375057725863254     
  1.630000000000000E-002   -0.355932704137503     
  1.640000000000000E-002   -0.336508047505879     
  1.650000000000000E-002   -0.316794297562516     
  1.660000000000000E-002   -0.296802243319349     
  1.670000000000000E-002   -0.276542966446938     
  1.680000000000000E-002   -0.256027778071946     
  1.690000000000000E-002   -0.235268291808180     
  1.700000000000000E-002   -0.214276327375908     
  1.710000000000000E-002   -0.193063949778942     
  1.720000000000000E-002   -0.171643454600752     
  1.730000000000000E-002   -0.150027341516824     
  1.740000000000000E-002   -0.128228321337618     
  1.750000000000000E-002   -0.106259303950543     
  1.760000000000000E-002   -8.413337569409179E-002
  1.770000000000000E-002   -6.186379560912535E-002
  1.780000000000000E-002   -3.946398230429117E-002
  1.790000000000000E-002   -1.694749971477891E-002
  1.800000000000000E-002    5.671951408930254E-003
  1.810000000000000E-002    2.838055473353595E-002
  1.820000000000000E-002    5.116438318964071E-002
  1.830000000000000E-002    7.400943042896317E-002
  1.840000000000000E-002    9.690161627341569E-002
  1.850000000000000E-002    0.119826763120972     
  1.860000000000000E-002    0.142770643753347     
  1.870000000000000E-002    0.165718984090515     