 -4.000000000000000E-002    0.000000000000000E+000
 -3.990000000000000E-002    0.000000000000000E+000
 -3.980000000000000E-002    0.000000000000000E+000
 -3.970000000000000E-002    0.000000000000000E+000
 -3.960000000000000E-002    0.000000000000000E+000
 -3.950000000000000E-002    0.000000000000000E+000
 -3.940000000000000E-002    0.000000000000000E+000
 -3.930000000000000E-002    0.000000000000000E+000
 -3.920000000000000E-002    0.000000000000000E+000
 -3.910000000000000E-002    0.000000000000000E+000
 -3.900000000000000E-002    0.000000000000000E+000
 -3.890000000000000E-002    0.000000000000000E+000
 -3.880000000000000E-002    0.000000000000000E+000
 -3.870000000000000E-002    0.000000000000000E+000
 -3.860000000000000E-002    0.000000000000000E+000
 -3.850000000000000E-002    0.000000000000000E+000
 -3.840000000000000E-002    0.000000000000000E+000
 -3.830000000000000E-002    0.000000000000000E+000
 -3.820000000000000E-002    0.000000000000000E+000
 -3.810000000000000E-002    0.000000000000000E+000
 -3.800000000000000E-002    0.000000000000000E+000
 -3.790000000000000E-002    0.000000000000000E+000
 -3.780000000000000E-002    0.000000000000000E+000
 -3.770000000000000E-002    0.000000000000000E+000
 -3.760000000000000E-002    0.000000000000000E+000
 -3.750000000000000E-002    0.000000000000000E+000
 -3.740000000000000E-002    0.000000000000000E+000
 -3.730000000000000E-002    0.000000000000000E+000
 -3.720000000000000E-002    0.000000000000000E+000
 -3.710000000000000E-002    0.000000000000000E+000
 -3.700000000000000E-002    0.000000000000000E+000
 -3.690000000000000E-002    0.000000000000000E+000
 -3.680000000000000E-002    0.000000000000000E+000
 -3.670000000000000E-002    0.000000000000000E+000
 -3.660000000000000E-002    0.000000000000000E+000
 -3.650000000000000E-002    0.000000000000000E+000
 -3.640000000000000E-002    0.000000000000000E+000
 -3.630000000000000E-002    0.000000000000000E+000
 -3.620000000000000E-002    0.000000000000000E+000
 -3.610000000000000E-002    0.000000000000000E+000
 -3.600000000000000E-002    0.000000000000000E+000
 -3.590000000000000E-002    0.000000000000000E+000
 -3.580000000000000E-002    0.000000000000000E+000
 -3.570000000000000E-002    0.000000000000000E+000
 -3.560000000000000E-002    0.000000000000000E+000
 -3.550000000000000E-002    0.000000000000000E+000
 -3.540000000000000E-002    0.000000000000000E+000
 -3.530000000000000E-002    0.000000000000000E+000
 -3.520000000000000E-002    0.000000000000000E+000
 -3.510000000000000E-002    0.000000000000000E+000
 -3.500000000000000E-002    0.000000000000000E+000
 -3.490000000000000E-002    0.000000000000000E+000
 -3.480000000000000E-002    0.000000000000000E+000
 -3.470000000000000E-002    0.000000000000000E+000
 -3.460000000000000E-002    0.000000000000000E+000
 -3.450000000000000E-002    0.000000000000000E+000
 -3.440000000000000E-002    0.000000000000000E+000
 -3.430000000000000E-002    0.000000000000000E+000
 -3.420000000000000E-002    0.000000000000000E+000
 -3.410000000000000E-002    0.000000000000000E+000
 -3.400000000000000E-002    0.000000000000000E+000
 -3.390000000000000E-002    0.000000000000000E+000
 -3.380000000000000E-002    0.000000000000000E+000
 -3.370000000000000E-002    0.000000000000000E+000
 -3.360000000000000E-002    0.000000000000000E+000
 -3.350000000000000E-002    0.000000000000000E+000
 -3.340000000000000E-002    0.000000000000000E+000
 -3.330000000000000E-002    0.000000000000000E+000
 -3.320000000000000E-002    0.000000000000000E+000
 -3.310000000000000E-002    0.000000000000000E+000
 -3.300000000000000E-002    0.000000000000000E+000
 -3.290000000000000E-002    0.000000000000000E+000
 -3.280000000000000E-002    0.000000000000000E+000
 -3.270000000000000E-002    0.000000000000000E+000
 -3.260000000000000E-002    0.000000000000000E+000
 -3.250000000000000E-002    0.000000000000000E+000
 -3.240000000000000E-002    0.000000000000000E+000
 -3.230000000000000E-002    0.000000000000000E+000
 -3.220000000000000E-002    0.000000000000000E+000
 -3.210000000000000E-002    0.000000000000000E+000
 -3.200000000000000E-002    0.000000000000000E+000
 -3.190000000000000E-002    0.000000000000000E+000
 -3.180000000000000E-002    0.000000000000000E+000
 -3.170000000000000E-002    0.000000000000000E+000
 -3.160000000000000E-002    0.000000000000000E+000
 -3.150000000000000E-002    0.000000000000000E+000
 -3.140000000000000E-002    0.000000000000000E+000
 -3.130000000000000E-002    0.000000000000000E+000
 -3.120000000000000E-002    0.000000000000000E+000
 -3.110000000000000E-002    0.000000000000000E+000
 -3.100000000000000E-002    0.000000000000000E+000
 -3.090000000000000E-002    0.000000000000000E+000
 -3.080000000000000E-002    0.000000000000000E+000
 -3.070000000000000E-002    0.000000000000000E+000
 -3.060000000000000E-002    0.000000000000000E+000
 -3.050000000000000E-002    0.000000000000000E+000
 -3.040000000000000E-002    0.000000000000000E+000
 -3.030000000000000E-002    0.000000000000000E+000
 -3.020000000000000E-002    0.000000000000000E+000
 -3.010000000000000E-002    0.000000000000000E+000
 -3.000000000000000E-002    0.000000000000000E+000
 -2.990000000000000E-002    0.000000000000000E+000
 -2.980000000000000E-002    0.000000000000000E+000
 -2.970000000000000E-002    0.000000000000000E+000
 -2.960000000000000E-002    0.000000000000000E+000
 -2.950000000000000E-002    0.000000000000000E+000
 -2.940000000000000E-002    0.000000000000000E+000
 -2.930000000000000E-002    0.000000000000000E+000
 -2.920000000000000E-002    0.000000000000000E+000
 -2.910000000000000E-002    0.000000000000000E+000
 -2.900000000000000E-002    0.000000000000000E+000
 -2.890000000000000E-002    0.000000000000000E+000
 -2.880000000000000E-002    0.000000000000000E+000
 -2.870000000000000E-002    0.000000000000000E+000
 -2.860000000000000E-002    0.000000000000000E+000
 -2.850000000000000E-002    0.000000000000000E+000
 -2.840000000000000E-002    0.000000000000000E+000
 -2.830000000000000E-002    0.000000000000000E+000
 -2.820000000000000E-002    0.000000000000000E+000
 -2.810000000000000E-002    0.000000000000000E+000
 -2.800000000000000E-002    0.000000000000000E+000
 -2.790000000000000E-002    0.000000000000000E+000
 -2.780000000000000E-002    0.000000000000000E+000
 -2.770000000000000E-002    0.000000000000000E+000
 -2.760000000000000E-002    0.000000000000000E+000
 -2.750000000000000E-002    0.000000000000000E+000
 -2.740000000000000E-002    0.000000000000000E+000
 -2.730000000000000E-002    0.000000000000000E+000
 -2.720000000000000E-002    0.000000000000000E+000
 -2.710000000000000E-002    0.000000000000000E+000
 -2.700000000000000E-002    0.000000000000000E+000
 -2.690000000000000E-002    0.000000000000000E+000
 -2.680000000000000E-002    0.000000000000000E+000
 -2.670000000000000E-002    0.000000000000000E+000
 -2.660000000000000E-002    0.000000000000000E+000
 -2.650000000000000E-002    0.000000000000000E+000
 -2.640000000000000E-002    0.000000000000000E+000
 -2.630000000000000E-002    0.000000000000000E+000
 -2.620000000000000E-002    0.000000000000000E+000
 -2.610000000000000E-002    0.000000000000000E+000
 -2.600000000000000E-002    0.000000000000000E+000
 -2.590000000000000E-002    0.000000000000000E+000
 -2.580000000000000E-002    0.000000000000000E+000
 -2.570000000000000E-002    0.000000000000000E+000
 -2.560000000000000E-002    0.000000000000000E+000
 -2.550000000000000E-002    0.000000000000000E+000
 -2.540000000000000E-002    0.000000000000000E+000
 -2.530000000000000E-002    0.000000000000000E+000
 -2.520000000000000E-002    0.000000000000000E+000
 -2.510000000000000E-002    0.000000000000000E+000
 -2.500000000000000E-002    0.000000000000000E+000
 -2.490000000000000E-002    1.924390591266381E-047
 -2.480000000000000E-002    3.848781182532762E-047
 -2.470000000000000E-002    3.848781182532762E-047
 -2.460000000000000E-002    3.848781182532762E-047
 -2.450000000000000E-002    1.924390591266381E-047
 -2.440000000000000E-002   -3.848781182532762E-047
 -2.430000000000000E-002   -6.671220716390120E-047
 -2.420000000000000E-002    1.174655620193765E-047
 -2.410000000000000E-002    2.002126543393647E-049
 -2.400000000000000E-002    7.897775019404888E-048
 -2.390000000000000E-002    1.503026787731171E-046
 -2.380000000000000E-002   -2.955616384658950E-046
 -2.370000000000000E-002   -6.787232218713675E-046
 -2.360000000000000E-002   -8.976701414887755E-046
 -2.350000000000000E-002   -1.204778123502269E-045
 -2.340000000000000E-002   -1.502905616089852E-045
 -2.330000000000000E-002   -1.497413003044307E-045
 -2.320000000000000E-002    9.088704836280019E-046
 -2.310000000000000E-002    4.073734088806335E-045
 -2.300000000000000E-002    9.084957914523378E-045
 -2.290000000000000E-002    1.495809903720426E-044
 -2.280000000000000E-002    2.138500629112507E-044
 -2.270000000000000E-002    2.579230711289401E-044
 -2.260000000000000E-002    2.566206889147378E-044
 -2.250000000000000E-002    1.691765255277014E-044
 -2.240000000000000E-002   -4.445827527043559E-045
 -2.230000000000000E-002   -4.341427278601185E-044
 -2.220000000000000E-002   -1.006490875693865E-043
 -2.210000000000000E-002   -1.730964577871555E-043
 -2.200000000000000E-002   -2.494215833146049E-043
 -2.190000000000000E-002   -3.101297948620382E-043
 -2.180000000000000E-002   -3.260755283899916E-043
 -2.170000000000000E-002   -2.554287631422229E-043
 -2.160000000000000E-002   -5.226947870202400E-044
 -2.150000000000000E-002    3.244264747918387E-043
 -2.140000000000000E-002    8.979863038832902E-043
 -2.130000000000000E-002    1.647104838115187E-042
 -2.120000000000000E-002    2.484896581813543E-042
 -2.110000000000000E-002    3.230439106536885E-042
 -2.100000000000000E-002    3.597787355898108E-042
 -2.090000000000000E-002    3.197044839039262E-042
 -2.080000000000000E-002    1.578023661214585E-042
 -2.070000000000000E-002   -1.686611139002466E-042
 -2.060000000000000E-002   -6.859855202403296E-042
 -2.050000000000000E-002   -1.384376550130932E-041
 -2.040000000000000E-002   -2.195242923672152E-041
 -2.030000000000000E-002   -2.969112519589351E-041
 -2.020000000000000E-002   -3.461441804394615E-041
 -2.010000000000000E-002   -3.335407841374118E-041
 -2.000000000000000E-002   -2.193776870504917E-041
 -1.990000000000000E-002    3.516522506337882E-042
 -1.980000000000000E-002    4.564347115770650E-041
 -1.970000000000000E-002    1.042492398586519E-040
 -1.960000000000000E-002    1.744469803957804E-040
 -1.950000000000000E-002    2.448635698699087E-040
 -1.940000000000000E-002    2.964430125964673E-040
 -1.930000000000000E-002    3.025928976804265E-040
 -1.920000000000000E-002    2.314969050152297E-040
 -1.910000000000000E-002    5.137422592419919E-041
 -1.900000000000000E-002   -2.608552370246307E-040
 -1.890000000000000E-002   -7.076948126235300E-040
 -1.880000000000000E-002   -1.257166072623160E-039
 -1.870000000000000E-002   -1.829371500628286E-039
 -1.860000000000000E-002   -2.287468515834324E-039
 -1.850000000000000E-002   -2.438258795694220E-039
 -1.840000000000000E-002   -2.048226026549777E-039
 -1.830000000000000E-002   -8.803142547535817E-040
 -1.820000000000000E-002    1.245620384657684E-039
 -1.810000000000000E-002    4.370273727804989E-039
 -1.800000000000000E-002    8.298750900280253E-039
 -1.790000000000000E-002    1.250802887589131E-038
 -1.780000000000000E-002    1.608463351401452E-038
 -1.770000000000000E-002    1.772704524300047E-038
 -1.760000000000000E-002    1.585076970502801E-038
 -1.750000000000000E-002    8.829432069189413E-039
 -1.740000000000000E-002   -4.610757987549004E-039
 -1.730000000000000E-002   -2.485585982993052E-038
 -1.720000000000000E-002   -5.078500884121578E-038
 -1.710000000000000E-002   -7.917854892247837E-038
 -1.700000000000000E-002   -1.043217167027233E-037
 -1.690000000000000E-002   -1.180180032029650E-037
 -1.680000000000000E-002   -1.102426368490707E-037
 -1.670000000000000E-002   -7.063282380874361E-038
 -1.660000000000000E-002    9.092032978744511E-039
 -1.650000000000000E-002    1.318723193415980E-037
 -1.640000000000000E-002    2.915695980756673E-037
 -1.630000000000000E-002    4.694236793777942E-037
 -1.620000000000000E-002    6.317074706636035E-037
 -1.610000000000000E-002    7.298278948869643E-037
 -1.600000000000000E-002    7.041893306048447E-037
 -1.590000000000000E-002    4.929050811322523E-037
 -1.580000000000000E-002    4.581864541242367E-038
 -1.570000000000000E-002   -6.567837535682170E-037
 -1.560000000000000E-002   -1.582884518781232E-036
 -1.550000000000000E-002   -2.628757659521145E-036
 -1.540000000000000E-002   -3.605920155533724E-036
 -1.530000000000000E-002   -4.241895927028306E-036
 -1.520000000000000E-002   -4.201875533846914E-036
 -1.510000000000000E-002   -3.136941012173820E-036
 -1.500000000000000E-002   -7.609526484279406E-037
 -1.490000000000000E-002    3.047715437325198E-036
 -1.480000000000000E-002    8.131434736650403E-036
 -1.470000000000000E-002    1.394661648684672E-035
 -1.460000000000000E-002    1.949492964511960E-035
 -1.450000000000000E-002    2.332826853906447E-035
 -1.440000000000000E-002    2.366366206803856E-035
 -1.430000000000000E-002    1.863607069338170E-035
 -1.420000000000000E-002    6.697920621896548E-036
 -1.410000000000000E-002   -1.285647640617818E-035
 -1.400000000000000E-002   -3.930404982797197E-035
 -1.390000000000000E-002   -6.995169528974322E-035
 -1.380000000000000E-002   -9.979089284929498E-035
 -1.370000000000000E-002   -1.215254810710180E-034
 -1.360000000000000E-002   -1.261477640981814E-034
 -1.350000000000000E-002   -1.041939223705965E-034
 -1.340000000000000E-002   -4.771275557970804E-035
 -1.330000000000000E-002    4.716847661161293E-035
 -1.320000000000000E-002    1.773928965019284E-034
 -1.310000000000000E-002    3.303629832264138E-034
 -1.300000000000000E-002    4.822876525804922E-034
 -1.290000000000000E-002    5.983196078012069E-034
 -1.280000000000000E-002    6.352897955758110E-034
 -1.270000000000000E-002    5.476211696144084E-034
 -1.260000000000000E-002    2.965408496495411E-034
 -1.250000000000000E-002   -1.379927103254110E-034
 -1.240000000000000E-002   -7.441223679021028E-034
 -1.230000000000000E-002   -1.466112199554451E-033
 -1.220000000000000E-002   -2.196816256921093E-033
 -1.210000000000000E-002   -2.778315210649790E-033
 -1.200000000000000E-002   -3.014251732354701E-033
 -1.190000000000000E-002   -2.696334780178146E-033
 -1.180000000000000E-002   -1.645355086792266E-033
 -1.170000000000000E-002    2.360452919081597E-034
 -1.160000000000000E-002    2.905488399443212E-033
 -1.150000000000000E-002    6.128553938254401E-033
 -1.140000000000000E-002    9.446162674578439E-033
 -1.130000000000000E-002    1.217749684244089E-032
 -1.120000000000000E-002    1.347320230941920E-032
 -1.110000000000000E-002    1.242878750916076E-032
 -1.100000000000000E-002    8.258943092005501E-033
 -1.090000000000000E-002    5.203301096997647E-034
 -1.080000000000000E-002   -1.064568869341051E-032
 -1.070000000000000E-002   -2.429535634167498E-032
 -1.060000000000000E-002   -3.854829368239440E-032
 -1.050000000000000E-002   -5.060114101718330E-032
 -1.040000000000000E-002   -5.694803509657333E-032
 -1.030000000000000E-002   -5.384565323157585E-032
 -1.020000000000000E-002   -3.802278369005787E-032
 -1.010000000000000E-002   -7.580753617243939E-033
 -1.000000000000000E-002    3.703277190984023E-032
 -9.899999999999999E-003    9.215789360067434E-032
 -9.800000000000000E-003    1.503960676053749E-031
 -9.699999999999999E-003    2.006746676219294E-031
 -9.599999999999999E-003    2.291273330004680E-031
 -9.500000000000000E-003    2.209279304462930E-031
 -9.399999999999999E-003    1.630652433899592E-031
 -9.299999999999999E-003    4.783755243263498E-032
 -9.200000000000000E-003   -1.233975154325110E-031
 -9.099999999999999E-003   -3.369195387730097E-031
 -8.999999999999999E-003   -5.646708326818487E-031
 -8.900000000000000E-003   -7.645523813865359E-031
 -8.799999999999999E-003   -8.838152596594909E-031
 -8.699999999999999E-003   -8.660276417016903E-031
 -8.600000000000000E-003   -6.615226465806204E-031
 -8.499999999999999E-003   -2.404541005112254E-031
 -8.399999999999999E-003    3.933033811455577E-031
 -8.300000000000000E-003    1.190026841890412E-030
 -8.199999999999999E-003    2.047021292211035E-030
 -8.100000000000000E-003    2.809903236564833E-030
 -8.000000000000000E-003    3.285194811644173E-030
 -7.899999999999999E-003    3.265838031214139E-030
 -7.800000000000000E-003    2.569125673266082E-030
 -7.699999999999999E-003    1.083736460609827E-030
 -7.599999999999999E-003   -1.180570968847925E-030
 -7.499999999999999E-003   -4.049990711562049E-030
 -7.399999999999999E-003   -7.161858118305058E-030
 -7.299999999999999E-003   -9.969828598235869E-030
 -7.199999999999999E-003   -1.178891966310037E-029
 -7.100000000000000E-003   -1.188561601009309E-029
 -6.999999999999999E-003   -9.610708393110573E-030
 -6.899999999999999E-003   -4.562839493658399E-030
 -6.800000000000000E-003    3.239918337106499E-030
 -6.699999999999999E-003    1.321295382357587E-029
 -6.599999999999999E-003    2.412145426906684E-029
 -6.499999999999999E-003    3.409990093419820E-029
 -6.399999999999999E-003    4.080724112703940E-029
 -6.299999999999999E-003    4.173372325037364E-029
 -6.199999999999999E-003    3.464994280900772E-029
 -6.100000000000000E-003    1.815607198959556E-029
 -5.999999999999999E-003   -7.745772616573397E-030
 -5.899999999999999E-003   -4.116448027097592E-029
 -5.800000000000000E-003   -7.804662226514881E-029
 -5.699999999999999E-003   -1.122457630528112E-028
 -5.599999999999999E-003   -1.360376362105824E-028
 -5.499999999999999E-003   -1.411289058319929E-028
 -5.399999999999999E-003   -1.201233079692495E-028
 -5.299999999999999E-003   -6.830410137983461E-029
 -5.199999999999999E-003    1.451996714127883E-029
 -5.099999999999999E-003    1.224548069605325E-028
 -4.999999999999999E-003    2.426564621041047E-028
 -4.899999999999999E-003    3.555663652588777E-028
 -4.799999999999999E-003    4.365636327832798E-028
 -4.699999999999999E-003    4.591711679286165E-028
 -4.599999999999999E-003    3.996855057549061E-028
 -4.499999999999999E-003    2.427727488678599E-028
 -4.399999999999999E-003   -1.276996374753824E-029
 -4.299999999999999E-003   -3.491798568164827E-028
 -4.199999999999999E-003   -7.270816728399123E-028
 -4.099999999999999E-003   -1.086258307375638E-027
 -3.999999999999999E-003   -1.350781908669543E-027
 -3.899999999999999E-003   -1.438883873634780E-027
 -3.799999999999999E-003   -1.277117568576719E-027
 -3.699999999999999E-003   -8.173802648344687E-028
 -3.599999999999999E-003   -5.433667924080368E-029
 -3.499999999999999E-003    9.600613340024514E-028
 -3.399999999999999E-003    2.108725438917111E-027
 -3.299999999999999E-003    3.211878266771456E-027
 -3.199999999999999E-003    4.042514851806421E-027
 -3.099999999999999E-003    4.355882693258543E-027
 -2.999999999999999E-003    3.931524525036961E-027
 -2.899999999999999E-003    2.623525871440640E-027
 -2.799999999999999E-003    4.116586271745465E-028
 -2.699999999999999E-003   -2.556286270223728E-027
 -2.599999999999999E-003   -5.941910104277506E-027
 -2.499999999999999E-003   -9.223727543083995E-027
 -2.399999999999999E-003   -1.174243237816383E-026
 -2.299999999999999E-003   -1.278643747471745E-026
 -2.199999999999999E-003   -1.171315924437622E-026
 -2.099999999999999E-003   -8.093191076338355E-027
 -1.999999999999999E-003   -1.856265565711664E-027
 -1.899999999999999E-003    6.588702546029536E-027
 -1.799999999999999E-003    1.629031838247733E-026
 -1.699999999999999E-003    2.577701970119202E-026
 -1.599999999999999E-003    3.318581050249341E-026
 -1.499999999999999E-003    3.650359129209576E-026
 -1.399999999999999E-003    3.390751879483640E-026
 -1.299999999999999E-003    2.416756970744415E-026
 -1.199999999999999E-003    7.052121561140442E-027
 -1.099999999999999E-003   -1.634032887436047E-026
 -9.999999999999989E-004   -4.340792761454245E-026
 -8.999999999999990E-004   -7.010905363826729E-026
 -7.999999999999990E-004   -9.131786051359194E-026
 -6.999999999999989E-004   -1.014866645719987E-025
 -5.999999999999990E-004   -9.557547437115358E-026
 -4.999999999999989E-004   -7.014687170705021E-026
 -3.999999999999989E-004   -2.446444489475568E-026
 -2.999999999999989E-004    3.861278234552254E-026
 -1.999999999999989E-004    1.121663293215206E-025
 -9.999999999999892E-005    1.853916041085001E-025
  1.084202172485504E-018    2.445517486077440E-025
  1.000000000000011E-004    2.747461599595592E-025
  2.000000000000011E-004    2.623829740428950E-025
  3.000000000000011E-004    1.980809119424513E-025
  4.000000000000011E-004    7.957094533461758E-026
  5.000000000000011E-004   -8.594843711793356E-026
  6.000000000000011E-004   -2.805925133448137E-025
  7.000000000000011E-004   -4.762425635123384E-025
  8.000000000000011E-004   -6.370315893991634E-025
  9.000000000000012E-004   -7.239402261561631E-025
  1.000000000000001E-003   -7.012039710599358E-025
  1.100000000000001E-003   -5.438135423595117E-025
  1.200000000000001E-003   -2.449955620015023E-025
  1.300000000000001E-003    1.777256891869541E-025
  1.400000000000001E-003    6.793884405718437E-025
  1.500000000000001E-003    1.188720938925169E-024
  1.600000000000001E-003    1.614437276045780E-024
  1.700000000000001E-003    1.856868967749004E-024
  1.800000000000001E-003    1.824154631088714E-024
  1.900000000000001E-003    1.451154006034626E-024
  2.000000000000001E-003    7.182858018793475E-025
  2.100000000000001E-003   -3.332150157153353E-025
  2.200000000000001E-003   -1.593352501025096E-024
  2.300000000000001E-003   -2.886056362082305E-024
  2.400000000000001E-003   -3.984686645237869E-024
  2.500000000000001E-003   -4.640725478089637E-024
  2.600000000000001E-003   -4.623686429285748E-024
  2.700000000000001E-003   -3.767694060306595E-024
  2.800000000000001E-003   -2.017851910756341E-024
  2.900000000000001E-003    5.321668776661880E-025
  3.000000000000001E-003    3.620364995678987E-024
  3.100000000000001E-003    6.822504169364376E-024
  3.200000000000001E-003    9.589254018898450E-024
  3.300000000000001E-003    1.131521152874968E-023
  3.400000000000001E-003    1.143494531729752E-023
  3.500000000000001E-003    9.535107343175022E-024
  3.600000000000001E-003    5.466085393313640E-024
  3.700000000000001E-003   -5.672591681514872E-025
  3.800000000000001E-003   -7.957260399582667E-024
  3.900000000000001E-003   -1.570645266380513E-023
  4.000000000000001E-003   -2.251417159580563E-023
  4.100000000000001E-003   -2.693851254450356E-023
  4.200000000000001E-003   -2.762216437884542E-023
  4.300000000000001E-003   -2.355628350662012E-023
  4.400000000000001E-003   -1.434368507836773E-023
  4.500000000000001E-003   -4.136628584284521E-025
  4.600000000000002E-003    1.686162075598212E-023
  4.700000000000001E-003    3.519297933481094E-023
  4.800000000000001E-003    5.157062074984350E-023
  4.900000000000002E-003    6.263508010649829E-023
  5.000000000000001E-003    6.519625108160067E-023
  5.100000000000001E-003    5.684115642893734E-023
  5.200000000000001E-003    3.654180911004414E-023
  5.300000000000002E-003    5.154191340711707E-024
  5.400000000000001E-003   -3.430560298335243E-023
  5.500000000000001E-003   -7.670778247008504E-023
  5.600000000000002E-003   -1.152421787415356E-022
  5.700000000000001E-003   -1.422479067589856E-022
  5.800000000000001E-003   -1.503799572276021E-022
  5.900000000000002E-003   -1.339800171378284E-022
  6.000000000000001E-003   -9.045278422956036E-023
  6.100000000000001E-003   -2.140423752531494E-023
  6.200000000000002E-003    6.671275935458490E-023
  6.300000000000002E-003    1.626685272262852E-022
  6.400000000000001E-003    2.513864579045208E-022
  6.500000000000001E-003    3.157555261690247E-022
  6.600000000000002E-003    3.391965629330940E-022
  6.700000000000001E-003    3.086921054184932E-022
  6.800000000000001E-003    2.178439928094669E-022
  6.900000000000002E-003    6.942559319864995E-023
  7.000000000000001E-003   -1.231302589132799E-022
  7.100000000000001E-003   -3.357970414932484E-022
  7.200000000000002E-003   -5.358938337689171E-022
  7.300000000000002E-003   -6.859545587173586E-022
  7.400000000000001E-003   -7.492562381769185E-022
  7.500000000000001E-003   -6.963854378929042E-022
  7.600000000000002E-003   -5.119091329195615E-022
  7.700000000000001E-003   -2.000045719312358E-022
  7.800000000000001E-003    2.121567411689458E-022
  7.900000000000001E-003    6.743287737298445E-022
  8.000000000000002E-003    1.117114795946605E-021
  8.100000000000001E-003    1.460037338331351E-021
  8.200000000000001E-003    1.623202097634105E-021
  8.300000000000002E-003    1.541261524661804E-021
  8.400000000000001E-003    1.177717459498391E-021
  8.500000000000002E-003    5.371456756119534E-022
  8.600000000000002E-003   -3.272052508504516E-022
  8.700000000000001E-003   -1.312696646164214E-021
  8.800000000000002E-003   -2.274979287852906E-021
  8.900000000000002E-003   -3.044429868372620E-021
  9.000000000000001E-003   -3.450256429023998E-021
  9.100000000000002E-003   -3.349636680247600E-021
  9.200000000000002E-003   -2.657862181980877E-021
  9.300000000000001E-003   -1.374478463639612E-021
  9.400000000000002E-003    3.998740517229711E-022
  9.500000000000001E-003    2.460659949502693E-021
  9.600000000000001E-003    4.513930296455505E-021
  9.700000000000002E-003    6.208988985839059E-021
  9.800000000000001E-003    7.187179547100933E-021
  9.900000000000001E-003    7.141559759787831E-021
  1.000000000000000E-002    5.879343311809103E-021
  1.010000000000000E-002    3.376939807511298E-021
  1.020000000000000E-002   -1.832496407779111E-022
  1.030000000000000E-002   -4.404097909145794E-021
  1.040000000000000E-002   -8.699937996639916E-021
  1.050000000000000E-002   -1.235987319793369E-020
  1.060000000000000E-002   -1.464447136063197E-020
  1.070000000000000E-002   -1.490570498305834E-020
  1.080000000000000E-002   -1.271410152121997E-020
  1.090000000000000E-002   -7.972806657501501E-021
  1.100000000000000E-002   -9.967181145945302E-022
  1.110000000000000E-002    7.463306165036345E-021
  1.120000000000000E-002    1.626554237136926E-020
  1.130000000000000E-002    2.399705673886219E-020
  1.140000000000000E-002    2.916147723929909E-020
  1.150000000000000E-002    3.041566554869881E-020
  1.160000000000000E-002    2.682429159294314E-020
  1.170000000000000E-002    1.809250474207892E-020
  1.180000000000000E-002    4.733369635255578E-021
  1.190000000000000E-002   -1.187015762043660E-020
  1.200000000000000E-002   -2.953838895616584E-020
  1.210000000000000E-002   -4.551545729288695E-020
  1.220000000000000E-002   -5.682680179312336E-020
  1.230000000000000E-002   -6.073819053281632E-020
  1.240000000000000E-002   -5.525725887736530E-020
  1.250000000000000E-002   -3.960089753532812E-020
  1.260000000000000E-002   -1.454382986828810E-020
  1.270000000000000E-002    1.743149790331233E-020
  1.280000000000000E-002    5.224424798219732E-020
  1.290000000000000E-002    8.461157518577210E-020
  1.300000000000000E-002    1.087165696583906E-019
  1.310000000000000E-002    1.190838841194773E-019
  1.320000000000000E-002    1.115531860794227E-019
  1.330000000000000E-002    8.420480348904823E-020
  1.340000000000000E-002    3.807437692210157E-020
  1.350000000000000E-002   -2.249984868693986E-020
  1.360000000000000E-002   -9.001933275300444E-020
  1.370000000000000E-002   -1.545186830117324E-019
  1.380000000000000E-002   -2.047905434255634E-019
  1.390000000000000E-002   -2.300301550585720E-019
  1.400000000000000E-002   -2.216979990356809E-019
  1.410000000000000E-002   -1.753285832895955E-019
  1.420000000000000E-002   -9.197515181990648E-020
  1.430000000000000E-002    2.101255030929730E-020
  1.440000000000000E-002    1.501208128072865E-019
  1.450000000000000E-002    2.768485151897578E-019
  1.460000000000000E-002    3.799106175984810E-019
  1.470000000000000E-002    4.382783954113360E-019
  1.480000000000000E-002    4.346939990476921E-019
  1.490000000000000E-002    3.591589547051524E-019
  1.500000000000000E-002    2.118139348880428E-019
  1.510000000000000E-002    4.631485407803823E-021
  1.520000000000000E-002   -2.385577278255623E-019
  1.530000000000000E-002   -4.839889026226850E-019
  1.540000000000000E-002   -6.918460963492037E-019
  1.550000000000000E-002   -8.217913395484070E-019
  1.560000000000000E-002   -8.395006823813189E-019
  1.570000000000000E-002   -7.232996417367221E-019
  1.580000000000000E-002   -4.698199506627444E-019
  1.590000000000000E-002   -9.758601122136574E-020
  1.600000000000000E-002    3.524009115564060E-019
  1.610000000000000E-002    8.196697383038557E-019
  1.620000000000000E-002    1.230973997385059E-018
  1.630000000000000E-002    1.510175399179314E-018
  1.640000000000000E-002    1.590216832193971E-018
  1.650000000000000E-002    1.425558022163146E-018
  1.660000000000000E-002    1.003111115824106E-018
  1.670000000000000E-002    3.496387904950540E-019
  1.680000000000000E-002   -4.661679393273880E-019
  1.690000000000000E-002   -1.338130637346916E-018
  1.700000000000000E-002   -2.133864716327476E-018
  1.710000000000000E-002   -2.712150211838560E-018
  1.720000000000000E-002   -2.944524859721167E-018
  1.730000000000000E-002   -2.738240926711219E-018
  1.740000000000000E-002   -2.057048324236369E-018
  1.750000000000000E-002   -9.360608029208454E-019
  1.760000000000000E-002    5.126614422907132E-019
  1.770000000000000E-002    2.106194229016182E-018
  1.780000000000000E-002    3.609341911070545E-018
  1.790000000000000E-002    4.764675247172793E-018
  1.800000000000000E-002    5.330907382872813E-018
  1.810000000000000E-002    5.124643462032500E-018
  1.820000000000000E-002    4.059226000743587E-018
  1.830000000000000E-002    2.173878670725246E-018
  1.840000000000000E-002   -3.531155151820328E-019
  1.850000000000000E-002   -3.211833338952941E-018
  1.860000000000000E-002   -5.990708513402611E-018
  1.870000000000000E-002   -8.227712399926818E-018