 -4.000000000000000E-002    0.000000000000000E+000
 -3.990000000000000E-002    0.000000000000000E+000
 -3.980000000000000E-002    3.046911589787324E-013
 -3.970000000000000E-002   -3.382271394707290E-013
 -3.960000000000000E-002   -7.887252369592364E-012
 -3.950000000000000E-002   -3.695746702455580E-011
 -3.940000000000000E-002   -1.147815799933671E-010
 -3.930000000000000E-002   -2.842820748874236E-010
 -3.920000000000000E-002   -6.054509687188310E-010
 -3.910000000000000E-002   -1.154494765948568E-009
 -3.900000000000000E-002   -2.020542922193551E-009
 -3.890000000000000E-002   -3.300004010369220E-009
 -3.880000000000000E-002   -5.088943346351020E-009
 -3.870000000000000E-002   -7.473904161182701E-009
 -3.860000000000000E-002   -1.052171153973566E-008
 -3.850000000000000E-002   -1.426880679180939E-008
 -3.840000000000000E-002   -1.871077095334335E-008
 -3.830000000000000E-002   -2.379286328254676E-008
 -3.820000000000000E-002   -2.940262441098354E-008
 -3.810000000000000E-002   -3.536586024781400E-008
 -3.800000000000000E-002   -4.144728145083721E-008
 -3.790000000000000E-002   -4.735696734212343E-008
 -3.780000000000000E-002   -5.276323130832106E-008
 -3.770000000000000E-002   -5.731150772947417E-008
 -3.760000000000000E-002   -6.064782896748147E-008
 -3.750000000000000E-002   -6.244422946735735E-008
 -3.740000000000000E-002   -6.242265009287306E-008
 -3.730000000000000E-002   -6.037348697125162E-008
 -3.720000000000000E-002   -5.616539978063035E-008
 -3.710000000000000E-002   -4.974424180882326E-008
 -3.700000000000000E-002   -4.112089178787154E-008
 -3.690000000000000E-002   -3.034979824185780E-008
 -3.680000000000000E-002   -1.750246130046644E-008
 -3.670000000000000E-002   -2.641283707847949E-009
 -3.660000000000000E-002    1.420018686638472E-008
 -3.650000000000000E-002    3.302538273546019E-008
 -3.640000000000000E-002    5.386812980927861E-008
 -3.630000000000000E-002    7.677107776500210E-008
 -3.620000000000000E-002    1.017523105977276E-007
 -3.610000000000000E-002    1.287659722355537E-007
 -3.600000000000000E-002    1.576650124215127E-007
 -3.590000000000000E-002    1.881742351070770E-007
 -3.580000000000000E-002    2.198806223691976E-007
 -3.570000000000000E-002    2.522449677032158E-007
 -3.560000000000000E-002    2.846353765997575E-007
 -3.550000000000000E-002    3.163786233122934E-007
 -3.540000000000000E-002    3.468230990691970E-007
 -3.530000000000000E-002    3.754038549891857E-007
 -3.520000000000000E-002    4.017019686318727E-007
 -3.510000000000000E-002    4.254914473049962E-007
 -3.500000000000000E-002    4.467700276423928E-007
 -3.490000000000000E-002    4.657752831471079E-007
 -3.480000000000000E-002    4.829889891867684E-007
 -3.470000000000000E-002    4.991363218247864E-007
 -3.460000000000000E-002    5.151842119417112E-007
 -3.450000000000000E-002    5.323426208643022E-007
 -3.440000000000000E-002    5.520664013854032E-007
 -3.430000000000000E-002    5.760519843629193E-007
 -3.420000000000000E-002    6.062189048082039E-007
 -3.410000000000000E-002    6.446636567233674E-007
 -3.400000000000000E-002    6.935761476224218E-007
 -3.390000000000000E-002    7.551148355458018E-007
 -3.380000000000000E-002    8.312421836847640E-007
 -3.370000000000000E-002    9.235370786165278E-007
 -3.360000000000000E-002    1.033006975077126E-006
 -3.350000000000000E-002    1.159929885969812E-006
 -3.340000000000000E-002    1.303762379036906E-006
 -3.330000000000000E-002    1.463138381558615E-006
 -3.320000000000000E-002    1.635980308201676E-006
 -3.310000000000000E-002    1.819723395519800E-006
 -3.300000000000000E-002    2.011633070163710E-006
 -3.290000000000000E-002    2.209180343639438E-006
 -3.280000000000000E-002    2.410422982108007E-006
 -3.270000000000000E-002    2.614333711450516E-006
 -3.260000000000000E-002    2.821014917930687E-006
 -3.250000000000000E-002    3.031762717011790E-006
 -3.240000000000000E-002    3.248948108535922E-006
 -3.230000000000000E-002    3.475729647862314E-006
 -3.220000000000000E-002    3.715624991983481E-006
 -3.210000000000000E-002    3.972000530807888E-006
 -3.200000000000000E-002    4.247555513399344E-006
 -3.190000000000000E-002    4.543873928106823E-006
 -3.180000000000000E-002    4.861117398137938E-006
 -3.170000000000000E-002    5.197905575857935E-006
 -3.160000000000000E-002    5.551399027393808E-006
 -3.150000000000000E-002    5.917575743773960E-006
 -3.140000000000000E-002    6.291649116852279E-006
 -3.130000000000000E-002    6.668564833258344E-006
 -3.120000000000000E-002    7.043500248713519E-006
 -3.110000000000000E-002    7.412281345188753E-006
 -3.100000000000000E-002    7.771675394833670E-006
 -3.090000000000000E-002    8.119516901441983E-006
 -3.080000000000000E-002    8.454671733578152E-006
 -3.070000000000000E-002    8.776862062738172E-006
 -3.060000000000000E-002    9.086410790001352E-006
 -3.050000000000000E-002    9.383962669781806E-006
 -3.040000000000000E-002    9.670233995135592E-006
 -3.030000000000000E-002    9.945857729786801E-006
 -3.020000000000000E-002    1.021130910432859E-005
 -3.010000000000000E-002    1.046694628706033E-005
 -3.000000000000000E-002    1.071310736220229E-005
 -2.990000000000000E-002    1.095024506902810E-005
 -2.980000000000000E-002    1.117903463657286E-005
 -2.970000000000000E-002    1.140041303819478E-005
 -2.960000000000000E-002    1.161555111946929E-005
 -2.950000000000000E-002    1.182571816756006E-005
 -2.940000000000000E-002    1.203210707757635E-005
 -2.930000000000000E-002    1.223560859354370E-005
 -2.920000000000000E-002    1.243664790100692E-005
 -2.910000000000000E-002    1.263507092086199E-005
 -2.900000000000000E-002    1.283012015617255E-005
 -2.890000000000000E-002    1.302057412041389E-005
 -2.880000000000000E-002    1.320490311518311E-005
 -2.870000000000000E-002    1.338151771900784E-005
 -2.860000000000000E-002    1.354899161162060E-005
 -2.850000000000000E-002    1.370620314704286E-005
 -2.840000000000000E-002    1.385237257547805E-005
 -2.830000000000000E-002    1.398693152382069E-005
 -2.820000000000000E-002    1.410930583694577E-005
 -2.810000000000000E-002    1.421857332756372E-005
 -2.800000000000000E-002    1.431314593143204E-005
 -2.790000000000000E-002    1.439048121768927E-005
 -2.780000000000000E-002    1.444694022521533E-005
 -2.770000000000000E-002    1.447783360387208E-005
 -2.760000000000000E-002    1.447768340416741E-005
 -2.750000000000000E-002    1.444058851011532E-005
 -2.740000000000000E-002    1.436079367165947E-005
 -2.730000000000000E-002    1.423318668918465E-005
 -2.720000000000000E-002    1.405368938543076E-005
 -2.710000000000000E-002    1.381950273989681E-005
 -2.700000000000000E-002    1.352904588069867E-005
 -2.690000000000000E-002    1.318162841937880E-005
 -2.680000000000000E-002    1.277693808604401E-005
 -2.670000000000000E-002    1.231427941825316E-005
 -2.660000000000000E-002    1.179187675664415E-005
 -2.650000000000000E-002    1.120620283340244E-005
 -2.640000000000000E-002    1.055158842064789E-005
 -2.630000000000000E-002    9.820062486591091E-006
 -2.620000000000000E-002    9.001529522663355E-006
 -2.610000000000000E-002    8.084276035973775E-006
 -2.600000000000000E-002    7.055614503751919E-006
 -2.590000000000000E-002    5.902553502787290E-006
 -2.580000000000000E-002    4.612407481882454E-006
 -2.570000000000000E-002    3.173153974717001E-006
 -2.560000000000000E-002    1.573573001870344E-006
 -2.550000000000000E-002   -1.970915386165695E-007
 -2.540000000000000E-002   -2.149558380833429E-006
 -2.530000000000000E-002   -4.295370215475699E-006
 -2.520000000000000E-002   -6.647610512244802E-006
 -2.510000000000000E-002   -9.221499390631541E-006
 -2.500000000000000E-002   -1.203488368052473E-005
 -2.490000000000000E-002   -1.510823106050164E-005
 -2.480000000000000E-002   -1.846444363256698E-005
 -2.470000000000000E-002   -2.212822011704563E-005
 -2.460000000000000E-002   -2.612525079913127E-005
 -2.450000000000000E-002   -3.048153892652833E-005
 -2.440000000000000E-002   -3.522277820801213E-005
 -2.430000000000000E-002   -4.037395514203368E-005
 -2.420000000000000E-002   -4.595948749532109E-005
 -2.410000000000000E-002   -5.200367769814056E-005
 -2.400000000000000E-002   -5.853159997281111E-005
 -2.390000000000000E-002   -6.556991912938536E-005
 -2.380000000000000E-002   -7.314824725548517E-005
 -2.370000000000000E-002   -8.129966633535837E-005
 -2.360000000000000E-002   -9.006148902296996E-005
 -2.350000000000000E-002   -9.947534419648375E-005
 -2.340000000000000E-002   -1.095868311521086E-004
 -2.330000000000000E-002   -1.204451021581301E-004
 -2.320000000000000E-002   -1.321016359074391E-004
 -2.310000000000000E-002   -1.446097746221534E-004
 -2.300000000000000E-002   -1.580233335605266E-004
 -2.290000000000000E-002   -1.723969075813639E-004
 -2.280000000000000E-002   -1.877853824189204E-004
 -2.270000000000000E-002   -2.042449596966111E-004
 -2.260000000000000E-002   -2.218335816636033E-004
 -2.250000000000000E-002   -2.406120381852543E-004
 -2.240000000000000E-002   -2.606458861463100E-004
 -2.230000000000000E-002   -2.820051582416331E-004
 -2.220000000000000E-002   -3.047662280457814E-004
 -2.210000000000000E-002   -3.290112243475724E-004
 -2.200000000000000E-002   -3.548285745949218E-004
 -2.190000000000000E-002   -3.823117105874676E-004
 -2.180000000000000E-002   -4.115586660719700E-004
 -2.170000000000000E-002   -4.426709697555473E-004
 -2.160000000000000E-002   -4.757529338870735E-004
 -2.150000000000000E-002   -5.109115688772497E-004
 -2.140000000000000E-002   -5.482560232796237E-004
 -2.130000000000000E-002   -5.878988414800742E-004
 -2.120000000000000E-002   -6.299560637946259E-004
 -2.110000000000000E-002   -6.745486408316148E-004
 -2.100000000000000E-002   -7.218038852245925E-004
 -2.090000000000000E-002   -7.718557742638971E-004
 -2.080000000000000E-002   -8.248459764022230E-004
 -2.070000000000000E-002   -8.809248261984820E-004
 -2.060000000000000E-002   -9.402502805530458E-004
 -2.050000000000000E-002   -1.002987503303514E-003
 -2.040000000000000E-002   -1.069309457349724E-003
 -2.030000000000000E-002   -1.139394854602994E-003
 -2.020000000000000E-002   -1.213428136108466E-003
 -2.010000000000000E-002   -1.291599987364200E-003
 -2.000000000000000E-002   -1.374106681233527E-003
 -1.990000000000000E-002   -1.461151335328975E-003
 -1.980000000000000E-002   -1.552943989004697E-003
 -1.970000000000000E-002   -1.649704221819814E-003
 -1.960000000000000E-002   -1.751660328868642E-003
 -1.950000000000000E-002   -1.859052642710692E-003
 -1.940000000000000E-002   -1.972131274246052E-003
 -1.930000000000000E-002   -2.091158340198399E-003
 -1.920000000000000E-002   -2.216407553600505E-003
 -1.910000000000000E-002   -2.348162544563437E-003
 -1.900000000000000E-002   -2.486717542616210E-003
 -1.890000000000000E-002   -2.632375942070616E-003
 -1.880000000000000E-002   -2.785451496826396E-003
 -1.870000000000000E-002   -2.946266599203731E-003
 -1.860000000000000E-002   -3.115152906366831E-003
 -1.850000000000000E-002   -3.292451156566057E-003
 -1.840000000000000E-002   -3.478515796529864E-003
 -1.830000000000000E-002   -3.673711525795970E-003
 -1.820000000000000E-002   -3.878417221505641E-003
 -1.810000000000000E-002   -4.093025293749244E-003
 -1.800000000000000E-002   -4.317942120981537E-003
 -1.790000000000000E-002   -4.553589987169738E-003
 -1.780000000000000E-002   -4.800405556153299E-003
 -1.770000000000000E-002   -5.058837160005261E-003
 -1.760000000000000E-002   -5.329350473866759E-003
 -1.750000000000000E-002   -5.612420194633925E-003
 -1.740000000000000E-002   -5.908537686126297E-003
 -1.730000000000000E-002   -6.218203512049911E-003
 -1.720000000000000E-002   -6.541936929207554E-003
 -1.710000000000000E-002   -6.880267147710775E-003
 -1.700000000000000E-002   -7.233741807476732E-003
 -1.690000000000000E-002   -7.602923261876476E-003
 -1.680000000000000E-002   -7.988392495306022E-003
 -1.670000000000000E-002   -8.390746916283099E-003
 -1.660000000000000E-002   -8.810601205324006E-003
 -1.650000000000000E-002   -9.248590645251329E-003
 -1.640000000000000E-002   -9.705364881582764E-003
 -1.630000000000000E-002   -1.018159168829129E-002
 -1.620000000000000E-002   -1.067795605009909E-002
 -1.610000000000000E-002   -1.119515583026424E-002
 -1.600000000000000E-002   -1.173390723469863E-002
 -1.590000000000000E-002   -1.229493974127686E-002
 -1.580000000000000E-002   -1.287900195674801E-002
 -1.570000000000000E-002   -1.348685564969457E-002
 -1.560000000000000E-002   -1.411928505912468E-002
 -1.550000000000000E-002   -1.477708897126798E-002
 -1.540000000000000E-002   -1.546108800873113E-002
 -1.530000000000000E-002   -1.617211838875666E-002
 -1.520000000000000E-002   -1.691104094387909E-002
 -1.510000000000000E-002   -1.767872850745322E-002
 -1.500000000000000E-002   -1.847607658737639E-002
 -1.490000000000000E-002   -1.930399823116082E-002
 -1.480000000000000E-002   -2.016341527923671E-002
 -1.470000000000000E-002   -2.105527106830016E-002
 -1.460000000000000E-002   -2.198052567128977E-002
 -1.450000000000000E-002   -2.294015076968229E-002
 -1.440000000000000E-002   -2.393513552430015E-002
 -1.430000000000000E-002   -2.496648451684514E-002
 -1.420000000000000E-002   -2.603521731114693E-002
 -1.410000000000000E-002   -2.714236916201359E-002
 -1.400000000000000E-002   -2.828899440332208E-002
 -1.390000000000000E-002   -2.947616534463388E-002
 -1.380000000000000E-002   -3.070496948441731E-002
 -1.370000000000000E-002   -3.197650640293379E-002
 -1.360000000000000E-002   -3.329189245843694E-002
 -1.350000000000000E-002   -3.465225460331456E-002
 -1.340000000000000E-002   -3.605873093321493E-002
 -1.330000000000000E-002   -3.751247458735638E-002
 -1.320000000000000E-002   -3.901464199947765E-002
 -1.310000000000000E-002   -4.056640688022110E-002
 -1.300000000000000E-002   -4.216894018666630E-002
 -1.290000000000000E-002   -4.382342909946439E-002
 -1.280000000000000E-002   -4.553106954396484E-002
 -1.270000000000000E-002   -4.729306318763577E-002
 -1.260000000000000E-002   -4.911061977024747E-002
 -1.250000000000000E-002   -5.098496340542108E-002
 -1.240000000000000E-002   -5.291731344580639E-002
 -1.230000000000000E-002   -5.490889516744873E-002
 -1.220000000000000E-002   -5.696093627223976E-002
 -1.210000000000000E-002   -5.907467730414231E-002
 -1.200000000000000E-002   -6.125133970195357E-002
 -1.190000000000000E-002   -6.349215089086141E-002
 -1.180000000000000E-002   -6.579833723698554E-002
 -1.170000000000000E-002   -6.817110611738858E-002
 -1.160000000000000E-002   -7.061167146262776E-002
 -1.150000000000000E-002   -7.312123112195190E-002
 -1.140000000000000E-002   -7.570097243164087E-002
 -1.130000000000000E-002   -7.835208439520282E-002
 -1.120000000000000E-002   -8.107573505096813E-002
 -1.110000000000000E-002   -8.387309245373810E-002
 -1.100000000000000E-002   -8.674530094032279E-002
 -1.090000000000000E-002   -8.969349957244502E-002
 -1.080000000000000E-002   -9.271879349420616E-002
 -1.070000000000000E-002   -9.582228073051813E-002
 -1.060000000000000E-002   -9.900502974260537E-002
 -1.050000000000000E-002   -0.102268096863795     
 -1.040000000000000E-002   -0.105612484815915     
 -1.030000000000000E-002   -0.109039188694688     
 -1.020000000000000E-002   -0.112549165145646     
 -1.010000000000000E-002   -0.116143331074909     
 -1.000000000000000E-002   -0.119822578644770     
 -9.899999999999999E-003   -0.123587747338439     
 -9.800000000000000E-003   -0.127439670542984     
 -9.699999999999999E-003   -0.131379113655487     
 -9.599999999999999E-003   -0.135406802091008     
 -9.500000000000000E-003   -0.139523435069881     
 -9.399999999999999E-003   -0.143729639225681     
 -9.299999999999999E-003   -0.148026028310544     
 -9.200000000000000E-003   -0.152413110343838     
 -9.099999999999999E-003   -0.156891384848423     
 -8.999999999999999E-003   -0.161461258174686     
 -8.900000000000000E-003   -0.166123084872199     
 -8.799999999999999E-003   -0.170877160700901     
 -8.699999999999999E-003   -0.175723727066908     
 -8.600000000000000E-003   -0.180662936414082     
 -8.499999999999999E-003   -0.185694876928345     
 -8.399999999999999E-003   -0.190819575184340     
 -8.300000000000000E-003   -0.196036972434314     
 -8.199999999999999E-003   -0.201346938606206     
 -8.100000000000000E-003   -0.206749256950702     
 -8.000000000000000E-003   -0.212243640359788     
 -7.899999999999999E-003   -0.217829714915921     
 -7.800000000000000E-003   -0.223506986006834     
 -7.699999999999999E-003   -0.229274893599256     
 -7.599999999999999E-003   -0.235132816685898     
 -7.499999999999999E-003   -0.241079994042752     
 -7.399999999999999E-003   -0.247115548766297     
 -7.299999999999999E-003   -0.253238567765418     
 -7.199999999999999E-003   -0.259447982828043     
 -7.100000000000000E-003   -0.265742642400422     
 -6.999999999999999E-003   -0.272121298118537     
 -6.899999999999999E-003   -0.278582568420795     
 -6.800000000000000E-003   -0.285124975849387     
 -6.699999999999999E-003   -0.291746949252862     
 -6.599999999999999E-003   -0.298446761332099     
 -6.499999999999999E-003   -0.305222626027135     
 -6.399999999999999E-003   -0.312072583679944     
 -6.299999999999999E-003   -0.318994584800290     
 -6.199999999999999E-003   -0.325986472376576     
 -6.100000000000000E-003   -0.333045938054266     
 -5.999999999999999E-003   -0.340170558013160     
 -5.899999999999999E-003   -0.347357746908032     
 -5.800000000000000E-003   -0.354604855253467     
 -5.699999999999999E-003   -0.361909070470141     
 -5.599999999999999E-003   -0.369267477093671     
 -5.499999999999999E-003   -0.376676985992428     
 -5.399999999999999E-003   -0.384134440832352     
 -5.299999999999999E-003   -0.391636501776126     
 -5.199999999999999E-003   -0.399179723508049     
 -5.099999999999999E-003   -0.406760550087490     
 -4.999999999999999E-003   -0.414375239255128     
 -4.899999999999999E-003   -0.422019974903122     
 -4.799999999999999E-003   -0.429690770478795     
 -4.699999999999999E-003   -0.437383512725868     
 -4.599999999999999E-003   -0.445093987281459     
 -4.499999999999999E-003   -0.452817821533964     
 -4.399999999999999E-003   -0.460550518149626     
 -4.299999999999999E-003   -0.468287519339732     
 -4.199999999999999E-003   -0.476024003107712     
 -4.099999999999999E-003   -0.483755121873548     
 -3.999999999999999E-003   -0.491475938541313     
 -3.899999999999999E-003   -0.499181258482610     
 -3.799999999999999E-003   -0.506865927158574     
 -3.699999999999999E-003   -0.514524551019666     
 -3.599999999999999E-003   -0.522151702232069     
 -3.499999999999999E-003   -0.529741798912356     
 -3.399999999999999E-003   -0.537289150583444     
 -3.299999999999999E-003   -0.544787931166665     
 -3.199999999999999E-003   -0.552232281683503     
 -3.099999999999999E-003   -0.559616194793749     
 -2.999999999999999E-003   -0.566933609764301     
 -2.899999999999999E-003   -0.574178357508196     
 -2.799999999999999E-003   -0.581344184624809     
 -2.699999999999999E-003   -0.588424717445979     
 -2.599999999999999E-003   -0.595413530915059     
 -2.499999999999999E-003   -0.602304110663588     
 -2.399999999999999E-003   -0.609089845059154     
 -2.299999999999999E-003   -0.615764134764371     
 -2.199999999999999E-003   -0.622320272590979     
 -2.099999999999999E-003   -0.628751446859239     
 -1.999999999999999E-003   -0.635050899132571     
 -1.899999999999999E-003   -0.641211726014108     
 -1.799999999999999E-003   -0.647227086679391     
 -1.699999999999999E-003   -0.653089973267238     
 -1.599999999999999E-003   -0.658793492115556     
 -1.499999999999999E-003   -0.664330655150468     
 -1.399999999999999E-003   -0.669694515045075     
 -1.299999999999999E-003   -0.674878000107474     
 -1.199999999999999E-003   -0.679874178146117     
 -1.099999999999999E-003   -0.684676044814966     
 -9.999999999999989E-004   -0.689276593403127     
 -8.999999999999990E-004   -0.693668913400427     
 -7.999999999999990E-004   -0.697846067753127     
 -6.999999999999989E-004   -0.701801122064964     
 -5.999999999999990E-004   -0.705527281152818     
 -4.999999999999989E-004   -0.709017730017334     
 -3.999999999999989E-004   -0.712265697410573     
 -2.999999999999989E-004   -0.715264543593975     
 -1.999999999999989E-004   -0.718007668996593     
 -9.999999999999892E-005   -0.720488562139771     
  1.084202172485504E-018   -0.722700785587609     
  1.000000000000011E-004   -0.724638001696260     
  2.000000000000011E-004   -0.726294026535028     
  3.000000000000011E-004   -0.727662719266264     
  4.000000000000011E-004   -0.728738128990180     
  5.000000000000011E-004   -0.729514381034287     
  6.000000000000011E-004   -0.729985794510123     
  7.000000000000011E-004   -0.730146781408562     
  8.000000000000011E-004   -0.729991935596235     
  9.000000000000012E-004   -0.729516024862962     
  1.000000000000001E-003   -0.728713991413166     
  1.100000000000001E-003   -0.727580876537934     
  1.200000000000001E-003   -0.726112031245075     
  1.300000000000001E-003   -0.724302915532523     
  1.400000000000001E-003   -0.722149193782339     
  1.500000000000001E-003   -0.719646795931200     
  1.600000000000001E-003   -0.716791832360575     
  1.700000000000001E-003   -0.713580633948157     
  1.800000000000001E-003   -0.710009743102066     
  1.900000000000001E-003   -0.706076039209706     
  2.000000000000001E-003   -0.701776483512584     
  2.100000000000001E-003   -0.697108446757906     
  2.200000000000001E-003   -0.692069407301639     
  2.300000000000001E-003   -0.686657249783037     
  2.400000000000001E-003   -0.680870082607489     
  2.500000000000001E-003   -0.674706225801981     
  2.600000000000001E-003   -0.668164402594237     
  2.700000000000001E-003   -0.661243481914988     
  2.800000000000001E-003   -0.653942762749188     
  2.900000000000001E-003   -0.646261773845827     
  3.000000000000001E-003   -0.638200351387682     
  3.100000000000001E-003   -0.629758585192599     
  3.200000000000001E-003   -0.620936994467378     
  3.300000000000001E-003   -0.611736264498513     
  3.400000000000001E-003   -0.602157527478279     
  3.500000000000001E-003   -0.592202165246609     
  3.600000000000001E-003   -0.581871859730562     
  3.700000000000001E-003   -0.571168676747362     
  3.800000000000001E-003   -0.560094981234756     
  3.900000000000001E-003   -0.548653476180891     
  4.000000000000001E-003   -0.536847227202125     
  4.100000000000001E-003   -0.524679512771469     
  4.200000000000001E-003   -0.512154016975105     
  4.300000000000001E-003   -0.499274764468686     
  4.400000000000001E-003   -0.486046121109646     
  4.500000000000001E-003   -0.472472754133003     
  4.600000000000002E-003   -0.458559629649748     
  4.700000000000001E-003   -0.444312068437059     
  4.800000000000001E-003   -0.429735703822893     
  4.900000000000002E-003   -0.414836522398802     
  5.000000000000001E-003   -0.399620783187176     
  5.100000000000001E-003   -0.384095072015637     
  5.200000000000001E-003   -0.368266319868816     
  5.300000000000002E-003   -0.352141748305315     
  5.400000000000001E-003   -0.335728864150925     
  5.500000000000001E-003   -0.319035485688491     
  5.600000000000002E-003   -0.302069754553757     
  5.700000000000001E-003   -0.284840059311952     
  5.800000000000001E-003   -0.267355077376812     
  5.900000000000002E-003   -0.249623767310287     
  6.000000000000001E-003   -0.231655373741242     
  6.100000000000001E-003   -0.213459362774334     
  6.200000000000002E-003   -0.195045486242383     
  6.300000000000002E-003   -0.176423732368374     
  6.400000000000001E-003   -0.157604336911373     
  6.500000000000001E-003   -0.138597758606102     
  6.600000000000002E-003   -0.119414684710038     
  6.700000000000001E-003   -0.100066017448304     
  6.800000000000001E-003   -8.056285166839780E-002
  6.900000000000002E-003   -6.091650150765443E-002
  7.000000000000001E-003   -4.113843178748663E-002
  7.100000000000001E-003   -2.124031336806947E-002
  7.200000000000002E-003   -1.233956510726844E-003
  7.300000000000002E-003    1.886867551658883E-002
  7.400000000000001E-003    3.905546701529383E-002
  7.500000000000001E-003    5.931418910333255E-002
  7.600000000000002E-003    7.963248769475578E-002
  7.700000000000001E-003    9.999790462603950E-002
  7.800000000000001E-003    0.120397886657531     
  7.900000000000001E-003    0.140819765228199     
  8.000000000000002E-003    0.161250848946013     
  8.100000000000001E-003    0.181678336581250     
  8.200000000000001E-003    0.202089406141791     
  8.300000000000002E-003    0.222471217277879     
  8.400000000000001E-003    0.242810887586567     
  8.500000000000002E-003    0.263095504853286     
  8.600000000000002E-003    0.283312237405278     
  8.700000000000001E-003    0.303448208564979     
  8.800000000000002E-003    0.323490557891122     
  8.900000000000002E-003    0.343426519589208     
  9.000000000000001E-003    0.363243421840689     
  9.100000000000002E-003    0.382928578994422     
  9.200000000000002E-003    0.402469422816999     
  9.300000000000001E-003    0.421853417944625     
  9.400000000000002E-003    0.441068186030727     
  9.500000000000001E-003    0.460101476784915     
  9.600000000000001E-003    0.478941142361935     
  9.700000000000002E-003    0.497575261220142     
  9.800000000000001E-003    0.515991915837040     
  9.900000000000001E-003    0.534179483866405     
  1.000000000000000E-002    0.552126464695747     
  1.010000000000000E-002    0.569821570272109     
  1.020000000000000E-002    0.587253687123331     
  1.030000000000000E-002    0.604411980256756     
  1.040000000000000E-002    0.621285770342036     
  1.050000000000000E-002    0.637864645762771     
  1.060000000000000E-002    0.654138416150364     
  1.070000000000000E-002    0.670097214513611     
  1.080000000000000E-002    0.685731307329723     
  1.090000000000000E-002    0.701031359398193     
  1.100000000000000E-002    0.715988276027751     
  1.110000000000000E-002    0.730593237011589     
  1.120000000000000E-002    0.744837752337790     
  1.130000000000000E-002    0.758713593392706     
  1.140000000000000E-002    0.772212970599281     
  1.150000000000000E-002    0.785328271724158     
  1.160000000000000E-002    0.798052292962630     
  1.170000000000000E-002    0.810378188014456     
  1.180000000000000E-002    0.822299400719285     
  1.190000000000000E-002    0.833809736896328     
  1.200000000000000E-002    0.844903340420705     
  1.210000000000000E-002    0.855574674569639     
  1.220000000000000E-002    0.865818701469032     
  1.230000000000000E-002    0.875630666644295     
  1.240000000000000E-002    0.885006186326792     
  1.250000000000000E-002    0.893941270050601     
  1.260000000000000E-002    0.902432341363042     
  1.270000000000000E-002    0.910476124616093     
  1.280000000000000E-002    0.918069713196163     
  1.290000000000000E-002    0.925210652383150     
  1.300000000000000E-002    0.931896838332654     
  1.310000000000000E-002    0.938126650785114     
  1.320000000000000E-002    0.943898688518553     
  1.330000000000000E-002    0.949212028610348     
  1.340000000000000E-002    0.954066050181011     
  1.350000000000000E-002    0.958460641252764     
  1.360000000000000E-002    0.962395957195035     
  1.370000000000000E-002    0.965872639027633     
  1.380000000000000E-002    0.968891514363657     
  1.390000000000000E-002    0.971453977646006     
  1.400000000000000E-002    0.973561671716204     
  1.410000000000000E-002    0.975216633531814     
  1.420000000000000E-002    0.976421314411257     
  1.430000000000000E-002    0.977178454484684     
  1.440000000000000E-002    0.977491118943693     
  1.450000000000000E-002    0.977362822911027     
  1.460000000000000E-002    0.976797329355322     
  1.470000000000000E-002    0.975798767945436     
  1.480000000000000E-002    0.974371582590652     
  1.490000000000000E-002    0.972520488819272     
  1.500000000000000E-002    0.970250580816234     
  1.510000000000000E-002    0.967567263777742     
  1.520000000000000E-002    0.964476252215926     
  1.530000000000000E-002    0.960983475398147     
  1.540000000000000E-002    0.957095164489231     
  1.550000000000000E-002    0.952817859570884     
  1.560000000000000E-002    0.948158282954930     
  1.570000000000000E-002    0.943123462605768     
  1.580000000000000E-002    0.937720652016029     
  1.590000000000000E-002    0.931957303159065     
  1.600000000000000E-002    0.925841159036213     
  1.610000000000000E-002    0.919380166420031     
  1.620000000000000E-002    0.912582412991967     
  1.630000000000000E-002    0.905456229082918     
  1.640000000000000E-002    0.898010147050769     
  1.650000000000000E-002    0.890252776517208     
  1.660000000000000E-002    0.882193020605894     
  1.670000000000000E-002    0.873839833520119     
  1.680000000000000E-002    0.865202363016279     
  1.690000000000000E-002    0.856289880175585     
  1.700000000000000E-002    0.847111704261661     
  1.710000000000000E-002    0.837677348614104     
  1.720000000000000E-002    0.827996444588549     
  1.730000000000000E-002    0.818078626544128     
  1.740000000000000E-002    0.807933590291664     
  1.750000000000000E-002    0.797571172218596     
  1.760000000000000E-002    0.787001260086492     
  1.770000000000000E-002    0.776233746827222     
  1.780000000000000E-002    0.765278549491938     
  1.790000000000000E-002    0.754145644798072     
  1.800000000000000E-002    0.742844941909660     
  1.810000000000000E-002    0.731386503946491     
  1.820000000000000E-002    0.719780248203429     
  1.830000000000000E-002    0.708036087479132     
  1.840000000000000E-002    0.696163986844628     
  1.850000000000000E-002    0.684173808668723     
  1.860000000000000E-002    0.672075378982408     
  1.870000000000000E-002    0.659878466326073     