 -4.000000000000000E-002    0.000000000000000E+000
 -3.990000000000000E-002    0.000000000000000E+000
 -3.980000000000000E-002    0.000000000000000E+000
 -3.970000000000000E-002    0.000000000000000E+000
 -3.960000000000000E-002    0.000000000000000E+000
 -3.950000000000000E-002    0.000000000000000E+000
 -3.940000000000000E-002    0.000000000000000E+000
 -3.930000000000000E-002    0.000000000000000E+000
 -3.920000000000000E-002    0.000000000000000E+000
 -3.910000000000000E-002    0.000000000000000E+000
 -3.900000000000000E-002    0.000000000000000E+000
 -3.890000000000000E-002    0.000000000000000E+000
 -3.880000000000000E-002    0.000000000000000E+000
 -3.870000000000000E-002    0.000000000000000E+000
 -3.860000000000000E-002    0.000000000000000E+000
 -3.850000000000000E-002    0.000000000000000E+000
 -3.840000000000000E-002    0.000000000000000E+000
 -3.830000000000000E-002    0.000000000000000E+000
 -3.820000000000000E-002    0.000000000000000E+000
 -3.810000000000000E-002    0.000000000000000E+000
 -3.800000000000000E-002    0.000000000000000E+000
 -3.790000000000000E-002    0.000000000000000E+000
 -3.780000000000000E-002    0.000000000000000E+000
 -3.770000000000000E-002    0.000000000000000E+000
 -3.760000000000000E-002    0.000000000000000E+000
 -3.750000000000000E-002    0.000000000000000E+000
 -3.740000000000000E-002    0.000000000000000E+000
 -3.730000000000000E-002    0.000000000000000E+000
 -3.720000000000000E-002    0.000000000000000E+000
 -3.710000000000000E-002    0.000000000000000E+000
 -3.700000000000000E-002    0.000000000000000E+000
 -3.690000000000000E-002    0.000000000000000E+000
 -3.680000000000000E-002    0.000000000000000E+000
 -3.670000000000000E-002    0.000000000000000E+000
 -3.660000000000000E-002    0.000000000000000E+000
 -3.650000000000000E-002    0.000000000000000E+000
 -3.640000000000000E-002    0.000000000000000E+000
 -3.630000000000000E-002    0.000000000000000E+000
 -3.620000000000000E-002    0.000000000000000E+000
 -3.610000000000000E-002    0.000000000000000E+000
 -3.600000000000000E-002    0.000000000000000E+000
 -3.590000000000000E-002    0.000000000000000E+000
 -3.580000000000000E-002    0.000000000000000E+000
 -3.570000000000000E-002    0.000000000000000E+000
 -3.560000000000000E-002    0.000000000000000E+000
 -3.550000000000000E-002    0.000000000000000E+000
 -3.540000000000000E-002    0.000000000000000E+000
 -3.530000000000000E-002    0.000000000000000E+000
 -3.520000000000000E-002    0.000000000000000E+000
 -3.510000000000000E-002    0.000000000000000E+000
 -3.500000000000000E-002    0.000000000000000E+000
 -3.490000000000000E-002    0.000000000000000E+000
 -3.480000000000000E-002    0.000000000000000E+000
 -3.470000000000000E-002    0.000000000000000E+000
 -3.460000000000000E-002    0.000000000000000E+000
 -3.450000000000000E-002    0.000000000000000E+000
 -3.440000000000000E-002    0.000000000000000E+000
 -3.430000000000000E-002    0.000000000000000E+000
 -3.420000000000000E-002    0.000000000000000E+000
 -3.410000000000000E-002    0.000000000000000E+000
 -3.400000000000000E-002    0.000000000000000E+000
 -3.390000000000000E-002    0.000000000000000E+000
 -3.380000000000000E-002    0.000000000000000E+000
 -3.370000000000000E-002    0.000000000000000E+000
 -3.360000000000000E-002    0.000000000000000E+000
 -3.350000000000000E-002    0.000000000000000E+000
 -3.340000000000000E-002    0.000000000000000E+000
 -3.330000000000000E-002    0.000000000000000E+000
 -3.320000000000000E-002    0.000000000000000E+000
 -3.310000000000000E-002    0.000000000000000E+000
 -3.300000000000000E-002    0.000000000000000E+000
 -3.290000000000000E-002    0.000000000000000E+000
 -3.280000000000000E-002    0.000000000000000E+000
 -3.270000000000000E-002    0.000000000000000E+000
 -3.260000000000000E-002    0.000000000000000E+000
 -3.250000000000000E-002    0.000000000000000E+000
 -3.240000000000000E-002    0.000000000000000E+000
 -3.230000000000000E-002    0.000000000000000E+000
 -3.220000000000000E-002    0.000000000000000E+000
 -3.210000000000000E-002    0.000000000000000E+000
 -3.200000000000000E-002    0.000000000000000E+000
 -3.190000000000000E-002    0.000000000000000E+000
 -3.180000000000000E-002    0.000000000000000E+000
 -3.170000000000000E-002    0.000000000000000E+000
 -3.160000000000000E-002    0.000000000000000E+000
 -3.150000000000000E-002    0.000000000000000E+000
 -3.140000000000000E-002    0.000000000000000E+000
 -3.130000000000000E-002    0.000000000000000E+000
 -3.120000000000000E-002    0.000000000000000E+000
 -3.110000000000000E-002    0.000000000000000E+000
 -3.100000000000000E-002    0.000000000000000E+000
 -3.090000000000000E-002    0.000000000000000E+000
 -3.080000000000000E-002    0.000000000000000E+000
 -3.070000000000000E-002    0.000000000000000E+000
 -3.060000000000000E-002    0.000000000000000E+000
 -3.050000000000000E-002    0.000000000000000E+000
 -3.040000000000000E-002    0.000000000000000E+000
 -3.030000000000000E-002    0.000000000000000E+000
 -3.020000000000000E-002    0.000000000000000E+000
 -3.010000000000000E-002    0.000000000000000E+000
 -3.000000000000000E-002    0.000000000000000E+000
 -2.990000000000000E-002    0.000000000000000E+000
 -2.980000000000000E-002    0.000000000000000E+000
 -2.970000000000000E-002    0.000000000000000E+000
 -2.960000000000000E-002    0.000000000000000E+000
 -2.950000000000000E-002    0.000000000000000E+000
 -2.940000000000000E-002    0.000000000000000E+000
 -2.930000000000000E-002    0.000000000000000E+000
 -2.920000000000000E-002    0.000000000000000E+000
 -2.910000000000000E-002    0.000000000000000E+000
 -2.900000000000000E-002    0.000000000000000E+000
 -2.890000000000000E-002    0.000000000000000E+000
 -2.880000000000000E-002    0.000000000000000E+000
 -2.870000000000000E-002    0.000000000000000E+000
 -2.860000000000000E-002    0.000000000000000E+000
 -2.850000000000000E-002    0.000000000000000E+000
 -2.840000000000000E-002    0.000000000000000E+000
 -2.830000000000000E-002    0.000000000000000E+000
 -2.820000000000000E-002    0.000000000000000E+000
 -2.810000000000000E-002    0.000000000000000E+000
 -2.800000000000000E-002    0.000000000000000E+000
 -2.790000000000000E-002    0.000000000000000E+000
 -2.780000000000000E-002    0.000000000000000E+000
 -2.770000000000000E-002    0.000000000000000E+000
 -2.760000000000000E-002    0.000000000000000E+000
 -2.750000000000000E-002    0.000000000000000E+000
 -2.740000000000000E-002    0.000000000000000E+000
 -2.730000000000000E-002    0.000000000000000E+000
 -2.720000000000000E-002    0.000000000000000E+000
 -2.710000000000000E-002    0.000000000000000E+000
 -2.700000000000000E-002    0.000000000000000E+000
 -2.690000000000000E-002    0.000000000000000E+000
 -2.680000000000000E-002    0.000000000000000E+000
 -2.670000000000000E-002    0.000000000000000E+000
 -2.660000000000000E-002    0.000000000000000E+000
 -2.650000000000000E-002    0.000000000000000E+000
 -2.640000000000000E-002    0.000000000000000E+000
 -2.630000000000000E-002    0.000000000000000E+000
 -2.620000000000000E-002    0.000000000000000E+000
 -2.610000000000000E-002    0.000000000000000E+000
 -2.600000000000000E-002    0.000000000000000E+000
 -2.590000000000000E-002    0.000000000000000E+000
 -2.580000000000000E-002    0.000000000000000E+000
 -2.570000000000000E-002    0.000000000000000E+000
 -2.560000000000000E-002    0.000000000000000E+000
 -2.550000000000000E-002    0.000000000000000E+000
 -2.540000000000000E-002    0.000000000000000E+000
 -2.530000000000000E-002    0.000000000000000E+000
 -2.520000000000000E-002    0.000000000000000E+000
 -2.510000000000000E-002    0.000000000000000E+000
 -2.500000000000000E-002    0.000000000000000E+000
 -2.490000000000000E-002    0.000000000000000E+000
 -2.480000000000000E-002    0.000000000000000E+000
 -2.470000000000000E-002    0.000000000000000E+000
 -2.460000000000000E-002    0.000000000000000E+000
 -2.450000000000000E-002    0.000000000000000E+000
 -2.440000000000000E-002    0.000000000000000E+000
 -2.430000000000000E-002    0.000000000000000E+000
 -2.420000000000000E-002    0.000000000000000E+000
 -2.410000000000000E-002    0.000000000000000E+000
 -2.400000000000000E-002    0.000000000000000E+000
 -2.390000000000000E-002    0.000000000000000E+000
 -2.380000000000000E-002    0.000000000000000E+000
 -2.370000000000000E-002    0.000000000000000E+000
 -2.360000000000000E-002    0.000000000000000E+000
 -2.350000000000000E-002    0.000000000000000E+000
 -2.340000000000000E-002    0.000000000000000E+000
 -2.330000000000000E-002    0.000000000000000E+000
 -2.320000000000000E-002    0.000000000000000E+000
 -2.310000000000000E-002    0.000000000000000E+000
 -2.300000000000000E-002    0.000000000000000E+000
 -2.290000000000000E-002    0.000000000000000E+000
 -2.280000000000000E-002    0.000000000000000E+000
 -2.270000000000000E-002    0.000000000000000E+000
 -2.260000000000000E-002    0.000000000000000E+000
 -2.250000000000000E-002    0.000000000000000E+000
 -2.240000000000000E-002    0.000000000000000E+000
 -2.230000000000000E-002    0.000000000000000E+000
 -2.220000000000000E-002   -6.414635304221270E-048
 -2.210000000000000E-002   -1.282927060844254E-047
 -2.200000000000000E-002   -1.924390591266381E-047
 -2.190000000000000E-002   -1.924390591266381E-047
 -2.180000000000000E-002   -1.282927060844254E-047
 -2.170000000000000E-002    6.414635304221270E-048
 -2.160000000000000E-002   -7.764299916511978E-048
 -2.150000000000000E-002   -3.391722103845826E-047
 -2.140000000000000E-002   -2.151559278363047E-047
 -2.130000000000000E-002    1.233489070338133E-047
 -2.120000000000000E-002    3.016239445230798E-047
 -2.110000000000000E-002    2.013800229512548E-046
 -2.100000000000000E-002    3.060317499699078E-046
 -2.090000000000000E-002    3.710066926987714E-046
 -2.080000000000000E-002    6.274047176992147E-046
 -2.070000000000000E-002    8.431767191062566E-046
 -2.060000000000000E-002    8.468109011702284E-046
 -2.050000000000000E-002    6.300752790901356E-046
 -2.040000000000000E-002    4.699750459974056E-047
 -2.030000000000000E-002   -1.675063804032643E-045
 -2.020000000000000E-002   -3.517671270798284E-045
 -2.010000000000000E-002   -5.029209436237717E-045
 -2.000000000000000E-002   -7.190481076428492E-045
 -1.990000000000000E-002   -8.729960227723409E-045
 -1.980000000000000E-002   -8.437968370506795E-045
 -1.970000000000000E-002   -6.421338990837274E-045
 -1.960000000000000E-002   -1.149548024513302E-045
 -1.950000000000000E-002    8.263976176322790E-045
 -1.940000000000000E-002    2.101384871047142E-044
 -1.930000000000000E-002    3.798685517892890E-044
 -1.920000000000000E-002    5.666321673446673E-044
 -1.910000000000000E-002    7.216589789137215E-044
 -1.900000000000000E-002    7.875554401482673E-044
 -1.890000000000000E-002    6.844793419220678E-044
 -1.880000000000000E-002    3.314774382482777E-044
 -1.870000000000000E-002   -3.611850307745330E-044
 -1.860000000000000E-002   -1.426301920129356E-043
 -1.850000000000000E-002   -2.832005796897136E-043
 -1.840000000000000E-002   -4.422994070823855E-043
 -1.830000000000000E-002   -5.884335514767234E-043
 -1.820000000000000E-002   -6.733788032931175E-043
 -1.810000000000000E-002   -6.337991089141814E-043
 -1.800000000000000E-002   -3.985268331553832E-043
 -1.790000000000000E-002    9.753384966482872E-044
 -1.780000000000000E-002    8.934465140745684E-043
 -1.770000000000000E-002    1.971803449581028E-042
 -1.760000000000000E-002    3.226451839674374E-042
 -1.750000000000000E-002    4.437793767734859E-042
 -1.740000000000000E-002    5.256653486398902E-042
 -1.730000000000000E-002    5.219433953581497E-042
 -1.720000000000000E-002    3.794638076038065E-042
 -1.710000000000000E-002    4.843578952744127E-043
 -1.700000000000000E-002   -5.023572223846234E-042
 -1.690000000000000E-002   -1.265671055198028E-041
 -1.680000000000000E-002   -2.174527597030534E-041
 -1.670000000000000E-002   -3.083123794914734E-041
 -1.660000000000000E-002   -3.756963962761662E-041
 -1.650000000000000E-002   -3.879987317043595E-041
 -1.640000000000000E-002   -3.088296357837973E-041
 -1.630000000000000E-002   -1.035004095684479E-041
 -1.620000000000000E-002    2.509911418114907E-041
 -1.610000000000000E-002    7.531380497733989E-041
 -1.600000000000000E-002    1.362889740970534E-040
 -1.590000000000000E-002    1.989368270314379E-040
 -1.580000000000000E-002    2.484414609363362E-040
 -1.570000000000000E-002    2.647042360042171E-040
 -1.560000000000000E-002    2.244019960611144E-040
 -1.550000000000000E-002    1.050210553858055E-040
 -1.540000000000000E-002   -1.089971757638925E-040
 -1.530000000000000E-002   -4.184053347329985E-040
 -1.520000000000000E-002   -8.005983348875706E-040
 -1.510000000000000E-002   -1.202139209382358E-039
 -1.500000000000000E-002   -1.534835160156692E-039
 -1.490000000000000E-002   -1.678321199161435E-039
 -1.480000000000000E-002   -1.492087459248834E-039
 -1.470000000000000E-002   -8.391049573629855E-040
 -1.460000000000000E-002    3.784808687576863E-040
 -1.450000000000000E-002    2.173925022980100E-039
 -1.440000000000000E-002    4.426701968595670E-039
 -1.430000000000000E-002    6.839706082653964E-039
 -1.420000000000000E-002    8.916771818096288E-039
 -1.410000000000000E-002    9.976844201300113E-039
 -1.400000000000000E-002    9.220747585716652E-039
 -1.390000000000000E-002    5.861909769079005E-039
 -1.380000000000000E-002   -6.772052060534457E-040
 -1.370000000000000E-002   -1.051645148127929E-038
 -1.360000000000000E-002   -2.305026302622963E-038
 -1.350000000000000E-002   -3.671565657064319E-038
 -1.340000000000000E-002   -4.887024180436976E-038
 -1.330000000000000E-002   -5.586594076544150E-038
 -1.320000000000000E-002   -5.340025016194942E-038
 -1.310000000000000E-002   -3.720186862790909E-038
 -1.300000000000000E-002   -4.055579835247170E-039
 -1.290000000000000E-002    4.690709026619564E-038
 -1.280000000000000E-002    1.128252127058820E-037
 -1.270000000000000E-002    1.859151538148781E-037
 -1.260000000000000E-002    2.528423842985095E-037
 -1.250000000000000E-002    2.950846796300948E-037
 -1.240000000000000E-002    2.906866555087086E-037
 -1.230000000000000E-002    2.176732774672062E-037
 -1.220000000000000E-002    5.912900495839677E-038
 -1.210000000000000E-002   -1.904391446776515E-037
 -1.200000000000000E-002   -5.183169117570243E-037
 -1.190000000000000E-002   -8.877528756108344E-037
 -1.180000000000000E-002   -1.234886217720677E-036
 -1.170000000000000E-002   -1.470453058828758E-036
 -1.160000000000000E-002   -1.488128414681072E-036
 -1.150000000000000E-002   -1.180700767303457E-036
 -1.140000000000000E-002   -4.640256590194733E-037
 -1.130000000000000E-002    6.931153094658931E-037
 -1.120000000000000E-002    2.237340684152542E-036
 -1.110000000000000E-002    4.003575706368852E-036
 -1.100000000000000E-002    5.700806129833231E-036
 -1.090000000000000E-002    6.919790360629988E-036
 -1.080000000000000E-002    7.170954087001441E-036
 -1.070000000000000E-002    5.957553563269782E-036
 -1.060000000000000E-002    2.883479708338765E-036
 -1.050000000000000E-002   -2.213090217591113E-036
 -1.040000000000000E-002   -9.118685628172989E-036
 -1.030000000000000E-002   -1.712461875465785E-035
 -1.020000000000000E-002   -2.496431579908884E-035
 -1.010000000000000E-002   -3.084716751024804E-035
 -1.000000000000000E-002   -3.262368900831976E-035
 -9.899999999999999E-003   -2.810250925356468E-035
 -9.800000000000000E-003   -1.551469554929671E-035
 -9.699999999999999E-003    5.913884036713942E-036
 -9.599999999999999E-003    3.536246505123544E-035
 -9.500000000000000E-003    6.990843537136011E-035
 -9.399999999999999E-003    1.042654023404092E-034
 -9.299999999999999E-003    1.309282030354653E-034
 -9.200000000000000E-003    1.408656612771589E-034
 -9.099999999999999E-003    1.248398276182022E-034
 -8.999999999999999E-003    7.532617723013789E-035
 -8.900000000000000E-003   -1.113477504170127E-035
 -8.799999999999999E-003   -1.314881729725676E-034
 -8.699999999999999E-003   -2.741119624097576E-034
 -8.600000000000000E-003   -4.177721498077402E-034
 -8.499999999999999E-003   -5.322281308765274E-034
 -8.399999999999999E-003   -5.810343424192488E-034
 -8.300000000000000E-003   -5.268274087358827E-034
 -8.199999999999999E-003   -3.389667526835190E-034
 -8.100000000000000E-003   -2.831151327128360E-036
 -8.000000000000000E-003    4.705659389650483E-034
 -7.899999999999999E-003    1.036585341336873E-033
 -7.800000000000000E-003    1.612963890679606E-033
 -7.699999999999999E-003    2.082262331513103E-033
 -7.599999999999999E-003    2.302792498086740E-033
 -7.499999999999999E-003    2.129049359813656E-033
 -7.399999999999999E-003    1.441020202879943E-033
 -7.299999999999999E-003    1.796158208365686E-034
 -7.199999999999999E-003   -1.616934797278913E-033
 -7.100000000000000E-003   -3.783082733644529E-033
 -6.999999999999999E-003   -6.011206094049492E-033
 -6.899999999999999E-003   -7.861121594048338E-033
 -6.800000000000000E-003   -8.801200735594233E-033
 -6.699999999999999E-003   -8.284520223032794E-033
 -6.599999999999999E-003   -5.857384718214135E-033
 -6.499999999999999E-003   -1.289670527338819E-033
 -6.399999999999999E-003    5.292109337279385E-033
 -6.299999999999999E-003    1.329594363017833E-032
 -6.199999999999999E-003    2.161157959413064E-032
 -6.100000000000000E-003    2.864595352095822E-032
 -5.999999999999999E-003    3.247229524487687E-032
 -5.899999999999999E-003    3.110408406230721E-032
 -5.800000000000000E-003    2.288303790895364E-032
 -5.699999999999999E-003    6.942484967045894E-033
 -5.599999999999999E-003   -1.632232926061712E-032
 -5.499999999999999E-003   -4.487193605035567E-032
 -5.399999999999999E-003   -7.483960246506331E-032
 -5.299999999999999E-003   -1.006577085419443E-031
 -5.199999999999999E-003   -1.155791656684421E-031
 -5.099999999999999E-003   -1.126291990025223E-031
 -4.999999999999999E-003   -8.594574018510868E-032
 -4.899999999999999E-003   -3.237216507372209E-032
 -4.799999999999999E-003    4.693440253810186E-032
 -4.699999999999999E-003    1.452032059082506E-031
 -4.599999999999999E-003    2.494328780001821E-031
 -4.499999999999999E-003    3.408238232961525E-031
 -4.399999999999999E-003    3.965398547945230E-031
 -4.299999999999999E-003    3.929037506105334E-031
 -4.199999999999999E-003    3.098763092269799E-031
 -4.099999999999999E-003    1.363544330620258E-031
 -3.999999999999999E-003   -1.245046359421474E-031
 -3.899999999999999E-003   -4.510003246247549E-031
 -3.799999999999999E-003   -8.008708456845790E-031
 -3.699999999999999E-003   -1.112720584842139E-030
 -3.599999999999999E-003   -1.311773552753326E-030
 -3.499999999999999E-003   -1.320263335368682E-030
 -3.399999999999999E-003   -1.071928256108106E-030
 -3.299999999999999E-003   -5.290837535328138E-031
 -3.199999999999999E-003    3.002927924674895E-031
 -3.099999999999999E-003    1.348881681989736E-030
 -2.999999999999999E-003    2.483614359583952E-030
 -2.899999999999999E-003    3.510229853121316E-030
 -2.799999999999999E-003    4.191492844552477E-030
 -2.699999999999999E-003    4.279946144156964E-030
 -2.599999999999999E-003    3.563409738112724E-030
 -2.499999999999999E-003    1.918360081935714E-030
 -2.399999999999999E-003   -6.368611674161492E-031
 -2.299999999999999E-003   -3.899624475323725E-030
 -2.199999999999999E-003   -7.463245120640764E-030
 -2.099999999999999E-003   -1.073108356213410E-029
 -1.999999999999999E-003   -1.297254571368146E-029
 -1.899999999999999E-003   -1.342333018601272E-029
 -1.799999999999999E-003   -1.142418696344199E-029
 -1.699999999999999E-003   -6.583104115423898E-030
 -1.599999999999999E-003    1.063621612071203E-030
 -1.499999999999999E-003    1.092340706900755E-029
 -1.399999999999999E-003    2.178798828409730E-029
 -1.299999999999999E-003    3.187567586185364E-029
 -1.199999999999999E-003    3.899860896325140E-029
 -1.099999999999999E-003    4.086105571797063E-029
 -9.999999999999989E-004    3.547108372535953E-029
 -8.999999999999990E-004    2.162003867315144E-029
 -7.999999999999990E-004   -6.426565304520431E-031
 -6.999999999999989E-004   -2.963330688879864E-029
 -5.999999999999990E-004   -6.185946010806665E-029
 -4.999999999999989E-004   -9.214235543702678E-029
 -3.999999999999989E-004   -1.141023796229305E-028
 -2.999999999999989E-004   -1.210228458278809E-028
 -1.999999999999989E-004   -1.070387854805229E-028
 -9.999999999999892E-005   -6.851825564942585E-029
  1.084202172485504E-018   -5.426863737597762E-030
  1.000000000000011E-004    7.759267029351776E-029
  2.000000000000011E-004    1.707179585063007E-028
  3.000000000000011E-004    2.592889740081549E-028
  4.000000000000011E-004    3.251771464488287E-028
  5.000000000000011E-004    3.492201618793517E-028
  6.000000000000011E-004    3.145667141030834E-028
  7.000000000000011E-004    2.105565038582943E-028
  8.000000000000011E-004    3.654733953366903E-029
  9.000000000000012E-004   -1.950557872877711E-028
  1.000000000000001E-003   -4.573787746822949E-028
  1.100000000000001E-003   -7.099957442452644E-028
  1.200000000000001E-003   -9.026814987477844E-028
  1.300000000000001E-003   -9.820927284323120E-028
  1.400000000000001E-003   -9.009422904288386E-028
  1.500000000000001E-003   -6.286313269349248E-028
  1.600000000000001E-003   -1.617361575233044E-028
  1.700000000000001E-003    4.676775909566173E-028
  1.800000000000001E-003    1.188094405582986E-027
  1.900000000000001E-003    1.890906088682996E-027
  2.000000000000001E-003    2.440403416644928E-027
  2.100000000000001E-003    2.691631574620141E-027
  2.200000000000001E-003    2.514930863347685E-027
  2.300000000000001E-003    1.824380408997486E-027
  2.400000000000001E-003    6.058786165613978E-028
  2.500000000000001E-003   -1.060509861613745E-027
  2.600000000000001E-003   -2.989691525732061E-027
  2.700000000000001E-003   -4.897322824417716E-027
  2.800000000000001E-003   -6.425661765897091E-027
  2.900000000000001E-003   -7.190062685252056E-027
  3.000000000000001E-003   -6.843011717666104E-027
  3.100000000000001E-003   -5.148457926939520E-027
  3.200000000000001E-003   -2.055338505328361E-027
  3.300000000000001E-003    2.243574864751743E-027
  3.400000000000001E-003    7.282356034980981E-027
  3.500000000000001E-003    1.233535605984270E-026
  3.600000000000001E-003    1.648219668106470E-026
  3.700000000000001E-003    1.872577365341614E-026
  3.800000000000001E-003    1.815537449202288E-026
  3.900000000000001E-003    1.413645886634873E-026
  4.000000000000001E-003    6.499045270075492E-027
  4.100000000000001E-003   -4.310435372895318E-027
  4.200000000000001E-003   -1.715121861488263E-026
  4.300000000000001E-003   -3.021757921003752E-026
  4.400000000000001E-003   -4.119758780774553E-026
  4.500000000000001E-003   -4.756518786104977E-026
  4.600000000000002E-003   -4.698589182298983E-026
  4.700000000000001E-003   -3.779064116518688E-026
  4.800000000000001E-003   -1.944820603706014E-026
  4.900000000000002E-003    7.050560714644080E-027
  5.000000000000001E-003    3.898906550093063E-026
  5.100000000000001E-003    7.198424207048699E-026
  5.200000000000001E-003    1.003635260681421E-025
  5.300000000000002E-003    1.178700161043626E-025
  5.400000000000001E-003    1.186484625192534E-025
  5.500000000000001E-003    9.840261745007156E-026
  5.600000000000002E-003    5.555560313980505E-026
  5.700000000000001E-003   -7.796529257528349E-027
  5.800000000000001E-003   -8.536139923680938E-026
  5.900000000000002E-003   -1.667566649365692E-025
  6.000000000000001E-003   -2.383799980167636E-025
  6.100000000000001E-003   -2.850705627817041E-025
  6.200000000000002E-003   -2.924521214089384E-025
  6.300000000000002E-003   -2.496999537378246E-025
  6.400000000000001E-003   -1.523338928440360E-025
  6.500000000000001E-003   -4.540945966303915E-027
  6.600000000000002E-003    1.795025605108486E-025
  6.700000000000001E-003    3.757840657306616E-025
  6.800000000000001E-003    5.524057326718033E-025
  6.900000000000002E-003    6.734056924045249E-025
  7.000000000000001E-003    7.042060270953056E-025
  7.100000000000001E-003    6.180928992920091E-025
  7.200000000000002E-003    4.028099818340424E-025
  7.300000000000002E-003    6.611339561010654E-026
  7.400000000000001E-003   -3.609436881381467E-025
  7.500000000000001E-003   -8.241097921225226E-025
  7.600000000000002E-003   -1.250179353931022E-024
  7.700000000000001E-003   -1.555578906985390E-024
  7.800000000000001E-003   -1.658765380379926E-024
  7.900000000000001E-003   -1.495100139782406E-024
  8.000000000000002E-003   -1.032126725015959E-024
  8.100000000000001E-003   -2.826292829116261E-025
  8.200000000000001E-003    6.873446298558151E-025
  8.300000000000002E-003    1.758049629942476E-024
  8.400000000000001E-003    2.764985997774402E-024
  8.500000000000002E-003    3.517738657635719E-024
  8.600000000000002E-003    3.827600105749341E-024
  8.700000000000001E-003    3.541059793128073E-024
  8.800000000000002E-003    2.574561447890600E-024
  8.900000000000002E-003    9.446870670034973E-025
  9.000000000000001E-003   -1.212548270576609E-024
  9.100000000000002E-003   -3.639079651973758E-024
  9.200000000000002E-003   -5.972974908982578E-024
  9.300000000000001E-003   -7.788774726458017E-024
  9.400000000000002E-003   -8.657746333424686E-024
  9.500000000000001E-003   -8.221839708903529E-024
  9.600000000000001E-003   -6.271359687247310E-024
  9.700000000000002E-003   -2.813598643838545E-024
  9.800000000000001E-003    1.881506474343435E-024
  9.900000000000001E-003    7.271599196607724E-024
  1.000000000000000E-002    1.257738152991202E-023
  1.010000000000000E-002    1.686682156143100E-023
  1.020000000000000E-002    1.918380855268364E-023
  1.030000000000000E-002    1.870831515126406E-023
  1.040000000000000E-002    1.492691228829297E-023
  1.050000000000000E-002    7.786220308948443E-024
  1.060000000000000E-002   -2.200868381915866E-024
  1.070000000000000E-002   -1.392449792362191E-023
  1.080000000000000E-002   -2.574377396981928E-023
  1.090000000000000E-002   -3.565793460448816E-023
  1.100000000000000E-002   -4.157519187866224E-023
  1.110000000000000E-002   -4.165289046040564E-023
  1.120000000000000E-002   -3.466508114043499E-023
  1.130000000000000E-002   -2.033982120064116E-023
  1.140000000000000E-002    3.980552351270287E-025
  1.150000000000000E-002    2.533985210439599E-023
  1.160000000000000E-002    5.110810484625565E-023
  1.170000000000000E-002    7.349543784891679E-023
  1.180000000000000E-002    8.801405836448374E-023
  1.190000000000000E-002    9.060428886498219E-023
  1.200000000000000E-002    7.841289581244439E-023
  1.210000000000000E-002    5.052172451027241E-023
  1.220000000000000E-002    8.492316503314836E-024
  1.230000000000000E-002   -4.340346654510126E-023
  1.240000000000000E-002   -9.836864024753600E-023
  1.250000000000000E-002   -1.477328541637122E-022
  1.260000000000000E-002   -1.820519659424385E-022
  1.270000000000000E-002   -1.925564636973137E-022
  1.280000000000000E-002   -1.727703282667837E-022
  1.290000000000000E-002   -1.200587208760220E-022
  1.300000000000000E-002   -3.682725017571526E-023
  1.310000000000000E-002    6.889910984607384E-023
  1.320000000000000E-002    1.837361387958236E-022
  1.330000000000000E-002    2.901583955813170E-022
  1.340000000000000E-002    3.686534147357531E-022
  1.350000000000000E-002    4.006285863461067E-022
  1.360000000000000E-002    3.717227852157995E-022
  1.370000000000000E-002    2.750398300112191E-022
  1.380000000000000E-002    1.137427072382138E-022
  1.390000000000000E-002   -9.755173417961950E-023
  1.400000000000000E-002   -3.330429594919942E-022
  1.410000000000000E-002   -5.579499195132367E-022
  1.420000000000000E-002   -7.326449336966167E-022
  1.430000000000000E-002   -8.183840550517320E-022
  1.440000000000000E-002   -7.839714881738942E-022
  1.450000000000000E-002   -6.124115830452582E-022
  1.460000000000000E-002   -3.064277272351490E-022
  1.470000000000000E-002    1.082910669987227E-022
  1.480000000000000E-002    5.830855596231325E-022
  1.490000000000000E-002    1.050167844482771E-021
  1.500000000000000E-002    1.430376732708527E-021
  1.510000000000000E-002    1.644277618933013E-021
  1.520000000000000E-002    1.625360572334466E-021
  1.530000000000000E-002    1.333516811600167E-021
  1.540000000000000E-002    7.665916595953612E-022
  1.550000000000000E-002   -3.227083947674538E-023
  1.560000000000000E-002   -9.734846783536345E-022
  1.570000000000000E-002   -1.927410519430197E-021
  1.580000000000000E-002   -2.738566229151805E-021
  1.590000000000000E-002   -3.246729882505328E-021
  1.600000000000000E-002   -3.312650566886673E-021
  1.610000000000000E-002   -2.844933673882421E-021
  1.620000000000000E-002   -1.823831543680370E-021
  1.630000000000000E-002   -3.174330961296762E-022
  1.640000000000000E-002    1.513801040031186E-021
  1.650000000000000E-002    3.426996222534453E-021
  1.660000000000000E-002    5.122235983504897E-021
  1.670000000000000E-002    6.281904693672480E-021
  1.680000000000000E-002    6.619941156652257E-021
  1.690000000000000E-002    5.934598575203574E-021
  1.700000000000000E-002    4.156619345868410E-021
  1.710000000000000E-002    1.384025534033039E-021
  1.720000000000000E-002   -2.104568346498798E-021
  1.730000000000000E-002   -5.864078752810840E-021
  1.740000000000000E-002   -9.326978168165056E-021
  1.750000000000000E-002   -1.187517645355754E-020
  1.760000000000000E-002   -1.293272442652959E-020
  1.770000000000000E-002   -1.206767606484868E-020
  1.780000000000000E-002   -9.087912163391655E-021
  1.790000000000000E-002   -4.114092574020919E-021
  1.800000000000000E-002    2.386228912162178E-021
  1.810000000000000E-002    9.615580956370530E-021
  1.820000000000000E-002    1.652061259397839E-020
  1.830000000000000E-002    2.192079681011287E-020
  1.840000000000000E-002    2.467993937638279E-020
  1.850000000000000E-002    2.389961217126875E-020
  1.860000000000000E-002    1.910643211820236E-020
  1.870000000000000E-002    1.040147265130082E-020