 -4.000000000000000E-002    0.000000000000000E+000
 -3.990000000000000E-002    0.000000000000000E+000
 -3.980000000000000E-002    0.000000000000000E+000
 -3.970000000000000E-002    0.000000000000000E+000
 -3.960000000000000E-002    0.000000000000000E+000
 -3.950000000000000E-002    0.000000000000000E+000
 -3.940000000000000E-002    0.000000000000000E+000
 -3.930000000000000E-002    0.000000000000000E+000
 -3.920000000000000E-002    0.000000000000000E+000
 -3.910000000000000E-002    0.000000000000000E+000
 -3.900000000000000E-002    0.000000000000000E+000
 -3.890000000000000E-002    0.000000000000000E+000
 -3.880000000000000E-002    0.000000000000000E+000
 -3.870000000000000E-002    0.000000000000000E+000
 -3.860000000000000E-002    0.000000000000000E+000
 -3.850000000000000E-002    0.000000000000000E+000
 -3.840000000000000E-002    0.000000000000000E+000
 -3.830000000000000E-002    0.000000000000000E+000
 -3.820000000000000E-002    0.000000000000000E+000
 -3.810000000000000E-002    0.000000000000000E+000
 -3.800000000000000E-002    0.000000000000000E+000
 -3.790000000000000E-002    0.000000000000000E+000
 -3.780000000000000E-002    0.000000000000000E+000
 -3.770000000000000E-002    0.000000000000000E+000
 -3.760000000000000E-002    0.000000000000000E+000
 -3.750000000000000E-002    0.000000000000000E+000
 -3.740000000000000E-002    0.000000000000000E+000
 -3.730000000000000E-002    0.000000000000000E+000
 -3.720000000000000E-002    0.000000000000000E+000
 -3.710000000000000E-002    0.000000000000000E+000
 -3.700000000000000E-002    0.000000000000000E+000
 -3.690000000000000E-002    0.000000000000000E+000
 -3.680000000000000E-002    0.000000000000000E+000
 -3.670000000000000E-002    0.000000000000000E+000
 -3.660000000000000E-002    0.000000000000000E+000
 -3.650000000000000E-002    0.000000000000000E+000
 -3.640000000000000E-002    0.000000000000000E+000
 -3.630000000000000E-002    0.000000000000000E+000
 -3.620000000000000E-002    0.000000000000000E+000
 -3.610000000000000E-002    0.000000000000000E+000
 -3.600000000000000E-002    0.000000000000000E+000
 -3.590000000000000E-002    0.000000000000000E+000
 -3.580000000000000E-002    0.000000000000000E+000
 -3.570000000000000E-002    0.000000000000000E+000
 -3.560000000000000E-002    0.000000000000000E+000
 -3.550000000000000E-002    0.000000000000000E+000
 -3.540000000000000E-002    0.000000000000000E+000
 -3.530000000000000E-002    0.000000000000000E+000
 -3.520000000000000E-002    0.000000000000000E+000
 -3.510000000000000E-002    0.000000000000000E+000
 -3.500000000000000E-002    0.000000000000000E+000
 -3.490000000000000E-002    0.000000000000000E+000
 -3.480000000000000E-002    0.000000000000000E+000
 -3.470000000000000E-002    0.000000000000000E+000
 -3.460000000000000E-002    0.000000000000000E+000
 -3.450000000000000E-002    0.000000000000000E+000
 -3.440000000000000E-002    0.000000000000000E+000
 -3.430000000000000E-002    0.000000000000000E+000
 -3.420000000000000E-002    0.000000000000000E+000
 -3.410000000000000E-002    0.000000000000000E+000
 -3.400000000000000E-002    0.000000000000000E+000
 -3.390000000000000E-002    0.000000000000000E+000
 -3.380000000000000E-002    0.000000000000000E+000
 -3.370000000000000E-002    0.000000000000000E+000
 -3.360000000000000E-002    0.000000000000000E+000
 -3.350000000000000E-002    0.000000000000000E+000
 -3.340000000000000E-002    0.000000000000000E+000
 -3.330000000000000E-002    0.000000000000000E+000
 -3.320000000000000E-002    0.000000000000000E+000
 -3.310000000000000E-002    0.000000000000000E+000
 -3.300000000000000E-002    0.000000000000000E+000
 -3.290000000000000E-002    0.000000000000000E+000
 -3.280000000000000E-002    0.000000000000000E+000
 -3.270000000000000E-002    0.000000000000000E+000
 -3.260000000000000E-002    0.000000000000000E+000
 -3.250000000000000E-002    0.000000000000000E+000
 -3.240000000000000E-002    0.000000000000000E+000
 -3.230000000000000E-002    0.000000000000000E+000
 -3.220000000000000E-002    0.000000000000000E+000
 -3.210000000000000E-002    0.000000000000000E+000
 -3.200000000000000E-002    0.000000000000000E+000
 -3.190000000000000E-002    0.000000000000000E+000
 -3.180000000000000E-002    0.000000000000000E+000
 -3.170000000000000E-002    0.000000000000000E+000
 -3.160000000000000E-002    0.000000000000000E+000
 -3.150000000000000E-002    0.000000000000000E+000
 -3.140000000000000E-002    0.000000000000000E+000
 -3.130000000000000E-002    0.000000000000000E+000
 -3.120000000000000E-002    0.000000000000000E+000
 -3.110000000000000E-002    0.000000000000000E+000
 -3.100000000000000E-002    0.000000000000000E+000
 -3.090000000000000E-002    0.000000000000000E+000
 -3.080000000000000E-002    0.000000000000000E+000
 -3.070000000000000E-002    0.000000000000000E+000
 -3.060000000000000E-002    0.000000000000000E+000
 -3.050000000000000E-002    0.000000000000000E+000
 -3.040000000000000E-002    0.000000000000000E+000
 -3.030000000000000E-002    0.000000000000000E+000
 -3.020000000000000E-002    0.000000000000000E+000
 -3.010000000000000E-002    0.000000000000000E+000
 -3.000000000000000E-002    0.000000000000000E+000
 -2.990000000000000E-002    0.000000000000000E+000
 -2.980000000000000E-002    0.000000000000000E+000
 -2.970000000000000E-002    0.000000000000000E+000
 -2.960000000000000E-002    0.000000000000000E+000
 -2.950000000000000E-002    0.000000000000000E+000
 -2.940000000000000E-002    0.000000000000000E+000
 -2.930000000000000E-002    0.000000000000000E+000
 -2.920000000000000E-002    0.000000000000000E+000
 -2.910000000000000E-002    0.000000000000000E+000
 -2.900000000000000E-002    0.000000000000000E+000
 -2.890000000000000E-002    0.000000000000000E+000
 -2.880000000000000E-002    0.000000000000000E+000
 -2.870000000000000E-002    0.000000000000000E+000
 -2.860000000000000E-002    0.000000000000000E+000
 -2.850000000000000E-002    0.000000000000000E+000
 -2.840000000000000E-002    0.000000000000000E+000
 -2.830000000000000E-002    0.000000000000000E+000
 -2.820000000000000E-002    0.000000000000000E+000
 -2.810000000000000E-002    0.000000000000000E+000
 -2.800000000000000E-002    0.000000000000000E+000
 -2.790000000000000E-002    0.000000000000000E+000
 -2.780000000000000E-002    0.000000000000000E+000
 -2.770000000000000E-002    0.000000000000000E+000
 -2.760000000000000E-002    0.000000000000000E+000
 -2.750000000000000E-002    0.000000000000000E+000
 -2.740000000000000E-002    0.000000000000000E+000
 -2.730000000000000E-002    0.000000000000000E+000
 -2.720000000000000E-002    0.000000000000000E+000
 -2.710000000000000E-002    0.000000000000000E+000
 -2.700000000000000E-002    0.000000000000000E+000
 -2.690000000000000E-002    0.000000000000000E+000
 -2.680000000000000E-002    0.000000000000000E+000
 -2.670000000000000E-002    0.000000000000000E+000
 -2.660000000000000E-002    0.000000000000000E+000
 -2.650000000000000E-002    0.000000000000000E+000
 -2.640000000000000E-002    0.000000000000000E+000
 -2.630000000000000E-002    0.000000000000000E+000
 -2.620000000000000E-002    0.000000000000000E+000
 -2.610000000000000E-002    0.000000000000000E+000
 -2.600000000000000E-002    0.000000000000000E+000
 -2.590000000000000E-002    0.000000000000000E+000
 -2.580000000000000E-002    0.000000000000000E+000
 -2.570000000000000E-002    0.000000000000000E+000
 -2.560000000000000E-002    0.000000000000000E+000
 -2.550000000000000E-002    0.000000000000000E+000
 -2.540000000000000E-002    0.000000000000000E+000
 -2.530000000000000E-002    0.000000000000000E+000
 -2.520000000000000E-002    0.000000000000000E+000
 -2.510000000000000E-002    0.000000000000000E+000
 -2.500000000000000E-002    0.000000000000000E+000
 -2.490000000000000E-002    0.000000000000000E+000
 -2.480000000000000E-002    0.000000000000000E+000
 -2.470000000000000E-002    0.000000000000000E+000
 -2.460000000000000E-002    0.000000000000000E+000
 -2.450000000000000E-002    0.000000000000000E+000
 -2.440000000000000E-002    0.000000000000000E+000
 -2.430000000000000E-002    0.000000000000000E+000
 -2.420000000000000E-002    0.000000000000000E+000
 -2.410000000000000E-002    0.000000000000000E+000
 -2.400000000000000E-002    0.000000000000000E+000
 -2.390000000000000E-002    0.000000000000000E+000
 -2.380000000000000E-002    0.000000000000000E+000
 -2.370000000000000E-002    0.000000000000000E+000
 -2.360000000000000E-002    0.000000000000000E+000
 -2.350000000000000E-002    0.000000000000000E+000
 -2.340000000000000E-002    0.000000000000000E+000
 -2.330000000000000E-002    0.000000000000000E+000
 -2.320000000000000E-002    0.000000000000000E+000
 -2.310000000000000E-002    0.000000000000000E+000
 -2.300000000000000E-002    0.000000000000000E+000
 -2.290000000000000E-002    0.000000000000000E+000
 -2.280000000000000E-002    0.000000000000000E+000
 -2.270000000000000E-002    0.000000000000000E+000
 -2.260000000000000E-002    0.000000000000000E+000
 -2.250000000000000E-002    0.000000000000000E+000
 -2.240000000000000E-002    0.000000000000000E+000
 -2.230000000000000E-002    0.000000000000000E+000
 -2.220000000000000E-002    0.000000000000000E+000
 -2.210000000000000E-002    0.000000000000000E+000
 -2.200000000000000E-002    0.000000000000000E+000
 -2.190000000000000E-002    0.000000000000000E+000
 -2.180000000000000E-002    0.000000000000000E+000
 -2.170000000000000E-002    0.000000000000000E+000
 -2.160000000000000E-002    0.000000000000000E+000
 -2.150000000000000E-002    0.000000000000000E+000
 -2.140000000000000E-002    0.000000000000000E+000
 -2.130000000000000E-002    0.000000000000000E+000
 -2.120000000000000E-002    0.000000000000000E+000
 -2.110000000000000E-002    0.000000000000000E+000
 -2.100000000000000E-002    0.000000000000000E+000
 -2.090000000000000E-002    0.000000000000000E+000
 -2.080000000000000E-002    0.000000000000000E+000
 -2.070000000000000E-002    0.000000000000000E+000
 -2.060000000000000E-002    0.000000000000000E+000
 -2.050000000000000E-002    0.000000000000000E+000
 -2.040000000000000E-002    0.000000000000000E+000
 -2.030000000000000E-002    0.000000000000000E+000
 -2.020000000000000E-002    0.000000000000000E+000
 -2.010000000000000E-002    0.000000000000000E+000
 -2.000000000000000E-002    0.000000000000000E+000
 -1.990000000000000E-002    0.000000000000000E+000
 -1.980000000000000E-002    0.000000000000000E+000
 -1.970000000000000E-002    0.000000000000000E+000
 -1.960000000000000E-002    0.000000000000000E+000
 -1.950000000000000E-002    0.000000000000000E+000
 -1.940000000000000E-002    0.000000000000000E+000
 -1.930000000000000E-002    0.000000000000000E+000
 -1.920000000000000E-002   -1.924390591266381E-047
 -1.910000000000000E-002   -2.029026882677315E-046
 -1.900000000000000E-002   -3.929761059270204E-046
 -1.890000000000000E-002   -5.830495235863094E-046
 -1.880000000000000E-002   -7.538790353329345E-046
 -1.870000000000000E-002   -7.153912235076069E-046
 -1.860000000000000E-002   -4.290982762849989E-046
 -1.850000000000000E-002    4.017563826985908E-046
 -1.840000000000000E-002    1.725855671009392E-045
 -1.830000000000000E-002    4.689848546724893E-045
 -1.820000000000000E-002    6.658978282851207E-045
 -1.810000000000000E-002    8.341815071754913E-045
 -1.800000000000000E-002    8.932962583014966E-045
 -1.790000000000000E-002    6.618610266408357E-045
 -1.780000000000000E-002    9.157769090946276E-046
 -1.770000000000000E-002   -8.701216204671491E-045
 -1.760000000000000E-002   -2.315277397629369E-044
 -1.750000000000000E-002   -4.062834630223005E-044
 -1.740000000000000E-002   -5.790591127538755E-044
 -1.730000000000000E-002   -7.038099409304976E-044
 -1.720000000000000E-002   -7.196517041310056E-044
 -1.710000000000000E-002   -5.472564252343987E-044
 -1.700000000000000E-002   -9.787761028144765E-045
 -1.690000000000000E-002    6.671402747468071E-044
 -1.680000000000000E-002    1.744662037383148E-043
 -1.670000000000000E-002    3.041828582077313E-043
 -1.660000000000000E-002    4.336000450995217E-043
 -1.650000000000000E-002    5.292219452359453E-043
 -1.640000000000000E-002    5.445484475364393E-043
 -1.630000000000000E-002    4.217299195034007E-043
 -1.620000000000000E-002    1.094894953915931E-043
 -1.610000000000000E-002   -4.269785054716187E-043
 -1.600000000000000E-002   -1.184180397458098E-042
 -1.590000000000000E-002   -2.096555725741584E-042
 -1.580000000000000E-002   -3.018360516017745E-042
 -1.570000000000000E-002   -3.709888019424291E-042
 -1.560000000000000E-002   -3.849627113352100E-042
 -1.550000000000000E-002   -3.064249556187616E-042
 -1.540000000000000E-002   -1.004900478108634E-042
 -1.530000000000000E-002    2.553804458426663E-042
 -1.520000000000000E-002    7.578296559963493E-042
 -1.510000000000000E-002    1.363122616857810E-041
 -1.500000000000000E-002    1.974784252328560E-041
 -1.490000000000000E-002    2.438584169320092E-041
 -1.480000000000000E-002    2.548434883242493E-041
 -1.470000000000000E-002    2.070646801850137E-041
 -1.460000000000000E-002    7.878855234476506E-042
 -1.450000000000000E-002   -1.434586615122659E-041
 -1.440000000000000E-002   -4.567796081698320E-041
 -1.430000000000000E-002   -8.333471083310820E-041
 -1.420000000000000E-002   -1.213467955292377E-040
 -1.410000000000000E-002   -1.503008296204393E-040
 -1.400000000000000E-002   -1.578101994640937E-040
 -1.390000000000000E-002   -1.300203780116224E-040
 -1.380000000000000E-002   -5.430299428964997E-041
 -1.370000000000000E-002    7.686933688268996E-041
 -1.360000000000000E-002    2.612371611104426E-040
 -1.350000000000000E-002    4.819861302364629E-040
 -1.340000000000000E-002    7.040744947731366E-040
 -1.330000000000000E-002    8.731753845470499E-040
 -1.320000000000000E-002    9.188857669308630E-040
 -1.310000000000000E-002    7.636781393978420E-040
 -1.300000000000000E-002    3.383826654485250E-040
 -1.290000000000000E-002   -3.962261843921628E-040
 -1.280000000000000E-002   -1.423938686707748E-039
 -1.270000000000000E-002   -2.648012911996505E-039
 -1.260000000000000E-002   -3.872928791004562E-039
 -1.250000000000000E-002   -4.801067412912375E-039
 -1.240000000000000E-002   -5.052822211635035E-039
 -1.230000000000000E-002   -4.217209101241875E-039
 -1.220000000000000E-002   -1.936085286199124E-039
 -1.210000000000000E-002    1.981632700395451E-039
 -1.200000000000000E-002    7.428574439997801E-039
 -1.190000000000000E-002    1.387384671613581E-038
 -1.180000000000000E-002    2.027799639416385E-038
 -1.170000000000000E-002    2.508874169540735E-038
 -1.160000000000000E-002    2.635869386179410E-038
 -1.150000000000000E-002    2.201694476183925E-038
 -1.140000000000000E-002    1.030468233372095E-038
 -1.130000000000000E-002   -9.649845035180426E-039
 -1.120000000000000E-002   -3.718744117278583E-038
 -1.110000000000000E-002   -6.952646646279186E-038
 -1.100000000000000E-002   -1.013911215078553E-037
 -1.090000000000000E-002   -1.250546348839628E-037
 -1.080000000000000E-002   -1.309865555760265E-037
 -1.070000000000000E-002   -1.092388639894581E-037
 -1.060000000000000E-002   -5.159327466952286E-038
 -1.050000000000000E-002    4.567902557867675E-038
 -1.040000000000000E-002    1.788099654658813E-037
 -1.030000000000000E-002    3.338743501292707E-037
 -1.020000000000000E-002    4.852676123570723E-037
 -1.010000000000000E-002    5.962115203939304E-037
 -1.000000000000000E-002    6.221116665707269E-037
 -9.899999999999999E-003    5.172992862878188E-037
 -9.800000000000000E-003    2.451382765484098E-037
 -9.699999999999999E-003   -2.093195630234531E-037
 -9.599999999999999E-003   -8.259185297856028E-037
 -9.500000000000000E-003   -1.537999706585610E-036
 -9.399999999999999E-003   -2.226582473377867E-036
 -9.299999999999999E-003   -2.723996333966787E-036
 -9.200000000000000E-003   -2.830374519302224E-036
 -9.099999999999999E-003   -2.344959834754057E-036
 -8.999999999999999E-003   -1.111612117053579E-036
 -8.900000000000000E-003    9.256472302075848E-037
 -8.799999999999999E-003    3.665373789200136E-036
 -8.699999999999999E-003    6.802096024589733E-036
 -8.600000000000000E-003    9.805716495245447E-036
 -8.499999999999999E-003    1.194299803527202E-035
 -8.399999999999999E-003    1.235456173077561E-035
 -8.300000000000000E-003    1.019394911799324E-035
 -8.199999999999999E-003    4.823960924236235E-036
 -8.100000000000000E-003   -3.949614600963065E-036
 -8.000000000000000E-003   -1.564378433685193E-035
 -7.899999999999999E-003   -2.891637831662745E-035
 -7.800000000000000E-003   -4.149959685601879E-035
 -7.699999999999999E-003   -5.031298679165224E-035
 -7.599999999999999E-003   -5.180614260900697E-035
 -7.499999999999999E-003   -4.255075219176309E-035
 -7.399999999999999E-003   -2.005372280165819E-035
 -7.299999999999999E-003    1.629834434336119E-035
 -7.199999999999999E-003    6.431967454788801E-035
 -7.100000000000000E-003    1.183461802442895E-034
 -6.999999999999999E-003    1.690468649207176E-034
 -6.899999999999999E-003    2.039691288093967E-034
 -6.800000000000000E-003    2.089971329479186E-034
 -6.699999999999999E-003    1.707722483389008E-034
 -6.599999999999999E-003    7.993098447178989E-035
 -6.499999999999999E-003   -6.522397901828695E-035
 -6.399999999999999E-003   -2.552542079645216E-034
 -6.299999999999999E-003   -4.671615946168187E-034
 -6.199999999999999E-003   -6.639606603456143E-034
 -6.100000000000000E-003   -7.971359427512798E-034
 -5.999999999999999E-003   -8.125904400665485E-034
 -5.899999999999999E-003   -6.601651077207260E-034
 -5.800000000000000E-003   -3.060562943091824E-034
 -5.699999999999999E-003    2.534379660996171E-034
 -5.599999999999999E-003    9.793149353066336E-034
 -5.499999999999999E-003    1.781592137175689E-033
 -5.399999999999999E-003    2.518832576556498E-033
 -5.299999999999999E-003    3.008589334627563E-033
 -5.199999999999999E-003    3.050713348331440E-033
 -5.099999999999999E-003    2.463424416046621E-033
 -4.999999999999999E-003    1.129245553120867E-033
 -4.899999999999999E-003   -9.553355902820670E-034
 -4.799999999999999E-003   -3.635741405214264E-033
 -4.699999999999999E-003   -6.572279373914568E-033
 -4.599999999999999E-003   -9.242452280272066E-033
 -4.499999999999999E-003   -1.098311328945701E-032
 -4.399999999999999E-003   -1.107834952196944E-032
 -4.299999999999999E-003   -8.891370248972980E-033
 -4.199999999999999E-003   -4.028617243008576E-033
 -4.099999999999999E-003    3.486907247259416E-033
 -3.999999999999999E-003    1.306653945477265E-032
 -3.899999999999999E-003    2.347161115099882E-032
 -3.799999999999999E-003    3.283541162775322E-032
 -3.699999999999999E-003    3.882555537358968E-032
 -3.599999999999999E-003    3.896340662701046E-032
 -3.499999999999999E-003    3.108998556910132E-032
 -3.399999999999999E-003    1.393297055424100E-032
 -3.299999999999999E-003   -1.230819719831777E-032
 -3.199999999999999E-003   -4.547559416035123E-032
 -3.099999999999999E-003   -8.120167891611219E-032
 -2.999999999999999E-003   -1.130300807730383E-031
 -2.899999999999999E-003   -1.330146955919566E-031
 -2.799999999999999E-003   -1.328405595496470E-031
 -2.699999999999999E-003   -1.054160204509522E-031
 -2.599999999999999E-003   -4.676931009809224E-032
 -2.499999999999999E-003    4.203899899320357E-032
 -2.399999999999999E-003    1.533797411558549E-031
 -2.299999999999999E-003    2.723443424275586E-031
 -2.199999999999999E-003    3.772919166067013E-031
 -2.099999999999999E-003    4.419737236929171E-031
 -1.999999999999999E-003    4.393363236004685E-031
 -1.899999999999999E-003    3.467914055215803E-031
 -1.799999999999999E-003    1.523646236761478E-031
 -1.699999999999999E-003   -1.392455413077381E-031
 -1.599999999999999E-003   -5.019756151436453E-031
 -1.499999999999999E-003   -8.864965438643649E-031
 -1.399999999999999E-003   -1.222431950634763E-030
 -1.299999999999999E-003   -1.425617989211779E-030
 -1.199999999999999E-003   -1.410598932236658E-030
 -1.099999999999999E-003   -1.107542519065435E-030
 -9.999999999999989E-004   -4.815834453220737E-031
 -8.999999999999990E-004    4.485510004061282E-031
 -7.999999999999990E-004    1.596663257454134E-030
 -6.999999999999989E-004    2.804336279432049E-030
 -5.999999999999990E-004    3.849258616845675E-030
 -4.999999999999989E-004    4.469187262131582E-030
 -3.999999999999989E-004    4.401759088093450E-030
 -2.999999999999989E-004    3.437209942797718E-030
 -1.999999999999989E-004    1.477490470529239E-030
 -9.999999999999892E-005   -1.408113142671411E-030
  1.084202172485504E-018   -4.943199726537823E-030
  1.000000000000011E-004   -8.633383522935665E-030
  2.000000000000011E-004   -1.179571181985045E-029
  3.000000000000011E-004   -1.363520560208231E-029
  4.000000000000011E-004   -1.336801330812602E-029
  5.000000000000011E-004   -1.038113034183635E-029
  6.000000000000011E-004   -4.408114783306780E-030
  7.000000000000011E-004    4.309380300531289E-030
  8.000000000000011E-004    1.491098839354286E-029
  9.000000000000012E-004    2.589582363172120E-029
  1.000000000000001E-003    3.522130676331708E-029
  1.100000000000001E-003    4.054012061538092E-029
  1.200000000000001E-003    3.957052358889256E-029
  1.300000000000001E-003    3.056721872929732E-029
  1.400000000000001E-003    1.282989803252247E-029
  1.500000000000001E-003   -1.283998932669309E-029
  1.600000000000001E-003   -4.384052724888854E-029
  1.700000000000001E-003   -7.573556164812699E-029
  1.800000000000001E-003   -1.025723787985488E-028
  1.900000000000001E-003   -1.175934970413958E-028
  2.000000000000001E-003   -1.143200689872624E-028
  2.100000000000001E-003   -8.790400397341862E-029
  2.200000000000001E-003   -3.656241708045759E-029
  2.300000000000001E-003    3.716341769919053E-029
  2.400000000000001E-003    1.256238989805231E-028
  2.500000000000001E-003    2.160453185651518E-028
  2.600000000000001E-003    2.915110314683496E-028
  2.700000000000001E-003    3.330386448455152E-028
  2.800000000000001E-003    3.226662849389175E-028
  2.900000000000001E-003    2.472376146164172E-028
  3.000000000000001E-003    1.023487218306027E-028
  3.100000000000001E-003   -1.042662467103130E-028
  3.200000000000001E-003   -3.507318814852813E-028
  3.300000000000001E-003   -6.011967744547127E-028
  3.400000000000001E-003   -8.087547669309220E-028
  3.500000000000001E-003   -9.213391547855523E-028
  3.600000000000001E-003   -8.902902966380903E-028
  3.700000000000001E-003   -6.806914472726568E-028
  3.800000000000001E-003   -2.819706602891843E-028
  3.900000000000001E-003    2.832077202525960E-028
  4.000000000000001E-003    9.539589638286825E-028
  4.100000000000001E-003    1.632153974329402E-027
  4.200000000000001E-003    2.190826182322830E-027
  4.300000000000001E-003    2.490449565107785E-027
  4.400000000000001E-003    2.402131242063316E-027
  4.500000000000001E-003    1.835165439563424E-027
  4.600000000000002E-003    7.648538858950882E-028
  4.700000000000001E-003   -7.446716130430096E-028
  4.800000000000001E-003   -2.528361604602648E-027
  4.900000000000002E-003   -4.324131687941173E-027
  5.000000000000001E-003   -5.796298234712211E-027
  5.100000000000001E-003   -6.579370828617524E-027
  5.200000000000001E-003   -6.339326315526206E-027
  5.300000000000002E-003   -4.845361024320498E-027
  5.400000000000001E-003   -2.041262887236533E-027
  5.500000000000001E-003    1.897290395150171E-027
  5.600000000000002E-003    6.534138409415633E-027
  5.700000000000001E-003    1.118578823660552E-026
  5.800000000000001E-003    1.498483049456818E-026
  5.900000000000002E-003    1.699482315804838E-026
  6.000000000000001E-003    1.636838500092031E-026
  6.100000000000001E-003    1.252987160235719E-026
  6.200000000000002E-003    5.354504920795007E-027
  6.300000000000002E-003   -4.690802253793251E-027
  6.400000000000001E-003   -1.648141279231115E-026
  6.500000000000001E-003   -2.827548007954894E-026
  6.600000000000002E-003   -3.788078845592661E-026
  6.700000000000001E-003   -4.294890205440279E-026
  6.800000000000001E-003   -4.137387648275794E-026
  6.900000000000002E-003   -3.174726057592220E-026
  7.000000000000001E-003   -1.379831079262405E-026
  7.100000000000001E-003    1.126684631899913E-026
  7.200000000000002E-003    4.061616296872587E-026
  7.300000000000002E-003    6.990839050547785E-026
  7.400000000000001E-003    9.372042681191417E-026
  7.500000000000001E-003    1.062830339768101E-025
  7.600000000000002E-003    1.024644885473345E-025
  7.700000000000001E-003    7.888028381887323E-026
  7.800000000000001E-003    3.495337950064314E-026
  7.900000000000001E-003   -2.628454764320500E-026
  8.000000000000002E-003   -9.786352952958060E-026
  8.100000000000001E-003   -1.691942975304576E-025
  8.200000000000001E-003   -2.271350877769173E-025
  8.300000000000002E-003   -2.577906314770255E-025
  8.400000000000001E-003   -2.488878496975463E-025
  8.500000000000002E-003   -1.924279956977095E-025
  8.600000000000002E-003   -8.719151742513526E-026
  8.700000000000001E-003    5.940263473361536E-026
  8.800000000000002E-003    2.305813737150720E-025
  8.900000000000002E-003    4.010507859551221E-025
  9.000000000000001E-003    5.395939504880728E-025
  9.100000000000002E-003    6.133739463409410E-025
  9.200000000000002E-003    5.935544177490891E-025
  9.300000000000001E-003    4.615155899591324E-025
  9.400000000000002E-003    2.146641741897830E-025
  9.500000000000001E-003   -1.293235548954636E-025
  9.600000000000001E-003   -5.309698464014184E-025
  9.700000000000002E-003   -9.310870768724004E-025
  9.800000000000001E-003   -1.256951808750897E-024
  9.900000000000001E-003   -1.432378168852984E-024
  1.000000000000000E-002   -1.390750970978481E-024
  1.010000000000000E-002   -1.089321065602027E-024
  1.020000000000000E-002   -5.224463276512368E-025
  1.030000000000000E-002    2.688747067497051E-025
  1.040000000000000E-002    1.193756930945649E-024
  1.050000000000000E-002    2.116489091653765E-024
  1.060000000000000E-002    2.870863447848581E-024
  1.070000000000000E-002    3.283264414342666E-024
  1.080000000000000E-002    3.202303527921174E-024
  1.090000000000000E-002    2.531096100363338E-024
  1.100000000000000E-002    1.256929861799925E-024
  1.110000000000000E-002   -5.276239051478902E-025
  1.120000000000000E-002   -2.617873706666943E-024
  1.130000000000000E-002   -4.708841304437024E-024
  1.140000000000000E-002   -6.427756067968689E-024
  1.150000000000000E-002   -7.385897365585636E-024
  1.160000000000000E-002   -7.244699202894729E-024
  1.170000000000000E-002   -5.787335000149027E-024
  1.180000000000000E-002   -2.984113747233295E-024
  1.190000000000000E-002    9.614107918064408E-025
  1.200000000000000E-002    5.598072457014639E-024
  1.210000000000000E-002    1.025389665415185E-023
  1.220000000000000E-002    1.410814646034763E-023
  1.230000000000000E-002    1.630541749295277E-023
  1.240000000000000E-002    1.610037579884762E-023
  1.250000000000000E-002    1.301379981120419E-023
  1.260000000000000E-002    6.974468600546803E-024
  1.270000000000000E-002   -1.581429499354692E-024
  1.280000000000000E-002   -1.168006962138291E-023
  1.290000000000000E-002   -2.186890714294299E-023
  1.300000000000000E-002   -3.037298153769994E-023
  1.310000000000000E-002   -3.534120182044492E-023
  1.320000000000000E-002   -3.515762922071511E-023
  1.330000000000000E-002   -2.877602217825154E-023
  1.340000000000000E-002   -1.602309305452399E-023
  1.350000000000000E-002    2.189745369981447E-024
  1.360000000000000E-002    2.380253492022352E-023
  1.370000000000000E-002    4.573255999183054E-023
  1.380000000000000E-002    6.420640439458147E-023
  1.390000000000000E-002    7.528174183744291E-023
  1.400000000000000E-002    7.550545238504346E-023
  1.410000000000000E-002    6.261958836997562E-023
  1.420000000000000E-002    3.620047184342006E-023
  1.430000000000000E-002   -1.895195897126712E-024
  1.440000000000000E-002   -4.739459944435894E-023
  1.450000000000000E-002   -9.386967984273510E-023
  1.460000000000000E-002   -1.334281876885098E-022
  1.470000000000000E-002   -1.577994708312663E-022
  1.480000000000000E-002   -1.597031189359641E-022
  1.490000000000000E-002   -1.343166187420084E-022
  1.500000000000000E-002   -8.060455930626884E-023
  1.510000000000000E-002   -2.249410292086692E-024
  1.520000000000000E-002    9.205740916335918E-023
  1.530000000000000E-002    1.891405076079293E-022
  1.540000000000000E-002    2.727496706472553E-022
  1.550000000000000E-002    3.257797359680213E-022
  1.560000000000000E-002    3.330720971503296E-022
  1.570000000000000E-002    2.844224915054010E-022
  1.580000000000000E-002    1.773116304296070E-022
  1.590000000000000E-002    1.883012508556958E-023
  1.600000000000000E-002   -1.736917458745614E-022
  1.610000000000000E-002   -3.737072569209489E-022
  1.620000000000000E-002   -5.482680930557009E-022
  1.630000000000000E-002   -6.624846835877374E-022
  1.640000000000000E-002   -6.851724497463708E-022
  1.650000000000000E-002   -5.949311206121542E-022
  1.660000000000000E-002   -3.856882835587568E-022
  1.670000000000000E-002   -7.064742451098343E-023
  1.680000000000000E-002    3.163409528321997E-022
  1.690000000000000E-002    7.227055473801356E-022
  1.700000000000000E-002    1.082661993638480E-021
  1.710000000000000E-002    1.326021746951217E-021
  1.720000000000000E-002    1.389399492584600E-021
  1.730000000000000E-002    1.228335746060238E-021
  1.740000000000000E-002    8.284209233334151E-022
  1.750000000000000E-002    2.133253972590367E-022
  1.760000000000000E-002   -5.522119742981439E-022
  1.770000000000000E-002   -1.365874076982427E-021
  1.780000000000000E-002   -2.098322541235107E-021
  1.790000000000000E-002   -2.610302244271465E-021
  1.800000000000000E-002   -2.774558885778285E-021
  1.810000000000000E-002   -2.499695137035576E-021
  1.820000000000000E-002   -1.752237656900399E-021
  1.830000000000000E-002   -5.728262954687310E-022
  1.840000000000000E-002    9.172982847982708E-022
  1.850000000000000E-002    2.522356596107869E-021
  1.860000000000000E-002    3.991857578800500E-021
  1.870000000000000E-002    5.053274780502517E-021