 -4.000000000000000E-002    0.000000000000000E+000
 -3.990000000000000E-002    0.000000000000000E+000
 -3.980000000000000E-002    2.745176688269633E-011
 -3.970000000000000E-002    1.489591564993484E-010
 -3.960000000000000E-002    4.874053136196845E-010
 -3.950000000000000E-002    1.238174066719677E-009
 -3.940000000000000E-002    2.676549729029952E-009
 -3.930000000000000E-002    5.149219025632094E-009
 -3.920000000000000E-002    9.045940120567344E-009
 -3.910000000000000E-002    1.475211279136028E-008
 -3.900000000000000E-002    2.258793281421208E-008
 -3.890000000000000E-002    3.274365432424030E-008
 -3.880000000000000E-002    4.522232846908778E-008
 -3.870000000000000E-002    5.980024788205181E-008
 -3.860000000000000E-002    7.601208502444976E-008
 -3.850000000000000E-002    9.316264435069330E-008
 -3.840000000000000E-002    1.103618056733593E-007
 -3.830000000000000E-002    1.265750200194241E-007
 -3.820000000000000E-002    1.406795241969951E-007
 -3.810000000000000E-002    1.515172356711120E-007
 -3.800000000000000E-002    1.579379234001852E-007
 -3.790000000000000E-002    1.588311945998611E-007
 -3.780000000000000E-002    1.531504077393953E-007
 -3.770000000000000E-002    1.399349427639361E-007
 -3.760000000000000E-002    1.183385834502005E-007
 -3.750000000000000E-002    8.766954190507206E-008
 -3.740000000000000E-002    4.744344413329443E-008
 -3.730000000000000E-002   -2.555682106363295E-009
 -3.720000000000000E-002   -6.221719098357808E-008
 -3.710000000000000E-002   -1.310629790851219E-007
 -3.700000000000000E-002   -2.082392312272549E-007
 -3.690000000000000E-002   -2.925522770846138E-007
 -3.680000000000000E-002   -3.825523574337727E-007
 -3.670000000000000E-002   -4.766588646012505E-007
 -3.660000000000000E-002   -5.733101507772256E-007
 -3.650000000000000E-002   -6.711122845525217E-007
 -3.640000000000000E-002   -7.689568412018631E-007
 -3.630000000000000E-002   -8.660800570059271E-007
 -3.620000000000000E-002   -9.620440661273557E-007
 -3.610000000000000E-002   -1.056633672823317E-006
 -3.600000000000000E-002   -1.149680389409800E-006
 -3.590000000000000E-002   -1.240841158670923E-006
 -3.580000000000000E-002   -1.329371496179833E-006
 -3.570000000000000E-002   -1.413940719034492E-006
 -3.560000000000000E-002   -1.492533569595046E-006
 -3.550000000000000E-002   -1.562471394190722E-006
 -3.540000000000000E-002   -1.620569836416836E-006
 -3.530000000000000E-002   -1.663423047301064E-006
 -3.520000000000000E-002   -1.687787146608469E-006
 -3.510000000000000E-002   -1.691013710070313E-006
 -3.500000000000000E-002   -1.671471449550959E-006
 -3.490000000000000E-002   -1.628898095195106E-006
 -3.480000000000000E-002   -1.564626451774493E-006
 -3.470000000000000E-002   -1.481653558680087E-006
 -3.460000000000000E-002   -1.384537199707088E-006
 -3.450000000000000E-002   -1.279138773541127E-006
 -3.440000000000000E-002   -1.172242045660193E-006
 -3.430000000000000E-002   -1.071102658434211E-006
 -3.420000000000000E-002   -9.829850038126702E-007
 -3.410000000000000E-002   -9.147375861340022E-007
 -3.400000000000000E-002   -8.724539594640662E-007
 -3.390000000000000E-002   -8.612446263539431E-007
 -3.380000000000000E-002   -8.851274628833200E-007
 -3.370000000000000E-002   -9.470248792641811E-007
 -3.360000000000000E-002   -1.048857574841383E-006
 -3.350000000000000E-002   -1.191690325461089E-006
 -3.340000000000000E-002   -1.375923218436865E-006
 -3.330000000000000E-002   -1.601487974967457E-006
 -3.320000000000000E-002   -1.868043144726048E-006
 -3.310000000000000E-002   -2.175168268374193E-006
 -3.300000000000000E-002   -2.522538677663060E-006
 -3.290000000000000E-002   -2.910090093840077E-006
 -3.280000000000000E-002   -3.338168882685988E-006
 -3.270000000000000E-002   -3.807659992016922E-006
 -3.260000000000000E-002   -4.320078757393517E-006
 -3.250000000000000E-002   -4.877616346662183E-006
 -3.240000000000000E-002   -5.483106636691680E-006
 -3.230000000000000E-002   -6.139936820056020E-006
 -3.220000000000000E-002   -6.851881762185322E-006
 -3.210000000000000E-002   -7.622891645777070E-006
 -3.200000000000000E-002   -8.456867842712136E-006
 -3.190000000000000E-002   -9.357454733997999E-006
 -3.180000000000000E-002   -1.032789841402166E-005
 -3.170000000000000E-002   -1.137102571543674E-005
 -3.160000000000000E-002   -1.248932570200089E-005
 -3.150000000000000E-002   -1.368517221622341E-005
 -3.140000000000000E-002   -1.496112797280045E-005
 -3.130000000000000E-002   -1.632029612583863E-005
 -3.120000000000000E-002   -1.776666640159680E-005
 -3.110000000000000E-002   -1.930532478963617E-005
 -3.100000000000000E-002   -2.094256645310053E-005
 -3.090000000000000E-002   -2.268578278815731E-005
 -3.080000000000000E-002   -2.454317730799472E-005
 -3.070000000000000E-002   -2.652331822328337E-005
 -3.060000000000000E-002   -2.863462541532402E-005
 -3.050000000000000E-002   -3.088481947778646E-005
 -3.040000000000000E-002   -3.328052561045896E-005
 -3.030000000000000E-002   -3.582708420567944E-005
 -3.020000000000000E-002   -3.852853340986205E-005
 -3.010000000000000E-002   -4.138793471965950E-005
 -3.000000000000000E-002   -4.440790687195033E-005
 -2.990000000000000E-002   -4.759132702906747E-005
 -2.980000000000000E-002   -5.094210562311810E-005
 -2.970000000000000E-002   -5.446581435860474E-005
 -2.960000000000000E-002   -5.817027043925643E-005
 -2.950000000000000E-002   -6.206572497534723E-005
 -2.940000000000000E-002   -6.616482311777882E-005
 -2.930000000000000E-002   -7.048223250579749E-005
 -2.920000000000000E-002   -7.503413879918558E-005
 -2.910000000000000E-002   -7.983754877326327E-005
 -2.900000000000000E-002   -8.490956323890080E-005
 -2.890000000000000E-002   -9.026705431355946E-005
 -2.880000000000000E-002   -9.592620540090435E-005
 -2.870000000000000E-002   -1.019026432601881E-004
 -2.860000000000000E-002   -1.082116923973575E-004
 -2.850000000000000E-002   -1.148689233169302E-004
 -2.840000000000000E-002   -1.218907262910870E-004
 -2.830000000000000E-002   -1.292949587948706E-004
 -2.820000000000000E-002   -1.371014104208921E-004
 -2.810000000000000E-002   -1.453320085544807E-004
 -2.800000000000000E-002   -1.540108467227472E-004
 -2.790000000000000E-002   -1.631639828648301E-004
 -2.780000000000000E-002   -1.728187243545530E-004
 -2.770000000000000E-002   -1.830032191031852E-004
 -2.760000000000000E-002   -1.937459514724478E-004
 -2.750000000000000E-002   -2.050752162310812E-004
 -2.740000000000000E-002   -2.170191467399923E-004
 -2.730000000000000E-002   -2.296059161469944E-004
 -2.720000000000000E-002   -2.428640387910841E-004
 -2.710000000000000E-002   -2.568232813845866E-004
 -2.700000000000000E-002   -2.715152646175346E-004
 -2.690000000000000E-002   -2.869742899252152E-004
 -2.680000000000000E-002   -3.032379519067069E-004
 -2.670000000000000E-002   -3.203473250898810E-004
 -2.660000000000000E-002   -3.383469927098217E-004
 -2.650000000000000E-002   -3.572847177488086E-004
 -2.640000000000000E-002   -3.772108866059050E-004
 -2.630000000000000E-002   -3.981778499618397E-004
 -2.620000000000000E-002   -4.202391406299720E-004
 -2.610000000000000E-002   -4.434491894014002E-004
 -2.600000000000000E-002   -4.678629903991708E-004
 -2.590000000000000E-002   -4.935363605760238E-004
 -2.580000000000000E-002   -5.205261666902646E-004
 -2.570000000000000E-002   -5.488910541789660E-004
 -2.560000000000000E-002   -5.786925209449499E-004
 -2.550000000000000E-002   -6.099955094269285E-004
 -2.540000000000000E-002   -6.428693555571878E-004
 -2.530000000000000E-002   -6.773881400132592E-004
 -2.520000000000000E-002   -7.136303009120911E-004
 -2.510000000000000E-002   -7.516790893435404E-004
 -2.500000000000000E-002   -7.916219497072824E-004
 -2.490000000000000E-002   -8.335497476231859E-004
 -2.480000000000000E-002   -8.775559898954203E-004
 -2.470000000000000E-002   -9.237368602516271E-004
 -2.460000000000000E-002   -9.721905380945309E-004
 -2.450000000000000E-002   -1.023017663585078E-003
 -2.440000000000000E-002   -1.076321249754970E-003
 -2.430000000000000E-002   -1.132207577343515E-003
 -2.420000000000000E-002   -1.190787103643497E-003
 -2.410000000000000E-002   -1.252174961718897E-003
 -2.400000000000000E-002   -1.316492417738751E-003
 -2.390000000000000E-002   -1.383867041986773E-003
 -2.380000000000000E-002   -1.454431688111198E-003
 -2.370000000000000E-002   -1.528327370892088E-003
 -2.360000000000000E-002   -1.605700682262927E-003
 -2.350000000000000E-002   -1.686703810504543E-003
 -2.340000000000000E-002   -1.771494568719098E-003
 -2.330000000000000E-002   -1.860235513094951E-003
 -2.320000000000000E-002   -1.953093512019919E-003
 -2.310000000000000E-002   -2.050240551420396E-003
 -2.300000000000000E-002   -2.151854032991771E-003
 -2.290000000000000E-002   -2.258116707979416E-003
 -2.280000000000000E-002   -2.369217955896603E-003
 -2.270000000000000E-002   -2.485353541121457E-003
 -2.260000000000000E-002   -2.606727342468142E-003
 -2.250000000000000E-002   -2.733551874704038E-003
 -2.240000000000000E-002   -2.866047389102341E-003
 -2.230000000000000E-002   -3.004445041657718E-003
 -2.220000000000000E-002   -3.148982995497795E-003
 -2.210000000000000E-002   -3.299909157490465E-003
 -2.200000000000000E-002   -3.457479147593440E-003
 -2.190000000000000E-002   -3.621955820089910E-003
 -2.180000000000000E-002   -3.793610922153842E-003
 -2.170000000000000E-002   -3.972723445696180E-003
 -2.160000000000000E-002   -4.159580895613984E-003
 -2.150000000000000E-002   -4.354478279574094E-003
 -2.140000000000000E-002   -4.557720680725760E-003
 -2.130000000000000E-002   -4.769621180481622E-003
 -2.120000000000000E-002   -4.990504501024296E-003
 -2.110000000000000E-002   -5.220706608759282E-003
 -2.100000000000000E-002   -5.460574062912927E-003
 -2.090000000000000E-002   -5.710465061975266E-003
 -2.080000000000000E-002   -5.970752524222744E-003
 -2.070000000000000E-002   -6.241817027320205E-003
 -2.060000000000000E-002   -6.524053029606533E-003
 -2.050000000000000E-002   -6.817866488678655E-003
 -2.040000000000000E-002   -7.123673448604415E-003
 -2.030000000000000E-002   -7.441900548938700E-003
 -2.020000000000000E-002   -7.772989781538574E-003
 -2.010000000000000E-002   -8.117390238656369E-003
 -2.000000000000000E-002   -8.475565033444717E-003
 -1.990000000000000E-002   -8.847989726308875E-003
 -1.980000000000000E-002   -9.235153055831086E-003
 -1.970000000000000E-002   -9.637555987309204E-003
 -1.960000000000000E-002   -1.005571460182647E-002
 -1.950000000000000E-002   -1.049015716973457E-002
 -1.940000000000000E-002   -1.094142873000594E-002
 -1.930000000000000E-002   -1.141008824661671E-002
 -1.920000000000000E-002   -1.189670763196819E-002
 -1.910000000000000E-002   -1.240187334519272E-002
 -1.900000000000000E-002   -1.292618833976392E-002
 -1.890000000000000E-002   -1.347026496501169E-002
 -1.880000000000000E-002   -1.403473337545025E-002
 -1.870000000000000E-002   -1.462023397370680E-002
 -1.860000000000000E-002   -1.522742653085801E-002
 -1.850000000000000E-002   -1.585698582357816E-002
 -1.840000000000000E-002   -1.650959583255513E-002
 -1.830000000000000E-002   -1.718595985649314E-002
 -1.820000000000000E-002   -1.788679661934418E-002
 -1.810000000000000E-002   -1.861283901880945E-002
 -1.800000000000000E-002   -1.936484024846680E-002
 -1.790000000000000E-002   -2.014356245112768E-002
 -1.780000000000000E-002   -2.094978323274510E-002
 -1.770000000000000E-002   -2.178430125184882E-002
 -1.760000000000000E-002   -2.264792453698800E-002
 -1.750000000000000E-002   -2.354148291553995E-002
 -1.740000000000000E-002   -2.446581262399179E-002
 -1.730000000000000E-002   -2.542177315606258E-002
 -1.720000000000000E-002   -2.641022965799253E-002
 -1.710000000000000E-002   -2.743206709301295E-002
 -1.700000000000000E-002   -2.848817594011187E-002
 -1.690000000000000E-002   -2.957946719043156E-002
 -1.680000000000000E-002   -3.070686997136572E-002
 -1.670000000000000E-002   -3.187131742521877E-002
 -1.660000000000000E-002   -3.307376307141081E-002
 -1.650000000000000E-002   -3.431517301779436E-002
 -1.640000000000000E-002   -3.559652307803456E-002
 -1.630000000000000E-002   -3.691880210851973E-002
 -1.620000000000000E-002   -3.828301341795806E-002
 -1.610000000000000E-002   -3.969017394674595E-002
 -1.600000000000000E-002   -4.114130608034253E-002
 -1.590000000000000E-002   -4.263745254170824E-002
 -1.580000000000000E-002   -4.417965593127861E-002
 -1.570000000000000E-002   -4.576896988237149E-002
 -1.560000000000000E-002   -4.740645671220991E-002
 -1.550000000000000E-002   -4.909318878547576E-002
 -1.540000000000000E-002   -5.083023983939192E-002
 -1.530000000000000E-002   -5.261870190102505E-002
 -1.520000000000000E-002   -5.445966138259396E-002
 -1.510000000000000E-002   -5.635421983483436E-002
 -1.500000000000000E-002   -5.830347193076390E-002
 -1.490000000000000E-002   -6.030852549006455E-002
 -1.480000000000000E-002   -6.237049140324484E-002
 -1.470000000000000E-002   -6.449048375263712E-002
 -1.460000000000000E-002   -6.666960763418348E-002
 -1.450000000000000E-002   -6.890897954400114E-002
 -1.440000000000000E-002   -7.120970071633154E-002
 -1.430000000000000E-002   -7.357288399596038E-002
 -1.420000000000000E-002   -7.599962483583562E-002
 -1.410000000000000E-002   -7.849103274109434E-002
 -1.400000000000000E-002   -8.104819229225957E-002
 -1.390000000000000E-002   -8.367218218554044E-002
 -1.380000000000000E-002   -8.636408270464677E-002
 -1.370000000000000E-002   -8.912495770999920E-002
 -1.360000000000000E-002   -9.195586290205063E-002
 -1.350000000000000E-002   -9.485783938156636E-002
 -1.340000000000000E-002   -9.783190843560281E-002
 -1.330000000000000E-002   -0.100879082803742     
 -1.320000000000000E-002   -0.104000346016152     
 -1.310000000000000E-002   -0.107196669640932     
 -1.300000000000000E-002   -0.110469026870825     
 -1.290000000000000E-002   -0.113818319978199     
 -1.280000000000000E-002   -0.117245463243458     
 -1.270000000000000E-002   -0.120751334874398     
 -1.260000000000000E-002   -0.124336777441137     
 -1.250000000000000E-002   -0.128002608705093     
 -1.240000000000000E-002   -0.131749609734654     
 -1.230000000000000E-002   -0.135578547778797     
 -1.220000000000000E-002   -0.139490117071623     
 -1.210000000000000E-002   -0.143485012532166     
 -1.200000000000000E-002   -0.147563884141532     
 -1.190000000000000E-002   -0.151727308567102     
 -1.180000000000000E-002   -0.155975848290533     
 -1.170000000000000E-002   -0.160310031463316     
 -1.160000000000000E-002   -0.164730287267834     
 -1.150000000000000E-002   -0.169237052380665     
 -1.140000000000000E-002   -0.173830678260590     
 -1.130000000000000E-002   -0.178511442367333     
 -1.120000000000000E-002   -0.183279620818586     
 -1.110000000000000E-002   -0.188135379904990     
 -1.100000000000000E-002   -0.193078833768844     
 -1.090000000000000E-002   -0.198110044636945     
 -1.080000000000000E-002   -0.203229016172541     
 -1.070000000000000E-002   -0.208435668673274     
 -1.060000000000000E-002   -0.213729841455674     
 -1.050000000000000E-002   -0.219111327231471     
 -1.040000000000000E-002   -0.224579832051312     
 -1.030000000000000E-002   -0.230134982174356     
 -1.020000000000000E-002   -0.235776313464724     
 -1.010000000000000E-002   -0.241503297492693     
 -1.000000000000000E-002   -0.247315332460456     
 -9.899999999999999E-003   -0.253211718485822     
 -9.800000000000000E-003   -0.259191635915703     
 -9.699999999999999E-003   -0.265254222644188     
 -9.599999999999999E-003   -0.271398474847253     
 -9.500000000000000E-003   -0.277623316154317     
 -9.399999999999999E-003   -0.283927574123601     
 -9.299999999999999E-003   -0.290309989739757     
 -9.200000000000000E-003   -0.296769213731882     
 -9.099999999999999E-003   -0.303303746087384     
 -8.999999999999999E-003   -0.309912063372957     
 -8.900000000000000E-003   -0.316592449755908     
 -8.799999999999999E-003   -0.323343132483223     
 -8.699999999999999E-003   -0.330162188684637     
 -8.600000000000000E-003   -0.337047645640554     
 -8.499999999999999E-003   -0.343997368079291     
 -8.399999999999999E-003   -0.351009164559844     
 -8.300000000000000E-003   -0.358080647759795     
 -8.199999999999999E-003   -0.365209347950342     
 -8.100000000000000E-003   -0.372392668705877     
 -8.000000000000000E-003   -0.379627942447057     
 -7.899999999999999E-003   -0.386912350812876     
 -7.800000000000000E-003   -0.394242912744106     
 -7.699999999999999E-003   -0.401616650217150     
 -7.599999999999999E-003   -0.409030331875843     
 -7.499999999999999E-003   -0.416480702106042     
 -7.399999999999999E-003   -0.423964311445902     
 -7.299999999999999E-003   -0.431477637599577     
 -7.199999999999999E-003   -0.439017013238048     
 -7.100000000000000E-003   -0.446578675762479     
 -6.999999999999999E-003   -0.454158735261339     
 -6.899999999999999E-003   -0.461753125935016     
 -6.800000000000000E-003   -0.469357735804709     
 -6.699999999999999E-003   -0.476968269920716     
 -6.599999999999999E-003   -0.484580373064785     
 -6.499999999999999E-003   -0.492189518261134     
 -6.399999999999999E-003   -0.499791152532876     
 -6.299999999999999E-003   -0.507380499926174     
 -6.199999999999999E-003   -0.514952783181014     
 -6.100000000000000E-003   -0.522503028549571     
 -5.999999999999999E-003   -0.530026157928375     
 -5.899999999999999E-003   -0.537517043069513     
 -5.800000000000000E-003   -0.544970425611315     
 -5.699999999999999E-003   -0.552380967178191     
 -5.599999999999999E-003   -0.559743183718121     
 -5.499999999999999E-003   -0.567051500788426     
 -5.399999999999999E-003   -0.574300259077301     
 -5.299999999999999E-003   -0.581483667297579     
 -5.199999999999999E-003   -0.588595954147580     
 -5.099999999999999E-003   -0.595631157734399     
 -4.999999999999999E-003   -0.602583332264176     
 -4.899999999999999E-003   -0.609446362149271     
 -4.799999999999999E-003   -0.616214131606018     
 -4.699999999999999E-003   -0.622880470567880     
 -4.599999999999999E-003   -0.629439043844320     
 -4.499999999999999E-003   -0.635883584911871     
 -4.399999999999999E-003   -0.642207642295321     
 -4.299999999999999E-003   -0.648404813983618     
 -4.199999999999999E-003   -0.654468660452170     
 -4.099999999999999E-003   -0.660392666053147     
 -3.999999999999999E-003   -0.666170260921684     
 -3.899999999999999E-003   -0.671794863738180     
 -3.799999999999999E-003   -0.677259865985186     
 -3.699999999999999E-003   -0.682558709548782     
 -3.599999999999999E-003   -0.687684775168492     
 -3.499999999999999E-003   -0.692631436547175     
 -3.399999999999999E-003   -0.697392084321822     
 -3.299999999999999E-003   -0.701960134014290     
 -3.199999999999999E-003   -0.706329029151848     
 -3.099999999999999E-003   -0.710492184356406     
 -2.999999999999999E-003   -0.714443058846469     
 -2.899999999999999E-003   -0.718175171271828     
 -2.799999999999999E-003   -0.721681995940773     
 -2.699999999999999E-003   -0.724957216881265     
 -2.599999999999999E-003   -0.727994426210887     
 -2.499999999999999E-003   -0.730787404710199     
 -2.399999999999999E-003   -0.733329981001252     
 -2.299999999999999E-003   -0.735615984580232     
 -2.199999999999999E-003   -0.737639432238792     
 -2.099999999999999E-003   -0.739394349500215     
 -1.999999999999999E-003   -0.740875008402185     
 -1.899999999999999E-003   -0.742075615403191     
 -1.799999999999999E-003   -0.742990620475276     
 -1.699999999999999E-003   -0.743614532468083     
 -1.599999999999999E-003   -0.743942019509785     
 -1.499999999999999E-003   -0.743967844078384     
 -1.399999999999999E-003   -0.743686993635952     
 -1.299999999999999E-003   -0.743094558994261     
 -1.199999999999999E-003   -0.742185786795970     
 -1.099999999999999E-003   -0.740956144443752     
 -9.999999999999989E-004   -0.739401219479769     
 -8.999999999999990E-004   -0.737516855064410     
 -7.999999999999990E-004   -0.735299037722221     
 -6.999999999999989E-004   -0.732743944138522     
 -5.999999999999990E-004   -0.729848006401506     
 -4.999999999999989E-004   -0.726607860405456     
 -3.999999999999989E-004   -0.723020313684124     
 -2.999999999999989E-004   -0.719082490906378     
 -1.999999999999989E-004   -0.714791670766969     
 -9.999999999999892E-005   -0.710145369756735     
  1.084202172485504E-018   -0.705141373694757     
  1.000000000000011E-004   -0.699777695928716     
  2.000000000000011E-004   -0.694052627118268     
  3.000000000000011E-004   -0.687964689037462     
  4.000000000000011E-004   -0.681512675989808     
  5.000000000000011E-004   -0.674695705164683     
  6.000000000000011E-004   -0.667513077512338     
  7.000000000000011E-004   -0.659964476784572     
  8.000000000000011E-004   -0.652049811055786     
  9.000000000000012E-004   -0.643769258145161     
  1.000000000000001E-003   -0.635123323597568     
  1.100000000000001E-003   -0.626112838269284     
  1.200000000000001E-003   -0.616738885498151     
  1.300000000000001E-003   -0.607002843943814     
  1.400000000000001E-003   -0.596906407108110     
  1.500000000000001E-003   -0.586451576826434     
  1.600000000000001E-003   -0.575640589071185     
  1.700000000000001E-003   -0.564476075735291     
  1.800000000000001E-003   -0.552960943054192     
  1.900000000000001E-003   -0.541098438144845     
  2.000000000000001E-003   -0.528892043164605     
  2.100000000000001E-003   -0.516345609456463     
  2.200000000000001E-003   -0.503463321020685     
  2.300000000000001E-003   -0.490249590876957     
  2.400000000000001E-003   -0.476709143482328     
  2.500000000000001E-003   -0.462847094482640     
  2.600000000000001E-003   -0.448668802325577     
  2.700000000000001E-003   -0.434179909190560     
  2.800000000000001E-003   -0.419386379165385     
  2.900000000000001E-003   -0.404294457487139     
  3.000000000000001E-003   -0.388910680565885     
  3.100000000000001E-003   -0.373241858458673     
  3.200000000000001E-003   -0.357295117931356     
  3.300000000000001E-003   -0.341077868295464     
  3.400000000000001E-003   -0.324597720776520     
  3.500000000000001E-003   -0.307862657937731     
  3.600000000000001E-003   -0.290880861593595     
  3.700000000000001E-003   -0.273660795261604     
  3.800000000000001E-003   -0.256211180217529     
  3.900000000000001E-003   -0.238540924633683     
  4.000000000000001E-003   -0.220659228481146     
  4.100000000000001E-003   -0.202575499670901     
  4.200000000000001E-003   -0.184299379266200     
  4.300000000000001E-003   -0.165840713515694     
  4.400000000000001E-003   -0.147209528552813     
  4.500000000000001E-003   -0.128416085954234     
  4.600000000000002E-003   -0.109470820420553     
  4.700000000000001E-003   -9.038436342627874E-002
  4.800000000000001E-003   -7.116746776376989E-002
  4.900000000000002E-003   -5.183110702754509E-002
  5.000000000000001E-003   -3.238639488587909E-002
  5.100000000000001E-003   -1.284456655638874E-002
  5.200000000000001E-003    6.782989310231024E-003
  5.300000000000002E-003    2.648481850393589E-002
  5.400000000000001E-003    4.624930028303730E-002
  5.500000000000001E-003    6.606474461320086E-002
  5.600000000000002E-003    8.591941078768753E-002
  5.700000000000001E-003    0.105801444745498     
  5.800000000000001E-003    0.125698948321826     
  5.900000000000002E-003    0.145599905056061     
  6.000000000000001E-003    0.165492317442738     
  6.100000000000001E-003    0.185364162159125     
  6.200000000000002E-003    0.205203334089050     
  6.300000000000002E-003    0.224997798043144     
  6.400000000000001E-003    0.244735484494343     
  6.500000000000001E-003    0.264404344869107     
  6.600000000000002E-003    0.283992305179926     
  6.700000000000001E-003    0.303487425152155     
  6.800000000000001E-003    0.322877771836559     
  6.900000000000002E-003    0.342151528893279     
  7.000000000000001E-003    0.361296896961059     
  7.100000000000001E-003    0.380302170292518     
  7.200000000000002E-003    0.399155771179243     
  7.300000000000002E-003    0.417846233179360     
  7.400000000000001E-003    0.436362193402038     
  7.500000000000001E-003    0.454692429629380     
  7.600000000000002E-003    0.472825837923036     
  7.700000000000001E-003    0.490751515813870     
  7.800000000000001E-003    0.508458653093765     
  7.900000000000001E-003    0.525936708759714     
  8.000000000000002E-003    0.543175262038573     
  8.100000000000001E-003    0.560164147339278     
  8.200000000000001E-003    0.576893358545372     
  8.300000000000002E-003    0.593353138803561     
  8.400000000000001E-003    0.609533971067359     
  8.500000000000002E-003    0.625426567618585     
  8.600000000000002E-003    0.641021912338186     
  8.700000000000001E-003    0.656311169904418     
  8.800000000000002E-003    0.671285849277997     
  8.900000000000002E-003    0.685937629204666     
  9.000000000000001E-003    0.700258530839018     
  9.100000000000002E-003    0.714240802379773     
  9.200000000000002E-003    0.727877031783379     
  9.300000000000001E-003    0.741160091442371     
  9.400000000000002E-003    0.754083142373769     
  9.500000000000001E-003    0.766639723303870     
  9.600000000000001E-003    0.778823598449104     
  9.700000000000002E-003    0.790628938413602     
  9.800000000000001E-003    0.802050193722093     
  9.900000000000001E-003    0.813082236772255     
  1.000000000000000E-002    0.823720144745599     
  1.010000000000000E-002    0.833959413885726     
  1.020000000000000E-002    0.843795855678065     
  1.030000000000000E-002    0.853225668424997     
  1.040000000000000E-002    0.862245233940211     
  1.050000000000000E-002    0.870851495285664     
  1.060000000000000E-002    0.879041582992730     
  1.070000000000000E-002    0.886812911083323     
  1.080000000000000E-002    0.894163483327529     
  1.090000000000000E-002    0.901091414046126     
  1.100000000000000E-002    0.907595335749226     
  1.110000000000000E-002    0.913674218914300     
  1.120000000000000E-002    0.919327414846084     
  1.130000000000000E-002    0.924554473389058     
  1.140000000000000E-002    0.929355461971570     
  1.150000000000000E-002    0.933730605052120     
  1.160000000000000E-002    0.937680687324278     
  1.170000000000000E-002    0.941206723699363     
  1.180000000000000E-002    0.944309967370995     
  1.190000000000000E-002    0.946992065853959     
  1.200000000000000E-002    0.949255098591359     
  1.210000000000000E-002    0.951101270804268     
  1.220000000000000E-002    0.952533213608051     
  1.230000000000000E-002    0.953553938302700     
  1.240000000000000E-002    0.954166659258250     
  1.250000000000000E-002    0.954374921324733     
  1.260000000000000E-002    0.954182548294432     
  1.270000000000000E-002    0.953593683151321     
  1.280000000000000E-002    0.952612793328378     
  1.290000000000000E-002    0.951244634113899     
  1.300000000000000E-002    0.949494032234041     
  1.310000000000000E-002    0.947366267236425     
  1.320000000000000E-002    0.944866785810419     
  1.330000000000000E-002    0.942001252720854     
  1.340000000000000E-002    0.938775640879257     
  1.350000000000000E-002    0.935196062653909     
  1.360000000000000E-002    0.931268904860372     
  1.370000000000000E-002    0.927000732791616     
  1.380000000000000E-002    0.922398389213991     
  1.390000000000000E-002    0.917468859720610     
  1.400000000000000E-002    0.912219369832419     
  1.410000000000000E-002    0.906657242671537     
  1.420000000000000E-002    0.900789985452996     
  1.430000000000000E-002    0.894625313112879     
  1.440000000000000E-002    0.888171014572505     
  1.450000000000000E-002    0.881435089696612     
  1.460000000000000E-002    0.874425576406490     
  1.470000000000000E-002    0.867150648551022     
  1.480000000000000E-002    0.859618582705173     
  1.490000000000000E-002    0.851837756533254     
  1.500000000000000E-002    0.843816603565294     
  1.510000000000000E-002    0.835563718637734     
  1.520000000000000E-002    0.827087712310628     
  1.530000000000000E-002    0.818397276122307     
  1.540000000000000E-002    0.809501134148300     
  1.550000000000000E-002    0.800408105160345     
  1.560000000000000E-002    0.791127004069442     
  1.570000000000000E-002    0.781666670901156     
  1.580000000000000E-002    0.772035966683112     
  1.590000000000000E-002    0.762243716901282     
  1.600000000000000E-002    0.752298766003503     
  1.610000000000000E-002    0.742209957844700     
  1.620000000000000E-002    0.731986031353417     
  1.630000000000000E-002    0.721635733440219     
  1.640000000000000E-002    0.711167769768160     
  1.650000000000000E-002    0.700590854474945     
  1.660000000000000E-002    0.689913551564969     
  1.670000000000000E-002    0.679144442102080     
  1.680000000000000E-002    0.668291999882044     
  1.690000000000000E-002    0.657364610019381     
  1.700000000000000E-002    0.646370632139695     
  1.710000000000000E-002    0.635318292433221     
  1.720000000000000E-002    0.624215725174071     
  1.730000000000000E-002    0.613070948701616     
  1.740000000000000E-002    0.601891862882522     
  1.750000000000000E-002    0.590686232639077     
  1.760000000000000E-002    0.579461711947867     
  1.770000000000000E-002    0.568225840089028     
  1.780000000000000E-002    0.556985971810398     
  1.790000000000000E-002    0.545749374681705     
  1.800000000000000E-002    0.534523151917780     
  1.810000000000000E-002    0.523314256804114     
  1.820000000000000E-002    0.512129539662508     
  1.830000000000000E-002    0.500975613369760     
  1.840000000000000E-002    0.489859006469185     
  1.850000000000000E-002    0.478786047074538     
  1.860000000000000E-002    0.467762893048526     
  1.870000000000000E-002    0.456795568302933     