 -4.000000000000000E-002    0.000000000000000E+000
 -3.990000000000000E-002    0.000000000000000E+000
 -3.980000000000000E-002    0.000000000000000E+000
 -3.970000000000000E-002    0.000000000000000E+000
 -3.960000000000000E-002    0.000000000000000E+000
 -3.950000000000000E-002    0.000000000000000E+000
 -3.940000000000000E-002    0.000000000000000E+000
 -3.930000000000000E-002    0.000000000000000E+000
 -3.920000000000000E-002    0.000000000000000E+000
 -3.910000000000000E-002    0.000000000000000E+000
 -3.900000000000000E-002    0.000000000000000E+000
 -3.890000000000000E-002    0.000000000000000E+000
 -3.880000000000000E-002    0.000000000000000E+000
 -3.870000000000000E-002    0.000000000000000E+000
 -3.860000000000000E-002    0.000000000000000E+000
 -3.850000000000000E-002    0.000000000000000E+000
 -3.840000000000000E-002    0.000000000000000E+000
 -3.830000000000000E-002    0.000000000000000E+000
 -3.820000000000000E-002    0.000000000000000E+000
 -3.810000000000000E-002    0.000000000000000E+000
 -3.800000000000000E-002    0.000000000000000E+000
 -3.790000000000000E-002    0.000000000000000E+000
 -3.780000000000000E-002    0.000000000000000E+000
 -3.770000000000000E-002    0.000000000000000E+000
 -3.760000000000000E-002    0.000000000000000E+000
 -3.750000000000000E-002    0.000000000000000E+000
 -3.740000000000000E-002    0.000000000000000E+000
 -3.730000000000000E-002    0.000000000000000E+000
 -3.720000000000000E-002    0.000000000000000E+000
 -3.710000000000000E-002    0.000000000000000E+000
 -3.700000000000000E-002    0.000000000000000E+000
 -3.690000000000000E-002    0.000000000000000E+000
 -3.680000000000000E-002    0.000000000000000E+000
 -3.670000000000000E-002    0.000000000000000E+000
 -3.660000000000000E-002    0.000000000000000E+000
 -3.650000000000000E-002    0.000000000000000E+000
 -3.640000000000000E-002    0.000000000000000E+000
 -3.630000000000000E-002    0.000000000000000E+000
 -3.620000000000000E-002    0.000000000000000E+000
 -3.610000000000000E-002    0.000000000000000E+000
 -3.600000000000000E-002    0.000000000000000E+000
 -3.590000000000000E-002    0.000000000000000E+000
 -3.580000000000000E-002    0.000000000000000E+000
 -3.570000000000000E-002    0.000000000000000E+000
 -3.560000000000000E-002    0.000000000000000E+000
 -3.550000000000000E-002    0.000000000000000E+000
 -3.540000000000000E-002    0.000000000000000E+000
 -3.530000000000000E-002    0.000000000000000E+000
 -3.520000000000000E-002    0.000000000000000E+000
 -3.510000000000000E-002    0.000000000000000E+000
 -3.500000000000000E-002    0.000000000000000E+000
 -3.490000000000000E-002    0.000000000000000E+000
 -3.480000000000000E-002    0.000000000000000E+000
 -3.470000000000000E-002    0.000000000000000E+000
 -3.460000000000000E-002    0.000000000000000E+000
 -3.450000000000000E-002    0.000000000000000E+000
 -3.440000000000000E-002    0.000000000000000E+000
 -3.430000000000000E-002    0.000000000000000E+000
 -3.420000000000000E-002    0.000000000000000E+000
 -3.410000000000000E-002    0.000000000000000E+000
 -3.400000000000000E-002    0.000000000000000E+000
 -3.390000000000000E-002    0.000000000000000E+000
 -3.380000000000000E-002    0.000000000000000E+000
 -3.370000000000000E-002    0.000000000000000E+000
 -3.360000000000000E-002    0.000000000000000E+000
 -3.350000000000000E-002    0.000000000000000E+000
 -3.340000000000000E-002    0.000000000000000E+000
 -3.330000000000000E-002    0.000000000000000E+000
 -3.320000000000000E-002    0.000000000000000E+000
 -3.310000000000000E-002    0.000000000000000E+000
 -3.300000000000000E-002    0.000000000000000E+000
 -3.290000000000000E-002    0.000000000000000E+000
 -3.280000000000000E-002    0.000000000000000E+000
 -3.270000000000000E-002    0.000000000000000E+000
 -3.260000000000000E-002    0.000000000000000E+000
 -3.250000000000000E-002    0.000000000000000E+000
 -3.240000000000000E-002    0.000000000000000E+000
 -3.230000000000000E-002    0.000000000000000E+000
 -3.220000000000000E-002    0.000000000000000E+000
 -3.210000000000000E-002    0.000000000000000E+000
 -3.200000000000000E-002    0.000000000000000E+000
 -3.190000000000000E-002    0.000000000000000E+000
 -3.180000000000000E-002    0.000000000000000E+000
 -3.170000000000000E-002    0.000000000000000E+000
 -3.160000000000000E-002    0.000000000000000E+000
 -3.150000000000000E-002    0.000000000000000E+000
 -3.140000000000000E-002    0.000000000000000E+000
 -3.130000000000000E-002    0.000000000000000E+000
 -3.120000000000000E-002    0.000000000000000E+000
 -3.110000000000000E-002    0.000000000000000E+000
 -3.100000000000000E-002    0.000000000000000E+000
 -3.090000000000000E-002    0.000000000000000E+000
 -3.080000000000000E-002    0.000000000000000E+000
 -3.070000000000000E-002    0.000000000000000E+000
 -3.060000000000000E-002    0.000000000000000E+000
 -3.050000000000000E-002    0.000000000000000E+000
 -3.040000000000000E-002    0.000000000000000E+000
 -3.030000000000000E-002    0.000000000000000E+000
 -3.020000000000000E-002    0.000000000000000E+000
 -3.010000000000000E-002    0.000000000000000E+000
 -3.000000000000000E-002    0.000000000000000E+000
 -2.990000000000000E-002    0.000000000000000E+000
 -2.980000000000000E-002    0.000000000000000E+000
 -2.970000000000000E-002    0.000000000000000E+000
 -2.960000000000000E-002    0.000000000000000E+000
 -2.950000000000000E-002    0.000000000000000E+000
 -2.940000000000000E-002    0.000000000000000E+000
 -2.930000000000000E-002    0.000000000000000E+000
 -2.920000000000000E-002    0.000000000000000E+000
 -2.910000000000000E-002    0.000000000000000E+000
 -2.900000000000000E-002    0.000000000000000E+000
 -2.890000000000000E-002    0.000000000000000E+000
 -2.880000000000000E-002    0.000000000000000E+000
 -2.870000000000000E-002    0.000000000000000E+000
 -2.860000000000000E-002    0.000000000000000E+000
 -2.850000000000000E-002    0.000000000000000E+000
 -2.840000000000000E-002    0.000000000000000E+000
 -2.830000000000000E-002    0.000000000000000E+000
 -2.820000000000000E-002    0.000000000000000E+000
 -2.810000000000000E-002    0.000000000000000E+000
 -2.800000000000000E-002    0.000000000000000E+000
 -2.790000000000000E-002    0.000000000000000E+000
 -2.780000000000000E-002    0.000000000000000E+000
 -2.770000000000000E-002    0.000000000000000E+000
 -2.760000000000000E-002    0.000000000000000E+000
 -2.750000000000000E-002    0.000000000000000E+000
 -2.740000000000000E-002    0.000000000000000E+000
 -2.730000000000000E-002    0.000000000000000E+000
 -2.720000000000000E-002    0.000000000000000E+000
 -2.710000000000000E-002    0.000000000000000E+000
 -2.700000000000000E-002    0.000000000000000E+000
 -2.690000000000000E-002    0.000000000000000E+000
 -2.680000000000000E-002    0.000000000000000E+000
 -2.670000000000000E-002    0.000000000000000E+000
 -2.660000000000000E-002    0.000000000000000E+000
 -2.650000000000000E-002    0.000000000000000E+000
 -2.640000000000000E-002    0.000000000000000E+000
 -2.630000000000000E-002    0.000000000000000E+000
 -2.620000000000000E-002    0.000000000000000E+000
 -2.610000000000000E-002    0.000000000000000E+000
 -2.600000000000000E-002    0.000000000000000E+000
 -2.590000000000000E-002    0.000000000000000E+000
 -2.580000000000000E-002    0.000000000000000E+000
 -2.570000000000000E-002    0.000000000000000E+000
 -2.560000000000000E-002    0.000000000000000E+000
 -2.550000000000000E-002    0.000000000000000E+000
 -2.540000000000000E-002    0.000000000000000E+000
 -2.530000000000000E-002    0.000000000000000E+000
 -2.520000000000000E-002    0.000000000000000E+000
 -2.510000000000000E-002    0.000000000000000E+000
 -2.500000000000000E-002    0.000000000000000E+000
 -2.490000000000000E-002    0.000000000000000E+000
 -2.480000000000000E-002    0.000000000000000E+000
 -2.470000000000000E-002    0.000000000000000E+000
 -2.460000000000000E-002    0.000000000000000E+000
 -2.450000000000000E-002    0.000000000000000E+000
 -2.440000000000000E-002    0.000000000000000E+000
 -2.430000000000000E-002    0.000000000000000E+000
 -2.420000000000000E-002    0.000000000000000E+000
 -2.410000000000000E-002    0.000000000000000E+000
 -2.400000000000000E-002    0.000000000000000E+000
 -2.390000000000000E-002    0.000000000000000E+000
 -2.380000000000000E-002    0.000000000000000E+000
 -2.370000000000000E-002    0.000000000000000E+000
 -2.360000000000000E-002    0.000000000000000E+000
 -2.350000000000000E-002    0.000000000000000E+000
 -2.340000000000000E-002    0.000000000000000E+000
 -2.330000000000000E-002    0.000000000000000E+000
 -2.320000000000000E-002    0.000000000000000E+000
 -2.310000000000000E-002    0.000000000000000E+000
 -2.300000000000000E-002    0.000000000000000E+000
 -2.290000000000000E-002    0.000000000000000E+000
 -2.280000000000000E-002    0.000000000000000E+000
 -2.270000000000000E-002    0.000000000000000E+000
 -2.260000000000000E-002    0.000000000000000E+000
 -2.250000000000000E-002    0.000000000000000E+000
 -2.240000000000000E-002    0.000000000000000E+000
 -2.230000000000000E-002    0.000000000000000E+000
 -2.220000000000000E-002    0.000000000000000E+000
 -2.210000000000000E-002    0.000000000000000E+000
 -2.200000000000000E-002    0.000000000000000E+000
 -2.190000000000000E-002    0.000000000000000E+000
 -2.180000000000000E-002    0.000000000000000E+000
 -2.170000000000000E-002    0.000000000000000E+000
 -2.160000000000000E-002    0.000000000000000E+000
 -2.150000000000000E-002    0.000000000000000E+000
 -2.140000000000000E-002    0.000000000000000E+000
 -2.130000000000000E-002    0.000000000000000E+000
 -2.120000000000000E-002    0.000000000000000E+000
 -2.110000000000000E-002    0.000000000000000E+000
 -2.100000000000000E-002    0.000000000000000E+000
 -2.090000000000000E-002    0.000000000000000E+000
 -2.080000000000000E-002    0.000000000000000E+000
 -2.070000000000000E-002    0.000000000000000E+000
 -2.060000000000000E-002    6.414635304221270E-048
 -2.050000000000000E-002    6.763422942257716E-047
 -2.040000000000000E-002    1.309920353090068E-046
 -2.030000000000000E-002    1.943498411954365E-046
 -2.020000000000000E-002    2.512930117776448E-046
 -2.010000000000000E-002    2.954069117514107E-046
 -2.000000000000000E-002    2.128051999523172E-046
 -1.990000000000000E-002   -3.306193633122876E-047
 -1.980000000000000E-002   -4.518967961294736E-046
 -1.970000000000000E-002   -1.262358092147666E-045
 -1.960000000000000E-002   -2.204960875432816E-045
 -1.950000000000000E-002   -2.980649670800103E-045
 -1.940000000000000E-002   -3.539617747481093E-045
 -1.930000000000000E-002   -3.313155214352822E-045
 -1.920000000000000E-002   -1.717784905475367E-045
 -1.910000000000000E-002    7.401267915271501E-047
 -1.900000000000000E-002    3.719076134027666E-045
 -1.890000000000000E-002    9.350041331416288E-045
 -1.880000000000000E-002    1.572323296762707E-044
 -1.870000000000000E-002    2.173596424055848E-044
 -1.860000000000000E-002    2.770409023161209E-044
 -1.850000000000000E-002    2.976761003453111E-044
 -1.840000000000000E-002    2.441452756601779E-044
 -1.830000000000000E-002    9.242490516906936E-045
 -1.820000000000000E-002   -1.926262789673999E-044
 -1.810000000000000E-002   -6.114855958635280E-044
 -1.800000000000000E-002   -1.147616389675464E-043
 -1.790000000000000E-002   -1.727798717799216E-043
 -1.780000000000000E-002   -2.215682107958189E-043
 -1.770000000000000E-002   -2.415874340230116E-043
 -1.760000000000000E-002   -2.102768532249961E-043
 -1.750000000000000E-002   -1.009870562525726E-043
 -1.740000000000000E-002    1.059179137286045E-043
 -1.730000000000000E-002    4.170295571489535E-043
 -1.720000000000000E-002    8.145153764337502E-043
 -1.710000000000000E-002    1.246144799132041E-042
 -1.700000000000000E-002    1.619313263003468E-042
 -1.690000000000000E-002    1.796685060245050E-042
 -1.680000000000000E-002    1.610412998315978E-042
 -1.670000000000000E-002    8.849544759591562E-043
 -1.660000000000000E-002   -5.173825885733640E-043
 -1.650000000000000E-002   -2.641526414014347E-042
 -1.640000000000000E-002   -5.369220164538092E-042
 -1.630000000000000E-002   -8.353874837738346E-042
 -1.620000000000000E-002   -1.097105423072286E-041
 -1.610000000000000E-002   -1.232527224252861E-041
 -1.600000000000000E-002   -1.131746644698813E-041
 -1.590000000000000E-002   -6.815066654703352E-042
 -1.580000000000000E-002    2.074271120050289E-042
 -1.570000000000000E-002    1.563228866284687E-041
 -1.560000000000000E-002    3.310680497670407E-041
 -1.550000000000000E-002    5.231023004949967E-041
 -1.540000000000000E-002    6.936294459288009E-041
 -1.530000000000000E-002    7.872466703586060E-041
 -1.520000000000000E-002    7.366740206779322E-041
 -1.510000000000000E-002    4.732312486034023E-041
 -1.500000000000000E-002   -5.654887884219626E-042
 -1.490000000000000E-002   -8.689811421944523E-041
 -1.480000000000000E-002   -1.918501995449466E-040
 -1.470000000000000E-002   -3.075149616465183E-040
 -1.460000000000000E-002   -4.110920597363917E-040
 -1.450000000000000E-002   -4.703411229711683E-040
 -1.440000000000000E-002   -4.465112086020530E-040
 -1.430000000000000E-002   -3.004695361184423E-040
 -1.420000000000000E-002   -2.210215284375036E-042
 -1.410000000000000E-002    4.568484442978287E-040
 -1.400000000000000E-002    1.050364922945756E-039
 -1.390000000000000E-002    1.705105322441344E-039
 -1.380000000000000E-002    2.294271892308806E-039
 -1.370000000000000E-002    2.640541759292166E-039
 -1.360000000000000E-002    2.533106443544474E-039
 -1.350000000000000E-002    1.761728783515297E-039
 -1.340000000000000E-002    1.681891579439133E-040
 -1.330000000000000E-002   -2.288595516497500E-039
 -1.320000000000000E-002   -5.462769888898275E-039
 -1.310000000000000E-002   -8.961697380379087E-039
 -1.300000000000000E-002   -1.211568594360071E-038
 -1.290000000000000E-002   -1.399945245984420E-038
 -1.280000000000000E-002   -1.352597124395232E-038
 -1.270000000000000E-002   -9.625987629025429E-039
 -1.260000000000000E-002   -1.512290388359788E-039
 -1.250000000000000E-002    1.099312347928843E-038
 -1.240000000000000E-002    2.711671379252901E-038
 -1.230000000000000E-002    4.485051337036774E-038
 -1.220000000000000E-002    6.082521033396019E-038
 -1.210000000000000E-002    7.044491204583795E-038
 -1.200000000000000E-002    6.837754261136209E-038
 -1.190000000000000E-002    4.945487684096486E-038
 -1.180000000000000E-002    9.964500877728507E-039
 -1.170000000000000E-002   -5.078566658873588E-038
 -1.160000000000000E-002   -1.288703702758290E-037
 -1.150000000000000E-002   -2.144784033735663E-037
 -1.140000000000000E-002   -2.914242704556107E-037
 -1.130000000000000E-002   -3.379190729076730E-037
 -1.120000000000000E-002   -3.290055759391931E-037
 -1.110000000000000E-002   -2.408592150056072E-037
 -1.100000000000000E-002   -5.681294238706065E-038
 -1.090000000000000E-002    2.255036914906099E-037
 -1.080000000000000E-002    5.870588115101438E-037
 -1.070000000000000E-002    9.820055386559863E-037
 -1.060000000000000E-002    1.335980203360423E-036
 -1.050000000000000E-002    1.550178033601164E-036
 -1.040000000000000E-002    1.512861469822205E-036
 -1.030000000000000E-002    1.118983153133616E-036
 -1.020000000000000E-002    2.970394713323196E-037
 -1.010000000000000E-002   -9.597817462392607E-037
 -1.000000000000000E-002   -2.563373393269632E-036
 -9.899999999999999E-003   -4.308690419463496E-036
 -9.800000000000000E-003   -5.868539407891271E-036
 -9.699999999999999E-003   -6.813687943224173E-036
 -9.599999999999999E-003   -6.664723172853702E-036
 -9.500000000000000E-003   -4.977668533129084E-036
 -9.399999999999999E-003   -1.458569497001536E-036
 -9.299999999999999E-003    3.906329579141639E-036
 -9.200000000000000E-003    1.072741781541784E-035
 -9.099999999999999E-003    1.812615471556385E-035
 -8.999999999999999E-003    2.472219141216267E-035
 -8.900000000000000E-003    2.872666476420514E-035
 -8.799999999999999E-003    2.816544314913749E-035
 -8.699999999999999E-003    2.123692884184537E-035
 -8.600000000000000E-003    6.780925599084248E-036
 -8.499999999999999E-003   -1.519935832410459E-035
 -8.399999999999999E-003   -4.305579880634759E-035
 -8.300000000000000E-003   -7.317736002540699E-035
 -8.199999999999999E-003   -9.997271361688044E-035
 -8.100000000000000E-003   -1.162797890139787E-034
 -8.000000000000000E-003   -1.142856765014323E-034
 -7.899999999999999E-003   -8.696137006285444E-035
 -7.800000000000000E-003   -2.990455368193044E-035
 -7.699999999999999E-003    5.664880274223871E-035
 -7.599999999999999E-003    1.660155667198445E-034
 -7.499999999999999E-003    2.839338909906377E-034
 -7.399999999999999E-003    3.886234328248126E-034
 -7.299999999999999E-003    4.524946712688850E-034
 -7.199999999999999E-003    4.457846094424961E-034
 -7.100000000000000E-003    3.420867673457802E-034
 -6.999999999999999E-003    1.253189783496937E-034
 -6.899999999999999E-003   -2.028146372174580E-034
 -6.800000000000000E-003   -6.162831961700402E-034
 -6.699999999999999E-003   -1.060869961084540E-033
 -6.599999999999999E-003   -1.454851976578667E-033
 -6.499999999999999E-003   -1.695806564690062E-033
 -6.399999999999999E-003   -1.674421819420730E-033
 -6.299999999999999E-003   -1.295016061898047E-033
 -6.199999999999999E-003   -5.009270659867075E-034
 -6.100000000000000E-003    6.988013638791645E-034
 -5.999999999999999E-003    2.206619705056825E-033
 -5.899999999999999E-003    3.823846380529943E-033
 -5.800000000000000E-003    5.254671364866863E-033
 -5.699999999999999E-003    6.132099019666194E-033
 -5.599999999999999E-003    6.068441229892276E-033
 -5.499999999999999E-003    4.728738642902086E-033
 -5.399999999999999E-003    1.920039315718133E-033
 -5.299999999999999E-003   -2.316441699002838E-033
 -5.199999999999999E-003   -7.628578811648986E-033
 -5.099999999999999E-003   -1.331366188428971E-032
 -4.999999999999999E-003   -1.833743687557629E-032
 -4.899999999999999E-003   -2.142896361013504E-032
 -4.799999999999999E-003   -2.125859693131575E-032
 -4.699999999999999E-003   -1.669162387427108E-032
 -4.599999999999999E-003   -7.091654907464114E-033
 -4.499999999999999E-003    7.371645024781528E-033
 -4.399999999999999E-003    2.547276746669129E-032
 -4.299999999999999E-003    4.481051554414766E-032
 -4.199999999999999E-003    6.188826040749732E-032
 -4.099999999999999E-003    7.244736453778004E-032
 -3.999999999999999E-003    7.207274122801348E-032
 -3.899999999999999E-003    5.703991512677401E-032
 -3.799999999999999E-003    2.531248617743623E-032
 -3.699999999999999E-003   -2.246308807674165E-032
 -3.599999999999999E-003   -8.217027241445534E-032
 -3.499999999999999E-003   -1.458743297276645E-031
 -3.399999999999999E-003   -2.021332777262219E-031
 -3.299999999999999E-003   -2.371265870382538E-031
 -3.199999999999999E-003   -2.366467062749954E-031
 -3.099999999999999E-003   -1.888368210538338E-031
 -2.999999999999999E-003   -8.736740001054876E-032
 -2.899999999999999E-003    6.544738250247572E-032
 -2.799999999999999E-003    2.562445123899496E-031
 -2.699999999999999E-003    4.596401393192356E-031
 -2.599999999999999E-003    6.393574327168732E-031
 -2.499999999999999E-003    7.519143330032341E-031
 -2.399999999999999E-003    7.529614709630881E-031
 -2.299999999999999E-003    6.058565360369727E-031
 -2.199999999999999E-003    2.914734172242292E-031
 -2.099999999999999E-003   -1.823242530266492E-031
 -1.999999999999999E-003   -7.735534125944308E-031
 -1.899999999999999E-003   -1.403503123729876E-030
 -1.799999999999999E-003   -1.960609620772491E-030
 -1.699999999999999E-003   -2.312101609042539E-030
 -1.599999999999999E-003   -2.323548658502956E-030
 -1.499999999999999E-003   -1.884911211764000E-030
 -1.399999999999999E-003   -9.399483699583580E-031
 -1.299999999999999E-003    4.858089912126783E-031
 -1.199999999999999E-003    2.264520609279101E-030
 -1.099999999999999E-003    4.159314316191528E-030
 -9.999999999999989E-004    5.836989267891940E-030
 -8.999999999999990E-004    6.903612278151783E-030
 -7.999999999999990E-004    6.963019736606277E-030
 -6.999999999999989E-004    5.693688350111109E-030
 -5.999999999999990E-004    2.934427976727712E-030
 -4.999999999999989E-004   -1.235279497930275E-030
 -3.999999999999989E-004   -6.437715832505047E-030
 -2.999999999999989E-004   -1.198030033476419E-029
 -1.999999999999989E-004   -1.689546524629788E-029
 -9.999999999999892E-005   -2.004615025546626E-029
  1.084202172485504E-018   -2.029583570513175E-029
  1.000000000000011E-004   -1.672910607422481E-029
  2.000000000000011E-004   -8.894645430213427E-030
  3.000000000000011E-004    2.970071777938741E-030
  4.000000000000011E-004    1.778151068577743E-029
  5.000000000000011E-004    3.357056498367334E-029
  6.000000000000011E-004    4.760289321087127E-029
  7.000000000000011E-004    5.668215184731403E-029
  8.000000000000011E-004    5.763050435252083E-029
  9.000000000000012E-004    4.790450769214218E-029
  1.000000000000001E-003    2.626629441210508E-029
  1.100000000000001E-003   -6.603628914312120E-030
  1.200000000000001E-003   -4.768692528007820E-029
  1.300000000000001E-003   -9.153709383712534E-029
  1.400000000000001E-003   -1.306288931253076E-028
  1.500000000000001E-003   -1.562047919452992E-028
  1.600000000000001E-003   -1.595957680028238E-028
  1.700000000000001E-003   -1.338963371392849E-028
  1.800000000000001E-003   -7.577207373649895E-029
  1.900000000000001E-003    1.290926961422144E-029
  2.000000000000001E-003    1.239837348859642E-028
  2.100000000000001E-003    2.427913204153989E-028
  2.200000000000001E-003    3.491546653648278E-028
  2.300000000000001E-003    4.196739420520761E-028
  2.400000000000001E-003    4.312608301257860E-028
  2.500000000000001E-003    3.655781762817666E-028
  2.600000000000001E-003    2.137887096534237E-028
  2.700000000000001E-003   -1.920359393460400E-029
  2.800000000000001E-003   -3.119589749110675E-028
  2.900000000000001E-003   -6.260718427533996E-028
  3.000000000000001E-003   -9.088179761638830E-028
  3.100000000000001E-003   -1.099200906919942E-027
  3.200000000000001E-003   -1.137160650624456E-027
  3.300000000000001E-003   -9.750466252136496E-028
  3.400000000000001E-003   -5.897971608274376E-028
  3.500000000000001E-003    6.279546907198196E-030
  3.600000000000001E-003    7.585096935846747E-028
  3.700000000000001E-003    1.568942124192187E-027
  3.800000000000001E-003    2.303272261715115E-027
  3.900000000000001E-003    2.806335937487794E-027
  4.000000000000001E-003    2.925486250741045E-027
  4.100000000000001E-003    2.539522513473054E-027
  4.200000000000001E-003    1.589194849690843E-027
  4.300000000000001E-003    1.040111869582819E-028
  4.400000000000001E-003   -1.780580981208935E-027
  4.500000000000001E-003   -3.821268906953271E-027
  4.600000000000002E-003   -5.684406152137944E-027
  4.700000000000001E-003   -6.984646829147155E-027
  4.800000000000001E-003   -7.342816054411901E-027
  4.900000000000002E-003   -6.457096804827650E-027
  5.000000000000001E-003   -4.177706450800782E-027
  5.100000000000001E-003   -5.721257213482289E-028
  5.200000000000001E-003    4.033469304015268E-027
  5.300000000000002E-003    9.050060965015669E-027
  5.400000000000001E-003    1.366883206474277E-026
  5.500000000000001E-003    1.695499622016107E-026
  5.600000000000002E-003    1.798753406320454E-026
  5.700000000000001E-003    1.603033597446683E-026
  5.800000000000001E-003    1.071094559056840E-026
  5.900000000000002E-003    2.176040388325471E-027
  6.000000000000001E-003   -8.810396343407958E-027
  6.100000000000001E-003   -2.085781254061521E-026
  6.200000000000002E-003   -3.205159432621571E-026
  6.300000000000002E-003   -4.017514503868307E-026
  6.400000000000001E-003   -4.303932408394730E-026
  6.500000000000001E-003   -3.888457538360653E-026
  6.600000000000002E-003   -2.679969919040856E-026
  6.700000000000001E-003   -7.085084010958883E-027
  6.800000000000001E-003    1.851840820211500E-026
  6.900000000000002E-003    4.680752839913534E-026
  7.000000000000001E-003    7.335356281347089E-026
  7.100000000000001E-003    9.301486398463045E-026
  7.200000000000002E-003    1.006954793696086E-025
  7.300000000000002E-003    9.226942952894506E-026
  7.400000000000001E-003    6.554154976301429E-026
  7.500000000000001E-003    2.108022684908746E-026
  7.600000000000002E-003   -3.725687698317930E-026
  7.700000000000001E-003   -1.022677989924845E-025
  7.800000000000001E-003   -1.639374521457622E-025
  7.900000000000001E-003   -2.105909663864450E-025
  8.000000000000002E-003   -2.306010505564476E-025
  8.100000000000001E-003   -2.144670339913707E-025
  8.200000000000001E-003   -1.569755921467485E-025
  8.300000000000002E-003   -5.907554953496577E-026
  8.400000000000001E-003    7.093091840393357E-026
  8.500000000000002E-003    2.172427290772284E-025
  8.600000000000002E-003    3.577139561491891E-025
  8.700000000000001E-003    4.663844836370836E-025
  8.800000000000002E-003    5.172356065577824E-025
  8.900000000000002E-003    4.887680797244109E-025
  9.000000000000001E-003    3.687671110820660E-025
  9.100000000000002E-003    1.584502956152929E-025
  9.200000000000002E-003   -1.248677353493185E-025
  9.300000000000001E-003   -4.473800122411871E-025
  9.400000000000002E-003   -7.612118372092118E-025
  9.500000000000001E-003   -1.009833351902885E-024
  9.600000000000001E-003   -1.136132555932171E-024
  9.700000000000002E-003   -1.092285777592464E-024
  9.800000000000001E-003   -8.500638492846352E-025
  9.900000000000001E-003   -4.098540315706402E-025
  1.000000000000000E-002    1.934527304133806E-025
  1.010000000000000E-002    8.893873649085487E-025
  1.020000000000000E-002    1.576819821339622E-024
  1.030000000000000E-002    2.135232799525498E-024
  1.040000000000000E-002    2.441680655450492E-024
  1.050000000000000E-002    2.391625478632541E-024
  1.060000000000000E-002    1.920802338643506E-024
  1.070000000000000E-002    1.024509765006128E-024
  1.080000000000000E-002   -2.295490262165685E-025
  1.090000000000000E-002   -1.698399321616448E-024
  1.100000000000000E-002   -3.173390319310063E-024
  1.110000000000000E-002   -4.403060752326688E-024
  1.120000000000000E-002   -5.127945652620773E-024
  1.130000000000000E-002   -5.123642036947179E-024
  1.140000000000000E-002   -4.246310810279177E-024
  1.150000000000000E-002   -2.473224959026201E-024
  1.160000000000000E-002    6.960292439612046E-026
  1.170000000000000E-002    3.099989043442559E-024
  1.180000000000000E-002    6.197534664714935E-024
  1.190000000000000E-002    8.848777310583075E-024
  1.200000000000000E-002    1.051698220592563E-023
  1.210000000000000E-002    1.072932724201440E-023
  1.220000000000000E-002    9.169804737099701E-024
  1.230000000000000E-002    5.763015448249158E-024
  1.240000000000000E-002    7.327653884788851E-025
  1.250000000000000E-002   -5.379305037570872E-024
  1.260000000000000E-002   -1.174578250341727E-023
  1.270000000000000E-002   -1.734019433639184E-023
  1.280000000000000E-002   -2.107385304725639E-023
  1.290000000000000E-002   -2.196873933822342E-023
  1.300000000000000E-002   -1.934372986938625E-023
  1.310000000000000E-002   -1.298489827814120E-023
  1.320000000000000E-002   -3.268035634368935E-024
  1.330000000000000E-002    8.796206678228806E-024
  1.340000000000000E-002    2.161624419460141E-023
  1.350000000000000E-002    3.318159461676357E-023
  1.360000000000000E-002    4.132509639395957E-023
  1.370000000000000E-002    4.405905323213993E-023
  1.380000000000000E-002    3.994188346638484E-023
  1.390000000000000E-002    2.841878702943935E-023
  1.400000000000000E-002    1.007439781291890E-023
  1.410000000000000E-002   -1.326092493367281E-023
  1.420000000000000E-002   -3.859497949328414E-023
  1.430000000000000E-002   -6.206737424681550E-023
  1.440000000000000E-002   -7.944064280010670E-023
  1.450000000000000E-002   -8.674109945013846E-023
  1.460000000000000E-002   -8.096830560560330E-023
  1.470000000000000E-002   -6.076623903812490E-023
  1.480000000000000E-002   -2.693722745530713E-023
  1.490000000000000E-002    1.731442907499294E-023
  1.500000000000000E-002    6.649659777644449E-023
  1.510000000000000E-002    1.133440388886945E-022
  1.520000000000000E-002    1.497162821061361E-022
  1.530000000000000E-002    1.677952362529829E-022
  1.540000000000000E-002    1.614343194330645E-022
  1.550000000000000E-002    1.274607090321432E-022
  1.560000000000000E-002    6.670701919957407E-023
  1.570000000000000E-002   -1.544469357073104E-023
  1.580000000000000E-002   -1.091783557180310E-022
  1.590000000000000E-002   -2.011105096987088E-022
  1.600000000000000E-002   -2.758899498494598E-022
  1.610000000000000E-002   -3.183894240494110E-022
  1.620000000000000E-002   -3.162249623932240E-022
  1.630000000000000E-002   -2.622432058029547E-022
  1.640000000000000E-002   -1.565613672772932E-022
  1.650000000000000E-002   -7.751664648410144E-024
  1.660000000000000E-002    1.671656675125246E-022
  1.670000000000000E-002    3.441112262150829E-022
  1.680000000000000E-002    4.947180100431521E-022
  1.690000000000000E-002    5.902526305650391E-022
  1.700000000000000E-002    6.062318709058606E-022
  1.710000000000000E-002    5.270922645450731E-022
  1.720000000000000E-002    3.501578995489060E-022
  1.730000000000000E-002    8.814817458514903E-023
  1.740000000000000E-002   -2.304171454790662E-022
  1.750000000000000E-002   -5.633134951990364E-022
  1.760000000000000E-002   -8.592649743422104E-022
  1.770000000000000E-002   -1.064798838453529E-021
  1.780000000000000E-002   -1.132539283889915E-021
  1.790000000000000E-002   -1.029815105269320E-021
  1.800000000000000E-002   -7.462372240267792E-022
  1.810000000000000E-002   -2.988590200169049E-022
  1.820000000000000E-002    2.662923775731987E-022
  1.830000000000000E-002    8.771240012781317E-022
  1.840000000000000E-002    1.443033135069473E-021
  1.850000000000000E-002    1.866612314866317E-021
  1.860000000000000E-002    2.058246013361036E-021
  1.870000000000000E-002    1.951689672727112E-021