 -4.000000000000000E-002    0.000000000000000E+000
 -3.990000000000000E-002    0.000000000000000E+000
 -3.980000000000000E-002    0.000000000000000E+000
 -3.970000000000000E-002    0.000000000000000E+000
 -3.960000000000000E-002    0.000000000000000E+000
 -3.950000000000000E-002    0.000000000000000E+000
 -3.940000000000000E-002    0.000000000000000E+000
 -3.930000000000000E-002    0.000000000000000E+000
 -3.920000000000000E-002    0.000000000000000E+000
 -3.910000000000000E-002    5.784077844379007E-031
 -3.900000000000000E-002    9.386835889212227E-030
 -3.890000000000000E-002    7.816843462269602E-029
 -3.880000000000000E-002    4.422405387499067E-028
 -3.870000000000000E-002    1.895352120990046E-027
 -3.860000000000000E-002    6.482875305561054E-027
 -3.850000000000000E-002    1.807690930791511E-026
 -3.840000000000000E-002    4.075184382575009E-026
 -3.830000000000000E-002    6.939597516292869E-026
 -3.820000000000000E-002    6.182355319544396E-026
 -3.810000000000000E-002   -1.223371821265454E-025
 -3.800000000000000E-002   -8.252769186062076E-025
 -3.790000000000000E-002   -2.715933060483308E-024
 -3.780000000000000E-002   -6.837554203860488E-024
 -3.770000000000000E-002   -1.433524483094982E-023
 -3.760000000000000E-002   -2.541376151782841E-023
 -3.750000000000000E-002   -3.686387835995837E-023
 -3.740000000000000E-002   -3.743039137045859E-023
 -3.730000000000000E-002   -6.512388972801754E-025
 -3.720000000000000E-002    1.240492506124898E-022
 -3.710000000000000E-002    4.188977799437425E-022
 -3.700000000000000E-002    9.971365321665233E-022
 -3.690000000000000E-002    1.982751173623997E-021
 -3.680000000000000E-002    3.454803342666748E-021
 -3.670000000000000E-002    5.339285376413123E-021
 -3.660000000000000E-002    7.237053476569711E-021
 -3.650000000000000E-002    8.193687634001600E-021
 -3.640000000000000E-002    6.450068096725717E-021
 -3.630000000000000E-002   -7.377421080602312E-022
 -3.620000000000000E-002   -1.705951625317832E-020
 -3.610000000000000E-002   -4.668474551444034E-020
 -3.600000000000000E-002   -9.313176568783101E-020
 -3.590000000000000E-002   -1.572698811400259E-019
 -3.580000000000000E-002   -2.343930394077229E-019
 -3.570000000000000E-002   -3.105832382952362E-019
 -3.560000000000000E-002   -3.590103017223543E-019
 -3.550000000000000E-002   -3.373541238007355E-019
 -3.540000000000000E-002   -1.880898943614065E-019
 -3.530000000000000E-002    1.562318792610085E-019
 -3.520000000000000E-002    7.605861013260252E-019
 -3.510000000000000E-002    1.666502479822248E-018
 -3.500000000000000E-002    2.862643356176861E-018
 -3.490000000000000E-002    4.249604939136103E-018
 -3.480000000000000E-002    5.605037622390997E-018
 -3.470000000000000E-002    6.558929446132873E-018
 -3.460000000000000E-002    6.592201763168758E-018
 -3.450000000000000E-002    5.073232282456385E-018
 -3.440000000000000E-002    1.345419905061671E-018
 -3.430000000000000E-002   -5.127189957980671E-018
 -3.420000000000000E-002   -1.456031437556871E-017
 -3.410000000000000E-002   -2.661606370684350E-017
 -3.400000000000000E-002   -4.017517393840266E-017
 -3.390000000000000E-002   -5.317324429023571E-017
 -3.380000000000000E-002   -6.257299923049329E-017
 -3.370000000000000E-002   -6.454702235360355E-017
 -3.360000000000000E-002   -5.493046631907959E-017
 -3.350000000000000E-002   -2.996679965647332E-017
 -3.340000000000000E-002    1.268901306503315E-017
 -3.330000000000000E-002    7.282233810900484E-017
 -3.320000000000000E-002    1.465620343997726E-016
 -3.310000000000000E-002    2.256045038300550E-016
 -3.300000000000000E-002    2.970708299833433E-016
 -3.290000000000000E-002    3.442954770928644E-016
 -3.280000000000000E-002    3.487577760738476E-016
 -3.270000000000000E-002    2.931961997027105E-016
 -3.260000000000000E-002    1.656948842439142E-016
 -3.250000000000000E-002   -3.576502059511062E-017
 -3.240000000000000E-002   -2.991002433090335E-016
 -3.230000000000000E-002   -5.953125451544794E-016
 -3.220000000000000E-002   -8.782032934908558E-016
 -3.210000000000000E-002   -1.087630189847716E-015
 -3.200000000000000E-002   -1.156927012775188E-015
 -3.190000000000000E-002   -1.024435004540494E-015
 -3.180000000000000E-002   -6.482083250996963E-016
 -3.170000000000000E-002   -2.193236856095669E-017
 -3.160000000000000E-002    8.108394662880664E-016
 -3.150000000000000E-002    1.747688273490993E-015
 -3.140000000000000E-002    2.627267587767028E-015
 -3.130000000000000E-002    3.241273911253401E-015
 -3.120000000000000E-002    3.360148368508637E-015
 -3.110000000000000E-002    2.771963550957717E-015
 -3.100000000000000E-002    1.331141620986068E-015
 -3.090000000000000E-002   -9.893812660365475E-016
 -3.080000000000000E-002   -4.051665449506036E-015
 -3.070000000000000E-002   -7.522768498706678E-015
 -3.060000000000000E-002   -1.087221833009171E-014
 -3.050000000000000E-002   -1.340597930406380E-014
 -3.040000000000000E-002   -1.434169257946739E-014
 -3.030000000000000E-002   -1.292360927301275E-014
 -3.020000000000000E-002   -8.567781726535118E-015
 -3.010000000000000E-002   -1.019832609739458E-015
 -3.000000000000000E-002    9.499540883997879E-015
 -2.990000000000000E-002    2.219073267255422E-014
 -2.980000000000000E-002    3.564280408420592E-014
 -2.970000000000000E-002    4.789722238428297E-014
 -2.960000000000000E-002    5.662197489470242E-014
 -2.950000000000000E-002    5.939444043536187E-014
 -2.940000000000000E-002    5.407220750819722E-014
 -2.930000000000000E-002    3.921071588294283E-014
 -2.920000000000000E-002    1.446918874957776E-014
 -2.910000000000000E-002   -1.906551800937319E-014
 -2.900000000000000E-002   -5.870937230060458E-014
 -2.890000000000000E-002   -1.002284153468353E-013
 -2.880000000000000E-002   -1.381428417818904E-013
 -2.870000000000000E-002   -1.662937805410406E-013
 -2.860000000000000E-002   -1.786369151575284E-013
 -2.850000000000000E-002   -1.701822736209839E-013
 -2.840000000000000E-002   -1.379600222578938E-013
 -2.830000000000000E-002   -8.186339127602770E-014
 -2.820000000000000E-002   -5.211597402076364E-015
 -2.810000000000000E-002    8.510988836596381E-014
 -2.800000000000000E-002    1.790330176974110E-013
 -2.790000000000000E-002    2.642520441151070E-013
 -2.780000000000000E-002    3.276831687871730E-013
 -2.770000000000000E-002    3.573031716171903E-013
 -2.760000000000000E-002    3.441473927338122E-013
 -2.750000000000000E-002    2.841822007367355E-013
 -2.740000000000000E-002    1.797381818840802E-013
 -2.730000000000000E-002    4.020313727433218E-014
 -2.720000000000000E-002   -1.182611856566845E-013
 -2.710000000000000E-002   -2.741035179503041E-013
 -2.700000000000000E-002   -4.028441549774388E-013
 -2.690000000000000E-002   -4.804158004878577E-013
 -2.680000000000000E-002   -4.870170649138862E-013
 -2.670000000000000E-002   -4.109714610299974E-013
 -2.660000000000000E-002   -2.519940260213735E-013
 -2.650000000000000E-002   -2.325703042199841E-014
 -2.640000000000000E-002    2.482733634964075E-013
 -2.630000000000000E-002    5.235867476174400E-013
 -2.620000000000000E-002    7.555647244254150E-013
 -2.610000000000000E-002    8.948899072194262E-013
 -2.600000000000000E-002    8.973766276567119E-013
 -2.590000000000000E-002    7.318654475110410E-013
 -2.580000000000000E-002    3.875836646580793E-013
 -2.570000000000000E-002   -1.202335059862050E-013
 -2.560000000000000E-002   -7.476218901254261E-013
 -2.550000000000000E-002   -1.422993950389749E-012
 -2.540000000000000E-002   -2.052599072218013E-012
 -2.530000000000000E-002   -2.530300698675892E-012
 -2.520000000000000E-002   -2.750996291165647E-012
 -2.510000000000000E-002   -2.626340952810034E-012
 -2.500000000000000E-002   -2.100862179965477E-012
 -2.490000000000000E-002   -1.166159120453608E-012
 -2.480000000000000E-002    1.292376503237104E-013
 -2.470000000000000E-002    1.676558096748931E-012
 -2.460000000000000E-002    3.311658655409365E-012
 -2.450000000000000E-002    4.828765641905157E-012
 -2.440000000000000E-002    6.002606350571696E-012
 -2.430000000000000E-002    6.617116046000270E-012
 -2.420000000000000E-002    6.497640284580452E-012
 -2.410000000000000E-002    5.542493711908873E-012
 -2.400000000000000E-002    3.749162618420953E-012
 -2.390000000000000E-002    1.230431493152006E-012
 -2.380000000000000E-002   -1.783575550355620E-012
 -2.370000000000000E-002   -4.959990098538596E-012
 -2.360000000000000E-002   -7.894966038916039E-012
 -2.350000000000000E-002   -1.016063813706580E-011
 -2.340000000000000E-002   -1.136274589668290E-011
 -2.330000000000000E-002   -1.120206799849176E-011
 -2.320000000000000E-002   -9.531180839300467E-012
 -2.310000000000000E-002   -6.397430283252581E-012
 -2.300000000000000E-002   -2.063655386628040E-012
 -2.290000000000000E-002    2.999715167066998E-012
 -2.280000000000000E-002    8.154285882608582E-012
 -2.270000000000000E-002    1.266377090783419E-011
 -2.260000000000000E-002    1.578850815396742E-011
 -2.250000000000000E-002    1.689383217183034E-011
 -2.240000000000000E-002    1.555808016044062E-011
 -2.230000000000000E-002    1.166401729448650E-011
 -2.220000000000000E-002    5.457646675024362E-012
 -2.210000000000000E-002   -2.438945446000904E-012
 -2.200000000000000E-002   -1.106900759280966E-011
 -2.190000000000000E-002   -1.923801295893635E-011
 -2.180000000000000E-002   -2.565905344735168E-011
 -2.170000000000000E-002   -2.913140817175941E-011
 -2.160000000000000E-002   -2.872995955060789E-011
 -2.150000000000000E-002   -2.397842189411696E-011
 -2.140000000000000E-002   -1.497831080939199E-011
 -2.130000000000000E-002   -2.468502482838009E-012
 -2.120000000000000E-002    1.220242555040781E-011
 -2.110000000000000E-002    2.719807304390416E-011
 -2.100000000000000E-002    4.040393394743868E-011
 -2.090000000000000E-002    4.970453516791052E-011
 -2.080000000000000E-002    5.329479237113767E-011
 -2.070000000000000E-002    4.998322824317670E-011
 -2.060000000000000E-002    3.944062840638544E-011
 -2.050000000000000E-002    2.235038241514422E-011
 -2.040000000000000E-002    4.262223721298900E-013
 -2.030000000000000E-002   -2.372105027699235E-011
 -2.020000000000000E-002   -4.686562204038593E-011
 -2.010000000000000E-002   -6.557290191779731E-011
 -2.000000000000000E-002   -7.668350179932502E-011
 -1.990000000000000E-002   -7.781178179586076E-011
 -1.980000000000000E-002   -6.778610478238651E-011
 -1.970000000000000E-002   -4.695840455063243E-011
 -1.960000000000000E-002   -1.732216103256110E-011
 -1.950000000000000E-002    1.760063739561307E-011
 -1.940000000000000E-002    5.311253060348357E-011
 -1.930000000000000E-002    8.390795663178849E-011
 -1.920000000000000E-002    1.047945210245876E-010
 -1.910000000000000E-002    1.114778665629939E-010
 -1.900000000000000E-002    1.013006186158912E-010
 -1.890000000000000E-002    7.382074790080603E-011
 -1.880000000000000E-002    3.112596718639709E-011
 -1.870000000000000E-002   -2.219117441819077E-011
 -1.860000000000000E-002   -7.943041026331756E-011
 -1.850000000000000E-002   -1.325349613654963E-010
 -1.840000000000000E-002   -1.731235669250302E-010
 -1.830000000000000E-002   -1.936814058735165E-010
 -1.820000000000000E-002   -1.887514579964710E-010
 -1.810000000000000E-002   -1.559512806137343E-010
 -1.800000000000000E-002   -9.664778295078750E-011
 -1.790000000000000E-002   -1.615576953044283E-011
 -1.780000000000000E-002    7.661756095018007E-011
 -1.770000000000000E-002    1.700862322529856E-010
 -1.760000000000000E-002    2.513791708556203E-010
 -1.750000000000000E-002    3.080584086567069E-010
 -1.740000000000000E-002    3.299417025605592E-010
 -1.730000000000000E-002    3.107734435599886E-010
 -1.720000000000000E-002    2.494848444276426E-010
 -1.710000000000000E-002    1.508191247242178E-010
 -1.700000000000000E-002    2.517119457725177E-011
 -1.690000000000000E-002   -1.124092290380648E-010
 -1.680000000000000E-002   -2.439813717338219E-010
 -1.670000000000000E-002   -3.510556976426936E-010
 -1.660000000000000E-002   -4.172221300921606E-010
 -1.650000000000000E-002   -4.307026466102973E-010
 -1.640000000000000E-002   -3.864442741941607E-010
 -1.630000000000000E-002   -2.874012391444596E-010
 -1.620000000000000E-002   -1.447444389135670E-010
 -1.610000000000000E-002    2.312842597248483E-011
 -1.600000000000000E-002    1.927405262997013E-010
 -1.590000000000000E-002    3.386233408715926E-010
 -1.580000000000000E-002    4.369647286019319E-010
 -1.570000000000000E-002    4.693223508909764E-010
 -1.560000000000000E-002    4.258513060304367E-010
 -1.550000000000000E-002    3.075201234142514E-010
 -1.540000000000000E-002    1.268942647589168E-010
 -1.530000000000000E-002   -9.275469970765521E-011
 -1.520000000000000E-002   -3.200269322303204E-010
 -1.510000000000000E-002   -5.194174052992714E-010
 -1.500000000000000E-002   -6.563058163258507E-010
 -1.490000000000000E-002   -7.022472238702049E-010
 -1.480000000000000E-002   -6.397965924272322E-010
 -1.470000000000000E-002   -4.661050245182728E-010
 -1.460000000000000E-002   -1.946473283096883E-010
 -1.450000000000000E-002    1.453331677528395E-010
 -1.440000000000000E-002    5.117651599272218E-010
 -1.430000000000000E-002    8.548294902990909E-010
 -1.420000000000000E-002    1.123593211471371E-009
 -1.410000000000000E-002    1.273330278962201E-009
 -1.400000000000000E-002    1.272493188201945E-009
 -1.390000000000000E-002    1.108272735870200E-009
 -1.380000000000000E-002    7.898137917615739E-010
 -1.370000000000000E-002    3.484399667979842E-010
 -1.360000000000000E-002   -1.653624261831321E-010
 -1.350000000000000E-002   -6.879776026623532E-010
 -1.340000000000000E-002   -1.151021755546565E-009
 -1.330000000000000E-002   -1.490942004826001E-009
 -1.320000000000000E-002   -1.658502663853308E-009
 -1.310000000000000E-002   -1.626730716082089E-009
 -1.300000000000000E-002   -1.396025962601616E-009
 -1.290000000000000E-002   -9.954808605749175E-010
 -1.280000000000000E-002   -4.799639713634445E-010
 -1.270000000000000E-002    7.687669999735895E-011
 -1.260000000000000E-002    5.929019160938078E-010
 -1.250000000000000E-002    9.897294431919862E-010
 -1.240000000000000E-002    1.205224453340458E-009
 -1.230000000000000E-002    1.204363868084029E-009
 -1.220000000000000E-002    9.867267769474542E-010
 -1.210000000000000E-002    5.892539764033519E-010
 -1.200000000000000E-002    8.353621700652644E-011
 -1.190000000000000E-002   -4.323432436777951E-010
 -1.180000000000000E-002   -8.465743657790929E-010
 -1.170000000000000E-002   -1.049424918691888E-009
 -1.160000000000000E-002   -9.499665278409281E-010
 -1.150000000000000E-002   -4.913427339475665E-010
 -1.140000000000000E-002    3.377306704052183E-010
 -1.130000000000000E-002    1.497123798263865E-009
 -1.120000000000000E-002    2.896295530134918E-009
 -1.110000000000000E-002    4.402385870672321E-009
 -1.100000000000000E-002    5.854648874882012E-009
 -1.090000000000000E-002    7.083520811727747E-009
 -1.080000000000000E-002    7.931871071470923E-009
 -1.070000000000000E-002    8.275569059968891E-009
 -1.060000000000000E-002    8.040469743146631E-009
 -1.050000000000000E-002    7.213323890619718E-009
 -1.040000000000000E-002    5.844902015381475E-009
 -1.030000000000000E-002    4.044684579744068E-009
 -1.020000000000000E-002    1.967688914240417E-009
 -1.010000000000000E-002   -2.048327981523036E-010
 -1.000000000000000E-002   -2.288095135454934E-009
 -9.899999999999999E-003   -4.116550349602236E-009
 -9.800000000000000E-003   -5.563224510763418E-009
 -9.699999999999999E-003   -6.552459018498394E-009
 -9.599999999999999E-003   -7.063735778398180E-009
 -9.500000000000000E-003   -7.125424197744876E-009
 -9.399999999999999E-003   -6.798754501676099E-009
 -9.299999999999999E-003   -6.153720914864424E-009
 -9.200000000000000E-003   -5.239863761807562E-009
 -9.099999999999999E-003   -4.055805497095507E-009
 -8.999999999999999E-003   -2.521721549935696E-009
 -8.900000000000000E-003   -4.587511649438220E-010
 -8.799999999999999E-003    2.421552508718280E-009
 -8.699999999999999E-003    6.515759353823639E-009
 -8.600000000000000E-003    1.231494423964304E-008
 -8.499999999999999E-003    2.038034047000835E-008
 -8.399999999999999E-003    3.131138507680712E-008
 -8.300000000000000E-003    4.571021348820284E-008
 -8.199999999999999E-003    6.414784085175852E-008
 -8.100000000000000E-003    8.713659773481026E-008
 -8.000000000000000E-003    1.151130350848572E-007
 -7.899999999999999E-003    1.484342086699732E-007
 -7.800000000000000E-003    1.873880792313788E-007
 -7.699999999999999E-003    2.322172433550979E-007
 -7.599999999999999E-003    2.831526760293176E-007
 -7.499999999999999E-003    3.404533089288849E-007
 -7.399999999999999E-003    4.044456435207271E-007
 -7.299999999999999E-003    4.755576753689537E-007
 -7.199999999999999E-003    5.543420458100464E-007
 -7.100000000000000E-003    6.414849314816851E-007
 -6.999999999999999E-003    7.377978431787503E-007
 -6.899999999999999E-003    8.441948020711636E-007
 -6.800000000000000E-003    9.616554639066475E-007
 -6.699999999999999E-003    1.091180881504026E-006
 -6.599999999999999E-003    1.233747515747069E-006
 -6.499999999999999E-003    1.390265893372373E-006
 -6.399999999999999E-003    1.561551224727152E-006
 -6.299999999999999E-003    1.748309757088604E-006
 -6.199999999999999E-003    1.951144527470247E-006
 -6.100000000000000E-003    2.170580592219761E-006
 -5.999999999999999E-003    2.407106328079909E-006
 -5.899999999999999E-003    2.661226725623448E-006
 -5.800000000000000E-003    2.933521622968863E-006
 -5.699999999999999E-003    3.224699165055602E-006
 -5.599999999999999E-003    3.535640648085991E-006
 -5.499999999999999E-003    3.867426190511863E-006
 -5.399999999999999E-003    4.221340980824492E-006
 -5.299999999999999E-003    4.598859731738655E-006
 -5.199999999999999E-003    5.001610321690911E-006
 -5.099999999999999E-003    5.431324807239669E-006
 -4.999999999999999E-003    5.889782867857160E-006
 -4.899999999999999E-003    6.378758277414003E-006
 -4.799999999999999E-003    6.899976807457482E-006
 -4.699999999999999E-003    7.455091795019711E-006
 -4.599999999999999E-003    8.045685007646684E-006
 -4.499999999999999E-003    8.673292556434063E-006
 -4.399999999999999E-003    9.339451894095340E-006
 -4.299999999999999E-003    1.004577003534223E-005
 -4.199999999999999E-003    1.079400015909611E-005
 -4.099999999999999E-003    1.158611296104313E-005
 -3.999999999999999E-003    1.242436485958049E-005
 -3.899999999999999E-003    1.331133669681077E-005
 -3.799999999999999E-003    1.424995396371133E-005
 -3.699999999999999E-003    1.524347016426908E-005
 -3.599999999999999E-003    1.629542797221430E-005
 -3.499999999999999E-003    1.740959580553285E-005
 -3.399999999999999E-003    1.858989387039290E-005
 -3.299999999999999E-003    1.984031336860308E-005
 -3.199999999999999E-003    2.116485654772728E-005
 -3.099999999999999E-003    2.256749368000687E-005
 -2.999999999999999E-003    2.405214494768811E-005
 -2.899999999999999E-003    2.562271201524250E-005
 -2.799999999999999E-003    2.728312767426881E-005
 -2.699999999999999E-003    2.903744578075775E-005
 -2.599999999999999E-003    3.088994513676792E-005
 -2.499999999999999E-003    3.284524314384303E-005
 -2.399999999999999E-003    3.490839520775761E-005
 -2.299999999999999E-003    3.708498797219749E-005
 -2.199999999999999E-003    3.938118405544259E-005
 -2.099999999999999E-003    4.180374013075441E-005
 -1.999999999999999E-003    4.435998067792050E-005
 -1.899999999999999E-003    4.705774101494611E-005
 -1.799999999999999E-003    4.990529186682788E-005
 -1.699999999999999E-003    5.291122182619714E-005
 -1.599999999999999E-003    5.608436037786564E-005
 -1.499999999999999E-003    5.943369484114350E-005
 -1.399999999999999E-003    6.296831938827372E-005
 -1.299999999999999E-003    6.669742903994210E-005
 -1.199999999999999E-003    7.063036501430704E-005
 -1.099999999999999E-003    7.477666868687683E-005
 -9.999999999999989E-004    7.914620542059407E-005
 -8.999999999999990E-004    8.374930332762997E-005
 -7.999999999999990E-004    8.859686866927935E-005
 -6.999999999999989E-004    9.370054799336148E-005
 -5.999999999999990E-004    9.907281637012256E-005
 -4.999999999999989E-004    1.047270472258234E-004
 -3.999999999999989E-004    1.106775298240725E-004
 -2.999999999999989E-004    1.169395058622257E-004
 -1.999999999999989E-004    1.235290627618842E-004
 -9.999999999999892E-005    1.304630971937277E-004
  1.084202172485504E-018    1.377592137253233E-004
  1.000000000000011E-004    1.454356090688618E-004
  2.000000000000011E-004    1.535110509142016E-004
  3.000000000000011E-004    1.620047794062764E-004
  4.000000000000011E-004    1.709365352273063E-004
  5.000000000000011E-004    1.803265724253887E-004
  6.000000000000011E-004    1.901957554167941E-004
  7.000000000000011E-004    2.005656323880143E-004
  8.000000000000011E-004    2.114585758648027E-004
  9.000000000000012E-004    2.228979355654721E-004
  1.000000000000001E-003    2.349081129605533E-004
  1.100000000000001E-003    2.475147118622921E-004
  1.200000000000001E-003    2.607446098139011E-004
  1.300000000000001E-003    2.746259689995649E-004
  1.400000000000001E-003    2.891883199423264E-004
  1.500000000000001E-003    3.044624987939133E-004
  1.600000000000001E-003    3.204805999535582E-004
  1.700000000000001E-003    3.372760269715784E-004
  1.800000000000001E-003    3.548833423362491E-004
  1.900000000000001E-003    3.733384286283979E-004
  2.000000000000001E-003    3.926783491589131E-004
  2.100000000000001E-003    4.129414095293207E-004
  2.200000000000001E-003    4.341672891344060E-004
  2.300000000000001E-003    4.563970884704302E-004
  2.400000000000001E-003    4.796734022864051E-004
  2.500000000000001E-003    5.040404977327404E-004
  2.600000000000001E-003    5.295442961403183E-004
  2.700000000000001E-003    5.562325156293676E-004
  2.800000000000001E-003    5.841546289039914E-004
  2.900000000000001E-003    6.133619439143810E-004
  3.000000000000001E-003    6.439075737748622E-004
  3.100000000000001E-003    6.758463533139498E-004
  3.200000000000001E-003    7.092349038020731E-004
  3.300000000000001E-003    7.441315512161201E-004
  3.400000000000001E-003    7.805963529413073E-004
  3.500000000000001E-003    8.186910840066190E-004
  3.600000000000001E-003    8.584793310130787E-004
  3.700000000000001E-003    9.000265906372480E-004
  3.800000000000001E-003    9.434004769250544E-004
  3.900000000000001E-003    9.886707768381943E-004
  4.000000000000001E-003    1.035909693317189E-003
  4.100000000000001E-003    1.085192123798443E-003
  4.200000000000001E-003    1.136595419392727E-003
  4.300000000000001E-003    1.190199974438639E-003
  4.400000000000001E-003    1.246088861027668E-003
  4.500000000000001E-003    1.304348137065790E-003
  4.600000000000002E-003    1.365066637262312E-003
  4.700000000000001E-003    1.428335939999076E-003
  4.800000000000001E-003    1.494250046466260E-003
  4.900000000000002E-003    1.562905736811093E-003
  5.000000000000001E-003    1.634401910306325E-003
  5.100000000000001E-003    1.708839910772011E-003
  5.200000000000001E-003    1.786323316503127E-003
  5.300000000000002E-003    1.866958329781863E-003
  5.400000000000001E-003    1.950853324336959E-003
  5.500000000000001E-003    2.038119376137159E-003
  5.600000000000002E-003    2.128870269221140E-003
  5.700000000000001E-003    2.223223123087941E-003
  5.800000000000001E-003    2.321297802293070E-003
  5.900000000000002E-003    2.423217586317314E-003
  6.000000000000001E-003    2.529109342307847E-003
  6.100000000000001E-003    2.639103706542519E-003
  6.200000000000002E-003    2.753334774148749E-003
  6.300000000000002E-003    2.871940064611349E-003
  6.400000000000001E-003    2.995060505401877E-003
  6.500000000000001E-003    3.122840726336908E-003
  6.600000000000002E-003    3.255428233216363E-003
  6.700000000000001E-003    3.392973860040270E-003
  6.800000000000001E-003    3.535631209163966E-003
  6.900000000000002E-003    3.683556933393128E-003
  7.000000000000001E-003    3.836910297897923E-003
  7.100000000000001E-003    3.995853740741819E-003
  7.200000000000002E-003    4.160552184842127E-003
  7.300000000000002E-003    4.331173864226643E-003
  7.400000000000001E-003    4.507889643351351E-003
  7.500000000000001E-003    4.690874462632044E-003
  7.600000000000002E-003    4.880305078714245E-003
  7.700000000000001E-003    5.076362841710067E-003
  7.800000000000001E-003    5.279231264010540E-003
  7.900000000000001E-003    5.489098500228347E-003
  8.000000000000002E-003    5.706154303738282E-003
  8.100000000000001E-003    5.930592395364717E-003
  8.200000000000001E-003    6.162609960825429E-003
  8.300000000000002E-003    6.402405613455925E-003
  8.400000000000001E-003    6.650181342255646E-003
  8.500000000000002E-003    6.906142194459904E-003
  8.600000000000002E-003    7.170494878343931E-003
  8.700000000000001E-003    7.443448358874899E-003
  8.800000000000002E-003    7.725214453995616E-003
  8.900000000000002E-003    8.016006042811403E-003
  9.000000000000001E-003    8.316038903207696E-003
  9.100000000000002E-003    8.625530042571739E-003
  9.200000000000002E-003    8.944698832956758E-003
  9.300000000000001E-003    9.273766345654423E-003
  9.400000000000002E-003    9.612955817822710E-003
  9.500000000000001E-003    9.962490521733971E-003
  9.600000000000001E-003    1.032259628873967E-002
  9.700000000000002E-003    1.069349986909166E-002
  9.800000000000001E-003    1.107542862986154E-002
  9.900000000000001E-003    1.146861074192667E-002
  1.000000000000000E-002    1.187327515716667E-002
  1.010000000000000E-002    1.228965006227883E-002
  1.020000000000000E-002    1.271796400969703E-002
  1.030000000000000E-002    1.315844520030469E-002
  1.040000000000000E-002    1.361132138721898E-002
  1.050000000000000E-002    1.407681875253555E-002
  1.060000000000000E-002    1.455516355469773E-002
  1.070000000000000E-002    1.504657952312158E-002
  1.080000000000000E-002    1.555128987237854E-002
  1.090000000000000E-002    1.606951585921506E-002
  1.100000000000000E-002    1.660147484442251E-002
  1.110000000000000E-002    1.714738331916185E-002
  1.120000000000000E-002    1.770745436407261E-002
  1.130000000000000E-002    1.828189911640656E-002
  1.140000000000000E-002    1.887092422061015E-002
  1.150000000000000E-002    1.947473471712656E-002
  1.160000000000000E-002    2.009352908817130E-002
  1.170000000000000E-002    2.072750099985322E-002
  1.180000000000000E-002    2.137684097115877E-002
  1.190000000000000E-002    2.204173389736382E-002
  1.200000000000000E-002    2.272235860418350E-002
  1.210000000000000E-002    2.341888692968238E-002
  1.220000000000000E-002    2.413148399069949E-002
  1.230000000000000E-002    2.486030949974444E-002
  1.240000000000000E-002    2.560551345357537E-002
  1.250000000000000E-002    2.636723794777336E-002
  1.260000000000000E-002    2.714561696169927E-002
  1.270000000000000E-002    2.794077402904678E-002
  1.280000000000000E-002    2.875282280645483E-002
  1.290000000000000E-002    2.958186893533244E-002
  1.300000000000000E-002    3.042800280466342E-002
  1.310000000000000E-002    3.129130752005929E-002
  1.320000000000000E-002    3.217185164895613E-002
  1.330000000000000E-002    3.306969424940123E-002
  1.340000000000000E-002    3.398488088134674E-002
  1.350000000000000E-002    3.491744354040434E-002
  1.360000000000000E-002    3.586739892332018E-002
  1.370000000000000E-002    3.683475696315835E-002
  1.380000000000000E-002    3.781950912796475E-002
  1.390000000000000E-002    3.882163025254354E-002
  1.400000000000000E-002    3.984108159225935E-002
  1.410000000000000E-002    4.087780730544480E-002
  1.420000000000000E-002    4.193173683393292E-002
  1.430000000000000E-002    4.300278031307503E-002
  1.440000000000000E-002    4.409082855273255E-002
  1.450000000000000E-002    4.519575713819513E-002
  1.460000000000000E-002    4.631741804532142E-002
  1.470000000000000E-002    4.745564535011671E-002
  1.480000000000000E-002    4.861025050802751E-002
  1.490000000000000E-002    4.978102324248954E-002
  1.500000000000000E-002    5.096773507825501E-002
  1.510000000000000E-002    5.217012763291153E-002
  1.520000000000000E-002    5.338792930567406E-002
  1.530000000000000E-002    5.462083797904133E-002
  1.540000000000000E-002    5.586853022900978E-002
  1.550000000000000E-002    5.713065781832372E-002
  1.560000000000000E-002    5.840684927051880E-002
  1.570000000000000E-002    5.969670813332394E-002
  1.580000000000000E-002    6.099981332327242E-002
  1.590000000000000E-002    6.231571886627477E-002
  1.600000000000000E-002    6.364395239513483E-002
  1.610000000000000E-002    6.498401474221784E-002
  1.620000000000000E-002    6.633537398210812E-002
  1.630000000000000E-002    6.769747995715905E-002
  1.640000000000000E-002    6.906975189773909E-002
  1.650000000000000E-002    7.045157224188744E-002
  1.660000000000000E-002    7.184230968350672E-002
  1.670000000000000E-002    7.324129123821635E-002
  1.680000000000000E-002    7.464782006694291E-002
  1.690000000000000E-002    7.606116115113021E-002
  1.700000000000000E-002    7.748056043020904E-002
  1.710000000000000E-002    7.890523179508900E-002
  1.720000000000000E-002    8.033435493324267E-002
  1.730000000000000E-002    8.176708243684568E-002
  1.740000000000000E-002    8.320253799268343E-002
  1.750000000000000E-002    8.463980842212629E-002
  1.760000000000000E-002    8.607795219227092E-002
  1.770000000000000E-002    8.751599486863587E-002
  1.780000000000000E-002    8.895292967622159E-002
  1.790000000000000E-002    9.038773258339136E-002
  1.800000000000000E-002    9.181933293260947E-002
  1.810000000000000E-002    9.324663251410314E-002
  1.820000000000000E-002    9.466851042887332E-002
  1.830000000000000E-002    9.608381680395678E-002
  1.840000000000000E-002    9.749136038807414E-002
  1.850000000000000E-002    9.888992947454550E-002
  1.860000000000000E-002    0.100278288041283     
  1.870000000000000E-002    0.101655159413536     