 -4.000000000000000E-002    0.000000000000000E+000
 -3.990000000000000E-002    0.000000000000000E+000
 -3.980000000000000E-002    0.000000000000000E+000
 -3.970000000000000E-002    0.000000000000000E+000
 -3.960000000000000E-002    0.000000000000000E+000
 -3.950000000000000E-002    0.000000000000000E+000
 -3.940000000000000E-002    0.000000000000000E+000
 -3.930000000000000E-002    0.000000000000000E+000
 -3.920000000000000E-002    0.000000000000000E+000
 -3.910000000000000E-002    0.000000000000000E+000
 -3.900000000000000E-002    0.000000000000000E+000
 -3.890000000000000E-002    7.721244431844061E-035
 -3.880000000000000E-002    2.139500843838409E-033
 -3.870000000000000E-002    2.898628335528278E-032
 -3.860000000000000E-002    2.598478856036972E-031
 -3.850000000000000E-002    1.746986694112363E-030
 -3.840000000000000E-002    9.431096411596774E-030
 -3.830000000000000E-002    4.265448773898907E-029
 -3.820000000000000E-002    1.662715167000199E-028
 -3.810000000000000E-002    5.697611787856690E-028
 -3.800000000000000E-002    1.740261856237016E-027
 -3.790000000000000E-002    4.782849139112185E-027
 -3.780000000000000E-002    1.189483141640270E-026
 -3.770000000000000E-002    2.681495297262429E-026
 -3.760000000000000E-002    5.461448071554683E-026
 -3.750000000000000E-002    9.934470617441074E-026
 -3.740000000000000E-002    1.567928396302606E-025
 -3.730000000000000E-002    1.982624455881529E-025
 -3.720000000000000E-002    1.408909543835822E-025
 -3.710000000000000E-002   -1.974743429396792E-025
 -3.700000000000000E-002   -1.152409266271486E-024
 -3.690000000000000E-002   -3.251926049565782E-024
 -3.680000000000000E-002   -7.187220645581471E-024
 -3.670000000000000E-002   -1.362410347646410E-023
 -3.660000000000000E-002   -2.272850103878913E-023
 -3.650000000000000E-002   -3.327048655452485E-023
 -3.640000000000000E-002   -4.122823887233533E-023
 -3.630000000000000E-002   -3.798587786409677E-023
 -3.620000000000000E-002   -8.553130737831868E-024
 -3.610000000000000E-002    6.925604979521903E-023
 -3.600000000000000E-002    2.231224797482107E-022
 -3.590000000000000E-002    4.798663158400207E-022
 -3.580000000000000E-002    8.521176313309991E-022
 -3.570000000000000E-002    1.316353092021245E-021
 -3.560000000000000E-002    1.782677641114431E-021
 -3.550000000000000E-002    2.060579544772529E-021
 -3.540000000000000E-002    1.830597824852180E-021
 -3.530000000000000E-002    6.387606726188889E-022
 -3.520000000000000E-002   -2.062924523408355E-021
 -3.510000000000000E-002   -6.803617964297224E-021
 -3.500000000000000E-002   -1.388640750520429E-020
 -3.490000000000000E-002   -2.308052010772770E-020
 -3.480000000000000E-002   -3.323749988450869E-020
 -3.470000000000000E-002   -4.190168983987212E-020
 -3.460000000000000E-002   -4.504146445100164E-020
 -3.450000000000000E-002   -3.708232193860244E-020
 -3.440000000000000E-002   -1.145658122813586E-020
 -3.430000000000000E-002    3.812867707843594E-020
 -3.420000000000000E-002    1.155908803664395E-019
 -3.410000000000000E-002    2.196060195540015E-019
 -3.400000000000000E-002    3.403258902015543E-019
 -3.390000000000000E-002    4.563813301176811E-019
 -3.380000000000000E-002    5.332383841555641E-019
 -3.370000000000000E-002    5.242438031890150E-019
 -3.360000000000000E-002    3.757321618827350E-019
 -3.350000000000000E-002    3.722372586237894E-020
 -3.340000000000000E-002   -5.231005390955292E-019
 -3.330000000000000E-002   -1.298835371679927E-018
 -3.320000000000000E-002   -2.224701213075237E-018
 -3.310000000000000E-002   -3.159781204039476E-018
 -3.300000000000000E-002   -3.881278081020220E-018
 -3.290000000000000E-002   -4.096151107138369E-018
 -3.280000000000000E-002   -3.477100317474013E-018
 -3.270000000000000E-002   -1.726269049424933E-018
 -3.260000000000000E-002    1.335510043301900E-018
 -3.250000000000000E-002    5.663845179881909E-018
 -3.240000000000000E-002    1.088912769791017E-017
 -3.230000000000000E-002    1.624525389483570E-017
 -3.220000000000000E-002    2.056116135530839E-017
 -3.210000000000000E-002    2.234704981344187E-017
 -3.200000000000000E-002    1.999827512570401E-017
 -3.190000000000000E-002    1.212117634066188E-017
 -3.180000000000000E-002   -2.042992106679551E-018
 -3.170000000000000E-002   -2.215441607443697E-017
 -3.160000000000000E-002   -4.636483979059794E-017
 -3.150000000000000E-002   -7.108222016214809E-017
 -3.140000000000000E-002   -9.104001720446024E-017
 -3.130000000000000E-002   -9.978315753822323E-017
 -3.120000000000000E-002   -9.063038817443834E-017
 -3.110000000000000E-002   -5.808505058499682E-017
 -3.100000000000000E-002    4.495466221362527E-019
 -3.090000000000000E-002    8.292139847462448E-017
 -3.080000000000000E-002    1.812325734311073E-016
 -3.070000000000000E-002    2.806457126655800E-016
 -3.060000000000000E-002    3.604350476399459E-016
 -3.050000000000000E-002    3.961059697584501E-016
 -3.040000000000000E-002    3.632735722461700E-016
 -3.030000000000000E-002    2.429521442137481E-016
 -3.020000000000000E-002    2.760428756061009E-017
 -3.010000000000000E-002   -2.731015850158698E-016
 -3.000000000000000E-002   -6.281803650838171E-016
 -2.990000000000000E-002   -9.843299481863896E-016
 -2.980000000000000E-002   -1.269326956903726E-015
 -2.970000000000000E-002   -1.400585313974933E-015
 -2.960000000000000E-002   -1.298785909550559E-015
 -2.950000000000000E-002   -9.053681065763000E-016
 -2.940000000000000E-002   -2.014568990562398E-016
 -2.930000000000000E-002    7.752821701645980E-016
 -2.920000000000000E-002    1.920040902556350E-015
 -2.910000000000000E-002    3.060689101411582E-015
 -2.900000000000000E-002    3.971294461551707E-015
 -2.890000000000000E-002    4.400763426162609E-015
 -2.880000000000000E-002    4.115320632565040E-015
 -2.870000000000000E-002    2.950309630858415E-015
 -2.860000000000000E-002    8.635647346075083E-016
 -2.850000000000000E-002   -2.019955914813371E-015
 -2.840000000000000E-002   -5.383755530825120E-015
 -2.830000000000000E-002   -8.726218046816579E-015
 -2.820000000000000E-002   -1.140522824878142E-014
 -2.810000000000000E-002   -1.272271792440170E-014
 -2.800000000000000E-002   -1.204337827180115E-014
 -2.790000000000000E-002   -8.933448247644905E-015
 -2.780000000000000E-002   -3.297823411872633E-015
 -2.770000000000000E-002    4.511598987203981E-015
 -2.760000000000000E-002    1.364471692574647E-014
 -2.750000000000000E-002    2.278356707739065E-014
 -2.740000000000000E-002    3.026887250723154E-014
 -2.730000000000000E-002    3.432242812886430E-014
 -2.720000000000000E-002    3.334641980591966E-014
 -2.710000000000000E-002    2.626151065397713E-014
 -2.700000000000000E-002    1.282909222474999E-014
 -2.690000000000000E-002   -6.106529930455119E-015
 -2.680000000000000E-002   -2.851980500672513E-014
 -2.670000000000000E-002   -5.130044672388611E-014
 -2.660000000000000E-002   -7.057047181445955E-014
 -2.650000000000000E-002   -8.221169316403470E-014
 -2.640000000000000E-002   -8.255206247874947E-014
 -2.630000000000000E-002   -6.911860324983978E-014
 -2.620000000000000E-002   -4.133290350432331E-014
 -2.610000000000000E-002   -1.009857667770798E-015
 -2.600000000000000E-002    4.747186590101497E-014
 -2.590000000000000E-002    9.742551806633152E-014
 -2.580000000000000E-002    1.405774307825863E-013
 -2.570000000000000E-002    1.682157016802854E-013
 -2.560000000000000E-002    1.726432020864508E-013
 -2.550000000000000E-002    1.487327075461284E-013
 -2.540000000000000E-002    9.532503641483428E-014
 -2.530000000000000E-002    1.619062011973263E-014
 -2.520000000000000E-002   -7.969860093320244E-014
 -2.510000000000000E-002   -1.787632207153989E-013
 -2.500000000000000E-002   -2.643303556182740E-013
 -2.490000000000000E-002   -3.189680148691055E-013
 -2.480000000000000E-002   -3.273779191235611E-013
 -2.470000000000000E-002   -2.794410287627730E-013
 -2.460000000000000E-002   -1.729129961465189E-013
 -2.450000000000000E-002   -1.524234752433109E-014
 -2.440000000000000E-002    1.759525776253981E-013
 -2.430000000000000E-002    3.740579330293903E-013
 -2.420000000000000E-002    5.463678622529079E-013
 -2.410000000000000E-002    6.585128556477766E-013
 -2.400000000000000E-002    6.799185241299602E-013
 -2.390000000000000E-002    5.895483723062907E-013
 -2.380000000000000E-002    3.810216126720954E-013
 -2.370000000000000E-002    6.616195710349683E-014
 -2.360000000000000E-002   -3.238499081400879E-013
 -2.350000000000000E-002   -7.402769199667330E-013
 -2.340000000000000E-002   -1.121736388020630E-012
 -2.330000000000000E-002   -1.401897724528973E-012
 -2.320000000000000E-002   -1.519149210270187E-012
 -2.310000000000000E-002   -1.426989081223837E-012
 -2.300000000000000E-002   -1.103607071313469E-012
 -2.290000000000000E-002   -5.590425566476520E-013
 -2.280000000000000E-002    1.615343224244885E-013
 -2.270000000000000E-002    9.794644396836779E-013
 -2.260000000000000E-002    1.789588487594965E-012
 -2.250000000000000E-002    2.472246887696895E-012
 -2.240000000000000E-002    2.909146675426194E-012
 -2.230000000000000E-002    3.001222670657483E-012
 -2.220000000000000E-002    2.686078657623974E-012
 -2.210000000000000E-002    1.952348599643824E-012
 -2.200000000000000E-002    8.484338652652028E-013
 -2.190000000000000E-002   -5.164260469386685E-013
 -2.180000000000000E-002   -1.979929786239533E-012
 -2.170000000000000E-002   -3.343378555329651E-012
 -2.160000000000000E-002   -4.395983811033043E-012
 -2.150000000000000E-002   -4.944295162233466E-012
 -2.140000000000000E-002   -4.843153268821437E-012
 -2.130000000000000E-002   -4.023854451140197E-012
 -2.120000000000000E-002   -2.515023520576139E-012
 -2.110000000000000E-002   -4.521070415989707E-013
 -2.100000000000000E-002    1.927543779419942E-012
 -2.090000000000000E-002    4.305390289355382E-012
 -2.080000000000000E-002    6.317533659479539E-012
 -2.070000000000000E-002    7.602651874227977E-012
 -2.060000000000000E-002    7.856827121681512E-012
 -2.050000000000000E-002    6.888198067001760E-012
 -2.040000000000000E-002    4.663279736963741E-012
 -2.030000000000000E-002    1.336691152473799E-012
 -2.020000000000000E-002   -2.742845363954103E-012
 -2.010000000000000E-002   -7.055013163470394E-012
 -2.000000000000000E-002   -1.096019267484562E-011
 -1.990000000000000E-002   -1.377851803470989E-011
 -1.980000000000000E-002   -1.488806212593415E-011
 -1.970000000000000E-002   -1.383025783827725E-011
 -1.960000000000000E-002   -1.040749533771172E-011
 -1.950000000000000E-002   -4.756417947876713E-012
 -1.940000000000000E-002    2.618626478941401E-012
 -1.930000000000000E-002    1.086395164045690E-011
 -1.920000000000000E-002    1.885260306885450E-011
 -1.910000000000000E-002    2.531584424989174E-011
 -1.900000000000000E-002    2.901857576655306E-011
 -1.890000000000000E-002    2.895814725033537E-011
 -1.880000000000000E-002    2.455875662241784E-011
 -1.870000000000000E-002    1.582961277957490E-011
 -1.860000000000000E-002    3.455495130723997E-012
 -1.850000000000000E-002   -1.120592188647750E-011
 -1.840000000000000E-002   -2.623469182089661E-011
 -1.830000000000000E-002   -3.936668629968502E-011
 -1.820000000000000E-002   -4.830097180781581E-011
 -1.810000000000000E-002   -5.106070490474544E-011
 -1.800000000000000E-002   -4.635718933003601E-011
 -1.790000000000000E-002   -3.389827666026030E-011
 -1.780000000000000E-002   -1.458208447976455E-011
 -1.770000000000000E-002    9.473111657443085E-012
 -1.760000000000000E-002    3.509252035660339E-011
 -1.750000000000000E-002    5.840415450378910E-011
 -1.740000000000000E-002    7.536385011582498E-011
 -1.730000000000000E-002    8.238408297063368E-011
 -1.720000000000000E-002    7.697826833362503E-011
 -1.710000000000000E-002    5.831680676150041E-011
 -1.700000000000000E-002    2.759089896318328E-011
 -1.690000000000000E-002   -1.190272013104991E-011
 -1.680000000000000E-002   -5.500880743303348E-011
 -1.670000000000000E-002   -9.529717479664536E-011
 -1.660000000000000E-002   -1.259323643478286E-010
 -1.650000000000000E-002   -1.407245837159590E-010
 -1.640000000000000E-002   -1.352129888817221E-010
 -1.630000000000000E-002   -1.076073124390270E-010
 -1.620000000000000E-002   -5.941493443369712E-011
 -1.610000000000000E-002    4.389694723296100E-012
 -1.600000000000000E-002    7.573830404265126E-011
 -1.590000000000000E-002    1.443904638497729E-010
 -1.580000000000000E-002    1.993191543786000E-010
 -1.570000000000000E-002    2.303885579581185E-010
 -1.560000000000000E-002    2.300834358528227E-010
 -1.550000000000000E-002    1.950125411255267E-010
 -1.540000000000000E-002    1.269135971924878E-010
 -1.530000000000000E-002    3.293854740512422E-011
 -1.520000000000000E-002   -7.490817717710076E-011
 -1.510000000000000E-002   -1.811798559406019E-010
 -1.500000000000000E-002   -2.691076847229402E-010
 -1.490000000000000E-002   -3.231599648737730E-010
 -1.480000000000000E-002   -3.316680683184810E-010
 -1.470000000000000E-002   -2.890964223784563E-010
 -1.460000000000000E-002   -1.975482643750444E-010
 -1.450000000000000E-002   -6.718289962332235E-011
 -1.440000000000000E-002    8.463348011314818E-011
 -1.430000000000000E-002    2.354309610366934E-010
 -1.420000000000000E-002    3.607729992183104E-010
 -1.410000000000000E-002    4.380158885146486E-010
 -1.400000000000000E-002    4.501376503593886E-010
 -1.390000000000000E-002    3.890185948308692E-010
 -1.380000000000000E-002    2.575880606878051E-010
 -1.370000000000000E-002    7.038292610402568E-011
 -1.360000000000000E-002   -1.477185941026172E-010
 -1.350000000000000E-002   -3.645477482418877E-010
 -1.340000000000000E-002   -5.451456078251217E-010
 -1.330000000000000E-002   -6.571132156553392E-010
 -1.320000000000000E-002   -6.760202625311959E-010
 -1.310000000000000E-002   -5.900051438713405E-010
 -1.300000000000000E-002   -4.027563490096833E-010
 -1.290000000000000E-002   -1.342603712578190E-010
 -1.280000000000000E-002    1.809880120537429E-010
 -1.270000000000000E-002    4.982324289580003E-010
 -1.260000000000000E-002    7.686751533836813E-010
 -1.250000000000000E-002    9.468327358617593E-010
 -1.240000000000000E-002    9.979415225883120E-010
 -1.230000000000000E-002    9.042377996560237E-010
 -1.220000000000000E-002    6.690300527282457E-010
 -1.210000000000000E-002    3.177539281340373E-010
 -1.200000000000000E-002   -1.043763112833398E-010
 -1.190000000000000E-002   -5.379910007404133E-010
 -1.180000000000000E-002   -9.178050905716943E-010
 -1.170000000000000E-002   -1.182356243878538E-009
 -1.160000000000000E-002   -1.283810105828312E-009
 -1.150000000000000E-002   -1.196296302699640E-009
 -1.140000000000000E-002   -9.213702613572143E-010
 -1.130000000000000E-002   -4.895603772484531E-010
 -1.120000000000000E-002    4.249119132261972E-011
 -1.110000000000000E-002    5.991226960958883E-010
 -1.100000000000000E-002    1.096137238432688E-009
 -1.090000000000000E-002    1.453251196455753E-009
 -1.080000000000000E-002    1.606691495104198E-009
 -1.070000000000000E-002    1.519994544636980E-009
 -1.060000000000000E-002    1.191234601109167E-009
 -1.050000000000000E-002    6.553598109160856E-010
 -1.040000000000000E-002   -1.899792340465685E-011
 -1.030000000000000E-002   -7.380526003842639E-010
 -1.020000000000000E-002   -1.395712914415722E-009
 -1.010000000000000E-002   -1.889010673036187E-009
 -1.000000000000000E-002   -2.133883334662661E-009
 -9.899999999999999E-003   -2.078917978719959E-009
 -9.800000000000000E-003   -1.714855532225463E-009
 -9.699999999999999E-003   -1.078197591044680E-009
 -9.599999999999999E-003   -2.480721573222736E-010
 -9.500000000000000E-003    6.634948183967992E-010
 -9.399999999999999E-003    1.526747839611615E-009
 -9.299999999999999E-003    2.212776636071840E-009
 -9.200000000000000E-003    2.612854409954645E-009
 -9.099999999999999E-003    2.655658890049093E-009
 -8.999999999999999E-003    2.319688642079972E-009
 -8.900000000000000E-003    1.638784300618945E-009
 -8.799999999999999E-003    6.996138887172147E-010
 -8.699999999999999E-003   -3.688675862021169E-010
 -8.600000000000000E-003   -1.412768565419999E-009
 -8.499999999999999E-003   -2.275134939772216E-009
 -8.399999999999999E-003   -2.819284387258945E-009
 -8.300000000000000E-003   -2.950188046556782E-009
 -8.199999999999999E-003   -2.630624593869627E-009
 -8.100000000000000E-003   -1.889469309116016E-009
 -8.000000000000000E-003   -8.205261802921831E-010
 -7.899999999999999E-003    4.283524375980984E-010
 -7.800000000000000E-003    1.674694203036006E-009
 -7.699999999999999E-003    2.726901321864486E-009
 -7.599999999999999E-003    3.412328191892915E-009
 -7.499999999999999E-003    3.603919486178964E-009
 -7.399999999999999E-003    3.241418506610277E-009
 -7.299999999999999E-003    2.343774896226302E-009
 -7.199999999999999E-003    1.010512033326523E-009
 -7.100000000000000E-003   -5.886654234779775E-010
 -6.999999999999999E-003   -2.235059441364728E-009
 -6.899999999999999E-003   -3.690375055502852E-009
 -6.800000000000000E-003   -4.730419587998618E-009
 -6.699999999999999E-003   -5.178393017378302E-009
 -6.599999999999999E-003   -4.932894455707029E-009
 -6.499999999999999E-003   -3.986317501769290E-009
 -6.399999999999999E-003   -2.430501949630961E-009
 -6.299999999999999E-003   -4.482237313448542E-010
 -6.199999999999999E-003    1.708900427861146E-009
 -6.100000000000000E-003    3.753502521812137E-009
 -5.999999999999999E-003    5.402235944187658E-009
 -5.899999999999999E-003    6.416736973553334E-009
 -5.800000000000000E-003    6.639842139080237E-009
 -5.699999999999999E-003    6.021553691038088E-009
 -5.599999999999999E-003    4.630473431755263E-009
 -5.499999999999999E-003    2.648362348378684E-009
 -5.399999999999999E-003    3.478475707572614E-010
 -5.299999999999999E-003   -1.944214422095287E-009
 -5.199999999999999E-003   -3.892974128515964E-009
 -5.099999999999999E-003   -5.205033522176233E-009
 -4.999999999999999E-003   -5.673911669001107E-009
 -4.899999999999999E-003   -5.214584453624862E-009
 -4.799999999999999E-003   -3.881418976002492E-009
 -4.699999999999999E-003   -1.866000423625992E-009
 -4.599999999999999E-003    5.258447321571487E-010
 -4.499999999999999E-003    2.915488037148518E-009
 -4.399999999999999E-003    4.906208763086134E-009
 -4.299999999999999E-003    6.143777376440589E-009
 -4.199999999999999E-003    6.374299579502907E-009
 -4.099999999999999E-003    5.490721923853503E-009
 -3.999999999999999E-003    3.560699856473435E-009
 -3.899999999999999E-003    8.309707504936247E-010
 -3.799999999999999E-003   -2.293331730569975E-009
 -3.699999999999999E-003   -5.292320765990565E-009
 -3.599999999999999E-003   -7.592338540100877E-009
 -3.499999999999999E-003   -8.635834893901049E-009
 -3.399999999999999E-003   -7.950022997778460E-009
 -3.299999999999999E-003   -5.203966643639366E-009
 -3.199999999999999E-003   -2.450877878219357E-010
 -3.099999999999999E-003    6.891167128991697E-009
 -2.999999999999999E-003    1.600098514584282E-008
 -2.899999999999999E-003    2.675927739174840E-008
 -2.799999999999999E-003    3.878812970047528E-008
 -2.699999999999999E-003    5.173706139578140E-008
 -2.599999999999999E-003    6.536338910098256E-008
 -2.499999999999999E-003    7.960056284203712E-008
 -2.399999999999999E-003    9.460366587616263E-008
 -2.299999999999999E-003    1.107644212857185E-007
 -2.199999999999999E-003    1.286922340197849E-007
 -2.099999999999999E-003    1.491630150065183E-007
 -1.999999999999999E-003    1.730423105155934E-007
 -1.899999999999999E-003    2.011933895870645E-007
 -1.799999999999999E-003    2.343835081198432E-007
 -1.699999999999999E-003    2.732025920205853E-007
 -1.599999999999999E-003    3.180066106150169E-007
 -1.499999999999999E-003    3.688951218684298E-007
 -1.399999999999999E-003    4.257271930614894E-007
 -1.299999999999999E-003    4.881746666467938E-007
 -1.199999999999999E-003    5.558057596287809E-007
 -1.099999999999999E-003    6.281874022662652E-007
 -9.999999999999989E-004    7.049918157210235E-007
 -8.999999999999990E-004    7.860914633531941E-007
 -7.999999999999990E-004    8.716283169354407E-007
 -6.999999999999989E-004    9.620464848021583E-007
 -5.999999999999990E-004    1.058083132199761E-006
 -4.999999999999989E-004    1.160717582243059E-006
 -3.999999999999989E-004    1.271086715912084E-006
 -2.999999999999989E-004    1.390376996250937E-006
 -1.999999999999989E-004    1.519711369445280E-006
 -9.999999999999892E-005    1.660044811795349E-006
  1.084202172485504E-018    1.812087344676395E-006
  1.000000000000011E-004    1.976265249385013E-006
  2.000000000000011E-004    2.152726639902224E-006
  3.000000000000011E-004    2.341391973685268E-006
  4.000000000000011E-004    2.542044230161129E-006
  5.000000000000011E-004    2.754444298131027E-006
  6.000000000000011E-004    2.978456355567369E-006
  7.000000000000011E-004    3.214166057964655E-006
  8.000000000000011E-004    3.461971733440393E-006
  9.000000000000012E-004    3.722639297190434E-006
  1.000000000000001E-003    3.997309007140539E-006
  1.100000000000001E-003    4.287454052433006E-006
  1.200000000000001E-003    4.594799542279444E-006
  1.300000000000001E-003    4.921208078667238E-006
  1.400000000000001E-003    5.268554942175952E-006
  1.500000000000001E-003    5.638604697328911E-006
  1.600000000000001E-003    6.032916249919405E-006
  1.700000000000001E-003    6.452778794412218E-006
  1.800000000000001E-003    6.899201611394125E-006
  1.900000000000001E-003    7.372950293924195E-006
  2.000000000000001E-003    7.874628301656714E-006
  2.100000000000001E-003    8.404796649071231E-006
  2.200000000000001E-003    8.964104982217643E-006
  2.300000000000001E-003    9.553429023677605E-006
  2.400000000000001E-003    1.017398516728817E-005
  2.500000000000001E-003    1.082740663267823E-005
  2.600000000000001E-003    1.151577946639007E-005
  2.700000000000001E-003    1.224161956448714E-005
  2.800000000000001E-003    1.300780945567753E-005
  2.900000000000001E-003    1.381748770193812E-005
  3.000000000000001E-003    1.467392573677653E-005
  3.100000000000001E-003    1.558038989669272E-005
  3.200000000000001E-003    1.654003196389982E-005
  3.300000000000001E-003    1.755579801131632E-005
  3.400000000000001E-003    1.863040145827769E-005
  3.500000000000001E-003    1.976633363711947E-005
  3.600000000000001E-003    2.096593251310203E-005
  3.700000000000001E-003    2.223149791940463E-005
  3.800000000000001E-003    2.356543218400098E-005
  3.900000000000001E-003    2.497038827084905E-005
  4.000000000000001E-003    2.644941083043721E-005
  4.100000000000001E-003    2.800604388998741E-005
  4.200000000000001E-003    2.964439706925401E-005
  4.300000000000001E-003    3.136914941429417E-005
  4.400000000000001E-003    3.318551686673224E-005
  4.500000000000001E-003    3.509914515922555E-005
  4.600000000000002E-003    3.711599215342924E-005
  4.700000000000001E-003    3.924217742942697E-005
  4.800000000000001E-003    4.148384719576440E-005
  4.900000000000002E-003    4.384706334734008E-005
  5.000000000000001E-003    4.633774435975332E-005
  5.100000000000001E-003    4.896164960798804E-005
  5.200000000000001E-003    5.172441920206218E-005
  5.300000000000002E-003    5.463169572167423E-005
  5.400000000000001E-003    5.768926227089150E-005
  5.500000000000001E-003    6.090320730610059E-005
  5.600000000000002E-003    6.428009669499591E-005
  5.700000000000001E-003    6.782712043598737E-005
  5.800000000000001E-003    7.155219554230683E-005
  5.900000000000002E-003    7.546400798930534E-005
  6.000000000000001E-003    7.957202089956360E-005
  6.100000000000001E-003    8.388638195697846E-005
  6.200000000000002E-003    8.841782608278507E-005
  6.300000000000002E-003    9.317751379511512E-005
  6.400000000000001E-003    9.817689349056143E-005
  6.500000000000001E-003    1.034275576902208E-004
  6.600000000000002E-003    1.089411637020945E-004
  6.700000000000001E-003    1.147293812949376E-004
  6.800000000000001E-003    1.208039056465485E-004
  6.900000000000002E-003    1.271765807142069E-004
  7.000000000000001E-003    1.338595155481246E-004
  7.100000000000001E-003    1.408652302311752E-004
  7.200000000000002E-003    1.482068508363121E-004
  7.300000000000002E-003    1.558983021210160E-004
  7.400000000000001E-003    1.639544042212633E-004
  7.500000000000001E-003    1.723909553123167E-004
  7.600000000000002E-003    1.812247652065939E-004
  7.700000000000001E-003    1.904735767669557E-004
  7.800000000000001E-003    2.001560395258316E-004
  7.900000000000001E-003    2.102914878977100E-004
  8.000000000000002E-003    2.208999093071204E-004
  8.100000000000001E-003    2.320017017874547E-004
  8.200000000000001E-003    2.436176592473740E-004
  8.300000000000002E-003    2.557689074200699E-004
  8.400000000000001E-003    2.684768983650100E-004
  8.500000000000002E-003    2.817634696284925E-004
  8.600000000000002E-003    2.956510454806281E-004
  8.700000000000001E-003    3.101626896969479E-004
  8.800000000000002E-003    3.253223199811273E-004
  8.900000000000002E-003    3.411548890185054E-004
  9.000000000000001E-003    3.576864506614830E-004
  9.100000000000002E-003    3.749443435488553E-004
  9.200000000000002E-003    3.929571018535471E-004
  9.300000000000001E-003    4.117544861894116E-004
  9.400000000000002E-003    4.313674416695742E-004
  9.500000000000001E-003    4.518278859010421E-004
  9.600000000000001E-003    4.731686990607433E-004
  9.700000000000002E-003    4.954235567176804E-004
  9.800000000000001E-003    5.186268246159634E-004
  9.900000000000001E-003    5.428136347221903E-004
  1.000000000000000E-002    5.680197584200799E-004
  1.010000000000000E-002    5.942817496183950E-004
  1.020000000000000E-002    6.216370866811933E-004
  1.030000000000000E-002    6.501242333825034E-004
  1.040000000000000E-002    6.797827556871798E-004
  1.050000000000000E-002    7.106535979783959E-004
  1.060000000000000E-002    7.427791060105967E-004
  1.070000000000000E-002    7.762030488521380E-004
  1.080000000000000E-002    8.109707325195359E-004
  1.090000000000000E-002    8.471289411286890E-004
  1.100000000000000E-002    8.847257021023627E-004
  1.110000000000000E-002    9.238105757031120E-004
  1.120000000000000E-002    9.644342194941901E-004
  1.130000000000000E-002    1.006648261761549E-003
  1.140000000000000E-002    1.050505481964724E-003
  1.150000000000000E-002    1.096059604444485E-003
  1.160000000000000E-002    1.143365313447776E-003
  1.170000000000000E-002    1.192478312451705E-003
  1.180000000000000E-002    1.243455291833342E-003
  1.190000000000000E-002    1.296354341501323E-003
  1.200000000000000E-002    1.351234861042992E-003
  1.210000000000000E-002    1.408157499894461E-003
  1.220000000000000E-002    1.467184612235719E-003
  1.230000000000000E-002    1.528380088753717E-003
  1.240000000000000E-002    1.591809442931924E-003
  1.250000000000000E-002    1.657539861053400E-003
  1.260000000000000E-002    1.725640019043474E-003
  1.270000000000000E-002    1.796179938525344E-003
  1.280000000000000E-002    1.869231043533763E-003
  1.290000000000000E-002    1.944865934055775E-003
  1.300000000000000E-002    2.023158410575429E-003
  1.310000000000000E-002    2.104183198358280E-003
  1.320000000000000E-002    2.188016293422193E-003
  1.330000000000000E-002    2.274734361818325E-003
  1.340000000000000E-002    2.364415530718251E-003
  1.350000000000000E-002    2.457138318249382E-003
  1.360000000000000E-002    2.552983019042058E-003
  1.370000000000000E-002    2.652030941440487E-003
  1.380000000000000E-002    2.754364461926171E-003
  1.390000000000000E-002    2.860067394177283E-003
  1.400000000000000E-002    2.969224574923022E-003
  1.410000000000000E-002    3.081922247729935E-003
  1.420000000000000E-002    3.198247593301032E-003
  1.430000000000000E-002    3.318289033945511E-003
  1.440000000000000E-002    3.442135605787052E-003
  1.450000000000000E-002    3.569877300035112E-003
  1.460000000000000E-002    3.701605046235402E-003
  1.470000000000000E-002    3.837409860349324E-003
  1.480000000000000E-002    3.977383494786454E-003
  1.490000000000000E-002    4.121618455791481E-003
  1.500000000000000E-002    4.270207415766771E-003
  1.510000000000000E-002    4.423243294212505E-003
  1.520000000000000E-002    4.580820011123952E-003
  1.530000000000000E-002    4.743030767050055E-003
  1.540000000000000E-002    4.909970566596518E-003
  1.550000000000000E-002    5.081733108782642E-003
  1.560000000000000E-002    5.258413257956313E-003
  1.570000000000000E-002    5.440106102635204E-003
  1.580000000000000E-002    5.626906073944560E-003
  1.590000000000000E-002    5.818908207730672E-003
  1.600000000000000E-002    6.016206293785584E-003
  1.610000000000000E-002    6.218893849551059E-003
  1.620000000000000E-002    6.427063529932489E-003
  1.630000000000000E-002    6.640807704556204E-003
  1.640000000000000E-002    6.860217610751996E-003
  1.650000000000000E-002    7.085382723494176E-003
  1.660000000000000E-002    7.316392617342545E-003
  1.670000000000000E-002    7.553334792913129E-003
  1.680000000000000E-002    7.796296214121805E-003
  1.690000000000000E-002    8.045361719512877E-003
  1.700000000000000E-002    8.300615837391858E-003
  1.710000000000000E-002    8.562140664502163E-003
  1.720000000000000E-002    8.830016349541602E-003
  1.730000000000000E-002    9.104322778682682E-003
  1.740000000000000E-002    9.385135647959644E-003
  1.750000000000000E-002    9.672528480175240E-003
  1.760000000000000E-002    9.966573012739227E-003
  1.770000000000000E-002    1.026733815992327E-002
  1.780000000000000E-002    1.057488873447991E-002
  1.790000000000000E-002    1.088928632405382E-002
  1.800000000000000E-002    1.121058931860794E-002
  1.810000000000000E-002    1.153885292552780E-002
  1.820000000000000E-002    1.187412833853791E-002
  1.830000000000000E-002    1.221646324493321E-002
  1.840000000000000E-002    1.256590194963888E-002
  1.850000000000000E-002    1.292248401433713E-002
  1.860000000000000E-002    1.328624579718805E-002
  1.870000000000000E-002    1.365721971024216E-002