 -4.000000000000000E-002    0.000000000000000E+000
 -3.990000000000000E-002    0.000000000000000E+000
 -3.980000000000000E-002    0.000000000000000E+000
 -3.970000000000000E-002    0.000000000000000E+000
 -3.960000000000000E-002    0.000000000000000E+000
 -3.950000000000000E-002    0.000000000000000E+000
 -3.940000000000000E-002    0.000000000000000E+000
 -3.930000000000000E-002    0.000000000000000E+000
 -3.920000000000000E-002    0.000000000000000E+000
 -3.910000000000000E-002    0.000000000000000E+000
 -3.900000000000000E-002    0.000000000000000E+000
 -3.890000000000000E-002    0.000000000000000E+000
 -3.880000000000000E-002    0.000000000000000E+000
 -3.870000000000000E-002    0.000000000000000E+000
 -3.860000000000000E-002    0.000000000000000E+000
 -3.850000000000000E-002    0.000000000000000E+000
 -3.840000000000000E-002    0.000000000000000E+000
 -3.830000000000000E-002    0.000000000000000E+000
 -3.820000000000000E-002    0.000000000000000E+000
 -3.810000000000000E-002    0.000000000000000E+000
 -3.800000000000000E-002    0.000000000000000E+000
 -3.790000000000000E-002    0.000000000000000E+000
 -3.780000000000000E-002    0.000000000000000E+000
 -3.770000000000000E-002   -6.414635304221270E-048
 -3.760000000000000E-002   -2.470165882414973E-046
 -3.750000000000000E-002   -1.772280778360635E-045
 -3.740000000000000E-002   -1.027096490819070E-044
 -3.730000000000000E-002   -5.085792500506985E-044
 -3.720000000000000E-002   -2.226263728443007E-043
 -3.710000000000000E-002   -8.806359479629716E-043
 -3.700000000000000E-002   -3.170187386489505E-042
 -3.690000000000000E-002   -1.044424775904488E-041
 -3.680000000000000E-002   -3.166129160170918E-041
 -3.670000000000000E-002   -8.860576821314570E-041
 -3.660000000000000E-002   -2.291459388582992E-040
 -3.650000000000000E-002   -5.466746503271648E-040
 -3.640000000000000E-002   -1.196230339620114E-039
 -3.630000000000000E-002   -2.370048889642236E-039
 -3.620000000000000E-002   -4.131856681441677E-039
 -3.610000000000000E-002   -5.887672085889499E-039
 -3.600000000000000E-002   -5.077378161856036E-039
 -3.590000000000000E-002    5.563108942961291E-039
 -3.580000000000000E-002    4.294528097133585E-038
 -3.570000000000000E-002    1.411846002818901E-037
 -3.560000000000000E-002    3.605439794873538E-037
 -3.550000000000000E-002    7.923837845579336E-037
 -3.540000000000000E-002    1.546444079814604E-036
 -3.530000000000000E-002    2.693022753341858E-036
 -3.520000000000000E-002    4.113946570029027E-036
 -3.510000000000000E-002    5.198136637535490E-036
 -3.500000000000000E-002    4.314859099118306E-036
 -3.490000000000000E-002   -1.960276323138040E-036
 -3.480000000000000E-002   -1.975785419572318E-035
 -3.470000000000000E-002   -5.857072548151593E-035
 -3.460000000000000E-002   -1.307634883095596E-034
 -3.450000000000000E-002   -2.483328634942756E-034
 -3.440000000000000E-002   -4.145020449363233E-034
 -3.430000000000000E-002   -6.071616480899852E-034
 -3.420000000000000E-002   -7.515364719134498E-034
 -3.410000000000000E-002   -6.818754809368332E-034
 -3.400000000000000E-002   -9.789916946921294E-035
 -3.390000000000000E-002    1.467335953855479E-033
 -3.380000000000000E-002    4.634893990163494E-033
 -3.370000000000000E-002    1.006862101195251E-032
 -3.360000000000000E-002    1.819115261872822E-032
 -3.350000000000000E-002    2.864605540749279E-032
 -3.340000000000000E-002    3.944843225076968E-032
 -3.330000000000000E-002    4.584572507554539E-032
 -3.320000000000000E-002    3.907255855177126E-032
 -3.310000000000000E-002    5.446622518850303E-033
 -3.300000000000000E-002   -7.339108020630440E-032
 -3.290000000000000E-002   -2.178965444124614E-031
 -3.280000000000000E-002   -4.442148198222115E-031
 -3.270000000000000E-002   -7.524879160578561E-031
 -3.260000000000000E-002   -1.109101819926241E-030
 -3.250000000000000E-002   -1.423786415791401E-030
 -3.240000000000000E-002   -1.525492340723093E-030
 -3.230000000000000E-002   -1.145358776747565E-030
 -3.220000000000000E-002    7.956536115661638E-032
 -3.210000000000000E-002    2.563071953770524E-030
 -3.200000000000000E-002    6.665543519410234E-030
 -3.190000000000000E-002    1.251015060859682E-029
 -3.180000000000000E-002    1.971336026010221E-029
 -3.170000000000000E-002    2.704927039266289E-029
 -3.160000000000000E-002    3.210815065271834E-029
 -3.150000000000000E-002    3.106388062622424E-029
 -3.140000000000000E-002    1.872465552777339E-029
 -3.130000000000000E-002   -1.091016941768204E-029
 -3.120000000000000E-002   -6.335261895276248E-029
 -3.110000000000000E-002   -1.414121575516346E-028
 -3.100000000000000E-002   -2.420532342591221E-028
 -3.090000000000000E-002   -3.526077393496729E-028
 -3.080000000000000E-002   -4.470551652807107E-028
 -3.070000000000000E-002   -4.836062538910091E-028
 -3.060000000000000E-002   -4.053419477198001E-028
 -3.050000000000000E-002   -1.459990928711333E-028
 -3.040000000000000E-002    3.570781625330397E-028
 -3.030000000000000E-002    1.141555301757012E-027
 -3.020000000000000E-002    2.190700999343350E-027
 -3.010000000000000E-002    3.399080737275000E-027
 -3.000000000000000E-002    4.540105500460425E-027
 -2.990000000000000E-002    5.246257435342880E-027
 -2.980000000000000E-002    5.016377437121435E-027
 -2.970000000000000E-002    3.266073164224527E-027
 -2.960000000000000E-002   -5.646322164190363E-028
 -2.950000000000000E-002   -6.839578874464716E-027
 -2.940000000000000E-002   -1.549773434407134E-026
 -2.930000000000000E-002   -2.579511349842472E-026
 -2.920000000000000E-002   -3.607055190650405E-026
 -2.910000000000000E-002   -4.361480900751963E-026
 -2.900000000000000E-002   -4.474237264848446E-026
 -2.890000000000000E-002   -3.516965444792075E-026
 -2.880000000000000E-002   -1.078148833367615E-026
 -2.870000000000000E-002    3.118904612686716E-026
 -2.860000000000000E-002    9.063927037577801E-026
 -2.850000000000000E-002    1.629384669613202E-025
 -2.840000000000000E-002    2.374899968099492E-025
 -2.830000000000000E-002    2.970150124662716E-025
 -2.820000000000000E-002    3.181491217197627E-025
 -2.810000000000000E-002    2.739273075657733E-025
 -2.800000000000000E-002    1.385567215935962E-025
 -2.790000000000000E-002   -1.054966038641202E-025
 -2.780000000000000E-002   -4.586605596942901E-025
 -2.770000000000000E-002   -8.949440523700508E-025
 -2.760000000000000E-002   -1.354250327695671E-024
 -2.750000000000000E-002   -1.739082475755986E-024
 -2.740000000000000E-002   -1.918727508794642E-024
 -2.730000000000000E-002   -1.743709267589842E-024
 -2.720000000000000E-002   -1.072157780932769E-024
 -2.710000000000000E-002    1.923733062709056E-025
 -2.700000000000000E-002    2.055154029316508E-024
 -2.690000000000000E-002    4.383749471382461E-024
 -2.680000000000000E-002    6.871533722160971E-024
 -2.670000000000000E-002    9.024817214918252E-024
 -2.660000000000000E-002    1.018792458789246E-023
 -2.650000000000000E-002    9.618218587460523E-024
 -2.640000000000000E-002    6.616750847619584E-024
 -2.630000000000000E-002    7.096820483567668E-025
 -2.620000000000000E-002   -8.138605380272498E-024
 -2.610000000000000E-002   -1.931581957752259E-023
 -2.600000000000000E-002   -3.140558863795235E-023
 -2.590000000000000E-002   -4.214468041826322E-023
 -2.580000000000000E-002   -4.855358239494284E-023
 -2.570000000000000E-002   -4.728662821557200E-023
 -2.560000000000000E-002   -3.521743339558859E-023
 -2.550000000000000E-002   -1.022838030624091E-023
 -2.540000000000000E-002    2.788670646942127E-023
 -2.530000000000000E-002    7.656138954533687E-023
 -2.520000000000000E-002    1.298467545955496E-022
 -2.510000000000000E-002    1.782926074445277E-022
 -2.500000000000000E-002    2.095479089761325E-022
 -2.490000000000000E-002    2.098408418262330E-022
 -2.480000000000000E-002    1.663682322588930E-022
 -2.470000000000000E-002    7.043490385921816E-023
 -2.460000000000000E-002   -7.904398152363931E-023
 -2.450000000000000E-002   -2.722956467368345E-022
 -2.440000000000000E-002   -4.864989442131044E-022
 -2.430000000000000E-002   -6.855297158378844E-022
 -2.420000000000000E-002   -8.224365151891017E-022
 -2.410000000000000E-002   -8.451519138710710E-022
 -2.400000000000000E-002   -7.054361778153492E-022
 -2.390000000000000E-002   -3.703581344566395E-022
 -2.380000000000000E-002    1.651815431636810E-022
 -2.370000000000000E-002    8.671433652629338E-022
 -2.360000000000000E-002    1.655075618020225E-021
 -2.350000000000000E-002    2.401846306738050E-021
 -2.340000000000000E-002    2.942931793843379E-021
 -2.330000000000000E-002    3.096702537851421E-021
 -2.320000000000000E-002    2.695347900340685E-021
 -2.310000000000000E-002    1.623736660335332E-021
 -2.300000000000000E-002   -1.390647851158080E-022
 -2.290000000000000E-002   -2.483245563543473E-021
 -2.280000000000000E-002   -5.145843927540093E-021
 -2.270000000000000E-002   -7.711803200159220E-021
 -2.260000000000000E-002   -9.646087325936772E-021
 -2.250000000000000E-002   -1.036058101102569E-020
 -2.240000000000000E-002   -9.313614916522352E-021
 -2.230000000000000E-002   -6.132598332543138E-021
 -2.220000000000000E-002   -7.425154655304042E-022
 -2.210000000000000E-002    6.523673512579714E-021
 -2.200000000000000E-002    1.486056877202714E-020
 -2.190000000000000E-002    2.299915834482210E-020
 -2.180000000000000E-002    2.931003642806750E-020
 -2.170000000000000E-002    3.200977058273766E-020
 -2.160000000000000E-002    2.946118998176687E-020
 -2.150000000000000E-002    2.053690542241852E-020
 -2.140000000000000E-002    4.993539556004265E-021
 -2.130000000000000E-002   -1.621372117870850E-020
 -2.120000000000000E-002   -4.075569829155201E-020
 -2.110000000000000E-002   -6.496842879784939E-020
 -2.100000000000000E-002   -8.416234529263932E-020
 -2.090000000000000E-002   -9.322002035307866E-020
 -2.080000000000000E-002   -8.745004720707268E-020
 -2.070000000000000E-002   -6.360535078845098E-020
 -2.060000000000000E-002   -2.091652842822415E-020
 -2.050000000000000E-002    3.805430340955498E-020
 -2.040000000000000E-002    1.069532094750357E-019
 -2.030000000000000E-002    1.757651538974599E-019
 -2.020000000000000E-002    2.316740348280485E-019
 -2.010000000000000E-002    2.606883814360607E-019
 -2.000000000000000E-002    2.499326792202388E-019
 -1.990000000000000E-002    1.903511992101406E-019
 -1.980000000000000E-002    7.942507322114426E-020
 -1.970000000000000E-002   -7.660375807742500E-020
 -1.960000000000000E-002   -2.615476560562828E-019
 -1.950000000000000E-002   -4.496198152184801E-019
 -1.940000000000000E-002   -6.076431439755920E-019
 -1.930000000000000E-002   -6.991899894404620E-019
 -1.920000000000000E-002   -6.903772805481535E-019
 -1.910000000000000E-002   -5.566662728643239E-019
 -1.900000000000000E-002   -2.896681327948765E-019
 -1.890000000000000E-002    9.729099968781563E-020
 -1.880000000000000E-002    5.661652269876333E-019
 -1.870000000000000E-002    1.054915108780911E-018
 -1.860000000000000E-002    1.482731835843367E-018
 -1.850000000000000E-002    1.759886130626276E-018
 -1.840000000000000E-002    1.801518400709701E-018
 -1.830000000000000E-002    1.543809823860148E-018
 -1.820000000000000E-002    9.601842646519497E-019
 -1.810000000000000E-002    7.464656212742121E-020
 -1.800000000000000E-002   -1.030779890805365E-018
 -1.790000000000000E-002   -2.217171944210149E-018
 -1.780000000000000E-002   -3.300096857956327E-018
 -1.770000000000000E-002   -4.071540142095053E-018
 -1.760000000000000E-002   -4.330803274616301E-018
 -1.750000000000000E-002   -3.920885522714816E-018
 -1.740000000000000E-002   -2.765128372352888E-018
 -1.730000000000000E-002   -8.977559704587159E-019
 -1.720000000000000E-002    1.518331344776759E-018
 -1.710000000000000E-002    4.192290637522385E-018
 -1.700000000000000E-002    6.728336284555159E-018
 -1.690000000000000E-002    8.671598316795863E-018
 -1.680000000000000E-002    9.573576816912394E-018
 -1.670000000000000E-002    9.069853543044083E-018
 -1.660000000000000E-002    6.959122695183371E-018
 -1.650000000000000E-002    3.270203298839454E-018
 -1.640000000000000E-002   -1.696843001971771E-018
 -1.630000000000000E-002   -7.367608968279910E-018
 -1.620000000000000E-002   -1.293619927513910E-017
 -1.610000000000000E-002   -1.745560094229359E-017
 -1.600000000000000E-002   -1.996934268057430E-017
 -1.590000000000000E-002   -1.966995126315199E-017
 -1.580000000000000E-002   -1.606251009881058E-017
 -1.570000000000000E-002   -9.106688689751100E-018
 -1.560000000000000E-002    6.906110443905228E-019
 -1.550000000000000E-002    1.225663126047365E-017
 -1.540000000000000E-002    2.402474182645859E-017
 -1.530000000000000E-002    3.410153908545248E-017
 -1.520000000000000E-002    4.051835674891636E-017
 -1.510000000000000E-002    4.154066564446992E-017
 -1.500000000000000E-002    3.599451294831088E-017
 -1.490000000000000E-002    2.355933905114853E-017
 -1.480000000000000E-002    4.973306668062044E-018
 -1.470000000000000E-002   -1.789758241480866E-017
 -1.460000000000000E-002   -4.216124986950192E-017
 -1.450000000000000E-002   -6.418467106151618E-017
 -1.440000000000000E-002   -8.004738703234890E-017
 -1.430000000000000E-002   -8.611854550875141E-017
 -1.420000000000000E-002   -7.968537132462665E-017
 -1.410000000000000E-002   -5.954108260624860E-017
 -1.400000000000000E-002   -2.643183440450274E-017
 -1.390000000000000E-002    1.673108478327433E-017
 -1.380000000000000E-002    6.496561667414561E-017
 -1.370000000000000E-002    1.116537253711530E-016
 -1.360000000000000E-002    1.493030712479931E-016
 -1.350000000000000E-002    1.705676670910403E-016
 -1.340000000000000E-002    1.694094765073491E-016
 -1.330000000000000E-002    1.422422224813388E-016
 -1.320000000000000E-002    8.887784559816046E-017
 -1.310000000000000E-002    1.309900560692368E-017
 -1.300000000000000E-002   -7.728743646186702E-017
 -1.290000000000000E-002   -1.710034470807894E-016
 -1.280000000000000E-002   -2.544670854669607E-016
 -1.270000000000000E-002   -3.134886908201238E-016
 -1.260000000000000E-002   -3.353187912985670E-016
 -1.250000000000000E-002   -3.107903744230653E-016
 -1.240000000000000E-002   -2.362467490719160E-016
 -1.230000000000000E-002   -1.149337696621155E-016
 -1.220000000000000E-002    4.243258189797687E-017
 -1.210000000000000E-002    2.181277323461442E-016
 -1.200000000000000E-002    3.889954003203366E-016
 -1.190000000000000E-002    5.290655115957090E-016
 -1.180000000000000E-002    6.129804006385608E-016
 -1.170000000000000E-002    6.198387336862522E-016
 -1.160000000000000E-002    5.369504245294694E-016
 -1.150000000000000E-002    3.629343368883494E-016
 -1.140000000000000E-002    1.096065817066454E-016
 -1.130000000000000E-002   -1.977965074968264E-016
 -1.120000000000000E-002   -5.223371146425331E-016
 -1.110000000000000E-002   -8.190700455636008E-016
 -1.100000000000000E-002   -1.040457717217050E-015
 -1.090000000000000E-002   -1.142964869960539E-015
 -1.080000000000000E-002   -1.094039495737630E-015
 -1.070000000000000E-002   -8.785091592511997E-016
 -1.060000000000000E-002   -5.033709904134029E-016
 -1.050000000000000E-002   -3.260075844326469E-020
 -1.040000000000000E-002    5.767032503565611E-016
 -1.030000000000000E-002    1.153238557303651E-015
 -1.020000000000000E-002    1.645224206453084E-015
 -1.010000000000000E-002    1.968372269237222E-015
 -1.000000000000000E-002    2.050854648238501E-015
 -9.899999999999999E-003    1.845697426150764E-015
 -9.800000000000000E-003    1.341336995556196E-015
 -9.699999999999999E-003    5.685123819461844E-016
 -9.599999999999999E-003   -3.980784788212941E-016
 -9.500000000000000E-003   -1.444370592687036E-015
 -9.399999999999999E-003   -2.428022383379423E-015
 -9.299999999999999E-003   -3.195319452318706E-015
 -9.200000000000000E-003   -3.602236795038653E-015
 -9.099999999999999E-003   -3.537145670953859E-015
 -8.999999999999999E-003   -2.942025768199792E-015
 -8.900000000000000E-003   -1.828806216437893E-015
 -8.799999999999999E-003   -2.876847977889522E-016
 -8.699999999999999E-003    1.514968846011554E-015
 -8.600000000000000E-003    3.350338088245542E-015
 -8.499999999999999E-003    4.952132551881046E-015
 -8.399999999999999E-003    6.050693035897115E-015
 -8.300000000000000E-003    6.412442757491735E-015
 -8.199999999999999E-003    5.879565496775097E-015
 -8.100000000000000E-003    4.403999823228260E-015
 -8.000000000000000E-003    2.069901367399076E-015
 -7.899999999999999E-003   -9.003881442121614E-016
 -7.800000000000000E-003   -4.160023726272615E-015
 -7.699999999999999E-003   -7.271655720361100E-015
 -7.599999999999999E-003   -9.759416575045797E-015
 -7.499999999999999E-003   -1.117361697959972E-014
 -7.399999999999999E-003   -1.116022808247969E-014
 -7.299999999999999E-003   -9.525485978948363E-015
 -7.199999999999999E-003   -6.285419485620566E-015
 -7.100000000000000E-003   -1.691102278158307E-015
 -6.999999999999999E-003    3.777297276563815E-015
 -6.899999999999999E-003    9.450624549246688E-015
 -6.800000000000000E-003    1.454343352741986E-014
 -6.699999999999999E-003    1.825262662080983E-014
 -6.599999999999999E-003    1.987081713843590E-014
 -6.499999999999999E-003    1.889966227867762E-014
 -6.399999999999999E-003    1.514673833405909E-014
 -6.299999999999999E-003    8.790006677055099E-015
 -6.199999999999999E-003    3.969458320323639E-016
 -6.100000000000000E-003   -9.109709658953538E-015
 -5.999999999999999E-003   -1.854051251079912E-014
 -5.899999999999999E-003   -2.657567832069223E-014
 -5.800000000000000E-003   -3.193504010031980E-014
 -5.699999999999999E-003   -3.356124438768846E-014
 -5.599999999999999E-003   -3.079185147757273E-014
 -5.499999999999999E-003   -2.349507331847223E-014
 -5.399999999999999E-003   -1.214656743773354E-014
 -5.299999999999999E-003    2.169450836881219E-015
 -5.199999999999999E-003    1.784236763980747E-014
 -5.099999999999999E-003    3.289791473465295E-014
 -4.999999999999999E-003    4.522707770122097E-014
 -4.899999999999999E-003    5.285690682457614E-014
 -4.799999999999999E-003    5.423090556557340E-014
 -4.699999999999999E-003    4.846227729612146E-014
 -4.599999999999999E-003    3.552417294636832E-014
 -4.499999999999999E-003    1.634550075416187E-014
 -4.399999999999999E-003   -7.209191262313210E-015
 -4.299999999999999E-003   -3.248491396563655E-014
 -4.199999999999999E-003   -5.629961671139440E-014
 -4.099999999999999E-003   -7.530418074426906E-014
 -3.999999999999999E-003   -8.640271055727047E-014
 -3.899999999999999E-003   -8.718612257949872E-014
 -3.799999999999999E-003   -7.632557027273571E-014
 -3.699999999999999E-003   -5.387191630428767E-014
 -3.599999999999999E-003   -2.141322791733847E-014
 -3.499999999999999E-003    1.794603385655680E-014
 -3.399999999999999E-003    5.980235506589262E-014
 -3.299999999999999E-003    9.886405146062301E-014
 -3.199999999999999E-003    1.295286865430063E-013
 -3.099999999999999E-003    1.465764140281823E-013
 -2.999999999999999E-003    1.459069417512767E-013
 -2.899999999999999E-003    1.252335564767613E-013
 -2.799999999999999E-003    8.463782245690605E-014
 -2.699999999999999E-003    2.689484005974854E-014
 -2.599999999999999E-003   -4.250955616434948E-014
 -2.499999999999999E-003   -1.157189480109756E-013
 -2.399999999999999E-003   -1.832157503956515E-013
 -2.299999999999999E-003   -2.348661724844933E-013
 -2.199999999999999E-003   -2.612129049210994E-013
 -2.099999999999999E-003   -2.548834034688439E-013
 -1.999999999999999E-003   -2.119376092929976E-013
 -1.899999999999999E-003   -1.329587897321041E-013
 -1.799999999999999E-003   -2.368944093203653E-014
 -1.699999999999999E-003    1.049564305575373E-013
 -1.599999999999999E-003    2.376153492821907E-013
 -1.499999999999999E-003    3.559551643559248E-013
 -1.399999999999999E-003    4.408324313096211E-013
 -1.299999999999999E-003    4.749307962976859E-013
 -1.199999999999999E-003    4.455759562111458E-013
 -1.099999999999999E-003    3.473412248963978E-013
 -9.999999999999989E-004    1.840192365489223E-013
 -8.999999999999990E-004   -3.044406008886559E-014
 -7.999999999999990E-004   -2.723745393842897E-013
 -6.999999999999989E-004   -5.103229167163161E-013
 -5.999999999999990E-004   -7.085084696099390E-013
 -4.999999999999989E-004   -8.314881540092768E-013
 -3.999999999999989E-004   -8.495356412161036E-013
 -2.999999999999989E-004   -7.440325183460945E-013
 -1.999999999999989E-004   -5.120399780424575E-013
 -9.999999999999892E-005   -1.692117497658990E-013
  1.084202172485504E-018    2.496723453260776E-013
  1.000000000000011E-004    6.930236220849520E-013
  2.000000000000011E-004    1.097710177275603E-012
  3.000000000000011E-004    1.396927982217891E-012
  4.000000000000011E-004    1.529858398385598E-012
  5.000000000000011E-004    1.451894557755446E-012
  6.000000000000011E-004    1.143926045833240E-012
  7.000000000000011E-004    6.190822238403250E-013
  8.000000000000011E-004   -7.450243169261082E-014
  9.000000000000012E-004   -8.559405324417764E-013
  1.000000000000001E-003   -1.619262512719221E-012
  1.100000000000001E-003   -2.246109585673507E-012
  1.200000000000001E-003   -2.622195116465593E-012
  1.300000000000001E-003   -2.655508437603862E-012
  1.400000000000001E-003   -2.293649981509665E-012
  1.500000000000001E-003   -1.537455267715996E-012
  1.600000000000001E-003   -4.482372450545934E-013
  1.700000000000001E-003    8.533832306908891E-013
  1.800000000000001E-003    2.198051652869714E-012
  1.900000000000001E-003    3.387286532138917E-012
  2.000000000000001E-003    4.220281569471115E-012
  2.100000000000001E-003    4.524647556496770E-012
  2.200000000000001E-003    4.186800922813661E-012
  2.300000000000001E-003    3.177166315471300E-012
  2.400000000000001E-003    1.565543404821940E-012
  2.500000000000001E-003   -4.770559164392175E-013
  2.600000000000001E-003   -2.692145793143208E-012
  2.700000000000001E-003   -4.762901442606823E-012
  2.800000000000001E-003   -6.356074095390491E-012
  2.900000000000001E-003   -7.171676035634124E-012
  3.000000000000001E-003   -6.993608545381320E-012
  3.100000000000001E-003   -5.733347560592175E-012
  3.200000000000001E-003   -3.458988643448928E-012
  3.300000000000001E-003   -4.032687174943883E-013
  3.400000000000001E-003    3.053216915471866E-012
  3.500000000000001E-003    6.423944583431486E-012
  3.600000000000001E-003    9.179891723285037E-012
  3.700000000000001E-003    1.082706325660188E-011
  3.800000000000001E-003    1.098748951919981E-011
  3.900000000000001E-003    9.471393730924763E-012
  4.000000000000001E-003    6.328115992929141E-012
  4.100000000000001E-003    1.865355933711920E-012
  4.200000000000001E-003   -3.369896392574518E-012
  4.300000000000001E-003   -8.650074286431404E-012
  4.400000000000001E-003   -1.316056583995729E-011
  4.500000000000001E-003   -1.611725326482153E-011
  4.600000000000002E-003   -1.689220607122611E-011
  4.700000000000001E-003   -1.512865732824652E-011
  4.800000000000001E-003   -1.082601675666136E-011
  4.900000000000002E-003   -4.378341379076561E-012
  5.000000000000001E-003    3.444803759055523E-012
  5.100000000000001E-003    1.157824159034823E-011
  5.200000000000001E-003    1.879572247786629E-011
  5.300000000000002E-003    2.388376857656120E-011
  5.400000000000001E-003    2.583169331718350E-011
  5.500000000000001E-003    2.400970561171580E-011
  5.600000000000002E-003    1.830598145323010E-011
  5.700000000000001E-003    9.197074228465361E-012
  5.800000000000001E-003   -2.266116994731464E-012
  5.900000000000002E-003   -1.456314077808796E-011
  6.000000000000001E-003   -2.589226750180135E-011
  6.100000000000001E-003   -3.442113081532741E-011
  6.200000000000002E-003   -3.856686289616455E-011
  6.300000000000002E-003   -3.726487953084669E-011
  6.400000000000001E-003   -3.018343637663588E-011
  6.500000000000001E-003   -1.784530902204810E-011
  6.600000000000002E-003   -1.628841728887563E-012
  6.700000000000001E-003    1.636322953413288E-011
  6.800000000000001E-003    3.355926763561721E-011
  6.900000000000002E-003    4.727041019215272E-011
  7.000000000000001E-003    5.509287589669431E-011
  7.100000000000001E-003    5.530312552658312E-011
  7.200000000000002E-003    4.718408175981010E-011
  7.300000000000002E-003    3.122569204961418E-011
  7.400000000000001E-003    9.157523479931518E-012
  7.500000000000001E-003   -1.620652356426593E-011
  7.600000000000002E-003   -4.130399699086642E-011
  7.700000000000001E-003   -6.230401897542248E-011
  7.800000000000001E-003   -7.567030610924131E-011
  7.900000000000001E-003   -7.872726974101344E-011
  8.000000000000002E-003   -7.014227247210974E-011
  8.100000000000001E-003   -5.024260366106547E-011
  8.200000000000001E-003   -2.110453352629145E-011
  8.300000000000002E-003    1.361838742392182E-011
  8.400000000000001E-003    4.912284975676788E-011
  8.500000000000002E-003    8.009446496378277E-011
  8.600000000000002E-003    1.014767031534971E-010
  8.700000000000001E-003    1.092625753407557E-010
  8.800000000000002E-003    1.011892237179331E-010
  8.900000000000002E-003    7.722130260231462E-011
  9.000000000000001E-003    3.973215168703560E-011
  9.100000000000002E-003   -6.668689326585460E-012
  9.200000000000002E-003   -5.566282602926204E-011
  9.300000000000001E-003   -1.000520427955838E-010
  9.400000000000002E-003   -1.327852323793485E-010
  9.500000000000001E-003   -1.480412649071881E-010
  9.600000000000001E-003   -1.422066417010390E-010
  9.700000000000002E-003   -1.145902998767362E-010
  9.800000000000001E-003   -6.774676043277318E-011
  9.900000000000001E-003   -7.329145821390665E-012
  1.000000000000000E-002    5.854041945130000E-011
  1.010000000000000E-002    1.203223813925247E-010
  1.020000000000000E-002    1.684038668832958E-010
  1.030000000000000E-002    1.945515380394697E-010
  1.040000000000000E-002    1.932598728628390E-010
  1.050000000000000E-002    1.627817853089960E-010
  1.060000000000000E-002    1.056620879055653E-010
  1.070000000000000E-002    2.865713937821450E-011
  1.080000000000000E-002   -5.799060019654477E-011
  1.090000000000000E-002   -1.418580720686222E-010
  1.100000000000000E-002   -2.100699775393529E-010
  1.110000000000000E-002   -2.512161961716087E-010
  1.120000000000000E-002   -2.571812976978123E-010
  1.130000000000000E-002   -2.246018350473740E-010
  1.140000000000000E-002   -1.557051913643186E-010
  1.150000000000000E-002   -5.836031668967119E-011
  1.160000000000000E-002    5.472097046669954E-011
  1.170000000000000E-002    1.675690137668126E-010
  1.180000000000000E-002    2.631414211317095E-010
  1.190000000000000E-002    3.258180180700343E-010
  1.200000000000000E-002    3.438500269584762E-010
  1.210000000000000E-002    3.113911413191068E-010
  1.220000000000000E-002    2.297759637612824E-010
  1.230000000000000E-002    1.078042482402053E-010
  1.240000000000000E-002   -3.907768983481364E-011
  1.250000000000000E-002   -1.906471995136976E-010
  1.260000000000000E-002   -3.246143251890251E-010
  1.270000000000000E-002   -4.198175561487928E-010
  1.280000000000000E-002   -4.594580237139241E-010
  1.290000000000000E-002   -4.338901348454359E-010
  1.300000000000000E-002   -3.425223547576168E-010
  1.310000000000000E-002   -1.944882344705162E-010
  1.320000000000000E-002   -7.909841787878399E-012
  1.330000000000000E-002    1.922233994202162E-010
  1.340000000000000E-002    3.773297466019381E-010
  1.350000000000000E-002    5.192463473879416E-010
  1.360000000000000E-002    5.944230004455160E-010
  1.370000000000000E-002    5.876858253161604E-010
  1.380000000000000E-002    4.949841816988297E-010
  1.390000000000000E-002    3.246521756247984E-010
  1.400000000000000E-002    9.690971324718123E-011
  1.410000000000000E-002   -1.584255386392685E-010
  1.420000000000000E-002   -4.057789438357127E-010
  1.430000000000000E-002   -6.087310193710439E-010
  1.440000000000000E-002   -7.353328404222009E-010
  1.450000000000000E-002   -7.630571959091858E-010
  1.460000000000000E-002   -6.826312216703347E-010
  1.470000000000000E-002   -5.001181231686816E-010
  1.480000000000000E-002   -2.368424136074384E-010
  1.490000000000000E-002    7.294867126516785E-011
  1.500000000000000E-002    3.864635315086080E-010
  1.510000000000000E-002    6.582439991521560E-010
  1.520000000000000E-002    8.467499613665687E-010
  1.530000000000000E-002    9.207083806706495E-010
  1.540000000000000E-002    8.642697837937991E-010
  1.550000000000000E-002    6.801394537067717E-010
  1.560000000000000E-002    3.901101366196249E-010
  1.570000000000000E-002    3.277718681498164E-011
  1.580000000000000E-002   -3.413724473154441E-010
  1.590000000000000E-002   -6.769042468294044E-010
  1.600000000000000E-002   -9.214849296426562E-010
  1.610000000000000E-002   -1.033892715570492E-009
  1.620000000000000E-002   -9.907907128957080E-010
  1.630000000000000E-002   -7.911837340395198E-010
  1.640000000000000E-002   -4.577702062459364E-010
  1.650000000000000E-002   -3.481735914406030E-011
  1.660000000000000E-002    4.173086737695968E-010
  1.670000000000000E-002    8.303236337443524E-010
  1.680000000000000E-002    1.137842661967201E-009
  1.690000000000000E-002    1.285459573635476E-009
  1.700000000000000E-002    1.239600969071906E-009
  1.710000000000000E-002    9.937715834321216E-010
  1.720000000000000E-002    5.711220425340118E-010
  1.730000000000000E-002    2.276053174008124E-011
  1.740000000000000E-002   -5.781684937059409E-010
  1.750000000000000E-002   -1.145985143195408E-009
  1.760000000000000E-002   -1.594338036015761E-009
  1.770000000000000E-002   -1.848800259245662E-009
  1.780000000000000E-002   -1.858376717705556E-009
  1.790000000000000E-002   -1.604169625366712E-009
  1.800000000000000E-002   -1.103783517114018E-009
  1.810000000000000E-002   -4.106095166466421E-010
  1.820000000000000E-002    3.921567264958891E-010
  1.830000000000000E-002    1.202136564394407E-009
  1.840000000000000E-002    1.911688783538293E-009
  1.850000000000000E-002    2.423234428816081E-009
  1.860000000000000E-002    2.663796505627560E-009
  1.870000000000000E-002    2.596577549894760E-009