 -4.000000000000000E-002    0.000000000000000E+000
 -3.990000000000000E-002    0.000000000000000E+000
 -3.980000000000000E-002    0.000000000000000E+000
 -3.970000000000000E-002    0.000000000000000E+000
 -3.960000000000000E-002    0.000000000000000E+000
 -3.950000000000000E-002    0.000000000000000E+000
 -3.940000000000000E-002    0.000000000000000E+000
 -3.930000000000000E-002    0.000000000000000E+000
 -3.920000000000000E-002    0.000000000000000E+000
 -3.910000000000000E-002    0.000000000000000E+000
 -3.900000000000000E-002   -5.468051206446172E-034
 -3.890000000000000E-002   -1.147594912172866E-032
 -3.880000000000000E-002   -1.232389159340122E-031
 -3.870000000000000E-002   -8.996375847673679E-031
 -3.860000000000000E-002   -5.002507627585668E-030
 -3.850000000000000E-002   -2.249885536567567E-029
 -3.840000000000000E-002   -8.477492304797331E-029
 -3.830000000000000E-002   -2.731782654151179E-028
 -3.820000000000000E-002   -7.599946014789505E-028
 -3.810000000000000E-002   -1.820655433493853E-027
 -3.800000000000000E-002   -3.670776219830013E-027
 -3.790000000000000E-002   -5.764718099358181E-027
 -3.780000000000000E-002   -4.845524712760987E-027
 -3.770000000000000E-002    9.351274512355077E-027
 -3.760000000000000E-002    6.193492978199493E-026
 -3.750000000000000E-002    2.045038549891877E-025
 -3.740000000000000E-002    5.276981426015534E-025
 -3.730000000000000E-002    1.164811791992141E-024
 -3.720000000000000E-002    2.264713326664949E-024
 -3.710000000000000E-002    3.896042768289100E-024
 -3.700000000000000E-002    5.828592456488064E-024
 -3.690000000000000E-002    7.133000050895270E-024
 -3.680000000000000E-002    5.565904835630922E-024
 -3.670000000000000E-002   -3.208548031496750E-024
 -3.660000000000000E-002   -2.634047368922181E-023
 -3.650000000000000E-002   -7.396782905819386E-023
 -3.640000000000000E-002   -1.579978578170807E-022
 -3.630000000000000E-002   -2.883023468513091E-022
 -3.620000000000000E-002   -4.649583088834277E-022
 -3.610000000000000E-002   -6.654399068370798E-022
 -3.600000000000000E-002   -8.267450009547547E-022
 -3.590000000000000E-002   -8.246407252353344E-022
 -3.580000000000000E-002   -4.557336834104483E-022
 -3.570000000000000E-002    5.673226800894736E-022
 -3.560000000000000E-002    2.592322073841379E-021
 -3.550000000000000E-002    5.957106437244251E-021
 -3.540000000000000E-002    1.085423980260031E-020
 -3.530000000000000E-002    1.712040228261131E-020
 -3.520000000000000E-002    2.395798396639829E-020
 -3.510000000000000E-002    2.962613890625116E-020
 -3.500000000000000E-002    3.117926480914742E-020
 -3.490000000000000E-002    2.437678352129603E-020
 -3.480000000000000E-002    3.928122966541319E-021
 -3.470000000000000E-002   -3.574666262167648E-020
 -3.460000000000000E-002   -9.908844965056715E-020
 -3.450000000000000E-002   -1.872454163760444E-019
 -3.440000000000000E-002   -2.953138162564960E-019
 -3.430000000000000E-002   -4.093498465439697E-019
 -3.420000000000000E-002   -5.038438691932425E-019
 -3.410000000000000E-002   -5.406600880688274E-019
 -3.400000000000000E-002   -4.706638830099515E-019
 -3.390000000000000E-002   -2.392716892036254E-019
 -3.380000000000000E-002    2.031698198728461E-019
 -3.370000000000000E-002    8.860238971073853E-019
 -3.360000000000000E-002    1.799100224527152E-018
 -3.350000000000000E-002    2.872182399030240E-018
 -3.340000000000000E-002    3.957822231281753E-018
 -3.330000000000000E-002    4.823458579271390E-018
 -3.320000000000000E-002    5.159726724340941E-018
 -3.310000000000000E-002    4.611341200609620E-018
 -3.300000000000000E-002    2.834579084901559E-018
 -3.290000000000000E-002   -4.191510857738198E-019
 -3.280000000000000E-002   -5.200724937203938E-018
 -3.270000000000000E-002   -1.125676549338254E-017
 -3.260000000000000E-002   -1.794224020902469E-017
 -3.250000000000000E-002   -2.418139385829072E-017
 -3.240000000000000E-002   -2.850816344787486E-017
 -3.230000000000000E-002   -2.921251245366857E-017
 -3.220000000000000E-002   -2.460616796810755E-017
 -3.210000000000000E-002   -1.339950233465465E-017
 -3.200000000000000E-002    4.847853763878406E-018
 -3.190000000000000E-002    2.927271966276568E-017
 -3.180000000000000E-002    5.735069416873767E-017
 -3.170000000000000E-002    8.475493361833561E-017
 -3.160000000000000E-002    1.055514999889091E-016
 -3.150000000000000E-002    1.128251324008825E-016
 -3.140000000000000E-002    9.977071390464260E-017
 -3.130000000000000E-002    6.119776170425951E-017
 -3.120000000000000E-002   -4.715748948216464E-018
 -3.110000000000000E-002   -9.470061915922638E-017
 -3.100000000000000E-002   -1.990851167423458E-016
 -3.090000000000000E-002   -3.013294091461193E-016
 -3.080000000000000E-002   -3.788224103493445E-016
 -3.070000000000000E-002   -4.052422529778014E-016
 -3.060000000000000E-002   -3.545665790355563E-016
 -3.050000000000000E-002   -2.065055729733684E-016
 -3.040000000000000E-002    4.723911090700938E-017
 -3.030000000000000E-002    3.968625814076708E-016
 -3.020000000000000E-002    8.097648446971140E-016
 -3.010000000000000E-002    1.228695475423704E-015
 -3.000000000000000E-002    1.574058412431844E-015
 -2.990000000000000E-002    1.751312067951515E-015
 -2.980000000000000E-002    1.663703018679550E-015
 -2.970000000000000E-002    1.229623150986762E-015
 -2.960000000000000E-002    4.027632376270647E-016
 -2.950000000000000E-002   -8.078425358228299E-016
 -2.940000000000000E-002   -2.321644000324735E-015
 -2.930000000000000E-002   -3.978416193114189E-015
 -2.920000000000000E-002   -5.541968339342417E-015
 -2.910000000000000E-002   -6.718479717679007E-015
 -2.900000000000000E-002   -7.190309811813309E-015
 -2.890000000000000E-002   -6.663567117378727E-015
 -2.880000000000000E-002   -4.924750612584157E-015
 -2.870000000000000E-002   -1.898936725190155E-015
 -2.860000000000000E-002    2.300270381723027E-015
 -2.850000000000000E-002    7.339814751397217E-015
 -2.840000000000000E-002    1.266545336337995E-014
 -2.830000000000000E-002    1.753673557293858E-014
 -2.820000000000000E-002    2.110163981598922E-014
 -2.810000000000000E-002    2.250766302959239E-014
 -2.800000000000000E-002    2.103903691298447E-014
 -2.790000000000000E-002    1.626294313117154E-014
 -2.780000000000000E-002    8.162187368263811E-015
 -2.770000000000000E-002   -2.770958918291064E-015
 -2.760000000000000E-002   -1.550393183954413E-014
 -2.750000000000000E-002   -2.851472217390859E-014
 -2.740000000000000E-002   -3.993337466522009E-014
 -2.730000000000000E-002   -4.776954269014679E-014
 -2.720000000000000E-002   -5.020612936718665E-014
 -2.710000000000000E-002   -4.592407241168883E-014
 -2.700000000000000E-002   -3.441065780352885E-014
 -2.690000000000000E-002   -1.619738964482849E-014
 -2.680000000000000E-002    7.025867397172990E-015
 -2.670000000000000E-002    3.246360753254901E-014
 -2.660000000000000E-002    5.645820292777690E-014
 -2.650000000000000E-002    7.492126109125300E-014
 -2.640000000000000E-002    8.391865782312279E-014
 -2.630000000000000E-002    8.034301953957086E-014
 -2.620000000000000E-002    6.258085548785197E-014
 -2.610000000000000E-002    3.106464232234501E-014
 -2.600000000000000E-002   -1.140163557756687E-014
 -2.590000000000000E-002   -5.963941151889218E-014
 -2.580000000000000E-002   -1.064765577230984E-013
 -2.570000000000000E-002   -1.435243388230574E-013
 -2.560000000000000E-002   -1.623007672211812E-013
 -2.550000000000000E-002   -1.555869580092954E-013
 -2.540000000000000E-002   -1.188449276655440E-013
 -2.530000000000000E-002   -5.148461813689623E-014
 -2.520000000000000E-002    4.224736497931363E-014
 -2.510000000000000E-002    1.529673207283420E-013
 -2.500000000000000E-002    2.665986172178359E-013
 -2.490000000000000E-002    3.656298990857676E-013
 -2.480000000000000E-002    4.311446128666497E-013
 -2.470000000000000E-002    4.454515812007602E-013
 -2.460000000000000E-002    3.950261606100254E-013
 -2.450000000000000E-002    2.733705588610622E-013
 -2.440000000000000E-002    8.334658848002898E-014
 -2.430000000000000E-002   -1.614670959083739E-013
 -2.420000000000000E-002   -4.367714966821251E-013
 -2.410000000000000E-002   -7.091399517226678E-013
 -2.400000000000000E-002   -9.392523537888582E-013
 -2.390000000000000E-002   -1.086579256345967E-012
 -2.380000000000000E-002   -1.115074176589034E-012
 -2.370000000000000E-002   -9.992062988236169E-013
 -2.360000000000000E-002   -7.295004695393977E-013
 -2.350000000000000E-002   -3.166818026181004E-013
 -2.340000000000000E-002    2.064265997883302E-013
 -2.330000000000000E-002    7.859137508605318E-013
 -2.320000000000000E-002    1.351039629001865E-012
 -2.310000000000000E-002    1.821663270743162E-012
 -2.300000000000000E-002    2.118270529458208E-012
 -2.290000000000000E-002    2.173557477007430E-012
 -2.280000000000000E-002    1.944110759950692E-012
 -2.270000000000000E-002    1.420479237147021E-012
 -2.260000000000000E-002    6.338825820747086E-013
 -2.250000000000000E-002   -3.419830794405865E-013
 -2.240000000000000E-002   -1.395103098026961E-012
 -2.230000000000000E-002   -2.385604549425074E-012
 -2.220000000000000E-002   -3.161974578895783E-012
 -2.210000000000000E-002   -3.581530042049845E-012
 -2.200000000000000E-002   -3.532764798579591E-012
 -2.190000000000000E-002   -2.956528612756937E-012
 -2.180000000000000E-002   -1.862683844381127E-012
 -2.170000000000000E-002   -3.390436589845711E-013
 -2.160000000000000E-002    1.449948178080023E-012
 -2.150000000000000E-002    3.276178464405809E-012
 -2.140000000000000E-002    4.872300494226583E-012
 -2.130000000000000E-002    5.965719629362281E-012
 -2.120000000000000E-002    6.318449912993669E-012
 -2.110000000000000E-002    5.767724377321139E-012
 -2.100000000000000E-002    4.261334818644616E-012
 -2.090000000000000E-002    1.881596855392466E-012
 -2.080000000000000E-002   -1.147371945583266E-012
 -2.070000000000000E-002   -4.472599699653483E-012
 -2.060000000000000E-002   -7.646419948234424E-012
 -2.050000000000000E-002   -1.017973674601840E-011
 -2.040000000000000E-002   -1.160909330321713E-011
 -2.030000000000000E-002   -1.156934757262654E-011
 -2.020000000000000E-002   -9.861761658461755E-012
 -2.010000000000000E-002   -6.506553416799479E-012
 -2.000000000000000E-002   -1.769803293469632E-012
 -1.990000000000000E-002    3.842878854752145E-012
 -1.980000000000000E-002    9.629554197295620E-012
 -1.970000000000000E-002    1.477043160698219E-011
 -1.960000000000000E-002    1.843455423515894E-011
 -1.950000000000000E-002    1.990229244052110E-011
 -1.940000000000000E-002    1.868723411758888E-011
 -1.930000000000000E-002    1.463895011042630E-011
 -1.920000000000000E-002    8.008582359591305E-012
 -1.910000000000000E-002   -5.374454110207285E-013
 -1.900000000000000E-002   -9.964393428863996E-012
 -1.890000000000000E-002   -1.897750439125331E-011
 -1.880000000000000E-002   -2.618309293280030E-011
 -1.870000000000000E-002   -3.028479498654957E-011
 -1.860000000000000E-002   -3.028979176284194E-011
 -1.850000000000000E-002   -2.569519631130560E-011
 -1.840000000000000E-002   -1.662405466273051E-011
 -1.830000000000000E-002   -3.884353207422650E-012
 -1.820000000000000E-002    1.106732796630202E-011
 -1.810000000000000E-002    2.626356241092046E-011
 -1.800000000000000E-002    3.945687601884417E-011
 -1.790000000000000E-002    4.842012482068106E-011
 -1.780000000000000E-002    5.127985540172161E-011
 -1.770000000000000E-002    4.683668443623459E-011
 -1.760000000000000E-002    3.482334524929716E-011
 -1.750000000000000E-002    1.605468780822314E-011
 -1.740000000000000E-002   -7.565075681144428E-012
 -1.730000000000000E-002   -3.319558413252545E-011
 -1.720000000000000E-002   -5.736917520159087E-011
 -1.710000000000000E-002   -7.642729572286264E-011
 -1.700000000000000E-002   -8.703398912884401E-011
 -1.690000000000000E-002   -8.669890969287797E-011
 -1.680000000000000E-002   -7.423362729164882E-011
 -1.670000000000000E-002   -5.006642741419614E-011
 -1.660000000000000E-002   -1.635378591133087E-011
 -1.650000000000000E-002    2.314960169006701E-011
 -1.640000000000000E-002    6.346884184354974E-011
 -1.630000000000000E-002    9.900499073979080E-011
 -1.620000000000000E-002    1.242842595334576E-010
 -1.610000000000000E-002    1.347655938108694E-010
 -1.600000000000000E-002    1.275932932541464E-010
 -1.590000000000000E-002    1.021780675117829E-010
 -1.580000000000000E-002    6.050338213658127E-011
 -1.570000000000000E-002    7.084199788535668E-012
 -1.560000000000000E-002   -5.145028648345517E-011
 -1.550000000000000E-002   -1.071254025930979E-010
 -1.540000000000000E-002   -1.516623513985584E-010
 -1.530000000000000E-002   -1.776639543880703E-010
 -1.520000000000000E-002   -1.797835625863977E-010
 -1.510000000000000E-002   -1.557017429530670E-010
 -1.500000000000000E-002   -1.067472500497521E-010
 -1.490000000000000E-002   -3.803598504862086E-011
 -1.480000000000000E-002    4.193902222163974E-011
 -1.470000000000000E-002    1.222570674368408E-010
 -1.460000000000000E-002    1.909688918631779E-010
 -1.450000000000000E-002    2.367785863597577E-010
 -1.440000000000000E-002    2.507838497829193E-010
 -1.430000000000000E-002    2.280201453086895E-010
 -1.420000000000000E-002    1.685593363096180E-010
 -1.410000000000000E-002    7.795745763414264E-011
 -1.400000000000000E-002   -3.307612516164658E-011
 -1.390000000000000E-002   -1.498100174274990E-010
 -1.380000000000000E-002   -2.553266524867968E-010
 -1.370000000000000E-002   -3.328518705691468E-010
 -1.360000000000000E-002   -3.682740615114393E-010
 -1.350000000000000E-002   -3.524921989895565E-010
 -1.340000000000000E-002   -2.832251570176886E-010
 -1.330000000000000E-002   -1.659630153431263E-010
 -1.320000000000000E-002   -1.384052121648564E-011
 -1.310000000000000E-002    1.536434441392156E-010
 -1.300000000000000E-002    3.129705592071644E-010
 -1.290000000000000E-002    4.397534467274713E-010
 -1.280000000000000E-002    5.122907430810102E-010
 -1.270000000000000E-002    5.150288942623635E-010
 -1.260000000000000E-002    4.414052110579167E-010
 -1.250000000000000E-002    2.955946406910582E-010
 -1.240000000000000E-002    9.280697476496602E-011
 -1.230000000000000E-002   -1.420304518581189E-010
 -1.220000000000000E-002   -3.771408818844169E-010
 -1.210000000000000E-002   -5.780159502327399E-010
 -1.200000000000000E-002   -7.122705107453520E-010
 -1.190000000000000E-002   -7.545701576005937E-010
 -1.180000000000000E-002   -6.909042342366547E-010
 -1.170000000000000E-002   -5.215195279595518E-010
 -1.160000000000000E-002   -2.619757366637944E-010
 -1.150000000000000E-002    5.797408207718192E-011
 -1.140000000000000E-002    3.976725978409735E-010
 -1.130000000000000E-002    7.106875486263270E-010
 -1.120000000000000E-002    9.511507485020514E-010
 -1.110000000000000E-002    1.080453573303685E-009
 -1.100000000000000E-002    1.073330027924955E-009
 -1.090000000000000E-002    9.223825621670355E-010
 -1.080000000000000E-002    6.402759749632932E-010
 -1.070000000000000E-002    2.591179683035507E-010
 -1.060000000000000E-002   -1.730652829282118E-010
 -1.050000000000000E-002   -5.984205263279375E-010
 -1.040000000000000E-002   -9.571840895515883E-010
 -1.030000000000000E-002   -1.196359537191411E-009
 -1.020000000000000E-002   -1.277908932706097E-009
 -1.010000000000000E-002   -1.185205458579434E-009
 -1.000000000000000E-002   -9.266736675476920E-010
 -9.899999999999999E-003   -5.358998611013256E-010
 -9.800000000000000E-003   -6.797429805290705E-011
 -9.699999999999999E-003    4.076190798930031E-010
 -9.599999999999999E-003    8.167202750168355E-010
 -9.500000000000000E-003    1.091527167222294E-009
 -9.399999999999999E-003    1.181381523297074E-009
 -9.299999999999999E-003    1.061686236608474E-009
 -9.200000000000000E-003    7.395106123858113E-010
 -9.099999999999999E-003    2.548488147522687E-010
 -8.999999999999999E-003   -3.229215530693718E-010
 -8.900000000000000E-003   -9.031514597204064E-010
 -8.799999999999999E-003   -1.385683185407693E-009
 -8.699999999999999E-003   -1.674758591415667E-009
 -8.600000000000000E-003   -1.693165677368195E-009
 -8.499999999999999E-003   -1.394579358183990E-009
 -8.399999999999999E-003   -7.722090757479527E-010
 -8.300000000000000E-003    1.376932141410289E-010
 -8.199999999999999E-003    1.258232825740066E-009
 -8.100000000000000E-003    2.480121251326554E-009
 -8.000000000000000E-003    3.674859219668976E-009
 -7.899999999999999E-003    4.711177270326122E-009
 -7.800000000000000E-003    5.472495208595087E-009
 -7.699999999999999E-003    5.872921566931412E-009
 -7.599999999999999E-003    5.869404523870689E-009
 -7.499999999999999E-003    5.468119928923960E-009
 -7.399999999999999E-003    4.723938334703489E-009
 -7.299999999999999E-003    3.732788739489374E-009
 -7.199999999999999E-003    2.617792242408956E-009
 -7.100000000000000E-003    1.511007000029263E-009
 -6.999999999999999E-003    5.333818842529956E-010
 -6.899999999999999E-003   -2.240859473575752E-010
 -6.800000000000000E-003   -7.149914439513721E-010
 -6.699999999999999E-003   -9.454308773539451E-010
 -6.599999999999999E-003   -9.734793194418645E-010
 -6.499999999999999E-003   -8.996970101206234E-010
 -6.399999999999999E-003   -8.493559815650170E-010
 -6.299999999999999E-003   -9.483726990048051E-010
 -6.199999999999999E-003   -1.295888720726910E-009
 -6.100000000000000E-003   -1.937104544016523E-009
 -5.999999999999999E-003   -2.840124859921444E-009
 -5.899999999999999E-003   -3.880163549821178E-009
 -5.800000000000000E-003   -4.833592272399423E-009
 -5.699999999999999E-003   -5.383017763020997E-009
 -5.599999999999999E-003   -5.133053580604890E-009
 -5.499999999999999E-003   -3.634996658954144E-009
 -5.399999999999999E-003   -4.171096057924330E-010
 -5.299999999999999E-003    4.983497320198987E-009
 -5.199999999999999E-003    1.299195715667765E-008
 -5.099999999999999E-003    2.397396777115498E-008
 -4.999999999999999E-003    3.822460323180869E-008
 -4.899999999999999E-003    5.596988835814836E-008
 -4.799999999999999E-003    7.738101363429319E-008
 -4.699999999999999E-003    1.025998977658188E-007
 -4.599999999999999E-003    1.317726618540780E-007
 -4.499999999999999E-003    1.650864111579124E-007
 -4.399999999999999E-003    2.028041830206688E-007
 -4.299999999999999E-003    2.452928354965516E-007
 -4.199999999999999E-003    2.930394761319586E-007
 -4.099999999999999E-003    3.466534782216093E-007
 -3.999999999999999E-003    4.068533801470670E-007
 -3.899999999999999E-003    4.744396391278410E-007
 -3.799999999999999E-003    5.502567590601444E-007
 -3.699999999999999E-003    6.351500475199135E-007
 -3.599999999999999E-003    7.299224164820190E-007
 -3.499999999999999E-003    8.352984167524731E-007
 -3.399999999999999E-003    9.519002576071146E-007
 -3.299999999999999E-003    1.080240570019626E-006
 -3.199999999999999E-003    1.220732973057777E-006
 -3.099999999999999E-003    1.373720563064118E-006
 -2.999999999999999E-003    1.539518698703997E-006
 -2.899999999999999E-003    1.718467000232297E-006
 -2.799999999999999E-003    1.910983325171337E-006
 -2.699999999999999E-003    2.117612732335700E-006
 -2.599999999999999E-003    2.339065009578887E-006
 -2.499999999999999E-003    2.576234536033581E-006
 -2.399999999999999E-003    2.830200612315139E-006
 -2.299999999999999E-003    3.102206701411397E-006
 -2.199999999999999E-003    3.393623553743726E-006
 -2.099999999999999E-003    3.705899631110662E-006
 -1.999999999999999E-003    4.040507019935891E-006
 -1.899999999999999E-003    4.398890598349006E-006
 -1.799999999999999E-003    4.782429011986268E-006
 -1.699999999999999E-003    5.192413933239599E-006
 -1.599999999999999E-003    5.630050999280892E-006
 -1.499999999999999E-003    6.096482135676458E-006
 -1.399999999999999E-003    6.592831503420631E-006
 -1.299999999999999E-003    7.120263499205458E-006
 -1.199999999999999E-003    7.680050101636523E-006
 -1.099999999999999E-003    8.273635339763584E-006
 -9.999999999999989E-004    8.902689996985911E-006
 -8.999999999999990E-004    9.569151131490023E-006
 -7.999999999999990E-004    1.027523043500516E-005
 -6.999999999999989E-004    1.102341096881905E-005
 -5.999999999999990E-004    1.181640691361288E-005
 -4.999999999999989E-004    1.265711673096061E-005
 -3.999999999999989E-004    1.354856496717374E-005
 -2.999999999999989E-004    1.449383724695915E-005
 -1.999999999999989E-004    1.549603691717243E-005
 -9.999999999999892E-005    1.655825040936526E-005
  1.084202172485504E-018    1.768354274484791E-005
  1.000000000000011E-004    1.887498215113555E-005
  2.000000000000011E-004    2.013568373569111E-005
  3.000000000000011E-004    2.146887543543225E-005
  4.000000000000011E-004    2.287798218804737E-005
  5.000000000000011E-004    2.436670514129994E-005
  6.000000000000011E-004    2.593909722391029E-005
  7.000000000000011E-004    2.759961274370415E-005
  8.000000000000011E-004    2.935313696666153E-005
  9.000000000000012E-004    3.120498826266011E-005
  1.000000000000001E-003    3.316088319643749E-005
  1.100000000000001E-003    3.522689046170686E-005
  1.200000000000001E-003    3.740936290329405E-005
  1.300000000000001E-003    3.971486603272319E-005
  1.400000000000001E-003    4.215012491419454E-005
  1.500000000000001E-003    4.472197266910374E-005
  1.600000000000001E-003    4.743735721098226E-005
  1.700000000000001E-003    5.030334875176284E-005
  1.800000000000001E-003    5.332719978572660E-005
  1.900000000000001E-003    5.651643286117397E-005
  2.000000000000001E-003    5.987893448910815E-005
  2.100000000000001E-003    6.342307434817754E-005
  2.200000000000001E-003    6.715779187095238E-005
  2.300000000000001E-003    7.109269736757154E-005
  2.400000000000001E-003    7.523810969969087E-005
  2.500000000000001E-003    7.960509063401465E-005
  2.600000000000001E-003    8.420540229043971E-005
  2.700000000000001E-003    8.905146217573598E-005
  2.800000000000001E-003    9.415627227515296E-005
  2.900000000000001E-003    9.953330868623795E-005
  3.000000000000001E-003    1.051964616275315E-004
  3.100000000000001E-003    1.111599509137985E-004
  3.200000000000001E-003    1.174382910542881E-004
  3.300000000000001E-003    1.240463041383471E-004
  3.400000000000001E-003    1.309991593225004E-004
  3.500000000000001E-003    1.383124705550519E-004
  3.600000000000001E-003    1.460024429589976E-004
  3.700000000000001E-003    1.540859678672133E-004
  3.800000000000001E-003    1.625808583762079E-004
  3.900000000000001E-003    1.715059223061445E-004
  4.000000000000001E-003    1.808811212952851E-004
  4.100000000000001E-003    1.907276337218097E-004
  4.200000000000001E-003    2.010679039710332E-004
  4.300000000000001E-003    2.119256117672694E-004
  4.400000000000001E-003    2.233256120078762E-004
  4.500000000000001E-003    2.352938573273807E-004
  4.600000000000002E-003    2.478572989839612E-004
  4.700000000000001E-003    2.610437771956707E-004
  4.800000000000001E-003    2.748819289877281E-004
  4.900000000000002E-003    2.894011321844277E-004
  5.000000000000001E-003    3.046315274964995E-004
  5.100000000000001E-003    3.206040472945812E-004
  5.200000000000001E-003    3.373505220488397E-004
  5.300000000000002E-003    3.549037819052891E-004
  5.400000000000001E-003    3.732977907141585E-004
  5.500000000000001E-003    3.925679037372633E-004
  5.600000000000002E-003    4.127509372613756E-004
  5.700000000000001E-003    4.338853808742663E-004
  5.800000000000001E-003    4.560115145925937E-004
  5.900000000000002E-003    4.791713489288424E-004
  6.000000000000001E-003    5.034088054575941E-004
  6.100000000000001E-003    5.287695886866182E-004
  6.200000000000002E-003    5.553012583074179E-004
  6.300000000000002E-003    5.830530174203202E-004
  6.400000000000001E-003    6.120757133153937E-004
  6.500000000000001E-003    6.424218977954206E-004
  6.600000000000002E-003    6.741455944525758E-004
  6.700000000000001E-003    7.073024166059678E-004
  6.800000000000001E-003    7.419497013228511E-004
  6.900000000000002E-003    7.781463636753535E-004
  7.000000000000001E-003    8.159532135564048E-004
  7.100000000000001E-003    8.554328734517870E-004
  7.200000000000002E-003    8.966500968316641E-004
  7.300000000000002E-003    9.396716885650819E-004
  7.400000000000001E-003    9.845667685797292E-004
  7.500000000000001E-003    1.031406737144668E-003
  7.600000000000002E-003    1.080265419207011E-003
  7.700000000000001E-003    1.131218938287906E-003
  7.800000000000001E-003    1.184346000287243E-003
  7.900000000000001E-003    1.239727503832581E-003
  8.000000000000002E-003    1.297446909803618E-003
  8.100000000000001E-003    1.357589972042998E-003
  8.200000000000001E-003    1.420245180982270E-003
  8.300000000000002E-003    1.485503226522658E-003
  8.400000000000001E-003    1.553457488184465E-003
  8.500000000000002E-003    1.624204112208602E-003
  8.600000000000002E-003    1.697841790396977E-003
  8.700000000000001E-003    1.774472153345770E-003
  8.800000000000002E-003    1.854199829832245E-003
  8.900000000000002E-003    1.937132140966753E-003
  9.000000000000001E-003    2.023379625928850E-003
  9.100000000000002E-003    2.113055761818918E-003
  9.200000000000002E-003    2.206276794297701E-003
  9.300000000000001E-003    2.303161972659494E-003
  9.400000000000002E-003    2.403833369574103E-003
  9.500000000000001E-003    2.508415817799788E-003
  9.600000000000001E-003    2.617036783565051E-003
  9.700000000000002E-003    2.729826640313601E-003
  9.800000000000001E-003    2.846918400369433E-003
  9.900000000000001E-003    2.968447783303269E-003
  1.000000000000000E-002    3.094553366035022E-003
  1.010000000000000E-002    3.225377026395723E-003
  1.020000000000000E-002    3.361063554199690E-003
  1.030000000000000E-002    3.501761095417517E-003
  1.040000000000000E-002    3.647621154019104E-003
  1.050000000000000E-002    3.798798697241440E-003
  1.060000000000000E-002    3.955452343631802E-003
  1.070000000000000E-002    4.117744074061604E-003
  1.080000000000000E-002    4.285839514814846E-003
  1.090000000000000E-002    4.459907107940318E-003
  1.100000000000000E-002    4.640119321830476E-003
  1.110000000000000E-002    4.826650727986506E-003
  1.120000000000000E-002    5.019679795545679E-003
  1.130000000000000E-002    5.219386939140832E-003
  1.140000000000000E-002    5.425955663293359E-003
  1.150000000000000E-002    5.639571437896344E-003
  1.160000000000000E-002    5.860422318716595E-003
  1.170000000000000E-002    6.088699091534196E-003
  1.180000000000000E-002    6.324594210726151E-003
  1.190000000000000E-002    6.568303163088979E-003
  1.200000000000000E-002    6.820023647434906E-003
  1.210000000000000E-002    7.079955945899393E-003
  1.220000000000000E-002    7.348303087868877E-003
  1.230000000000000E-002    7.625270247188578E-003
  1.240000000000000E-002    7.911065097909184E-003
  1.250000000000000E-002    8.205897481619037E-003
  1.260000000000000E-002    8.509979309648733E-003
  1.270000000000000E-002    8.823524440672807E-003
  1.280000000000000E-002    9.146749126270295E-003
  1.290000000000000E-002    9.479869760212371E-003
  1.300000000000000E-002    9.823105502184943E-003
  1.310000000000000E-002    1.017667525370369E-002
  1.320000000000000E-002    1.054079897323056E-002
  1.330000000000000E-002    1.091569816575263E-002
  1.340000000000000E-002    1.130159422014085E-002
  1.350000000000000E-002    1.169870962336890E-002
  1.360000000000000E-002    1.210726624013172E-002
  1.370000000000000E-002    1.252748604422523E-002
  1.380000000000000E-002    1.295959107059164E-002
  1.390000000000000E-002    1.340380270682174E-002
  1.400000000000000E-002    1.386034167000418E-002
  1.410000000000000E-002    1.432942839720296E-002
  1.420000000000000E-002    1.481128290789972E-002
  1.430000000000000E-002    1.530612095442649E-002
  1.440000000000000E-002    1.581415913571086E-002
  1.450000000000000E-002    1.633561054320774E-002
  1.460000000000000E-002    1.687068677626381E-002
  1.470000000000000E-002    1.741959581815446E-002
  1.480000000000000E-002    1.798254194226510E-002
  1.490000000000000E-002    1.855972752639189E-002
  1.500000000000000E-002    1.915134968749085E-002
  1.510000000000000E-002    1.975760197454852E-002
  1.520000000000000E-002    2.037867317495502E-002
  1.530000000000000E-002    2.101474813725474E-002
  1.540000000000000E-002    2.166600705937091E-002
  1.550000000000000E-002    2.233262275652616E-002
  1.560000000000000E-002    2.301476441136327E-002
  1.570000000000000E-002    2.371259348727342E-002
  1.580000000000000E-002    2.442626633200479E-002
  1.590000000000000E-002    2.515593141157669E-002
  1.600000000000000E-002    2.590172758471988E-002
  1.610000000000000E-002    2.666378770797696E-002
  1.620000000000000E-002    2.744223652614886E-002
  1.630000000000000E-002    2.823718772104299E-002
  1.640000000000000E-002    2.904874648626750E-002
  1.650000000000000E-002    2.987700745788264E-002
  1.660000000000000E-002    3.072205303825976E-002
  1.670000000000000E-002    3.158395710383361E-002
  1.680000000000000E-002    3.246278233468557E-002
  1.690000000000000E-002    3.335857683026222E-002
  1.700000000000000E-002    3.427137436219417E-002
  1.710000000000000E-002    3.520120150932826E-002
  1.720000000000000E-002    3.614806892873701E-002
  1.730000000000000E-002    3.711196815810044E-002
  1.740000000000000E-002    3.809288661645154E-002
  1.750000000000000E-002    3.909078680933289E-002
  1.760000000000000E-002    4.010561688323655E-002
  1.770000000000000E-002    4.113731436073638E-002
  1.780000000000000E-002    4.218579829759649E-002
  1.790000000000000E-002    4.325096554560155E-002
  1.800000000000000E-002    4.433270081607654E-002
  1.810000000000000E-002    4.543087331065881E-002
  1.820000000000000E-002    4.654532584265109E-002
  1.830000000000000E-002    4.767588360229912E-002
  1.840000000000000E-002    4.882235674775436E-002
  1.850000000000000E-002    4.998453143289551E-002
  1.860000000000000E-002    5.116217521340126E-002
  1.870000000000000E-002    5.235502923424948E-002