 -4.000000000000000E-002    0.000000000000000E+000
 -3.990000000000000E-002    0.000000000000000E+000
 -3.980000000000000E-002    0.000000000000000E+000
 -3.970000000000000E-002    0.000000000000000E+000
 -3.960000000000000E-002    0.000000000000000E+000
 -3.950000000000000E-002    0.000000000000000E+000
 -3.940000000000000E-002    0.000000000000000E+000
 -3.930000000000000E-002    0.000000000000000E+000
 -3.920000000000000E-002    0.000000000000000E+000
 -3.910000000000000E-002    0.000000000000000E+000
 -3.900000000000000E-002    0.000000000000000E+000
 -3.890000000000000E-002   -2.573748143948021E-035
 -3.880000000000000E-002   -6.975131286798935E-034
 -3.870000000000000E-002   -9.326729143698532E-033
 -3.860000000000000E-002   -8.294719847879825E-032
 -3.850000000000000E-002   -5.551074180040904E-031
 -3.840000000000000E-002   -2.990277553570168E-030
 -3.830000000000000E-002   -1.352154112360004E-029
 -3.820000000000000E-002   -5.278979039985249E-029
 -3.810000000000000E-002   -1.814862713574327E-028
 -3.800000000000000E-002   -5.571803852768687E-028
 -3.790000000000000E-002   -1.542618257163849E-027
 -3.780000000000000E-002   -3.875732668301763E-027
 -3.770000000000000E-002   -8.861648244532559E-027
 -3.760000000000000E-002   -1.841649683319249E-026
 -3.750000000000000E-002   -3.453620918343371E-026
 -3.740000000000000E-002   -5.736209301223827E-026
 -3.730000000000000E-002   -8.054249115387536E-026
 -3.720000000000000E-002   -8.230723325699995E-026
 -3.710000000000000E-002   -1.112886533558334E-026
 -3.700000000000000E-002    2.330809196331236E-025
 -3.690000000000000E-002    8.165225826202857E-025
 -3.680000000000000E-002    1.973785396466162E-024
 -3.670000000000000E-002    3.969210570045464E-024
 -3.660000000000000E-002    6.979288474423113E-024
 -3.650000000000000E-002    1.085095288366130E-023
 -3.640000000000000E-002    1.469946293239009E-023
 -3.630000000000000E-002    1.634866747788427E-023
 -3.620000000000000E-002    1.170076805800607E-023
 -3.610000000000000E-002   -5.739237410851956E-024
 -3.600000000000000E-002   -4.477572903494647E-023
 -3.590000000000000E-002   -1.152714651126777E-022
 -3.580000000000000E-002   -2.250131325181843E-022
 -3.570000000000000E-002   -3.740446353799800E-022
 -3.560000000000000E-002   -5.462327140068855E-022
 -3.550000000000000E-002   -6.987277127564570E-022
 -3.540000000000000E-002   -7.514323841260758E-022
 -3.530000000000000E-002   -5.805033448366944E-022
 -3.520000000000000E-002   -2.193442454816210E-023
 -3.510000000000000E-002    1.107252961864696E-021
 -3.500000000000000E-002    2.962736518918479E-021
 -3.490000000000000E-002    5.596794219433231E-021
 -3.480000000000000E-002    8.854111647936736E-021
 -3.470000000000000E-002    1.225196741587874E-020
 -3.460000000000000E-002    1.487167203762849E-020
 -3.450000000000000E-002    1.530403115332317E-020
 -3.440000000000000E-002    1.170477809676095E-020
 -3.430000000000000E-002    2.020369812663914E-021
 -3.420000000000000E-002   -1.556681882978743E-020
 -3.410000000000000E-002   -4.195857030651204E-020
 -3.400000000000000E-002   -7.627049147296017E-020
 -3.390000000000000E-002   -1.148990243786630E-019
 -3.380000000000000E-002   -1.507500384217683E-019
 -3.370000000000000E-002   -1.729424552891775E-019
 -3.360000000000000E-002   -1.673515954059723E-019
 -3.350000000000000E-002   -1.183352754250086E-019
 -3.340000000000000E-002   -1.185587750097843E-020
 -3.330000000000000E-002    1.600468313165655E-019
 -3.320000000000000E-002    3.938629408669314E-019
 -3.310000000000000E-002    6.692024435622733E-019
 -3.300000000000000E-002    9.447462236777739E-019
 -3.290000000000000E-002    1.157289870370969E-018
 -3.280000000000000E-002    1.225690882578827E-018
 -3.270000000000000E-002    1.061177470334227E-018
 -3.260000000000000E-002    5.845873153286262E-019
 -3.250000000000000E-002   -2.503546991198379E-019
 -3.240000000000000E-002   -1.430516881976314E-018
 -3.230000000000000E-002   -2.858480031192417E-018
 -3.220000000000000E-002   -4.335986925707259E-018
 -3.210000000000000E-002   -5.563380562395933E-018
 -3.200000000000000E-002   -6.162227791150882E-018
 -3.190000000000000E-002   -5.725916948729559E-018
 -3.180000000000000E-002   -3.898467931841629E-018
 -3.170000000000000E-002   -4.752981853860771E-019
 -3.160000000000000E-002    4.487968961715179E-018
 -3.150000000000000E-002    1.058005111076877E-017
 -3.140000000000000E-002    1.697875995301937E-017
 -3.130000000000000E-002    2.246422080029275E-017
 -3.120000000000000E-002    2.552428795911077E-017
 -3.110000000000000E-002    2.456425773081837E-017
 -3.100000000000000E-002    1.821432751425448E-017
 -3.090000000000000E-002    5.704271414480445E-018
 -3.080000000000000E-002   -1.275107779546746E-017
 -3.070000000000000E-002   -3.563444761060744E-017
 -3.060000000000000E-002   -5.996879062044789E-017
 -3.050000000000000E-002   -8.140951427455862E-017
 -3.040000000000000E-002   -9.465288998249110E-017
 -3.030000000000000E-002   -9.418269614400214E-017
 -3.020000000000000E-002   -7.531294983969089E-017
 -3.010000000000000E-002   -3.540871556080622E-017
 -3.000000000000000E-002    2.490811921689190E-017
 -2.990000000000000E-002    1.008194005544598E-016
 -2.980000000000000E-002    1.829125247938994E-016
 -2.970000000000000E-002    2.575722006335805E-016
 -2.960000000000000E-002    3.083253954259217E-016
 -2.950000000000000E-002    3.181587191020967E-016
 -2.940000000000000E-002    2.726371863409106E-016
 -2.930000000000000E-002    1.634439440942507E-016
 -2.920000000000000E-002   -8.232393494936717E-018
 -2.910000000000000E-002   -2.291663676366445E-016
 -2.900000000000000E-002   -4.731506465393109E-016
 -2.890000000000000E-002   -7.022569016388664E-016
 -2.880000000000000E-002   -8.706597254339895E-016
 -2.870000000000000E-002   -9.309792814628139E-016
 -2.860000000000000E-002   -8.426049224639281E-016
 -2.850000000000000E-002   -5.809456356304191E-016
 -2.840000000000000E-002   -1.461115653946940E-016
 -2.830000000000000E-002    4.307290864539887E-016
 -2.820000000000000E-002    1.085066266671987E-015
 -2.810000000000000E-002    1.722245868186274E-015
 -2.800000000000000E-002    2.226868751212537E-015
 -2.790000000000000E-002    2.478140853309783E-015
 -2.780000000000000E-002    2.369773665576255E-015
 -2.770000000000000E-002    1.831899074008776E-015
 -2.760000000000000E-002    8.515444611577672E-016
 -2.750000000000000E-002   -5.122672702182585E-016
 -2.740000000000000E-002   -2.122591014585151E-015
 -2.730000000000000E-002   -3.770763542430875E-015
 -2.720000000000000E-002   -5.196142061224314E-015
 -2.710000000000000E-002   -6.118696812508042E-015
 -2.700000000000000E-002   -6.281394812839018E-015
 -2.690000000000000E-002   -5.497045848615682E-015
 -2.680000000000000E-002   -3.692519912944689E-015
 -2.670000000000000E-002   -9.424158207805337E-016
 -2.660000000000000E-002    2.515348115545247E-015
 -2.650000000000000E-002    6.287798962024488E-015
 -2.640000000000000E-002    9.861761872482009E-015
 -2.630000000000000E-002    1.266407002731747E-014
 -2.620000000000000E-002    1.414145671821577E-014
 -2.610000000000000E-002    1.385032657501921E-014
 -2.600000000000000E-002    1.154347535102885E-014
 -2.590000000000000E-002    7.239361156982515E-015
 -2.580000000000000E-002    1.260229462550566E-015
 -2.570000000000000E-002   -5.771548244369544E-015
 -2.560000000000000E-002   -1.298442191859719E-014
 -2.550000000000000E-002   -1.935460863826663E-014
 -2.540000000000000E-002   -2.384037092502081E-014
 -2.530000000000000E-002   -2.553795426288705E-014
 -2.520000000000000E-002   -2.383811926553865E-014
 -2.510000000000000E-002   -1.855942716011552E-014
 -2.500000000000000E-002   -1.003493738290513E-014
 -2.490000000000000E-002    8.668204625843415E-016
 -2.480000000000000E-002    1.279832680624637E-014
 -2.470000000000000E-002    2.406872011440354E-014
 -2.460000000000000E-002    3.284894011055877E-014
 -2.450000000000000E-002    3.742550678840942E-014
 -2.440000000000000E-002    3.647273241155115E-014
 -2.430000000000000E-002    2.930695189884931E-014
 -2.420000000000000E-002    1.608441997178909E-014
 -2.410000000000000E-002   -2.092183341784815E-015
 -2.400000000000000E-002   -2.318586876718254E-014
 -2.390000000000000E-002   -4.437061126939609E-014
 -2.380000000000000E-002   -6.230882536411968E-014
 -2.370000000000000E-002   -7.354257198319019E-014
 -2.360000000000000E-002   -7.496296228663558E-014
 -2.350000000000000E-002   -6.430739178566056E-014
 -2.340000000000000E-002   -4.062336338275437E-014
 -2.330000000000000E-002   -4.632850683560097E-015
 -2.320000000000000E-002    4.106606845250780E-014
 -2.310000000000000E-002    9.201380579993100E-014
 -2.300000000000000E-002    1.421543028181109E-013
 -2.290000000000000E-002    1.843589224441273E-013
 -2.280000000000000E-002    2.111858681301941E-013
 -2.270000000000000E-002    2.158170601592626E-013
 -2.260000000000000E-002    1.930807957693047E-013
 -2.250000000000000E-002    1.404394838518663E-013
 -2.240000000000000E-002    5.880474579287189E-014
 -2.230000000000000E-002   -4.696229180750522E-014
 -2.220000000000000E-002   -1.679904015604501E-013
 -2.210000000000000E-002   -2.918663737407667E-013
 -2.200000000000000E-002   -4.036643207568969E-013
 -2.190000000000000E-002   -4.874948380515171E-013
 -2.180000000000000E-002   -5.284520908334978E-013
 -2.170000000000000E-002   -5.147564797970022E-013
 -2.160000000000000E-002   -4.398251719903283E-013
 -2.150000000000000E-002   -3.039645329131936E-013
 -2.140000000000000E-002   -1.153792677122651E-013
 -2.130000000000000E-002    1.097601397458089E-013
 -2.120000000000000E-002    3.483557036280249E-013
 -2.110000000000000E-002    5.725519084792699E-013
 -2.100000000000000E-002    7.529005997074127E-013
 -2.090000000000000E-002    8.622108553465165E-013
 -2.080000000000000E-002    8.796215745759402E-013
 -2.070000000000000E-002    7.943304900845954E-013
 -2.060000000000000E-002    6.083759873444053E-013
 -2.050000000000000E-002    3.379244419065005E-013
 -2.040000000000000E-002    1.266034533593820E-014
 -2.030000000000000E-002   -3.268874976138091E-013
 -2.020000000000000E-002   -6.339650777911588E-013
 -2.010000000000000E-002   -8.617200904469563E-013
 -2.000000000000000E-002   -9.701124817413071E-013
 -1.990000000000000E-002   -9.326673267330748E-013
 -1.980000000000000E-002   -7.420347041754136E-013
 -1.970000000000000E-002   -4.133661424980988E-013
 -1.960000000000000E-002    1.526458797988279E-014
 -1.950000000000000E-002    4.858243579241101E-013
 -1.940000000000000E-002    9.266188677133055E-013
 -1.930000000000000E-002    1.261383886143846E-012
 -1.920000000000000E-002    1.420130109050377E-012
 -1.910000000000000E-002    1.350341624045289E-012
 -1.900000000000000E-002    1.026906500441690E-012
 -1.890000000000000E-002    4.591897192402364E-013
 -1.880000000000000E-002   -3.060888872949240E-013
 -1.870000000000000E-002   -1.187030652972435E-012
 -1.860000000000000E-002   -2.073988947135178E-012
 -1.850000000000000E-002   -2.841726046173524E-012
 -1.840000000000000E-002   -3.365042287886005E-012
 -1.830000000000000E-002   -3.536023423932663E-012
 -1.820000000000000E-002   -3.280666252163293E-012
 -1.810000000000000E-002   -2.572563159461838E-012
 -1.800000000000000E-002   -1.441522093716943E-012
 -1.790000000000000E-002    2.446509782040675E-014
 -1.780000000000000E-002    1.684708319179398E-012
 -1.770000000000000E-002    3.358666341932401E-012
 -1.760000000000000E-002    4.845076253169585E-012
 -1.750000000000000E-002    5.945434318270145E-012
 -1.740000000000000E-002    6.489212234036759E-012
 -1.730000000000000E-002    6.357803475439621E-012
 -1.720000000000000E-002    5.504171045818868E-012
 -1.710000000000000E-002    3.965467459978959E-012
 -1.700000000000000E-002    1.866537471876331E-012
 -1.690000000000000E-002   -5.868841895518793E-013
 -1.680000000000000E-002   -3.125382353432181E-012
 -1.670000000000000E-002   -5.442455449654455E-012
 -1.660000000000000E-002   -7.228314492320206E-012
 -1.650000000000000E-002   -8.207745947257624E-012
 -1.640000000000000E-002   -8.178136500068761E-012
 -1.630000000000000E-002   -7.043260855490244E-012
 -1.620000000000000E-002   -4.838414256136456E-012
 -1.610000000000000E-002   -1.742811522760664E-012
 -1.600000000000000E-002    1.923999796448523E-012
 -1.590000000000000E-002    5.723624163496880E-012
 -1.580000000000000E-002    9.138336692977013E-012
 -1.570000000000000E-002    1.162665520291638E-011
 -1.560000000000000E-002    1.269068201802948E-011
 -1.550000000000000E-002    1.194865680972379E-011
 -1.540000000000000E-002    9.204249668028967E-012
 -1.530000000000000E-002    4.502966005635608E-012
 -1.520000000000000E-002   -1.834156012588989E-012
 -1.510000000000000E-002   -9.208213637273853E-012
 -1.500000000000000E-002   -1.677745917196313E-011
 -1.490000000000000E-002   -2.353165482983945E-011
 -1.480000000000000E-002   -2.840250159241092E-011
 -1.470000000000000E-002   -3.040108763621611E-011
 -1.460000000000000E-002   -2.876766220985779E-011
 -1.450000000000000E-002   -2.311448307157695E-011
 -1.440000000000000E-002   -1.353987910770184E-011
 -1.430000000000000E-002   -6.919933857427409E-013
 -1.420000000000000E-002    1.423578738248494E-011
 -1.410000000000000E-002    2.958852360935276E-011
 -1.400000000000000E-002    4.341339512520253E-011
 -1.390000000000000E-002    5.369208598923834E-011
 -1.380000000000000E-002    5.861838592336168E-011
 -1.370000000000000E-002    5.688657266488022E-011
 -1.360000000000000E-002    4.794882035884233E-011
 -1.350000000000000E-002    3.219811697839088E-011
 -1.340000000000000E-002    1.103749776746929E-011
 -1.330000000000000E-002   -1.319176799996634E-011
 -1.320000000000000E-002   -3.743297931155048E-011
 -1.310000000000000E-002   -5.827537839848460E-011
 -1.300000000000000E-002   -7.241851596020147E-011
 -1.290000000000000E-002   -7.718236172691890E-011
 -1.280000000000000E-002   -7.099052629117790E-011
 -1.270000000000000E-002   -5.374794093820843E-011
 -1.260000000000000E-002   -2.703946008636910E-011
 -1.250000000000000E-002    5.905850475576072E-012
 -1.240000000000000E-002    4.051076356766449E-011
 -1.230000000000000E-002    7.139477178453877E-011
 -1.220000000000000E-002    9.311483642335329E-011
 -1.210000000000000E-002    1.010116258198917E-010
 -1.200000000000000E-002    9.204144914583762E-011
 -1.190000000000000E-002    6.546083548213720E-011
 -1.180000000000000E-002    2.323680979999375E-011
 -1.170000000000000E-002   -2.991696897585247E-011
 -1.160000000000000E-002   -8.693161536246474E-011
 -1.150000000000000E-002   -1.391938012160086E-010
 -1.140000000000000E-002   -1.777006426821330E-010
 -1.130000000000000E-002   -1.944191248268894E-010
 -1.120000000000000E-002   -1.836611787607568E-010
 -1.110000000000000E-002   -1.432599074202531E-010
 -1.100000000000000E-002   -7.533806189931728E-011
 -1.090000000000000E-002    1.350018263631026E-011
 -1.080000000000000E-002    1.126519856685325E-010
 -1.070000000000000E-002    2.086760240250962E-010
 -1.060000000000000E-002    2.870259355834234E-010
 -1.050000000000000E-002    3.341511266919779E-010
 -1.040000000000000E-002    3.396779101012524E-010
 -1.030000000000000E-002    2.983395247096362E-010
 -1.020000000000000E-002    2.113268922918993E-010
 -1.010000000000000E-002    8.678751186508387E-011
 -1.000000000000000E-002   -6.069496890131424E-011
 -9.899999999999999E-003   -2.116662648493637E-010
 -9.800000000000000E-003   -3.442758417220806E-010
 -9.699999999999999E-003   -4.373686396981245E-010
 -9.599999999999999E-003   -4.737749008249574E-010
 -9.500000000000000E-003   -4.433074212718351E-010
 -9.399999999999999E-003   -3.449724985390635E-010
 -9.299999999999999E-003   -1.879754064287331E-010
 -9.200000000000000E-003    8.750143620921402E-012
 -9.099999999999999E-003    2.185540070773822E-010
 -8.999999999999999E-003    4.104547144613083E-010
 -8.900000000000000E-003    5.534985020149134E-010
 -8.799999999999999E-003    6.215048545619524E-010
 -8.699999999999999E-003    5.974991280429532E-010
 -8.600000000000000E-003    4.771171754957666E-010
 -8.499999999999999E-003    2.703667433039931E-010
 -8.399999999999999E-003    1.330497346465691E-012
 -8.300000000000000E-003   -2.943181102689363E-010
 -8.199999999999999E-003   -5.737867802650247E-010
 -8.100000000000000E-003   -7.930975029347202E-010
 -8.000000000000000E-003   -9.136875101793541E-010
 -7.899999999999999E-003   -9.087121069645945E-010
 -7.800000000000000E-003   -7.680562503606103E-010
 -7.699999999999999E-003   -5.011816440692504E-010
 -7.599999999999999E-003   -1.372036799324254E-010
 -7.499999999999999E-003    2.780239013206370E-010
 -7.399999999999999E-003    6.875936844447427E-010
 -7.299999999999999E-003    1.031329997579227E-009
 -7.199999999999999E-003    1.254631361084541E-009
 -7.100000000000000E-003    1.317089873815135E-009
 -6.999999999999999E-003    1.199547304324195E-009
 -6.899999999999999E-003    9.083967641846833E-010
 -6.800000000000000E-003    4.762805817987301E-010
 -6.699999999999999E-003   -4.116711372190384E-011
 -6.599999999999999E-003   -5.722972750938509E-010
 -6.499999999999999E-003   -1.039316824805479E-009
 -6.399999999999999E-003   -1.369727306347271E-009
 -6.299999999999999E-003   -1.507675128885138E-009
 -6.199999999999999E-003   -1.423463535058765E-009
 -6.100000000000000E-003   -1.119646698340294E-009
 -5.999999999999999E-003   -6.325531785940396E-010
 -5.899999999999999E-003   -2.871410042890045E-011
 -5.800000000000000E-003    6.035754990884813E-010
 -5.699999999999999E-003    1.166572513334439E-009
 -5.599999999999999E-003    1.567632349741382E-009
 -5.499999999999999E-003    1.733898465912810E-009
 -5.399999999999999E-003    1.624892843246282E-009
 -5.299999999999999E-003    1.240957262007105E-009
 -5.199999999999999E-003    6.259996799893837E-010
 -5.099999999999999E-003   -1.362205271473079E-010
 -4.999999999999999E-003   -9.321019880665794E-010
 -4.899999999999999E-003   -1.633370919047823E-009
 -4.799999999999999E-003   -2.115434413150598E-009
 -4.699999999999999E-003   -2.276348406546484E-009
 -4.599999999999999E-003   -2.053594867375360E-009
 -4.499999999999999E-003   -1.436038651552532E-009
 -4.399999999999999E-003   -4.690181775165127E-010
 -4.299999999999999E-003    7.485612132970348E-010
 -4.199999999999999E-003    2.075125093140822E-009
 -4.099999999999999E-003    3.344125104391338E-009
 -3.999999999999999E-003    4.386270205595625E-009
 -3.899999999999999E-003    5.053248267462262E-009
 -3.799999999999999E-003    5.239533588515849E-009
 -3.699999999999999E-003    4.899001538746578E-009
 -3.599999999999999E-003    4.053692668274989E-009
 -3.499999999999999E-003    2.793118365922820E-009
 -3.399999999999999E-003    1.263825890913718E-009
 -3.299999999999999E-003   -3.496223038311749E-010
 -3.199999999999999E-003   -1.849778354016860E-009
 -3.099999999999999E-003   -3.054057360815724E-009
 -2.999999999999999E-003   -3.821072139337694E-009
 -2.899999999999999E-003   -4.071549123978112E-009
 -2.799999999999999E-003   -3.800449567507075E-009
 -2.699999999999999E-003   -3.078059331493771E-009
 -2.599999999999999E-003   -2.039337870404940E-009
 -2.499999999999999E-003   -8.625134330244800E-010
 -2.399999999999999E-003    2.604849762085132E-010
 -2.299999999999999E-003    1.157842112393431E-009
 -2.199999999999999E-003    1.711247625382361E-009
 -2.099999999999999E-003    1.884016082150757E-009
 -1.999999999999999E-003    1.739690492015402E-009
 -1.899999999999999E-003    1.448089056214918E-009
 -1.799999999999999E-003    1.277441823003436E-009
 -1.699999999999999E-003    1.573231492066599E-009
 -1.599999999999999E-003    2.726324999654085E-009
 -1.499999999999999E-003    5.134610289387312E-009
 -1.399999999999999E-003    9.163511783706347E-009
 -1.299999999999999E-003    1.511103203364979E-008
 -1.199999999999999E-003    2.318265809033076E-008
 -1.099999999999999E-003    3.348010295630105E-008
 -9.999999999999989E-004    4.600612235457363E-008
 -8.999999999999990E-004    6.068522822860205E-008
 -7.999999999999990E-004    7.739799336969719E-008
 -6.999999999999989E-004    9.602434802194343E-008
 -5.999999999999990E-004    1.164898685506236E-007
 -4.999999999999989E-004    1.388084421302013E-007
 -3.999999999999989E-004    1.631147578388191E-007
 -2.999999999999989E-004    1.896815468337401E-007
 -1.999999999999989E-004    2.189181022104126E-007
 -9.999999999999892E-005    2.513499378385639E-007
  1.084202172485504E-018    2.875811741113164E-007
  1.000000000000011E-004    3.282448983905390E-007
  2.000000000000011E-004    3.739481079563823E-007
  3.000000000000011E-004    4.252190419853012E-007
  4.000000000000011E-004    4.824647064010870E-007
  5.000000000000011E-004    5.459455759694889E-007
  6.000000000000011E-004    6.157718520474196E-007
  7.000000000000011E-004    6.919225207698835E-007
  8.000000000000011E-004    7.742863324201077E-007
  9.000000000000012E-004    8.627184900676756E-007
  1.000000000000001E-003    9.571068065732275E-007
  1.100000000000001E-003    1.057437331651712E-006
  1.200000000000001E-003    1.163850336781724E-006
  1.300000000000001E-003    1.276678241370283E-006
  1.400000000000001E-003    1.396458922888321E-006
  1.500000000000001E-003    1.523922821824421E-006
  1.600000000000001E-003    1.659953306628651E-006
  1.700000000000001E-003    1.805527281680242E-006
  1.800000000000001E-003    1.961642214855314E-006
  1.900000000000001E-003    2.129241743151890E-006
  2.000000000000001E-003    2.309150569437889E-006
  2.100000000000001E-003    2.502027760972065E-006
  2.200000000000001E-003    2.708349029579853E-006
  2.300000000000001E-003    2.928418479934882E-006
  2.400000000000001E-003    3.162412427075036E-006
  2.500000000000001E-003    3.410449466434766E-006
  2.600000000000001E-003    3.672675906701346E-006
  2.700000000000001E-003    3.949357946907855E-006
  2.800000000000001E-003    4.240965854771780E-006
  2.900000000000001E-003    4.548236815966228E-006
  3.000000000000001E-003    4.872208962175564E-006
  3.100000000000001E-003    5.214219857881330E-006
  3.200000000000001E-003    5.575868229040740E-006
  3.300000000000001E-003    5.958947342710964E-006
  3.400000000000001E-003    6.365351544917526E-006
  3.500000000000001E-003    6.796979782693258E-006
  3.600000000000001E-003    7.255642702153297E-006
  3.700000000000001E-003    7.742989363494518E-006
  3.800000000000001E-003    8.260466806146505E-006
  3.900000000000001E-003    8.809320067647619E-006
  4.000000000000001E-003    9.390630324765049E-006
  4.100000000000001E-003    1.000539194922515E-005
  4.200000000000001E-003    1.065461413087296E-005
  4.300000000000001E-003    1.133943825662209E-005
  4.400000000000001E-003    1.206124654328769E-005
  4.500000000000001E-003    1.282175486874210E-005
  4.600000000000002E-003    1.362307274182891E-005
  4.700000000000001E-003    1.446772246396614E-005
  4.800000000000001E-003    1.535861118523876E-005
  4.900000000000002E-003    1.629896638814386E-005
  5.000000000000001E-003    1.729223552587850E-005
  5.100000000000001E-003    1.834197512604841E-005
  5.200000000000001E-003    1.945174026476468E-005
  5.300000000000002E-003    2.062498902215035E-005
  5.400000000000001E-003    2.186502147284970E-005
  5.500000000000001E-003    2.317496656763442E-005
  5.600000000000002E-003    2.455780790952866E-005
  5.700000000000001E-003    2.601646462268099E-005
  5.800000000000001E-003    2.755389598110259E-005
  5.900000000000002E-003    2.917323901114926E-005
  6.000000000000001E-003    3.087793312326831E-005
  6.100000000000001E-003    3.267184814398956E-005
  6.200000000000002E-003    3.455935483574798E-005
  6.300000000000002E-003    3.654538613381329E-005
  6.400000000000001E-003    3.863541274709227E-005
  6.500000000000001E-003    4.083540316718674E-005
  6.600000000000002E-003    4.315172038927813E-005
  6.700000000000001E-003    4.559101255312968E-005
  6.800000000000001E-003    4.816008739372005E-005
  6.900000000000002E-003    5.086580147477436E-005
  7.000000000000001E-003    5.371498767453384E-005
  7.100000000000001E-003    5.671440601566387E-005
  7.200000000000002E-003    5.987077797554658E-005
  7.300000000000002E-003    6.319082729682742E-005
  7.400000000000001E-003    6.668139327214843E-005
  7.500000000000001E-003    7.034957043678132E-005
  7.600000000000002E-003    7.420284419285063E-005
  7.700000000000001E-003    7.824923308111806E-005
  7.800000000000001E-003    8.249739804881059E-005
  7.900000000000001E-003    8.695671472399132E-005
  8.000000000000002E-003    9.163728145403962E-005
  8.100000000000001E-003    9.654991253038908E-005
  8.200000000000001E-003    1.017060552848848E-004
  8.300000000000002E-003    1.071176756487290E-004
  8.400000000000001E-003    1.127971529331778E-004
  8.500000000000002E-003    1.187571635676262E-004
  8.600000000000002E-003    1.250105752181562E-004
  8.700000000000001E-003    1.315704218499912E-004
  8.800000000000002E-003    1.384498631938056E-004
  8.900000000000002E-003    1.456622426055893E-004
  9.000000000000001E-003    1.532212172077791E-004
  9.100000000000002E-003    1.611407920874284E-004
  9.200000000000002E-003    1.694355757913452E-004
  9.300000000000001E-003    1.781208965091364E-004
  9.400000000000002E-003    1.872128914366451E-004
  9.500000000000001E-003    1.967286808125500E-004
  9.600000000000001E-003    2.066863400322949E-004
  9.700000000000002E-003    2.171049801514340E-004
  9.800000000000001E-003    2.280046209719151E-004
  9.900000000000001E-003    2.394061437091021E-004
  1.000000000000000E-002    2.513311614730808E-004
  1.010000000000000E-002    2.638019321390206E-004
  1.020000000000000E-002    2.768411395151777E-004
  1.030000000000000E-002    2.904719798861863E-004
  1.040000000000000E-002    3.047179657250499E-004
  1.050000000000000E-002    3.196030403400922E-004
  1.060000000000000E-002    3.351516421031008E-004
  1.070000000000000E-002    3.513888150804476E-004
  1.080000000000000E-002    3.683403571817593E-004
  1.090000000000000E-002    3.860330311570384E-004
  1.100000000000000E-002    4.044946687736923E-004
  1.110000000000000E-002    4.237543166541034E-004
  1.120000000000000E-002    4.438423552465962E-004
  1.130000000000000E-002    4.647905041369477E-004
  1.140000000000000E-002    4.866317973092048E-004
  1.150000000000000E-002    5.094005153057091E-004
  1.160000000000000E-002    5.331320346925097E-004
  1.170000000000000E-002    5.578627541062642E-004
  1.180000000000000E-002    5.836299979057453E-004
  1.190000000000000E-002    6.104717735477796E-004
  1.200000000000000E-002    6.384267351971579E-004
  1.210000000000000E-002    6.675343329300927E-004
  1.220000000000000E-002    6.978347322953695E-004
  1.230000000000000E-002    7.293688004006947E-004
  1.240000000000000E-002    7.621784843398803E-004
  1.250000000000000E-002    7.963068647568936E-004
  1.260000000000000E-002    8.317983074063030E-004
  1.270000000000000E-002    8.686986188584850E-004
  1.280000000000000E-002    9.070551952368118E-004
  1.290000000000000E-002    9.469171268317749E-004
  1.300000000000000E-002    9.883350341165157E-004
  1.310000000000000E-002    1.031361087963656E-003
  1.320000000000000E-002    1.076048802217514E-003
  1.330000000000000E-002    1.122453380925987E-003
  1.340000000000000E-002    1.170630742440887E-003
  1.350000000000000E-002    1.220638169574502E-003
  1.360000000000000E-002    1.272533783696224E-003
  1.370000000000000E-002    1.326376617725713E-003
  1.380000000000000E-002    1.382226505037647E-003
  1.390000000000000E-002    1.440144492223819E-003
  1.400000000000000E-002    1.500192485539091E-003
  1.410000000000000E-002    1.562433754255810E-003
  1.420000000000000E-002    1.626932938222330E-003
  1.430000000000000E-002    1.693756026822619E-003
  1.440000000000000E-002    1.762970721696965E-003
  1.450000000000000E-002    1.834646322337292E-003
  1.460000000000000E-002    1.908853668590028E-003
  1.470000000000000E-002    1.985665191016591E-003
  1.480000000000000E-002    2.065154663593118E-003
  1.490000000000000E-002    2.147397233596076E-003
  1.500000000000000E-002    2.232469169843498E-003
  1.510000000000000E-002    2.320447926767151E-003
  1.520000000000000E-002    2.411411704356817E-003
  1.530000000000000E-002    2.505439480904517E-003
  1.540000000000000E-002    2.602611128813562E-003
  1.550000000000000E-002    2.703007682703022E-003
  1.560000000000000E-002    2.806710803249537E-003
  1.570000000000000E-002    2.913803120736332E-003
  1.580000000000000E-002    3.024368621008772E-003
  1.590000000000000E-002    3.138492398256513E-003
  1.600000000000000E-002    3.256260405509403E-003
  1.610000000000000E-002    3.377760195417911E-003
  1.620000000000000E-002    3.503080089235193E-003
  1.630000000000000E-002    3.632309461845246E-003
  1.640000000000000E-002    3.765538480614196E-003
  1.650000000000000E-002    3.902858150643468E-003
  1.660000000000000E-002    4.044359819140160E-003
  1.670000000000000E-002    4.190135249525988E-003
  1.680000000000000E-002    4.340276685687828E-003
  1.690000000000000E-002    4.494875966056361E-003
  1.700000000000000E-002    4.654025247881803E-003
  1.710000000000000E-002    4.817816783645572E-003
  1.720000000000000E-002    4.986343393460047E-003
  1.730000000000000E-002    5.159697168892660E-003
  1.740000000000000E-002    5.337971078681128E-003
  1.750000000000000E-002    5.521257483847909E-003
  1.760000000000000E-002    5.709649161804980E-003
  1.770000000000000E-002    5.903238464245320E-003
  1.780000000000000E-002    6.102118519220616E-003
  1.790000000000000E-002    6.306380835355191E-003
  1.800000000000000E-002    6.516116554690341E-003
  1.810000000000000E-002    6.731416530962107E-003
  1.820000000000000E-002    6.952370325167640E-003
  1.830000000000000E-002    7.179067015049756E-003
  1.840000000000000E-002    7.411593145604937E-003
  1.850000000000000E-002    7.650034630242732E-003
  1.860000000000000E-002    7.894476050332456E-003
  1.870000000000000E-002    8.144999504663105E-003