 -4.000000000000000E-002    0.000000000000000E+000
 -3.990000000000000E-002    0.000000000000000E+000
 -3.980000000000000E-002    0.000000000000000E+000
 -3.970000000000000E-002    0.000000000000000E+000
 -3.960000000000000E-002    0.000000000000000E+000
 -3.950000000000000E-002    0.000000000000000E+000
 -3.940000000000000E-002    0.000000000000000E+000
 -3.930000000000000E-002    0.000000000000000E+000
 -3.920000000000000E-002    0.000000000000000E+000
 -3.910000000000000E-002    0.000000000000000E+000
 -3.900000000000000E-002    0.000000000000000E+000
 -3.890000000000000E-002    0.000000000000000E+000
 -3.880000000000000E-002    0.000000000000000E+000
 -3.870000000000000E-002    0.000000000000000E+000
 -3.860000000000000E-002    0.000000000000000E+000
 -3.850000000000000E-002    0.000000000000000E+000
 -3.840000000000000E-002    0.000000000000000E+000
 -3.830000000000000E-002    0.000000000000000E+000
 -3.820000000000000E-002    0.000000000000000E+000
 -3.810000000000000E-002    0.000000000000000E+000
 -3.800000000000000E-002    0.000000000000000E+000
 -3.790000000000000E-002    0.000000000000000E+000
 -3.780000000000000E-002    0.000000000000000E+000
 -3.770000000000000E-002    0.000000000000000E+000
 -3.760000000000000E-002    0.000000000000000E+000
 -3.750000000000000E-002    0.000000000000000E+000
 -3.740000000000000E-002    0.000000000000000E+000
 -3.730000000000000E-002    0.000000000000000E+000
 -3.720000000000000E-002    0.000000000000000E+000
 -3.710000000000000E-002    0.000000000000000E+000
 -3.700000000000000E-002    0.000000000000000E+000
 -3.690000000000000E-002    0.000000000000000E+000
 -3.680000000000000E-002    0.000000000000000E+000
 -3.670000000000000E-002    0.000000000000000E+000
 -3.660000000000000E-002    0.000000000000000E+000
 -3.650000000000000E-002    0.000000000000000E+000
 -3.640000000000000E-002    0.000000000000000E+000
 -3.630000000000000E-002    0.000000000000000E+000
 -3.620000000000000E-002    0.000000000000000E+000
 -3.610000000000000E-002    0.000000000000000E+000
 -3.600000000000000E-002    0.000000000000000E+000
 -3.590000000000000E-002    0.000000000000000E+000
 -3.580000000000000E-002    0.000000000000000E+000
 -3.570000000000000E-002    0.000000000000000E+000
 -3.560000000000000E-002    0.000000000000000E+000
 -3.550000000000000E-002    0.000000000000000E+000
 -3.540000000000000E-002    0.000000000000000E+000
 -3.530000000000000E-002    0.000000000000000E+000
 -3.520000000000000E-002    0.000000000000000E+000
 -3.510000000000000E-002    0.000000000000000E+000
 -3.500000000000000E-002    0.000000000000000E+000
 -3.490000000000000E-002    0.000000000000000E+000
 -3.480000000000000E-002    0.000000000000000E+000
 -3.470000000000000E-002    0.000000000000000E+000
 -3.460000000000000E-002    0.000000000000000E+000
 -3.450000000000000E-002    0.000000000000000E+000
 -3.440000000000000E-002    0.000000000000000E+000
 -3.430000000000000E-002    0.000000000000000E+000
 -3.420000000000000E-002    0.000000000000000E+000
 -3.410000000000000E-002    0.000000000000000E+000
 -3.400000000000000E-002    0.000000000000000E+000
 -3.390000000000000E-002    0.000000000000000E+000
 -3.380000000000000E-002    0.000000000000000E+000
 -3.370000000000000E-002    0.000000000000000E+000
 -3.360000000000000E-002    0.000000000000000E+000
 -3.350000000000000E-002    0.000000000000000E+000
 -3.340000000000000E-002    0.000000000000000E+000
 -3.330000000000000E-002    0.000000000000000E+000
 -3.320000000000000E-002    0.000000000000000E+000
 -3.310000000000000E-002    0.000000000000000E+000
 -3.300000000000000E-002    0.000000000000000E+000
 -3.290000000000000E-002    0.000000000000000E+000
 -3.280000000000000E-002    0.000000000000000E+000
 -3.270000000000000E-002    0.000000000000000E+000
 -3.260000000000000E-002    0.000000000000000E+000
 -3.250000000000000E-002    0.000000000000000E+000
 -3.240000000000000E-002    0.000000000000000E+000
 -3.230000000000000E-002    0.000000000000000E+000
 -3.220000000000000E-002    0.000000000000000E+000
 -3.210000000000000E-002    0.000000000000000E+000
 -3.200000000000000E-002    0.000000000000000E+000
 -3.190000000000000E-002    0.000000000000000E+000
 -3.180000000000000E-002    0.000000000000000E+000
 -3.170000000000000E-002    0.000000000000000E+000
 -3.160000000000000E-002    0.000000000000000E+000
 -3.150000000000000E-002    0.000000000000000E+000
 -3.140000000000000E-002    0.000000000000000E+000
 -3.130000000000000E-002    0.000000000000000E+000
 -3.120000000000000E-002    0.000000000000000E+000
 -3.110000000000000E-002    0.000000000000000E+000
 -3.100000000000000E-002    0.000000000000000E+000
 -3.090000000000000E-002    0.000000000000000E+000
 -3.080000000000000E-002    0.000000000000000E+000
 -3.070000000000000E-002    0.000000000000000E+000
 -3.060000000000000E-002    0.000000000000000E+000
 -3.050000000000000E-002    0.000000000000000E+000
 -3.040000000000000E-002    0.000000000000000E+000
 -3.030000000000000E-002    0.000000000000000E+000
 -3.020000000000000E-002    0.000000000000000E+000
 -3.010000000000000E-002    0.000000000000000E+000
 -3.000000000000000E-002    0.000000000000000E+000
 -2.990000000000000E-002    0.000000000000000E+000
 -2.980000000000000E-002    0.000000000000000E+000
 -2.970000000000000E-002    0.000000000000000E+000
 -2.960000000000000E-002    0.000000000000000E+000
 -2.950000000000000E-002    0.000000000000000E+000
 -2.940000000000000E-002    0.000000000000000E+000
 -2.930000000000000E-002    0.000000000000000E+000
 -2.920000000000000E-002    0.000000000000000E+000
 -2.910000000000000E-002    0.000000000000000E+000
 -2.900000000000000E-002    0.000000000000000E+000
 -2.890000000000000E-002    0.000000000000000E+000
 -2.880000000000000E-002    0.000000000000000E+000
 -2.870000000000000E-002    0.000000000000000E+000
 -2.860000000000000E-002    0.000000000000000E+000
 -2.850000000000000E-002    0.000000000000000E+000
 -2.840000000000000E-002    0.000000000000000E+000
 -2.830000000000000E-002    0.000000000000000E+000
 -2.820000000000000E-002    0.000000000000000E+000
 -2.810000000000000E-002    0.000000000000000E+000
 -2.800000000000000E-002    0.000000000000000E+000
 -2.790000000000000E-002    0.000000000000000E+000
 -2.780000000000000E-002    0.000000000000000E+000
 -2.770000000000000E-002    0.000000000000000E+000
 -2.760000000000000E-002    0.000000000000000E+000
 -2.750000000000000E-002    0.000000000000000E+000
 -2.740000000000000E-002    0.000000000000000E+000
 -2.730000000000000E-002    6.414635304221270E-048
 -2.720000000000000E-002    1.282927060844254E-047
 -2.710000000000000E-002    6.763422942257716E-047
 -2.700000000000000E-002    6.977244119065092E-047
 -2.690000000000000E-002    6.335780588642965E-047
 -2.680000000000000E-002   -1.282927060844254E-047
 -2.670000000000000E-002   -1.587887882939656E-046
 -2.660000000000000E-002   -4.079435883035367E-046
 -2.650000000000000E-002   -7.773993647817458E-046
 -2.640000000000000E-002   -1.241564314063154E-045
 -2.630000000000000E-002   -1.677932510359604E-045
 -2.620000000000000E-002   -1.914685682114347E-045
 -2.610000000000000E-002   -1.512167974399692E-045
 -2.600000000000000E-002    3.507729727377051E-046
 -2.590000000000000E-002    2.438926713515592E-045
 -2.580000000000000E-002    6.416468494898327E-045
 -2.570000000000000E-002    1.229060150444070E-044
 -2.560000000000000E-002    2.063528255790658E-044
 -2.550000000000000E-002    2.836628454575807E-044
 -2.540000000000000E-002    3.456979318022177E-044
 -2.530000000000000E-002    3.418497552772389E-044
 -2.520000000000000E-002    2.208700493517068E-044
 -2.510000000000000E-002   -9.038329972473214E-045
 -2.500000000000000E-002   -6.568586761554272E-044
 -2.490000000000000E-002   -1.525196531461693E-043
 -2.480000000000000E-002   -2.651323570358879E-043
 -2.470000000000000E-002   -3.901124921165193E-043
 -2.460000000000000E-002   -4.956228655988531E-043
 -2.450000000000000E-002   -5.316322774737902E-043
 -2.440000000000000E-002   -4.261057237488774E-043
 -2.430000000000000E-002   -9.111319618066801E-044
 -2.420000000000000E-002    5.580700229336078E-043
 -2.410000000000000E-002    1.575982823049938E-042
 -2.400000000000000E-002    2.943814256341748E-042
 -2.390000000000000E-002    4.515291043772167E-042
 -2.380000000000000E-002    5.961155315108526E-042
 -2.370000000000000E-002    6.725291294255659E-042
 -2.360000000000000E-002    6.025147415102447E-042
 -2.350000000000000E-002    2.913598741001517E-042
 -2.340000000000000E-002   -3.551082074483039E-042
 -2.330000000000000E-002   -1.401220326538785E-041
 -2.320000000000000E-002   -2.838204368028433E-041
 -2.310000000000000E-002   -4.532041936661072E-041
 -2.300000000000000E-002   -6.169043897062474E-041
 -2.290000000000000E-002   -7.216657866189930E-041
 -2.280000000000000E-002   -6.921776226008986E-041
 -2.270000000000000E-002   -4.373356921112818E-041
 -2.260000000000000E-002    1.340811227704110E-041
 -2.250000000000000E-002    1.086414202624809E-040
 -2.240000000000000E-002    2.418817428511957E-040
 -2.230000000000000E-002    4.018875820278616E-040
 -2.220000000000000E-002    5.616351831615465E-040
 -2.210000000000000E-002    6.750707457743278E-040
 -2.200000000000000E-002    6.771528849782877E-040
 -2.190000000000000E-002    4.894347478814518E-040
 -2.180000000000000E-002    3.333662207919886E-041
 -2.170000000000000E-002   -7.474892788524935E-040
 -2.160000000000000E-002   -1.856046135865774E-039
 -2.150000000000000E-002   -3.205186254106270E-039
 -2.140000000000000E-002   -4.581840989663965E-039
 -2.130000000000000E-002   -5.623131382154537E-039
 -2.120000000000000E-002   -5.818909585603702E-039
 -2.110000000000000E-002   -4.557189409293630E-039
 -2.100000000000000E-002   -1.227435940143721E-039
 -2.090000000000000E-002    4.610026919880489E-039
 -2.080000000000000E-002    1.299349105575760E-038
 -2.070000000000000E-002    2.329339677735283E-038
 -2.060000000000000E-002    3.396087112967291E-038
 -2.050000000000000E-002    4.236974298354009E-038
 -2.040000000000000E-002    4.485328036664359E-038
 -2.030000000000000E-002    3.704564393093387E-038
 -2.020000000000000E-002    1.462197232443858E-038
 -2.010000000000000E-002   -2.552065986792271E-038
 -2.000000000000000E-002   -8.369317677592507E-038
 -1.990000000000000E-002   -1.556431134369529E-037
 -1.980000000000000E-002   -2.309356683386615E-037
 -1.970000000000000E-002   -2.920088931703599E-037
 -1.960000000000000E-002   -3.145510076195924E-037
 -1.950000000000000E-002   -2.698742693164829E-037
 -1.940000000000000E-002   -1.298208491458387E-037
 -1.930000000000000E-002    1.256234138190936E-037
 -1.920000000000000E-002    4.984445157579431E-037
 -1.910000000000000E-002    9.617259963997522E-037
 -1.900000000000000E-002    1.450049234445946E-036
 -1.890000000000000E-002    1.854372660011024E-036
 -1.880000000000000E-002    2.025223045798661E-036
 -1.870000000000000E-002    1.788006656217852E-036
 -1.860000000000000E-002    9.732264203964640E-037
 -1.850000000000000E-002   -5.379133598642757E-037
 -1.840000000000000E-002   -2.755713163632878E-036
 -1.830000000000000E-002   -5.520039284748003E-036
 -1.820000000000000E-002   -8.447677560167740E-036
 -1.810000000000000E-002   -1.090724789735303E-035
 -1.800000000000000E-002   -1.204271460525348E-035
 -1.790000000000000E-002   -1.086540315471112E-035
 -1.780000000000000E-002   -6.427675852092836E-036
 -1.770000000000000E-002    1.922142344718944E-036
 -1.760000000000000E-002    1.422454953388306E-035
 -1.750000000000000E-002    2.958016902830977E-035
 -1.740000000000000E-002    4.588181452678345E-035
 -1.730000000000000E-002    5.970449124480627E-035
 -1.720000000000000E-002    6.646087813054756E-035
 -1.710000000000000E-002    6.091884827742850E-035
 -1.700000000000000E-002    3.813723347471536E-035
 -1.690000000000000E-002   -5.198459481100675E-036
 -1.680000000000000E-002   -6.916530543703922E-035
 -1.670000000000000E-002   -1.489711688549621E-034
 -1.660000000000000E-002   -2.336856863846312E-034
 -1.650000000000000E-002   -3.058180613306815E-034
 -1.640000000000000E-002   -3.422562193289725E-034
 -1.630000000000000E-002   -3.170030424810151E-034
 -1.620000000000000E-002   -2.059228066106727E-034
 -1.610000000000000E-002    6.669306768956672E-036
 -1.600000000000000E-002    3.202624252990595E-034
 -1.590000000000000E-002    7.105396115340442E-034
 -1.580000000000000E-002    1.123767822369696E-033
 -1.570000000000000E-002    1.475454956470131E-033
 -1.560000000000000E-002    1.655586390564526E-033
 -1.550000000000000E-002    1.542273727278626E-033
 -1.540000000000000E-002    1.024509047083553E-033
 -1.530000000000000E-002    3.289640177121025E-035
 -1.520000000000000E-002   -1.425157348513390E-033
 -1.510000000000000E-002   -3.231956979857750E-033
 -1.500000000000000E-002   -5.136292525182268E-033
 -1.490000000000000E-002   -6.750495911523606E-033
 -1.480000000000000E-002   -7.577574388521437E-033
 -1.470000000000000E-002   -7.075612499449167E-033
 -1.460000000000000E-002   -4.761200600021914E-033
 -1.450000000000000E-002   -3.454022507511296E-034
 -1.440000000000000E-002    6.114558776847326E-033
 -1.430000000000000E-002    1.407570741959035E-032
 -1.420000000000000E-002    2.241894869003837E-032
 -1.410000000000000E-002    2.944990188868417E-032
 -1.400000000000000E-002    3.303014701235642E-032
 -1.390000000000000E-002    3.086526064933389E-032
 -1.380000000000000E-002    2.095159390436765E-032
 -1.370000000000000E-002    2.148608285582059E-033
 -1.360000000000000E-002   -2.519890567981576E-032
 -1.350000000000000E-002   -5.870748144205769E-032
 -1.340000000000000E-002   -9.362350289996161E-032
 -1.330000000000000E-002   -1.228805218319959E-031
 -1.320000000000000E-002   -1.376942706642446E-031
 -1.310000000000000E-002   -1.287855166925482E-031
 -1.300000000000000E-002   -8.821753922774350E-032
 -1.290000000000000E-002   -1.169285205611883E-032
 -1.280000000000000E-002    9.901182880601844E-032
 -1.270000000000000E-002    2.339538503518373E-031
 -1.260000000000000E-002    3.738757950985116E-031
 -1.250000000000000E-002    4.906317973127975E-031
 -1.240000000000000E-002    5.497255996276144E-031
 -1.230000000000000E-002    5.152466732557030E-031
 -1.220000000000000E-002    3.570762585295515E-031
 -1.210000000000000E-002    5.968846647161238E-032
 -1.200000000000000E-002   -3.687427830246297E-031
 -1.190000000000000E-002   -8.887882862953084E-031
 -1.180000000000000E-002   -1.426001408923369E-030
 -1.170000000000000E-002   -1.873231265144838E-030
 -1.160000000000000E-002   -2.100853383283767E-030
 -1.150000000000000E-002   -1.975750970020192E-030
 -1.140000000000000E-002   -1.388307565683667E-030
 -1.130000000000000E-002   -2.846624970392607E-031
 -1.120000000000000E-002    1.300687221869615E-030
 -1.110000000000000E-002    3.218774702715830E-030
 -1.100000000000000E-002    5.194546295270934E-030
 -1.090000000000000E-002    6.837607973192686E-030
 -1.080000000000000E-002    7.681364921172143E-030
 -1.070000000000000E-002    7.252725573806978E-030
 -1.060000000000000E-002    5.168858296709355E-030
 -1.050000000000000E-002    1.250452961883021E-030
 -1.040000000000000E-002   -4.366391673417941E-030
 -1.030000000000000E-002   -1.114371626285417E-029
 -1.020000000000000E-002   -1.810802222265382E-029
 -1.010000000000000E-002   -2.389540006601641E-029
 -1.000000000000000E-002   -2.689419163721683E-029
 -9.899999999999999E-003   -2.549006576554391E-029
 -9.800000000000000E-003   -1.839867237183789E-029
 -9.699999999999999E-003   -5.047431216239002E-030
 -9.599999999999999E-003    1.405566483195909E-029
 -9.500000000000000E-003    3.704737224142201E-029
 -9.399999999999999E-003    6.061829683034411E-029
 -9.299999999999999E-003    8.018827209623681E-029
 -9.200000000000000E-003    9.040357203715806E-029
 -9.099999999999999E-003    8.596395112875560E-029
 -8.999999999999999E-003    6.272192818690132E-029
 -8.900000000000000E-003    1.892097312122967E-029
 -8.799999999999999E-003   -4.363439588736153E-029
 -8.699999999999999E-003   -1.187393145577575E-028
 -8.600000000000000E-003   -1.955627843943263E-028
 -8.499999999999999E-003   -2.592867558205698E-028
 -8.399999999999999E-003   -2.927673048718431E-028
 -8.300000000000000E-003   -2.792187144580874E-028
 -8.199999999999999E-003   -2.057124602914620E-028
 -8.100000000000000E-003   -6.704847404717464E-029
 -8.000000000000000E-003    1.306633150247723E-028
 -7.899999999999999E-003    3.675303396013632E-028
 -7.800000000000000E-003    6.093720799472206E-028
 -7.699999999999999E-003    8.099191194004414E-028
 -7.599999999999999E-003    9.161432676773178E-028
 -7.499999999999999E-003    8.766484905404014E-028
 -7.399999999999999E-003    6.524151008939990E-028
 -7.299999999999999E-003    2.284899446967046E-028
 -7.199999999999999E-003   -3.754159066288147E-028
 -7.100000000000000E-003   -1.097883397856473E-027
 -6.999999999999999E-003   -1.834811647668505E-027
 -6.899999999999999E-003   -2.446601005853026E-027
 -6.800000000000000E-003   -2.774595294270069E-027
 -6.699999999999999E-003   -2.666382177074106E-027
 -6.599999999999999E-003   -2.007661897728575E-027
 -6.499999999999999E-003   -7.563909634331297E-028
 -6.399999999999999E-003    1.026851653748002E-027
 -6.299999999999999E-003    3.159413968485766E-027
 -6.199999999999999E-003    5.335163426472204E-027
 -6.100000000000000E-003    7.146838331664634E-027
 -5.999999999999999E-003    8.134878407736335E-027
 -5.899999999999999E-003    7.861070618270886E-027
 -5.800000000000000E-003    5.999959454842036E-027
 -5.699999999999999E-003    2.435405982176661E-027
 -5.599999999999999E-003   -2.655035473939781E-027
 -5.499999999999999E-003   -8.747938163442389E-027
 -5.399999999999999E-003   -1.497358079838732E-026
 -5.299999999999999E-003   -2.018240591676836E-026
 -5.199999999999999E-003   -2.308481180564298E-026
 -5.099999999999999E-003   -2.245832668766311E-026
 -4.999999999999999E-003   -1.740140444493099E-026
 -4.899999999999999E-003   -7.598118564700871E-027
 -4.799999999999999E-003    6.454205536896643E-027
 -4.699999999999999E-003    2.330877480545013E-026
 -4.599999999999999E-003    4.057650827280370E-026
 -4.499999999999999E-003    5.511546058349353E-026
 -4.399999999999999E-003    6.341707227729941E-026
 -4.299999999999999E-003    6.217006043661972E-026
 -4.199999999999999E-003    4.894320850191389E-026
 -4.099999999999999E-003    2.288945524495291E-026
 -3.999999999999999E-003   -1.465715979451003E-026
 -3.899999999999999E-003   -5.983477372414883E-026
 -3.799999999999999E-003   -1.062912144037183E-025
 -3.699999999999999E-003   -1.457028238234092E-025
 -3.599999999999999E-003   -1.688059230984899E-025
 -3.499999999999999E-003   -1.668833925673604E-025
 -3.399999999999999E-003   -1.335466336205313E-025
 -3.299999999999999E-003   -6.655511732591466E-026
 -3.199999999999999E-003    3.066003659145509E-026
 -3.099999999999999E-003    1.481335690622016E-025
 -2.999999999999999E-003    2.695009604329195E-025
 -2.899999999999999E-003    3.733660961168069E-025
 -2.799999999999999E-003    4.359664627015646E-025
 -2.699999999999999E-003    4.349733074107736E-025
 -2.599999999999999E-003    3.540080716816222E-025
 -2.499999999999999E-003    1.872155063833520E-025
 -2.399999999999999E-003   -5.694597256480028E-026
 -2.299999999999999E-003   -3.536026158418447E-025
 -2.199999999999999E-003   -6.618729231879629E-025
 -2.099999999999999E-003   -9.283430986059376E-025
 -1.999999999999999E-003   -1.093735910419970E-024
 -1.899999999999999E-003   -1.102338525008810E-024
 -1.799999999999999E-003   -9.131296633760101E-025
 -1.699999999999999E-003   -5.109707088567557E-025
 -1.599999999999999E-003    8.418991749109074E-026
 -1.499999999999999E-003    8.122889363849661E-025
 -1.399999999999999E-003    1.574244224392547E-024
 -1.299999999999999E-003    2.240470885141594E-024
 -1.199999999999999E-003    2.667054696533060E-024
 -1.099999999999999E-003    2.718465806442429E-024
 -9.999999999999989E-004    2.294229904251823E-024
 -8.999999999999990E-004    1.355618743827864E-024
 -7.999999999999990E-004   -5.251150774793494E-026
 -6.999999999999989E-004   -1.789877388476946E-024
 -5.999999999999990E-004   -3.623445364480451E-024
 -4.999999999999989E-004   -5.247566208291154E-024
 -3.999999999999989E-004   -6.321998430615632E-024
 -2.999999999999989E-004   -6.525098650021121E-024
 -1.999999999999989E-004   -5.616048375261800E-024
 -9.999999999999892E-005   -3.496948774469869E-024
  1.084202172485504E-018   -2.635025790663785E-025
  1.000000000000011E-004    3.767487922883237E-024
  2.000000000000011E-004    8.064070838351791E-024
  3.000000000000011E-004    1.192507747444877E-023
  4.000000000000011E-004    1.456684697748913E-023
  5.000000000000011E-004    1.524431407573920E-023
  6.000000000000011E-004    1.339246394492569E-023
  7.000000000000011E-004    8.767324882954994E-024
  8.000000000000011E-004    1.561128631688577E-024
  9.000000000000012E-004   -7.534657121765253E-024
  1.000000000000001E-003   -1.734124322008101E-023
  1.100000000000001E-003   -2.629362357432477E-023
  1.200000000000001E-003   -3.263248647707213E-023
  1.300000000000001E-003   -3.467240554197906E-023
  1.400000000000001E-003   -3.111528193389332E-023
  1.500000000000001E-003   -2.136305128464752E-023
  1.600000000000001E-003   -5.774114839089827E-024
  1.700000000000001E-003    1.419398208358261E-023
  1.800000000000001E-003    3.600509573509095E-023
  1.900000000000001E-003    5.625925925868583E-023
  2.000000000000001E-003    7.110466788038488E-023
  2.100000000000001E-003    7.681595486924683E-023
  2.200000000000001E-003    7.047146891148932E-023
  2.300000000000001E-003    5.063140418544297E-023
  2.400000000000001E-003    1.789774770212134E-023
  2.500000000000001E-003   -2.476658275154254E-023
  2.600000000000001E-003   -7.206460244167008E-023
  2.700000000000001E-003   -1.168043858729629E-022
  2.800000000000001E-003   -1.507578043136658E-022
  2.900000000000001E-003   -1.658740737399034E-022
  3.000000000000001E-003   -1.557083375158603E-022
  3.100000000000001E-003   -1.168599243463157E-022
  3.200000000000001E-003   -5.017243809548671E-023
  3.300000000000001E-003    3.856047535446742E-023
  3.400000000000001E-003    1.386036967218197E-022
  3.500000000000001E-003    2.351437712955375E-022
  3.600000000000001E-003    3.110246514865182E-022
  3.700000000000001E-003    3.492279034667313E-022
  3.800000000000001E-003    3.358146792817512E-022
  3.900000000000001E-003    2.629117135843122E-022
  4.000000000000001E-003    1.312367901465335E-022
  4.100000000000001E-003   -4.835882655413125E-023
  4.200000000000001E-003   -2.547847895501677E-022
  4.300000000000001E-003   -4.583344303103295E-022
  4.400000000000001E-003   -6.240863548069230E-022
  4.500000000000001E-003   -7.168404524707449E-022
  4.600000000000002E-003   -7.070340039434622E-022
  4.700000000000001E-003   -5.768131726602433E-022
  4.800000000000001E-003   -3.252549916776083E-022
  4.900000000000002E-003    2.830615997903960E-023
  5.000000000000001E-003    4.437634037626435E-022
  5.100000000000001E-003    8.631383189423110E-022
  5.200000000000001E-003    1.217035386383690E-021
  5.300000000000002E-003    1.434203704778846E-021
  5.400000000000001E-003    1.453159613427425E-021
  5.500000000000001E-003    1.234278630514907E-021
  5.600000000000002E-003    7.704070175246898E-022
  5.700000000000001E-003    9.393750967886661E-023
  5.800000000000001E-003   -7.214689421697724E-022
  5.900000000000002E-003   -1.565761637150643E-021
  6.000000000000001E-003   -2.304328820187587E-021
  6.100000000000001E-003   -2.796022476773950E-021
  6.200000000000002E-003   -2.915461171570549E-021
  6.300000000000002E-003   -2.576627624279512E-021
  6.400000000000001E-003   -1.754057393012996E-021
  6.500000000000001E-003   -4.976672750519779E-022
  6.600000000000002E-003    1.062341511205103E-021
  6.700000000000001E-003    2.723030073854120E-021
  6.800000000000001E-003    4.229606401964448E-021
  6.900000000000002E-003    5.308459912792009E-021
  7.000000000000001E-003    5.708953703113511E-021
  7.100000000000001E-003    5.248547955742779E-021
  7.200000000000002E-003    3.854368436209550E-021
  7.300000000000002E-003    1.593774154060906E-021
  7.400000000000001E-003   -1.312954970793835E-021
  7.500000000000001E-003   -4.502884787429105E-021
  7.600000000000002E-003   -7.505768531491420E-021
  7.700000000000001E-003   -9.802827875027169E-021
  7.800000000000001E-003   -1.090320488370034E-020
  7.900000000000001E-003   -1.042848156129334E-020
  8.000000000000002E-003   -8.192779639277422E-021
  8.100000000000001E-003   -4.264644481428657E-021
  8.200000000000001E-003    1.002343097850193E-021
  8.300000000000002E-003    6.980241319349752E-021
  8.400000000000001E-003    1.282367563129491E-020
  8.500000000000002E-003    1.757120932947119E-020
  8.600000000000002E-003    2.028176053186589E-020
  8.700000000000001E-003    2.018965349936055E-020
  8.800000000000002E-003    1.685609336909584E-020
  8.900000000000002E-003    1.029204915594046E-020
  9.000000000000001E-003    1.028166194223257E-021
  9.100000000000002E-003   -9.887888705177449E-021
  9.200000000000002E-003   -2.097761611461941E-020
  9.300000000000001E-003   -3.050063752302410E-020
  9.400000000000002E-003   -3.669205345384406E-020
  9.500000000000001E-003   -3.804083115435567E-020
  9.600000000000001E-003   -3.357077959760656E-020
  9.700000000000002E-003   -2.307964219756958E-020
  9.800000000000001E-003   -7.291385064403393E-021
  9.900000000000001E-003    1.211584351388632E-020
  1.000000000000000E-002    3.262963274174920E-020
  1.010000000000000E-002    5.117449400345952E-020
  1.020000000000000E-002    6.451412709511015E-020
  1.030000000000000E-002    6.974043583708119E-020
  1.040000000000000E-002    6.478461324172372E-020
  1.050000000000000E-002    4.887242681250098E-020
  1.060000000000000E-002    2.284265219438485E-020
  1.070000000000000E-002   -1.074185479535726E-020
  1.080000000000000E-002   -4.773972058336369E-020
  1.090000000000000E-002   -8.284798709092036E-020
  1.100000000000000E-002   -1.102648893813333E-019
  1.110000000000000E-002   -1.245299481783829E-019
  1.120000000000000E-002   -1.214348591509801E-019
  1.130000000000000E-002   -9.887174815480777E-020
  1.140000000000000E-002   -5.747552193583969E-020
  1.150000000000000E-002   -9.288742651189556E-022
  1.160000000000000E-002    6.416722185934031E-020
  1.170000000000000E-002    1.289010590330378E-019
  1.180000000000000E-002    1.831087556136018E-019
  1.190000000000000E-002    2.167838043223821E-019
  1.200000000000000E-002    2.216662940560769E-019
  1.210000000000000E-002    1.927878362557923E-019
  1.220000000000000E-002    1.297244322645828E-019
  1.230000000000000E-002    3.731753488337512E-020
  1.240000000000000E-002   -7.432378043028363E-020
  1.250000000000000E-002   -1.906442985857087E-019
  1.260000000000000E-002   -2.942743252674985E-019
  1.270000000000000E-002   -3.673322477138075E-019
  1.280000000000000E-002   -3.941326866608509E-019
  1.290000000000000E-002   -3.639343305110430E-019
  1.300000000000000E-002   -2.733037299478035E-019
  1.310000000000000E-002   -1.276742458341923E-019
  1.320000000000000E-002    5.825582058540020E-020
  1.330000000000000E-002    2.615075806383778E-019
  1.340000000000000E-002    4.532277107250601E-019
  1.350000000000000E-002    6.023354219568091E-019
  1.360000000000000E-002    6.800155935987820E-019
  1.370000000000000E-002    6.644754073775722E-019
  1.380000000000000E-002    5.452617854610614E-019
  1.390000000000000E-002    3.264131999502986E-019
  1.400000000000000E-002    2.779742646866690E-020
  1.410000000000000E-002   -3.158107550077561E-019
  1.420000000000000E-002   -6.580734625448941E-019
  1.430000000000000E-002   -9.466568169315145E-019
  1.440000000000000E-002   -1.130457853280099E-018
  1.450000000000000E-002   -1.167592235890770E-018
  1.460000000000000E-002   -1.033011742241843E-018
  1.470000000000000E-002   -7.245306647791864E-019
  1.480000000000000E-002   -2.661278122860038E-019
  1.490000000000000E-002    2.923324809434547E-019
  1.500000000000000E-002    8.793737676940455E-019
  1.510000000000000E-002    1.410028501067770E-018
  1.520000000000000E-002    1.797042121773997E-018
  1.530000000000000E-002    1.963837508339036E-018
  1.540000000000000E-002    1.857468977234353E-018
  1.550000000000000E-002    1.459590567620476E-018
  1.560000000000000E-002    7.935157350801328E-019
  1.570000000000000E-002   -7.418110057313019E-020
  1.580000000000000E-002   -1.038423632237428E-018
  1.590000000000000E-002   -1.966801891648031E-018
  1.600000000000000E-002   -2.716208421883660E-018
  1.610000000000000E-002   -3.153075527273358E-018
  1.620000000000000E-002   -3.174570301602892E-018
  1.630000000000000E-002   -2.727644938490547E-018
  1.640000000000000E-002   -1.822837500739651E-018
  1.650000000000000E-002   -5.401226426103682E-019
  1.660000000000000E-002    9.749653961668926E-019
  1.670000000000000E-002    2.525445778035101E-018
  1.680000000000000E-002    3.886286079784587E-018
  1.690000000000000E-002    4.834599348492860E-018
  1.700000000000000E-002    5.182885835709666E-018
  1.710000000000000E-002    4.810718289276288E-018
  1.720000000000000E-002    3.689967781216726E-018
  1.730000000000000E-002    1.899181596338250E-018
  1.740000000000000E-002   -3.761750385175645E-019
  1.750000000000000E-002   -2.859161154367725E-018
  1.760000000000000E-002   -5.211782219559956E-018
  1.770000000000000E-002   -7.077562663197318E-018
  1.780000000000000E-002   -8.131241486255842E-018
  1.790000000000000E-002   -8.129155489095956E-018
  1.800000000000000E-002   -6.953023177923118E-018
  1.810000000000000E-002   -4.640229677460718E-018
  1.820000000000000E-002   -1.394904018667629E-018
  1.830000000000000E-002    2.423605145761308E-018
  1.840000000000000E-002    6.335452317577084E-018
  1.850000000000000E-002    9.795506153529900E-018
  1.860000000000000E-002    1.226322735241292E-017
  1.870000000000000E-002    1.327885927026677E-017