 -4.000000000000000E-002    0.000000000000000E+000
 -3.990000000000000E-002    0.000000000000000E+000
 -3.980000000000000E-002    0.000000000000000E+000
 -3.970000000000000E-002    0.000000000000000E+000
 -3.960000000000000E-002    0.000000000000000E+000
 -3.950000000000000E-002    0.000000000000000E+000
 -3.940000000000000E-002    0.000000000000000E+000
 -3.930000000000000E-002    0.000000000000000E+000
 -3.920000000000000E-002    0.000000000000000E+000
 -3.910000000000000E-002    0.000000000000000E+000
 -3.900000000000000E-002    0.000000000000000E+000
 -3.890000000000000E-002    0.000000000000000E+000
 -3.880000000000000E-002    0.000000000000000E+000
 -3.870000000000000E-002    0.000000000000000E+000
 -3.860000000000000E-002    0.000000000000000E+000
 -3.850000000000000E-002    0.000000000000000E+000
 -3.840000000000000E-002    0.000000000000000E+000
 -3.830000000000000E-002    0.000000000000000E+000
 -3.820000000000000E-002    0.000000000000000E+000
 -3.810000000000000E-002    0.000000000000000E+000
 -3.800000000000000E-002    0.000000000000000E+000
 -3.790000000000000E-002    0.000000000000000E+000
 -3.780000000000000E-002    0.000000000000000E+000
 -3.770000000000000E-002    0.000000000000000E+000
 -3.760000000000000E-002    0.000000000000000E+000
 -3.750000000000000E-002    0.000000000000000E+000
 -3.740000000000000E-002    0.000000000000000E+000
 -3.730000000000000E-002    0.000000000000000E+000
 -3.720000000000000E-002    0.000000000000000E+000
 -3.710000000000000E-002    0.000000000000000E+000
 -3.700000000000000E-002    0.000000000000000E+000
 -3.690000000000000E-002    0.000000000000000E+000
 -3.680000000000000E-002    0.000000000000000E+000
 -3.670000000000000E-002    0.000000000000000E+000
 -3.660000000000000E-002    0.000000000000000E+000
 -3.650000000000000E-002    0.000000000000000E+000
 -3.640000000000000E-002    0.000000000000000E+000
 -3.630000000000000E-002    0.000000000000000E+000
 -3.620000000000000E-002    0.000000000000000E+000
 -3.610000000000000E-002    0.000000000000000E+000
 -3.600000000000000E-002    0.000000000000000E+000
 -3.590000000000000E-002    0.000000000000000E+000
 -3.580000000000000E-002    0.000000000000000E+000
 -3.570000000000000E-002    0.000000000000000E+000
 -3.560000000000000E-002    0.000000000000000E+000
 -3.550000000000000E-002    0.000000000000000E+000
 -3.540000000000000E-002    0.000000000000000E+000
 -3.530000000000000E-002    0.000000000000000E+000
 -3.520000000000000E-002    0.000000000000000E+000
 -3.510000000000000E-002    0.000000000000000E+000
 -3.500000000000000E-002    0.000000000000000E+000
 -3.490000000000000E-002    0.000000000000000E+000
 -3.480000000000000E-002    0.000000000000000E+000
 -3.470000000000000E-002    0.000000000000000E+000
 -3.460000000000000E-002    0.000000000000000E+000
 -3.450000000000000E-002    0.000000000000000E+000
 -3.440000000000000E-002    0.000000000000000E+000
 -3.430000000000000E-002    0.000000000000000E+000
 -3.420000000000000E-002    0.000000000000000E+000
 -3.410000000000000E-002   -1.708295117466251E-046
 -3.400000000000000E-002   -3.801468353185779E-046
 -3.390000000000000E-002   -8.990500058626746E-046
 -3.380000000000000E-002   -1.746782929291579E-045
 -3.370000000000000E-002   -3.119833658568801E-045
 -3.360000000000000E-002   -4.441567305412254E-045
 -3.350000000000000E-002   -3.902022100781458E-045
 -3.340000000000000E-002   -6.535062696926903E-047
 -3.330000000000000E-002    1.236732847734918E-044
 -3.320000000000000E-002    4.170983331319472E-044
 -3.310000000000000E-002    1.020908792801346E-043
 -3.300000000000000E-002    2.058012472773845E-043
 -3.290000000000000E-002    3.622816877431898E-043
 -3.280000000000000E-002    5.600743288113725E-043
 -3.270000000000000E-002    7.358245355100130E-043
 -3.260000000000000E-002    7.276310346541017E-043
 -3.250000000000000E-002    2.112985738085580E-043
 -3.240000000000000E-002   -1.372202773078410E-042
 -3.230000000000000E-002   -4.850726931517748E-042
 -3.220000000000000E-002   -1.125111111380904E-041
 -3.210000000000000E-002   -2.149349581282356E-041
 -3.200000000000000E-002   -3.567976993745930E-041
 -3.190000000000000E-002   -5.176605285072263E-041
 -3.180000000000000E-002   -6.348471787772276E-041
 -3.170000000000000E-002   -5.755826649759767E-041
 -3.160000000000000E-002   -1.074485471850970E-041
 -3.150000000000000E-002    1.119435888347461E-040
 -3.140000000000000E-002    3.553253203214271E-040
 -3.130000000000000E-002    7.644271610356388E-040
 -3.120000000000000E-002    1.361882483711979E-039
 -3.110000000000000E-002    2.106737121569923E-039
 -3.100000000000000E-002    2.831135935352454E-039
 -3.090000000000000E-002    3.157660974378458E-039
 -3.080000000000000E-002    2.412671613526524E-039
 -3.070000000000000E-002   -4.286516587635857E-040
 -3.060000000000000E-002   -6.702252910756910E-039
 -3.050000000000000E-002   -1.782621925348060E-038
 -3.040000000000000E-002   -3.476588536067705E-038
 -3.030000000000000E-002   -5.707895640893589E-038
 -3.020000000000000E-002   -8.148263885983401E-038
 -3.010000000000000E-002   -1.000267279704765E-037
 -3.000000000000000E-002   -9.821478879632594E-038
 -2.990000000000000E-002   -5.380251021478289E-038
 -2.980000000000000E-002    6.251080540703363E-038
 -2.970000000000000E-002    2.827936723236928E-037
 -2.960000000000000E-002    6.320013092008914E-037
 -2.950000000000000E-002    1.110723396986119E-036
 -2.940000000000000E-002    1.669917093768900E-036
 -2.930000000000000E-002    2.179474841708022E-036
 -2.920000000000000E-002    2.396647640013090E-036
 -2.910000000000000E-002    1.946168163150911E-036
 -2.900000000000000E-002    3.307052497847664E-037
 -2.890000000000000E-002   -3.003642603029327E-036
 -2.880000000000000E-002   -8.519655973292692E-036
 -2.870000000000000E-002   -1.633727293058577E-035
 -2.860000000000000E-002   -2.587403027977301E-035
 -2.850000000000000E-002   -3.540914880037169E-035
 -2.840000000000000E-002   -4.165754226428922E-035
 -2.830000000000000E-002   -3.951138652460167E-035
 -2.820000000000000E-002   -2.218380366028074E-035
 -2.810000000000000E-002    1.795093084507144E-035
 -2.800000000000000E-002    8.751787596226134E-035
 -2.790000000000000E-002    1.890882424632243E-034
 -2.780000000000000E-002    3.169311241893282E-034
 -2.770000000000000E-002    4.520029492670983E-034
 -2.760000000000000E-002    5.572070090567775E-034
 -2.750000000000000E-002    5.746856115131699E-034
 -2.740000000000000E-002    4.276284136595710E-034
 -2.730000000000000E-002    2.954700772187218E-035
 -2.720000000000000E-002   -6.961642077983399E-034
 -2.710000000000000E-002   -1.784695162517988E-033
 -2.700000000000000E-002   -3.187150459125454E-033
 -2.690000000000000E-002   -4.721699837944883E-033
 -2.680000000000000E-002   -6.029090182537981E-033
 -2.670000000000000E-002   -6.549408526312289E-033
 -2.660000000000000E-002   -5.542658323920913E-033
 -2.650000000000000E-002   -2.178467917737507E-033
 -2.640000000000000E-002    4.282791193627674E-033
 -2.630000000000000E-002    1.420715171088272E-032
 -2.620000000000000E-002    2.721547894865612E-032
 -2.610000000000000E-002    4.177160562723617E-032
 -2.600000000000000E-002    5.482365280441546E-032
 -2.590000000000000E-002    6.163957014904278E-032
 -2.580000000000000E-002    5.601566722132081E-032
 -2.570000000000000E-002    3.104704923012500E-032
 -2.560000000000000E-002   -1.938931020329598E-032
 -2.550000000000000E-002   -9.839504750687686E-032
 -2.540000000000000E-002   -2.031988089956505E-031
 -2.530000000000000E-002   -3.221038301707203E-031
 -2.520000000000000E-002   -4.319647598859714E-031
 -2.510000000000000E-002   -4.972343054287768E-031
 -2.500000000000000E-002   -4.718319056040827E-031
 -2.490000000000000E-002   -3.050746856472676E-031
 -2.480000000000000E-002    4.745296843880026E-032
 -2.470000000000000E-002    6.080443921492866E-031
 -2.460000000000000E-002    1.357325166845474E-030
 -2.450000000000000E-002    2.214097866770063E-030
 -2.440000000000000E-002    3.019655992050160E-030
 -2.430000000000000E-002    3.533435627492824E-030
 -2.420000000000000E-002    3.447832200284320E-030
 -2.410000000000000E-002    2.429422590948177E-030
 -2.400000000000000E-002    1.909427760807022E-031
 -2.390000000000000E-002   -3.407313603001763E-030
 -2.380000000000000E-002   -8.236559895347778E-030
 -2.370000000000000E-002   -1.377963606954708E-029
 -2.360000000000000E-002   -1.904400762919355E-029
 -2.350000000000000E-002   -2.254850693646468E-029
 -2.340000000000000E-002   -2.242797453504988E-029
 -2.330000000000000E-002   -1.669353291678412E-029
 -2.320000000000000E-002   -3.666478349585434E-030
 -2.310000000000000E-002    1.743111941524584E-029
 -2.300000000000000E-002    4.579518433455188E-029
 -2.290000000000000E-002    7.839189977372051E-029
 -2.280000000000000E-002    1.095244414619224E-028
 -2.270000000000000E-002    1.308352992513249E-028
 -2.260000000000000E-002    1.319702012992846E-028
 -2.250000000000000E-002    1.020799119102668E-028
 -2.240000000000000E-002    3.221672058997247E-029
 -2.230000000000000E-002   -8.151156108383567E-029
 -2.220000000000000E-002   -2.344242954087173E-028
 -2.210000000000000E-002   -4.100684276493443E-028
 -2.200000000000000E-002   -5.782772236971740E-028
 -2.190000000000000E-002   -6.955827207458775E-028
 -2.180000000000000E-002   -7.090371718916988E-028
 -2.170000000000000E-002   -5.641808459771747E-028
 -2.160000000000000E-002   -2.172416541429108E-028
 -2.150000000000000E-002    3.493308496661095E-028
 -2.140000000000000E-002    1.110127107096347E-027
 -2.130000000000000E-002    1.982259917927878E-027
 -2.120000000000000E-002    2.817568513412336E-027
 -2.110000000000000E-002    3.406537225572059E-027
 -2.100000000000000E-002    3.498442129114105E-027
 -2.090000000000000E-002    2.840463457578675E-027
 -2.080000000000000E-002    1.235258272150992E-027
 -2.070000000000000E-002   -1.388092577161256E-027
 -2.060000000000000E-002   -4.900295620914086E-027
 -2.050000000000000E-002   -8.911124973807682E-027
 -2.040000000000000E-002   -1.274171199822420E-026
 -2.030000000000000E-002   -1.545089403148598E-026
 -2.020000000000000E-002   -1.593335004437808E-026
 -2.010000000000000E-002   -1.309833516230935E-026
 -2.000000000000000E-002   -6.123009965147031E-027
 -1.990000000000000E-002    5.245451624795970E-027
 -1.980000000000000E-002    2.038704739128349E-026
 -1.970000000000000E-002    3.757413731826507E-026
 -1.960000000000000E-002    5.388685985300957E-026
 -1.950000000000000E-002    6.536125570639011E-026
 -1.940000000000000E-002    6.743411480199449E-026
 -1.930000000000000E-002    5.570771834385999E-026
 -1.920000000000000E-002    2.699480342258914E-026
 -1.910000000000000E-002   -1.947550052665077E-026
 -1.900000000000000E-002   -8.089497666976900E-026
 -1.890000000000000E-002   -1.500341457382181E-025
 -1.880000000000000E-002   -2.150377735146917E-025
 -1.870000000000000E-002   -2.601597728533773E-025
 -1.860000000000000E-002   -2.676496435016307E-025
 -1.850000000000000E-002   -2.208305521296587E-025
 -1.840000000000000E-002   -1.081600478366394E-025
 -1.830000000000000E-002    7.223492058322090E-026
 -1.820000000000000E-002    3.083597195619426E-025
 -1.810000000000000E-002    5.715412404048469E-025
 -1.800000000000000E-002    8.161545318766225E-025
 -1.790000000000000E-002    9.829199402232021E-025
 -1.780000000000000E-002    1.006415319740823E-024
 -1.770000000000000E-002    8.267712834530966E-025
 -1.760000000000000E-002    4.045936616727725E-025
 -1.750000000000000E-002   -2.629013107983247E-025
 -1.740000000000000E-002   -1.127565557113152E-024
 -1.730000000000000E-002   -2.081564456314482E-024
 -1.720000000000000E-002   -2.958121547979005E-024
 -1.710000000000000E-002   -3.545084168994969E-024
 -1.700000000000000E-002   -3.613087096262130E-024
 -1.690000000000000E-002   -2.957602757514225E-024
 -1.680000000000000E-002   -1.450940435877317E-024
 -1.670000000000000E-002    9.032725597588226E-025
 -1.660000000000000E-002    3.923776279006663E-024
 -1.650000000000000E-002    7.226207682048962E-024
 -1.640000000000000E-002    1.023118522284477E-023
 -1.630000000000000E-002    1.221600321613012E-023
 -1.620000000000000E-002    1.241427778856029E-023
 -1.610000000000000E-002    1.015929392689464E-023
 -1.600000000000000E-002    5.056154120024056E-024
 -1.590000000000000E-002   -2.843292266958285E-024
 -1.580000000000000E-002   -1.289817998641886E-023
 -1.570000000000000E-002   -2.380960366292945E-023
 -1.560000000000000E-002   -3.366379251740889E-023
 -1.550000000000000E-002   -4.011609278629172E-023
 -1.540000000000000E-002   -4.072467447137523E-023
 -1.530000000000000E-002   -3.341480363668364E-023
 -1.520000000000000E-002   -1.702123584381857E-023
 -1.510000000000000E-002    8.176895244005530E-024
 -1.500000000000000E-002    4.004062798857667E-023
 -1.490000000000000E-002    7.439860513829232E-023
 -1.480000000000000E-002    1.052307236440319E-022
 -1.470000000000000E-002    1.252844907070696E-022
 -1.460000000000000E-002    1.271366199465904E-022
 -1.450000000000000E-002    1.046254171555780E-022
 -1.440000000000000E-002    5.448072584536158E-023
 -1.430000000000000E-002   -2.211590946603937E-023
 -1.420000000000000E-002   -1.183771982243074E-022
 -1.410000000000000E-002   -2.215201016384684E-022
 -1.400000000000000E-002   -3.134532963970788E-022
 -1.390000000000000E-002   -3.727338879680773E-022
 -1.380000000000000E-002   -3.777879476181805E-022
 -1.370000000000000E-002   -3.111337416241707E-022
 -1.360000000000000E-002   -1.640667245487154E-022
 -1.350000000000000E-002    5.898895666428247E-023
 -1.340000000000000E-002    3.374270655784183E-022
 -1.330000000000000E-002    6.336953248533557E-022
 -1.320000000000000E-002    8.956474568867470E-022
 -1.310000000000000E-002    1.062459144121238E-021
 -1.300000000000000E-002    1.073979306387162E-021
 -1.290000000000000E-002    8.826683474690394E-022
 -1.280000000000000E-002    4.665186103504443E-022
 -1.270000000000000E-002   -1.593014200727246E-022
 -1.260000000000000E-002   -9.347310532477009E-022
 -1.250000000000000E-002   -1.753658938866254E-021
 -1.240000000000000E-002   -2.471404610776527E-021
 -1.230000000000000E-002   -2.921809626939266E-021
 -1.220000000000000E-002   -2.943295646118829E-021
 -1.210000000000000E-002   -2.411310541857678E-021
 -1.200000000000000E-002   -1.272624045037623E-021
 -1.190000000000000E-002    4.246768430519117E-022
 -1.180000000000000E-002    2.512487984600947E-021
 -1.170000000000000E-002    4.701987091187414E-021
 -1.160000000000000E-002    6.605957875982218E-021
 -1.150000000000000E-002    7.786053495389467E-021
 -1.140000000000000E-002    7.822603220535242E-021
 -1.130000000000000E-002    6.399568098714609E-021
 -1.120000000000000E-002    3.392366754825765E-021
 -1.110000000000000E-002   -1.057503677392094E-021
 -1.100000000000000E-002   -6.498811268270900E-021
 -1.090000000000000E-002   -1.217435678414360E-020
 -1.080000000000000E-002   -1.708380498957946E-020
 -1.070000000000000E-002   -2.010894661667349E-020
 -1.060000000000000E-002   -2.019367859501942E-020
 -1.050000000000000E-002   -1.655858093265540E-020
 -1.040000000000000E-002   -8.918270301828769E-021
 -1.030000000000000E-002    2.338902717941581E-021
 -1.020000000000000E-002    1.605227584786766E-020
 -1.010000000000000E-002    3.031039939674131E-020
 -1.000000000000000E-002    4.261866728874826E-020
 -9.899999999999999E-003    5.021786806340849E-020
 -9.800000000000000E-003    5.053123919348264E-020
 -9.699999999999999E-003    4.168784175469708E-020
 -9.599999999999999E-003    2.304304876980511E-020
 -9.500000000000000E-003   -4.401840630546164E-021
 -9.399999999999999E-003   -3.778357525407240E-020
 -9.299999999999999E-003   -7.245383357583343E-020
 -9.200000000000000E-003   -1.024049685636123E-019
 -9.099999999999999E-003   -1.210487913375255E-019
 -8.999999999999999E-003   -1.222877646497178E-019
 -8.900000000000000E-003   -1.017493511035887E-019
 -8.799999999999999E-003   -5.799360711986471E-020
 -8.699999999999999E-003    6.535099718033640E-021
 -8.600000000000000E-003    8.504713926624815E-020
 -8.499999999999999E-003    1.666357911841624E-019
 -8.399999999999999E-003    2.373110153385621E-019
 -8.300000000000000E-003    2.818336004736735E-019
 -8.199999999999999E-003    2.861956192687562E-019
 -8.100000000000000E-003    2.404399324966424E-019
 -8.000000000000000E-003    1.413796566624570E-019
 -7.899999999999999E-003   -5.300630013883326E-021
 -7.800000000000000E-003   -1.840829653495859E-019
 -7.699999999999999E-003   -3.702210321572093E-019
 -7.599999999999999E-003   -5.321480580824806E-019
 -7.499999999999999E-003   -6.356469192095414E-019
 -7.399999999999999E-003   -6.494121982057005E-019
 -7.299999999999999E-003   -5.513001327321737E-019
 -7.199999999999999E-003   -3.342871563651924E-019
 -7.100000000000000E-003   -1.099876413667471E-020
 -6.999999999999999E-003    3.843131966825154E-019
 -6.899999999999999E-003    7.972439419315593E-019
 -6.800000000000000E-003    1.158627651494231E-018
 -6.699999999999999E-003    1.393707355814665E-018
 -6.599999999999999E-003    1.434233558995067E-018
 -6.499999999999999E-003    1.231940635733632E-018
 -6.399999999999999E-003    7.712795706748826E-019
 -6.299999999999999E-003    7.898356862711728E-020
 -6.199999999999999E-003   -7.718903931154764E-019
 -6.100000000000000E-003   -1.665293174255531E-018
 -5.999999999999999E-003   -2.453802005362850E-018
 -5.899999999999999E-003   -2.978146291624045E-018
 -5.800000000000000E-003   -3.092780825826073E-018
 -5.699999999999999E-003   -2.694201480560170E-018
 -5.599999999999999E-003   -1.747552877469093E-018
 -5.499999999999999E-003   -3.064966917401706E-019
 -5.399999999999999E-003    1.478489225001738E-018
 -5.299999999999999E-003    3.367123927520999E-018
 -5.199999999999999E-003    5.053418332162944E-018
 -5.099999999999999E-003    6.205969109545909E-018
 -4.999999999999999E-003    6.520548492317010E-018
 -4.899999999999999E-003    5.778178011511956E-018
 -4.799999999999999E-003    3.899613288390420E-018
 -4.699999999999999E-003    9.860608028666196E-019
 -4.599999999999999E-003   -2.663585351530346E-018
 -4.499999999999999E-003   -6.566433120060941E-018
 -4.399999999999999E-003   -1.010368342251653E-017
 -4.299999999999999E-003   -1.260126057251267E-017
 -4.199999999999999E-003   -1.343513361841556E-017
 -4.099999999999999E-003   -1.214775045238824E-017
 -3.999999999999999E-003   -8.557560262245777E-018
 -3.899999999999999E-003   -2.841508543186349E-018
 -3.799999999999999E-003    4.428658257174670E-018
 -3.699999999999999E-003    1.231095985568135E-017
 -3.599999999999999E-003    1.958550284896426E-017
 -3.499999999999999E-003    2.491105737613402E-017
 -3.399999999999999E-003    2.703071544440755E-017
 -3.299999999999999E-003    2.500039449571504E-017
 -3.199999999999999E-003    1.840531048820972E-017
 -3.099999999999999E-003    7.525444769347496E-018
 -2.999999999999999E-003   -6.587171984385285E-018
 -2.899999999999999E-003   -2.214807935080775E-017
 -2.799999999999999E-003   -3.681079873867749E-017
 -2.699999999999999E-003   -4.796213403658012E-017
 -2.599999999999999E-003   -5.311431990010952E-017
 -2.499999999999999E-003   -5.034466208066146E-017
 -2.399999999999999E-003   -3.871684496162193E-017
 -2.299999999999999E-003   -1.860979406112140E-017
 -2.199999999999999E-003    8.117087355682281E-018
 -2.099999999999999E-003    3.817812328570030E-017
 -1.999999999999999E-003    6.716345261342379E-017
 -1.899999999999999E-003    9.008064015351743E-017
 -1.799999999999999E-003    1.020859066696961E-016
 -1.699999999999999E-003    9.931493700945273E-017
 -1.599999999999999E-003    7.969145890238029E-017
 -1.499999999999999E-003    4.357513364133262E-017
 -1.399999999999999E-003   -5.886031939654989E-018
 -1.299999999999999E-003   -6.280664399842044E-017
 -1.199999999999999E-003   -1.190771168851310E-016
 -1.099999999999999E-003   -1.653306576994643E-016
 -9.999999999999989E-004   -1.922791759433141E-016
 -8.999999999999990E-004   -1.922578334540820E-016
 -7.999999999999990E-004   -1.607574503747786E-016
 -6.999999999999989E-004   -9.768957819491319E-017
 -5.999999999999990E-004   -8.131694604272597E-018
 -4.999999999999989E-004    9.765524211237095E-017
 -3.999999999999989E-004    2.050585759502924E-016
 -2.999999999999989E-004    2.967965439113229E-016
 -1.999999999999989E-004    3.553132137551804E-016
 -9.999999999999892E-005    3.656081339208822E-016
  1.084202172485504E-018    3.181065391361078E-016
  1.000000000000011E-004    2.111061546268776E-016
  2.000000000000011E-004    5.233159239064733E-017
  3.000000000000011E-004   -1.408016945051838E-016
  4.000000000000011E-004   -3.424642631239611E-016
  5.000000000000011E-004   -5.212681658574384E-016
  6.000000000000011E-004   -6.444876952314374E-016
  7.000000000000011E-004   -6.831734843736137E-016
  8.000000000000011E-004   -6.174684706439012E-016
  9.000000000000012E-004   -4.412908069162018E-016
  1.000000000000001E-003   -1.655193510721222E-016
  1.100000000000001E-003    1.810741211292169E-016
  1.200000000000001E-003    5.536553652682287E-016
  1.300000000000001E-003    8.960592852160480E-016
  1.400000000000001E-003    1.148111252920274E-015
  1.500000000000001E-003    1.254755745220461E-015
  1.600000000000001E-003    1.175792169714246E-015
  1.700000000000001E-003    8.947304762871727E-016
  1.800000000000001E-003    4.251901362736409E-016
  1.900000000000001E-003   -1.865839717558958E-016
  2.000000000000001E-003   -8.641039878554359E-016
  2.100000000000001E-003   -1.508299521154849E-015
  2.200000000000001E-003   -2.010035274037261E-015
  2.300000000000001E-003   -2.266211086795588E-015
  2.400000000000001E-003   -2.197386054661643E-015
  2.500000000000001E-003   -1.764304888171423E-015
  2.600000000000001E-003   -9.804703333738801E-016
  2.700000000000001E-003    8.188968182967466E-017
  2.800000000000001E-003    1.294451313284512E-015
  2.900000000000001E-003    2.484920266407861E-015
  3.000000000000001E-003    3.458147328974311E-015
  3.100000000000001E-003    4.024190565119134E-015
  3.200000000000001E-003    4.029830541652432E-015
  3.300000000000001E-003    3.388953701752514E-015
  3.400000000000001E-003    2.106695348097070E-015
  3.500000000000001E-003    2.924669346963882E-016
  3.600000000000001E-003   -1.841939516032435E-015
  3.700000000000001E-003   -4.001131185901790E-015
  3.800000000000001E-003   -5.841288375884163E-015
  3.900000000000001E-003   -7.018494683882568E-015
  4.000000000000001E-003   -7.244359244733880E-015
  4.100000000000001E-003   -6.340981692487295E-015
  4.200000000000001E-003   -4.286226701894133E-015
  4.300000000000001E-003   -1.240494258966211E-015
  4.400000000000001E-003    2.452140126451094E-015
  4.500000000000001E-003    6.292417833764186E-015
  4.600000000000002E-003    9.683800044589381E-015
  4.700000000000001E-003    1.201471342697010E-014
  4.800000000000001E-003    1.275535937913782E-014
  4.900000000000002E-003    1.155546886809293E-014
  5.000000000000001E-003    8.327222769555822E-015
  5.100000000000001E-003    3.297661361608504E-015
  5.200000000000001E-003   -2.982420085582503E-015
  5.300000000000002E-003   -9.680885533156377E-015
  5.400000000000001E-003   -1.577852006308971E-014
  5.500000000000001E-003   -2.020729941057227E-014
  5.600000000000002E-003   -2.201647717691862E-014
  5.700000000000001E-003   -2.054341703293411E-014
  5.800000000000001E-003   -1.556200025810737E-014
  5.900000000000002E-003   -7.381199725269958E-015
  6.000000000000001E-003    3.129365549094115E-015
  6.100000000000001E-003    1.460142134030432E-014
  6.200000000000002E-003    2.531986542232907E-014
  6.300000000000002E-003    3.345231940445915E-014
  6.400000000000001E-003    3.732988606398177E-014
  6.500000000000001E-003    3.574045965176310E-014
  6.600000000000002E-003    2.818850100870989E-014
  6.700000000000001E-003    1.507420708407651E-014
  6.800000000000001E-003   -2.248292490718380E-015
  6.900000000000002E-003   -2.155990953067576E-014
  7.000000000000001E-003   -4.001841629831477E-014
  7.100000000000001E-003   -5.453458270566372E-014
  7.200000000000002E-003   -6.223953127040993E-014
  7.300000000000002E-003   -6.097945423463723E-014
  7.400000000000001E-003   -4.976068344990367E-014
  7.500000000000001E-003   -2.906579688250333E-014
  7.600000000000002E-003   -9.719538184813596E-016
  7.700000000000001E-003    3.097425371436277E-014
  7.800000000000001E-003    6.213736134657029E-014
  7.900000000000001E-003    8.740072175956517E-014
  8.000000000000002E-003    1.019321648590871E-013
  8.100000000000001E-003    1.020035257215935E-013
  8.200000000000001E-003    8.573743949545020E-014
  8.300000000000002E-003    5.365029180596905E-014
  8.400000000000001E-003    8.876439311993396E-015
  8.500000000000002E-003   -4.300382736207402E-014
  8.600000000000002E-003   -9.455539732465420E-014
  8.700000000000001E-003   -1.374556399028777E-013
  8.800000000000002E-003   -1.637282583806045E-013
  8.900000000000002E-003   -1.670764305690100E-013
  9.000000000000001E-003   -1.441107785164007E-013
  9.100000000000002E-003   -9.525918873286199E-014
  9.200000000000002E-003   -2.517080359683607E-014
  9.300000000000001E-003    5.751426157280800E-014
  9.400000000000002E-003    1.410702595870844E-013
  9.500000000000001E-003    2.122019892659834E-013
  9.600000000000001E-003    2.580000585441394E-013
  9.700000000000002E-003    2.680709385452186E-013
  9.800000000000001E-003    2.365170207802644E-013
  9.900000000000001E-003    1.634269483487048E-013
  1.000000000000000E-002    5.557585513388936E-014
  1.010000000000000E-002   -7.387260546761554E-014
  1.020000000000000E-002   -2.067324709410109E-013
  1.030000000000000E-002   -3.221345532167880E-013
  1.040000000000000E-002   -3.995733257743148E-013
  1.050000000000000E-002   -4.222508849295453E-013
  1.060000000000000E-002   -3.802104048409360E-013
  1.070000000000000E-002   -2.727277227670178E-013
  1.080000000000000E-002   -1.094879435372352E-013
  1.090000000000000E-002    8.978222315687056E-014
  1.100000000000000E-002    2.973431020192786E-013
  1.110000000000000E-002    4.809921305317453E-013
  1.120000000000000E-002    6.087329690868757E-013
  1.130000000000000E-002    6.539352965211652E-013
  1.140000000000000E-002    6.002062450939566E-013
  1.150000000000000E-002    4.451555277022761E-013
  1.160000000000000E-002    2.023236803313252E-013
  1.170000000000000E-002   -9.923877000171171E-014
  1.180000000000000E-002   -4.179313186542965E-013
  1.190000000000000E-002   -7.049011959408913E-013
  1.200000000000000E-002   -9.110794530133813E-013
  1.210000000000000E-002   -9.950084989201074E-013
  1.220000000000000E-002   -9.302877895520275E-013
  1.230000000000000E-002   -7.113972270700795E-013
  1.240000000000000E-002   -3.567913923925831E-013
  1.250000000000000E-002    9.152130366995919E-014
  1.260000000000000E-002    5.722160656389231E-013
  1.270000000000000E-002    1.012423566953601E-012
  1.280000000000000E-002    1.338155746383333E-012
  1.290000000000000E-002    1.485988298353329E-012
  1.300000000000000E-002    1.414254416107625E-012
  1.310000000000000E-002    1.111907503735678E-012
  1.320000000000000E-002    6.033947155902569E-013
  1.330000000000000E-002   -5.164181073107284E-014
  1.340000000000000E-002   -7.643095463369231E-013
  1.350000000000000E-002   -1.427670822167753E-012
  1.360000000000000E-002   -1.931941071261429E-012
  1.370000000000000E-002   -2.181648980264353E-012
  1.380000000000000E-002   -2.112210695048260E-012
  1.390000000000000E-002   -1.703216783090510E-012
  1.400000000000000E-002   -9.859891935267457E-013
  1.410000000000000E-002   -4.364972993648628E-014
  1.420000000000000E-002    9.970368260546132E-013
  1.430000000000000E-002    1.981535619559232E-012
  1.440000000000000E-002    2.749343328908894E-012
  1.450000000000000E-002    3.158813966897899E-012
  1.460000000000000E-002    3.111349302916594E-012
  1.470000000000000E-002    2.571050871623277E-012
  1.480000000000000E-002    1.576286789863924E-012
  1.490000000000000E-002    2.405855792033835E-013
  1.500000000000000E-002   -1.258275542078927E-012
  1.510000000000000E-002   -2.700347751303580E-012
  1.520000000000000E-002   -3.854280940636644E-012
  1.530000000000000E-002   -4.512709335707779E-012
  1.540000000000000E-002   -4.527074653540775E-012
  1.550000000000000E-002   -3.836329371570898E-012
  1.560000000000000E-002   -2.484435811959845E-012
  1.570000000000000E-002   -6.228928589447547E-013
  1.580000000000000E-002    1.503437705052904E-012
  1.590000000000000E-002    3.586448956582458E-012
  1.600000000000000E-002    5.297506852687318E-012
  1.610000000000000E-002    6.337144202173844E-012
  1.620000000000000E-002    6.484511595883353E-012
  1.630000000000000E-002    5.638787964526787E-012
  1.640000000000000E-002    3.845342529598000E-012
  1.650000000000000E-002    1.301227540717249E-012
  1.660000000000000E-002   -1.662622046751876E-012
  1.670000000000000E-002   -4.621668978253275E-012
  1.680000000000000E-002   -7.116111603175063E-012
  1.690000000000000E-002   -8.719655374347305E-012
  1.700000000000000E-002   -9.108806163313920E-012
  1.710000000000000E-002   -8.121882643992468E-012
  1.720000000000000E-002   -5.797654711373756E-012
  1.730000000000000E-002   -2.385882091103256E-012
  1.740000000000000E-002    1.674199373967593E-012
  1.750000000000000E-002    5.806700676195117E-012
  1.760000000000000E-002    9.377507555922765E-012
  1.770000000000000E-002    1.178814079704504E-011
  1.780000000000000E-002    1.257164598837441E-011
  1.790000000000000E-002    1.147572732445393E-011
  1.800000000000000E-002    8.519134961731819E-012
  1.810000000000000E-002    4.010409714995925E-012
  1.820000000000000E-002   -1.476924657331367E-012
  1.830000000000000E-002   -7.172293757279452E-012
  1.840000000000000E-002   -1.221194917948398E-011
  1.850000000000000E-002   -1.576545212733960E-011
  1.860000000000000E-002   -1.716687871969255E-011
  1.870000000000000E-002   -1.603073000554081E-011