 -4.000000000000000E-002    0.000000000000000E+000
 -3.990000000000000E-002    0.000000000000000E+000
 -3.980000000000000E-002    0.000000000000000E+000
 -3.970000000000000E-002    0.000000000000000E+000
 -3.960000000000000E-002    0.000000000000000E+000
 -3.950000000000000E-002    0.000000000000000E+000
 -3.940000000000000E-002    0.000000000000000E+000
 -3.930000000000000E-002    0.000000000000000E+000
 -3.920000000000000E-002    0.000000000000000E+000
 -3.910000000000000E-002    0.000000000000000E+000
 -3.900000000000000E-002    0.000000000000000E+000
 -3.890000000000000E-002    0.000000000000000E+000
 -3.880000000000000E-002    0.000000000000000E+000
 -3.870000000000000E-002    0.000000000000000E+000
 -3.860000000000000E-002    0.000000000000000E+000
 -3.850000000000000E-002    0.000000000000000E+000
 -3.840000000000000E-002    0.000000000000000E+000
 -3.830000000000000E-002    0.000000000000000E+000
 -3.820000000000000E-002    0.000000000000000E+000
 -3.810000000000000E-002    0.000000000000000E+000
 -3.800000000000000E-002    0.000000000000000E+000
 -3.790000000000000E-002    0.000000000000000E+000
 -3.780000000000000E-002    0.000000000000000E+000
 -3.770000000000000E-002    0.000000000000000E+000
 -3.760000000000000E-002    0.000000000000000E+000
 -3.750000000000000E-002    0.000000000000000E+000
 -3.740000000000000E-002    0.000000000000000E+000
 -3.730000000000000E-002    0.000000000000000E+000
 -3.720000000000000E-002    0.000000000000000E+000
 -3.710000000000000E-002    0.000000000000000E+000
 -3.700000000000000E-002    0.000000000000000E+000
 -3.690000000000000E-002    0.000000000000000E+000
 -3.680000000000000E-002    0.000000000000000E+000
 -3.670000000000000E-002    0.000000000000000E+000
 -3.660000000000000E-002    0.000000000000000E+000
 -3.650000000000000E-002    0.000000000000000E+000
 -3.640000000000000E-002    6.414635304221270E-048
 -3.630000000000000E-002    1.282927060844254E-047
 -3.620000000000000E-002    9.408131779524529E-048
 -3.610000000000000E-002    4.276423536147513E-049
 -3.600000000000000E-002   -1.858883385977367E-047
 -3.590000000000000E-002   -3.773878517605500E-047
 -3.580000000000000E-002   -3.128410734096586E-047
 -3.570000000000000E-002    1.435682252463103E-046
 -3.560000000000000E-002    1.283243275844163E-046
 -3.550000000000000E-002    3.462399892633018E-046
 -3.540000000000000E-002   -2.681371787463058E-046
 -3.530000000000000E-002   -3.805356474876664E-045
 -3.520000000000000E-002   -1.408044508210334E-044
 -3.510000000000000E-002   -4.041602495385498E-044
 -3.500000000000000E-002   -1.026989591534000E-043
 -3.490000000000000E-002   -2.312467457596835E-043
 -3.480000000000000E-002   -4.721820537534655E-043
 -3.470000000000000E-002   -8.764373314536868E-043
 -3.460000000000000E-002   -1.454318324896752E-042
 -3.450000000000000E-002   -2.070065130075014E-042
 -3.440000000000000E-002   -2.206113786719380E-042
 -3.430000000000000E-002   -5.299912136271417E-043
 -3.420000000000000E-002    5.794934058339350E-042
 -3.410000000000000E-002    2.204295876632531E-041
 -3.400000000000000E-002    5.684829841809450E-041
 -3.390000000000000E-002    1.223766695176151E-040
 -3.380000000000000E-002    2.321499170418037E-040
 -3.370000000000000E-002    3.936498477812065E-040
 -3.360000000000000E-002    5.912462747189443E-040
 -3.350000000000000E-002    7.537724673005886E-040
 -3.340000000000000E-002    7.014252150640065E-040
 -3.330000000000000E-002    7.110645418545017E-041
 -3.320000000000000E-002   -1.768503667048287E-039
 -3.310000000000000E-002   -5.776385869796005E-039
 -3.300000000000000E-002   -1.319646136032373E-038
 -3.290000000000000E-002   -2.527812442987592E-038
 -3.280000000000000E-002   -4.255860427382989E-038
 -3.270000000000000E-002   -6.345509522611161E-038
 -3.260000000000000E-002   -8.192945959032090E-038
 -3.250000000000000E-002   -8.415142693976310E-038
 -3.240000000000000E-002   -4.451018985190070E-038
 -3.230000000000000E-002    7.786515530602905E-038
 -3.220000000000000E-002    3.396295278094214E-037
 -3.210000000000000E-002    8.066150816437160E-037
 -3.200000000000000E-002    1.534036238431164E-036
 -3.190000000000000E-002    2.526133267380742E-036
 -3.180000000000000E-002    3.668419722436759E-036
 -3.170000000000000E-002    4.630023980747245E-036
 -3.160000000000000E-002    4.744186584433398E-036
 -3.150000000000000E-002    2.894104709613506E-036
 -3.140000000000000E-002   -2.539674597345348E-036
 -3.130000000000000E-002   -1.357719994849425E-035
 -3.120000000000000E-002   -3.225117372049919E-035
 -3.110000000000000E-002   -5.977787218845929E-035
 -3.100000000000000E-002   -9.514628981523348E-035
 -3.090000000000000E-002   -1.330716464547563E-034
 -3.080000000000000E-002   -1.614579063154990E-034
 -3.070000000000000E-002   -1.588563169120001E-034
 -3.060000000000000E-002   -9.290063864341692E-035
 -3.050000000000000E-002    7.869773334099360E-035
 -3.040000000000000E-002    4.024273356872923E-034
 -3.030000000000000E-002    9.160341228136792E-034
 -3.020000000000000E-002    1.626158443232771E-033
 -3.010000000000000E-002    2.475725171859809E-033
 -3.000000000000000E-002    3.303193615145799E-033
 -2.990000000000000E-002    3.800605524782971E-033
 -2.980000000000000E-002    3.484048802905632E-033
 -2.970000000000000E-002    1.697932335459068E-033
 -2.960000000000000E-002   -2.318431515736313E-033
 -2.950000000000000E-002   -9.270042542187361E-033
 -2.940000000000000E-002   -1.952394986903235E-032
 -2.930000000000000E-002   -3.269579759510942E-032
 -2.920000000000000E-002   -4.713095345396111E-032
 -2.910000000000000E-002   -5.936169810055873E-032
 -2.900000000000000E-002   -6.369600305022583E-032
 -2.890000000000000E-002   -5.217585675546084E-032
 -2.880000000000000E-002   -1.521368582133285E-032
 -2.870000000000000E-002    5.675689413890805E-032
 -2.860000000000000E-002    1.703381989261597E-031
 -2.850000000000000E-002    3.248440039164754E-031
 -2.840000000000000E-002    5.068628839754826E-031
 -2.830000000000000E-002    6.845192997966810E-031
 -2.820000000000000E-002    8.029352391089939E-031
 -2.810000000000000E-002    7.831292979237194E-031
 -2.800000000000000E-002    5.271831492740507E-031
 -2.790000000000000E-002   -6.732374119261075E-032
 -2.780000000000000E-002   -1.081222452051266E-030
 -2.770000000000000E-002   -2.535334604607851E-030
 -2.760000000000000E-002   -4.342171445068217E-030
 -2.750000000000000E-002   -6.254708721422509E-030
 -2.740000000000000E-002   -7.824760364606067E-030
 -2.730000000000000E-002   -8.389137141193077E-030
 -2.720000000000000E-002   -7.106060414090820E-030
 -2.710000000000000E-002   -3.064966903445839E-030
 -2.700000000000000E-002    4.512439915667220E-030
 -2.690000000000000E-002    1.597577174730844E-029
 -2.680000000000000E-002    3.087358413687184E-029
 -2.670000000000000E-002    4.755739305701147E-029
 -2.660000000000000E-002    6.285364925840559E-029
 -2.650000000000000E-002    7.193356657138792E-029
 -2.640000000000000E-002    6.853751626093190E-029
 -2.630000000000000E-002    4.571176122755731E-029
 -2.620000000000000E-002   -2.825577090454553E-030
 -2.610000000000000E-002   -8.066734134196534E-029
 -2.600000000000000E-002   -1.861851473067929E-028
 -2.590000000000000E-002   -3.098309324336802E-028
 -2.580000000000000E-002   -4.318660291647983E-028
 -2.570000000000000E-002   -5.213433512691777E-028
 -2.560000000000000E-002   -5.373169710941828E-028
 -2.550000000000000E-002   -4.332358762239113E-028
 -2.540000000000000E-002   -1.652102830286779E-028
 -2.530000000000000E-002    2.957555279583038E-028
 -2.520000000000000E-002    9.484093652219071E-028
 -2.510000000000000E-002    1.744855744093087E-027
 -2.500000000000000E-002    2.576576481185030E-027
 -2.490000000000000E-002    3.267570807878819E-027
 -2.480000000000000E-002    3.580061631151194E-027
 -2.470000000000000E-002    3.237998955769195E-027
 -2.460000000000000E-002    1.971986218755981E-027
 -2.450000000000000E-002   -4.140457363436536E-028
 -2.440000000000000E-002   -3.959173809349376E-027
 -2.430000000000000E-002   -8.456038382441909E-027
 -2.420000000000000E-002   -1.337382332777879E-026
 -2.410000000000000E-002   -1.781797502606200E-026
 -2.400000000000000E-002   -2.055421783324936E-026
 -2.390000000000000E-002   -2.012278049747368E-026
 -2.380000000000000E-002   -1.506007892166217E-026
 -2.370000000000000E-002   -4.228323069983222E-027
 -2.360000000000000E-002    1.277138037850293E-026
 -2.350000000000000E-002    3.515785268799351E-026
 -2.340000000000000E-002    6.058823803581589E-026
 -2.330000000000000E-002    8.495087186991423E-026
 -2.320000000000000E-002    1.024601242527089E-025
 -2.310000000000000E-002    1.061701579257990E-025
 -2.300000000000000E-002    8.898206731516670E-026
 -2.290000000000000E-002    4.513972642337173E-026
 -2.280000000000000E-002   -2.790244156076576E-026
 -2.270000000000000E-002   -1.274927555316107E-025
 -2.260000000000000E-002   -2.440680325915718E-025
 -2.250000000000000E-002   -3.602128038125179E-025
 -2.240000000000000E-002   -4.510365377298238E-025
 -2.230000000000000E-002   -4.863546773823536E-025
 -2.220000000000000E-002   -4.349646168237542E-025
 -2.210000000000000E-002   -2.709649460356191E-025
 -2.200000000000000E-002    1.840723298811875E-026
 -2.190000000000000E-002    4.245030163693907E-025
 -2.180000000000000E-002    9.101812934282651E-025
 -2.170000000000000E-002    1.405962666792962E-024
 -2.160000000000000E-002    1.811589112906216E-024
 -2.150000000000000E-002    2.004863246047090E-024
 -2.140000000000000E-002    1.858818312473624E-024
 -2.130000000000000E-002    1.266870892340187E-024
 -2.120000000000000E-002    1.737438097862405E-025
 -2.110000000000000E-002   -1.392195468490684E-024
 -2.100000000000000E-002   -3.291563544632463E-024
 -2.090000000000000E-002   -5.259384035889572E-024
 -2.080000000000000E-002   -6.911460423600676E-024
 -2.070000000000000E-002   -7.778523968787021E-024
 -2.060000000000000E-002   -7.371688149793036E-024
 -2.050000000000000E-002   -5.277434540059491E-024
 -2.040000000000000E-002   -1.273386264502068E-024
 -2.030000000000000E-002    4.551631104769594E-024
 -2.020000000000000E-002    1.169684287456797E-023
 -2.010000000000000E-002    1.919653905991857E-023
 -2.000000000000000E-002    2.564385496421136E-023
 -1.990000000000000E-002    2.931503980286224E-023
 -1.980000000000000E-002    2.840556421735676E-023
 -1.970000000000000E-002    2.137047105291718E-023
 -1.960000000000000E-002    7.336745343413599E-024
 -1.950000000000000E-002   -1.347102627687939E-023
 -1.940000000000000E-002   -3.937427182300955E-023
 -1.930000000000000E-002   -6.705133599647440E-023
 -1.920000000000000E-002   -9.161392362063508E-023
 -1.910000000000000E-002   -1.070277296825277E-022
 -1.900000000000000E-002   -1.069135892862947E-022
 -1.890000000000000E-002   -8.570006459310665E-023
 -1.880000000000000E-002   -4.001760736045705E-023
 -1.870000000000000E-002    2.986247577721518E-023
 -1.860000000000000E-002    1.188171287553233E-022
 -1.850000000000000E-002    2.162084929687767E-022
 -1.840000000000000E-002    3.060863153647297E-022
 -1.830000000000000E-002    3.685058885704646E-022
 -1.820000000000000E-002    3.820742195793601E-022
 -1.810000000000000E-002    3.276279955885960E-022
 -1.800000000000000E-002    1.926922411188618E-022
 -1.790000000000000E-002   -2.390080923625152E-023
 -1.780000000000000E-002   -3.080842926302318E-022
 -1.770000000000000E-002   -6.283107498199845E-022
 -1.760000000000000E-002   -9.359636202284540E-022
 -1.750000000000000E-002   -1.169191568070772E-021
 -1.740000000000000E-002   -1.260499545026643E-021
 -1.730000000000000E-002   -1.147811266209473E-021
 -1.720000000000000E-002   -7.879473668372538E-022
 -1.710000000000000E-002   -1.706722263954993E-022
 -1.700000000000000E-002    6.692100999823976E-022
 -1.690000000000000E-002    1.644627327764918E-021
 -1.680000000000000E-002    2.616726647419112E-021
 -1.670000000000000E-002    3.405316843985474E-021
 -1.660000000000000E-002    3.810241650255081E-021
 -1.650000000000000E-002    3.642877997555104E-021
 -1.640000000000000E-002    2.764770212604645E-021
 -1.630000000000000E-002    1.128178285640276E-021
 -1.620000000000000E-002   -1.188562013070691E-021
 -1.610000000000000E-002   -3.959030894720597E-021
 -1.600000000000000E-002   -6.808060792228864E-021
 -1.590000000000000E-002   -9.238642276228313E-021
 -1.580000000000000E-002   -1.068918543991843E-020
 -1.570000000000000E-002   -1.061897747328018E-020
 -1.560000000000000E-002   -8.613822798926213E-021
 -1.550000000000000E-002   -4.497732243741296E-021
 -1.540000000000000E-002    1.568427230081312E-021
 -1.530000000000000E-002    9.023290053727471E-021
 -1.520000000000000E-002    1.689777566980655E-020
 -1.510000000000000E-002    2.388104552214631E-020
 -1.500000000000000E-002    2.846729349567060E-020
 -1.490000000000000E-002    2.917804880437021E-020
 -1.480000000000000E-002    2.483930164508580E-020
 -1.470000000000000E-002    1.487704308164921E-020
 -1.460000000000000E-002   -4.181889142248143E-022
 -1.450000000000000E-002   -1.971452617816543E-020
 -1.440000000000000E-002   -4.060514405009988E-020
 -1.430000000000000E-002   -5.976146595813892E-020
 -1.420000000000000E-002   -7.329366592928082E-020
 -1.410000000000000E-002   -7.730656592211827E-020
 -1.400000000000000E-002   -6.860006229072085E-020
 -1.390000000000000E-002   -4.542388925019398E-020
 -1.380000000000000E-002   -8.163928106097804E-021
 -1.370000000000000E-002    4.018159344008426E-020
 -1.360000000000000E-002    9.387466737582480E-020
 -1.350000000000000E-002    1.447692756345015E-019
 -1.340000000000000E-002    1.831572888441481E-019
 -1.330000000000000E-002    1.991039761878988E-019
 -1.320000000000000E-002    1.841548877911220E-019
 -1.310000000000000E-002    1.331998302247916E-019
 -1.300000000000000E-002    4.620002365449243E-020
 -1.290000000000000E-002   -7.056227889960656E-020
 -1.280000000000000E-002   -2.040489968661300E-019
 -1.270000000000000E-002   -3.351190121860957E-019
 -1.260000000000000E-002   -4.404122277693925E-019
 -1.250000000000000E-002   -4.954243469781690E-019
 -1.240000000000000E-002   -4.785120136938196E-019
 -1.230000000000000E-002   -3.753413163284036E-019
 -1.220000000000000E-002   -1.831028912386823E-019
 -1.210000000000000E-002    8.629902113016010E-020
 -1.200000000000000E-002    4.048786046362544E-019
 -1.190000000000000E-002    7.296773305673702E-019
 -1.180000000000000E-002    1.006722085057478E-018
 -1.170000000000000E-002    1.177789508995827E-018
 -1.160000000000000E-002    1.189439287649372E-018
 -1.150000000000000E-002    1.003256644577133E-018
 -1.140000000000000E-002    6.058072663350155E-019
 -1.130000000000000E-002    1.652138039551646E-020
 -1.120000000000000E-002   -7.083067911763607E-019
 -1.110000000000000E-002   -1.476944170236508E-018
 -1.100000000000000E-002   -2.170005874963157E-018
 -1.090000000000000E-002   -2.654650606658408E-018
 -1.080000000000000E-002   -2.804141304055538E-018
 -1.070000000000000E-002   -2.520581635089833E-018
 -1.060000000000000E-002   -1.757630756106853E-018
 -1.050000000000000E-002   -5.393305660165433E-019
 -1.040000000000000E-002    1.028975839258421E-018
 -1.030000000000000E-002    2.761144510985178E-018
 -1.020000000000000E-002    4.404450979257150E-018
 -1.010000000000000E-002    5.667980412356898E-018
 -1.000000000000000E-002    6.263317150941829E-018
 -9.899999999999999E-003    5.953224912151915E-018
 -9.800000000000000E-003    4.601742372373666E-018
 -9.699999999999999E-003    2.217576856733338E-018
 -9.599999999999999E-003   -1.017838133233006E-018
 -9.500000000000000E-003   -4.745430586622461E-018
 -9.399999999999999E-003   -8.452170675858307E-018
 -9.299999999999999E-003   -1.152512935423581E-017
 -9.200000000000000E-003   -1.333291348825774E-017
 -9.099999999999999E-003   -1.332634803728641E-017
 -8.999999999999999E-003   -1.114545206593525E-017
 -8.900000000000000E-003   -6.716167965579091E-018
 -8.799999999999999E-003   -3.187876523145972E-019
 -8.699999999999999E-003    7.388762812659479E-018
 -8.600000000000000E-003    1.540538060491311E-017
 -8.499999999999999E-003    2.248447667409020E-017
 -8.399999999999999E-003    2.729084643408752E-017
 -8.300000000000000E-003    2.860228215449097E-017
 -8.199999999999999E-003    2.553120606317989E-017
 -8.100000000000000E-003    1.773372732178428E-017
 -8.000000000000000E-003    5.569377107948498E-018
 -7.899999999999999E-003   -9.823964521792081E-018
 -7.800000000000000E-003   -2.656815034286154E-017
 -7.699999999999999E-003   -4.221076372041713E-017
 -7.599999999999999E-003   -5.401580052255882E-017
 -7.499999999999999E-003   -5.935468067561164E-017
 -7.399999999999999E-003   -5.615243403763318E-017
 -7.299999999999999E-003   -4.332662728544203E-017
 -7.199999999999999E-003   -2.114620358534877E-017
 -7.100000000000000E-003    8.562675921892174E-018
 -6.999999999999999E-003    4.242512831203699E-017
 -6.899999999999999E-003    7.577792876704415E-017
 -6.800000000000000E-003    1.031854473913584E-016
 -6.699999999999999E-003    1.191736352174191E-016
 -6.599999999999999E-003    1.191028232289045E-016
 -6.499999999999999E-003    1.000632990210993E-016
 -6.399999999999999E-003    6.165333811473526E-017
 -6.299999999999999E-003    6.493331656025155E-018
 -6.199999999999999E-003   -5.965348945641610E-017
 -6.100000000000000E-003   -1.282429609747634E-016
 -5.999999999999999E-003   -1.888213833419278E-016
 -5.899999999999999E-003   -2.303564365160933E-016
 -5.800000000000000E-003   -2.428943399474318E-016
 -5.699999999999999E-003   -2.193348669926225E-016
 -5.599999999999999E-003   -1.570609347003260E-016
 -5.499999999999999E-003   -5.913638622474671E-017
 -5.399999999999999E-003    6.519407050380102E-017
 -5.299999999999999E-003    2.009027597478115E-016
 -5.199999999999999E-003    3.285659688643838E-016
 -5.099999999999999E-003    4.266885337582931E-016
 -4.999999999999999E-003    4.747542961445749E-016
 -4.899999999999999E-003    4.566423494211315E-016
 -4.799999999999999E-003    3.639253959006684E-016
 -4.699999999999999E-003    1.985068503720267E-016
 -4.599999999999999E-003   -2.593447117110947E-017
 -4.499999999999999E-003   -2.841228661149814E-016
 -4.399999999999999E-003   -5.412299963790499E-016
 -4.299999999999999E-003   -7.567729053145556E-016
 -4.199999999999999E-003   -8.900560853810790E-016
 -4.099999999999999E-003   -9.065511049080254E-016
 -3.999999999999999E-003   -7.843570531238522E-016
 -3.899999999999999E-003   -5.197324996220463E-016
 -3.799999999999999E-003   -1.306695758381352E-016
 -3.699999999999999E-003    3.423762238293499E-016
 -3.599999999999999E-003    8.391812919584869E-016
 -3.499999999999999E-003    1.286005154044178E-015
 -3.399999999999999E-003    1.604987763855089E-015
 -3.299999999999999E-003    1.725714751575161E-015
 -3.199999999999999E-003    1.597475445600671E-015
 -3.099999999999999E-003    1.200385861002461E-015
 -2.999999999999999E-003    5.534406958160029E-016
 -2.899999999999999E-003   -2.822678654445288E-016
 -2.799999999999999E-003   -1.206446085381497E-015
 -2.699999999999999E-003   -2.089116803883615E-015
 -2.599999999999999E-003   -2.786310818138729E-015
 -2.499999999999999E-003   -3.160425939919254E-015
 -2.399999999999999E-003   -3.102783620646671E-015
 -2.299999999999999E-003   -2.555166630841874E-015
 -2.199999999999999E-003   -1.526785593457109E-015
 -2.099999999999999E-003   -1.032909385155136E-016
 -1.999999999999999E-003    1.554821147776902E-015
 -1.899999999999999E-003    3.225801324143328E-015
 -1.799999999999999E-003    4.651939076062988E-015
 -1.699999999999999E-003    5.574378806442667E-015
 -1.599999999999999E-003    5.773421511222745E-015
 -1.499999999999999E-003    5.108826761857219E-015
 -1.399999999999999E-003    3.553754605685359E-015
 -1.299999999999999E-003    1.216064417941200E-015
 -1.199999999999999E-003   -1.658302308999413E-015
 -1.099999999999999E-003   -4.703068232607979E-015
 -9.999999999999989E-004   -7.470878576311824E-015
 -8.999999999999990E-004   -9.491109444549474E-015
 -7.999999999999990E-004   -1.033991247124883E-014
 -6.999999999999989E-004   -9.713292917744565E-015
 -5.999999999999990E-004   -7.492205337726861E-015
 -4.999999999999989E-004   -3.788263196423403E-015
 -3.999999999999989E-004    1.039944952447719E-015
 -2.999999999999989E-004    6.406801255620408E-015
 -1.999999999999989E-004    1.155802877035786E-014
 -9.999999999999892E-005    1.566386631090699E-014
  1.084202172485504E-018    1.793750810724957E-014
  1.000000000000011E-004    1.776388384752354E-014
  2.000000000000011E-004    1.482005611513900E-014
  3.000000000000011E-004    9.167193975428141E-015
  4.000000000000011E-004    1.295655704342504E-015
  5.000000000000011E-004   -7.890508094451599E-015
  6.000000000000011E-004   -1.715579236882280E-014
  7.000000000000011E-004   -2.507875244969973E-014
  8.000000000000011E-004   -3.024690375711019E-014
  9.000000000000012E-004   -3.147742986981995E-014
  1.000000000000001E-003   -2.803281629430299E-014
  1.100000000000001E-003   -1.979700548489157E-014
  1.200000000000001E-003   -7.379112673824473E-015
  1.300000000000001E-003    7.881463859904161E-015
  1.400000000000001E-003    2.402282728462217E-014
  1.500000000000001E-003    3.867986083473744E-014
  1.600000000000001E-003    4.939596816962666E-014
  1.700000000000001E-003    5.399113625406671E-014
  1.800000000000001E-003    5.093661695801761E-014
  1.900000000000001E-003    3.967866448883322E-014
  2.000000000000001E-003    2.085424364331551E-014
  2.100000000000001E-003   -3.649495858157999E-015
  2.200000000000001E-003   -3.082166155958950E-014
  2.300000000000001E-003   -5.684503886483141E-014
  2.400000000000001E-003   -7.758017524126914E-014
  2.500000000000001E-003   -8.916260133689654E-014
  2.600000000000001E-003   -8.863520182509102E-014
  2.700000000000001E-003   -7.452194491086320E-014
  2.800000000000001E-003   -4.724630603035188E-014
  2.900000000000001E-003   -9.309418771792395E-015
  3.000000000000001E-003    3.483062209745073E-014
  3.100000000000001E-003    7.919759486158590E-014
  3.200000000000001E-003    1.170265294079909E-013
  3.300000000000001E-003    1.417073699499733E-013
  3.400000000000001E-003    1.478233691598239E-013
  3.500000000000001E-003    1.321352728688251E-013
  3.600000000000001E-003    9.435176317089008E-014
  3.700000000000001E-003    3.754015862939662E-014
  3.800000000000001E-003   -3.193080023473734E-014
  3.900000000000001E-003   -1.049657751268258E-013
  4.000000000000001E-003   -1.708090725335329E-013
  4.100000000000001E-003   -2.184984039342606E-013
  4.200000000000001E-003   -2.385278378857834E-013
  4.300000000000001E-003   -2.244884496346118E-013
  4.400000000000001E-003   -1.744298835530804E-013
  4.500000000000001E-003   -9.169818580462216E-014
  4.600000000000002E-003    1.494241270594519E-014
  4.700000000000001E-003    1.320089501060687E-013
  4.800000000000001E-003    2.428109790456327E-013
  4.900000000000002E-003    3.296356546834972E-013
  5.000000000000001E-003    3.763501743258845E-013
  5.100000000000001E-003    3.710684907207859E-013
  5.200000000000001E-003    3.084780977798463E-013
  5.300000000000002E-003    1.914273808762150E-013
  5.400000000000001E-003    3.144240080828762E-014
  5.500000000000001E-003   -1.520320558347671E-013
  5.600000000000002E-003   -3.336978208892243E-013
  5.700000000000001E-003   -4.856082528523296E-013
  5.800000000000001E-003   -5.811499454930205E-013
  5.900000000000002E-003   -5.992761405295355E-013
  6.000000000000001E-003   -5.283693284268963E-013
  6.100000000000001E-003   -3.690948611829812E-013
  6.200000000000002E-003   -1.356917916173382E-013
  6.300000000000002E-003    1.446748153053583E-013
  6.400000000000001E-003    4.346183480532968E-013
  6.500000000000001E-003    6.911072910504522E-013
  6.600000000000002E-003    8.714192927479189E-013
  6.700000000000001E-003    9.397097301966431E-013
  6.800000000000001E-003    8.732533523404418E-013
  6.900000000000002E-003    6.673635257843069E-013
  7.000000000000001E-003    3.380867750671616E-013
  7.100000000000001E-003   -7.798382195908649E-014
  7.200000000000002E-003   -5.270649073518129E-013
  7.300000000000002E-003   -9.445350935120936E-013
  7.400000000000001E-003   -1.263634779792498E-012
  7.500000000000001E-003   -1.425429246178745E-012
  7.600000000000002E-003   -1.388643427948816E-012
  7.700000000000001E-003   -1.137844084935214E-012
  7.800000000000001E-003   -6.885390052697726E-013
  7.900000000000001E-003   -8.808063581264215E-014
  8.000000000000002E-003    5.882026888015503E-013
  8.100000000000001E-003    1.245563320610982E-012
  8.200000000000001E-003    1.782257671155467E-012
  8.300000000000002E-003    2.104331176479673E-012
  8.400000000000001E-003    2.140752930541031E-012
  8.500000000000002E-003    1.856612421814626E-012
  8.600000000000002E-003    1.262156576543965E-012
  8.700000000000001E-003    4.158600511764122E-013
  8.800000000000002E-003   -5.795619382626730E-013
  8.900000000000002E-003   -1.588295546289148E-012
  9.000000000000001E-003   -2.458759530119040E-012
  9.100000000000002E-003   -3.045090713794166E-012
  9.200000000000002E-003   -3.229921103772153E-012
  9.300000000000001E-003   -2.945089093969196E-012
  9.400000000000002E-003   -2.186912397044261E-012
  9.500000000000001E-003   -1.023147925334224E-012
  9.600000000000001E-003    4.102524121607618E-013
  9.700000000000002E-003    1.923099065030283E-012
  9.800000000000001E-003    3.294553087527876E-012
  9.900000000000001E-003    4.303690353916476E-012
  1.000000000000000E-002    4.763049113293233E-012
  1.010000000000000E-002    4.550326712924373E-012
  1.020000000000000E-002    3.633211775528252E-012
  1.030000000000000E-002    2.082896243018503E-012
  1.040000000000000E-002    7.313207668690208E-014
  1.050000000000000E-002   -2.136412669285005E-012
  1.060000000000000E-002   -4.231443545932238E-012
  1.070000000000000E-002   -5.885579137906500E-012
  1.080000000000000E-002   -6.808722629906356E-012
  1.090000000000000E-002   -6.794428812246500E-012
  1.100000000000000E-002   -5.758952077859809E-012
  1.110000000000000E-002   -3.765256265540585E-012
  1.120000000000000E-002   -1.026926248012608E-012
  1.130000000000000E-002    2.110446273557111E-012
  1.140000000000000E-002    5.209639361684025E-012
  1.150000000000000E-002    7.799784912310651E-012
  1.160000000000000E-002    9.444705421570561E-012
  1.170000000000000E-002    9.812153405641564E-012
  1.180000000000000E-002    8.733475199026785E-012
  1.190000000000000E-002    6.243776928041004E-012
  1.200000000000000E-002    2.594723172257180E-012
  1.210000000000000E-002   -1.764418636173963E-012
  1.220000000000000E-002   -6.237399418143362E-012
  1.230000000000000E-002   -1.015838756914497E-011
  1.240000000000000E-002   -1.288672321771076E-011
  1.250000000000000E-002   -1.390614590864989E-011
  1.260000000000000E-002   -1.291379062405308E-011
  1.270000000000000E-002   -9.884564152357212E-012
  1.280000000000000E-002   -5.098975473859726E-012
  1.290000000000000E-002    8.729587437543627E-013
  1.300000000000000E-002    7.233026671114051E-012
  1.310000000000000E-002    1.305594491156763E-011
  1.320000000000000E-002    1.741831676221737E-011
  1.330000000000000E-002    1.953823305530072E-011
  1.340000000000000E-002    1.890524368094321E-011
  1.350000000000000E-002    1.538022478779826E-011
  1.360000000000000E-002    9.247458579253170E-012
  1.370000000000000E-002    1.207126135504712E-012
  1.380000000000000E-002   -7.695638070950342E-012
  1.390000000000000E-002   -1.619957428147805E-011
  1.400000000000000E-002   -2.299929029466704E-011
  1.410000000000000E-002   -2.693793727229454E-011
  1.420000000000000E-002   -2.719312992279916E-011
  1.430000000000000E-002   -2.342750542434458E-011
  1.440000000000000E-002   -1.587833229873578E-011
  1.450000000000000E-002   -5.367815827886245E-012
  1.460000000000000E-002    6.773798750818250E-012
  1.470000000000000E-002    1.886758383790603E-011
  1.480000000000000E-002    2.911020196681357E-011
  1.490000000000000E-002    3.583440761665281E-011
  1.500000000000000E-002    3.776931887221082E-011
  1.510000000000000E-002    3.426126003163756E-011
  1.520000000000000E-002    2.541891021372749E-011
  1.530000000000000E-002    1.215510645280537E-011
  1.540000000000000E-002   -3.888850280467614E-012
  1.550000000000000E-002   -2.053391052538737E-011
  1.560000000000000E-002   -3.534899644274200E-011
  1.570000000000000E-002   -4.599586667512573E-011
  1.580000000000000E-002   -5.058574259861568E-011
  1.590000000000000E-002   -4.799496736711489E-011
  1.600000000000000E-002   -3.808920596035534E-011
  1.610000000000000E-002   -2.181586953531294E-011
  1.620000000000000E-002   -1.141116316397676E-012
  1.630000000000000E-002    2.117029840146409E-011
  1.640000000000000E-002    4.191079412815947E-011
  1.650000000000000E-002    5.787769842797675E-011
  1.660000000000000E-002    6.635234848243349E-011
  1.670000000000000E-002    6.554097478749258E-011
  1.680000000000000E-002    5.490848646079660E-011
  1.690000000000000E-002    3.534749090598651E-011
  1.700000000000000E-002    9.145551879839692E-012
  1.710000000000000E-002   -2.025859899403483E-011
  1.720000000000000E-002   -4.870814223708885E-011
  1.730000000000000E-002   -7.189896335092810E-011
  1.740000000000000E-002   -8.601216273861706E-011
  1.750000000000000E-002   -8.831781501332835E-011
  1.760000000000000E-002   -7.765766906056660E-011
  1.770000000000000E-002   -5.472606763128363E-011
  1.780000000000000E-002   -2.209338065081056E-011
  1.790000000000000E-002    1.604929687453219E-011
  1.800000000000000E-002    5.440495540861799E-011
  1.810000000000000E-002    8.728548506065590E-011
  1.820000000000000E-002    1.094333215850034E-010
  1.830000000000000E-002    1.168341803396391E-010
  1.840000000000000E-002    1.073988851715673E-010
  1.850000000000000E-002    8.140379094919213E-011
  1.860000000000000E-002    4.160771670758637E-011
  1.870000000000000E-002   -6.993246610093394E-012