 -4.000000000000000E-002    0.000000000000000E+000
 -3.990000000000000E-002    0.000000000000000E+000
 -3.980000000000000E-002    0.000000000000000E+000
 -3.970000000000000E-002    0.000000000000000E+000
 -3.960000000000000E-002    0.000000000000000E+000
 -3.950000000000000E-002    0.000000000000000E+000
 -3.940000000000000E-002    0.000000000000000E+000
 -3.930000000000000E-002    0.000000000000000E+000
 -3.920000000000000E-002    0.000000000000000E+000
 -3.910000000000000E-002    0.000000000000000E+000
 -3.900000000000000E-002    0.000000000000000E+000
 -3.890000000000000E-002    0.000000000000000E+000
 -3.880000000000000E-002    0.000000000000000E+000
 -3.870000000000000E-002    0.000000000000000E+000
 -3.860000000000000E-002    0.000000000000000E+000
 -3.850000000000000E-002    0.000000000000000E+000
 -3.840000000000000E-002    0.000000000000000E+000
 -3.830000000000000E-002    0.000000000000000E+000
 -3.820000000000000E-002    0.000000000000000E+000
 -3.810000000000000E-002    0.000000000000000E+000
 -3.800000000000000E-002    0.000000000000000E+000
 -3.790000000000000E-002    0.000000000000000E+000
 -3.780000000000000E-002    0.000000000000000E+000
 -3.770000000000000E-002    0.000000000000000E+000
 -3.760000000000000E-002    0.000000000000000E+000
 -3.750000000000000E-002    0.000000000000000E+000
 -3.740000000000000E-002    0.000000000000000E+000
 -3.730000000000000E-002    0.000000000000000E+000
 -3.720000000000000E-002    0.000000000000000E+000
 -3.710000000000000E-002    0.000000000000000E+000
 -3.700000000000000E-002    0.000000000000000E+000
 -3.690000000000000E-002   -1.924390591266381E-047
 -3.680000000000000E-002   -2.285612294846166E-046
 -3.670000000000000E-002   -1.140440505955734E-045
 -3.660000000000000E-002   -3.711863671581020E-045
 -3.650000000000000E-002   -1.067866876842817E-044
 -3.640000000000000E-002   -2.722335766552073E-044
 -3.630000000000000E-002   -6.667139360920631E-044
 -3.620000000000000E-002   -1.468346369157687E-043
 -3.610000000000000E-002   -2.831793381929437E-043
 -3.600000000000000E-002   -4.531771926907247E-043
 -3.590000000000000E-002   -4.705997332837904E-043
 -3.580000000000000E-002    3.172202711648262E-043
 -3.570000000000000E-002    3.693737643919575E-042
 -3.560000000000000E-002    1.382707157996274E-041
 -3.550000000000000E-002    3.928851163447324E-041
 -3.540000000000000E-002    9.560231160725039E-041
 -3.530000000000000E-002    2.068326472286421E-040
 -3.520000000000000E-002    4.019856063127975E-040
 -3.510000000000000E-002    6.967866879511566E-040
 -3.500000000000000E-002    1.043439347009676E-039
 -3.490000000000000E-002    1.221195157459089E-039
 -3.480000000000000E-002    6.340874071326019E-040
 -3.470000000000000E-002   -2.008831676978066E-039
 -3.460000000000000E-002   -9.107647944096483E-039
 -3.450000000000000E-002   -2.453388024741082E-038
 -3.440000000000000E-002   -5.355028629650657E-038
 -3.430000000000000E-002   -1.014946723151724E-037
 -3.420000000000000E-002   -1.698854144976608E-037
 -3.410000000000000E-002   -2.480478696073968E-037
 -3.400000000000000E-002   -2.981593785836302E-037
 -3.390000000000000E-002   -2.324831340305919E-037
 -3.380000000000000E-002    1.153492232312686E-037
 -3.370000000000000E-002    1.016351776319466E-036
 -3.360000000000000E-002    2.848917795363570E-036
 -3.350000000000000E-002    6.040227945598268E-036
 -3.340000000000000E-002    1.088752294155686E-035
 -3.330000000000000E-002    1.718363781129586E-035
 -3.320000000000000E-002    2.357331832546437E-035
 -3.310000000000000E-002    2.661230740845293E-035
 -3.300000000000000E-002    1.962312696796818E-035
 -3.290000000000000E-002   -8.325117216448682E-036
 -3.280000000000000E-002   -7.261931556101550E-035
 -3.270000000000000E-002   -1.913142679709953E-034
 -3.260000000000000E-002   -3.796881218619489E-034
 -3.250000000000000E-002   -6.391938424804548E-034
 -3.240000000000000E-002   -9.391725241200197E-034
 -3.230000000000000E-002   -1.191143157365335E-033
 -3.220000000000000E-002   -1.218688582882912E-033
 -3.210000000000000E-002   -7.314166896160195E-034
 -3.200000000000000E-002    6.807760363157782E-034
 -3.190000000000000E-002    3.507831551982001E-033
 -3.180000000000000E-002    8.200844229057349E-033
 -3.170000000000000E-002    1.493926488586626E-032
 -3.160000000000000E-002    2.325921450921616E-032
 -3.150000000000000E-002    3.154961470566124E-032
 -3.140000000000000E-002    3.648323021129713E-032
 -3.130000000000000E-002    3.254282078498522E-032
 -3.120000000000000E-002    1.192286317255429E-032
 -3.110000000000000E-002   -3.478678166311861E-032
 -3.100000000000000E-002   -1.166409411965582E-031
 -3.090000000000000E-002   -2.386270197583602E-031
 -3.080000000000000E-002   -3.959389115650140E-031
 -3.070000000000000E-002   -5.664793506952267E-031
 -3.060000000000000E-002   -7.026962134271217E-031
 -3.050000000000000E-002   -7.250767977768833E-031
 -3.040000000000000E-002   -5.210598736246541E-031
 -3.030000000000000E-002    4.554671604872306E-032
 -3.020000000000000E-002    1.108899511620692E-030
 -3.010000000000000E-002    2.754251455937841E-030
 -3.000000000000000E-002    4.948068794955462E-030
 -2.990000000000000E-002    7.449604125056361E-030
 -2.980000000000000E-002    9.718175206988644E-030
 -2.970000000000000E-002    1.084311469142846E-029
 -2.960000000000000E-002    9.537016768420996E-030
 -2.950000000000000E-002    4.243747969393262E-030
 -2.940000000000000E-002   -6.584947636238279E-030
 -2.930000000000000E-002   -2.400361048348493E-029
 -2.920000000000000E-002   -4.787317749254577E-029
 -2.910000000000000E-002   -7.600572590359881E-029
 -2.900000000000000E-002   -1.033033306508701E-028
 -2.890000000000000E-002   -1.211495718108104E-028
 -2.880000000000000E-002   -1.174182669602073E-028
 -2.870000000000000E-002   -7.753231810610697E-029
 -2.860000000000000E-002    1.301038736628465E-029
 -2.850000000000000E-002    1.643797477333238E-028
 -2.840000000000000E-002    3.764946167572170E-028
 -2.830000000000000E-002    6.320478907107248E-028
 -2.820000000000000E-002    8.897905089566599E-028
 -2.810000000000000E-002    1.080176043586317E-027
 -2.800000000000000E-002    1.106149378660930E-027
 -2.790000000000000E-002    8.521753418014526E-028
 -2.780000000000000E-002    2.042243763618457E-028
 -2.770000000000000E-002   -9.179581032384786E-028
 -2.760000000000000E-002   -2.517598713761311E-027
 -2.750000000000000E-002   -4.471823359843357E-027
 -2.740000000000000E-002   -6.486693588292933E-027
 -2.730000000000000E-002   -8.071134820047493E-027
 -2.720000000000000E-002   -8.548189610495705E-027
 -2.710000000000000E-002   -7.122758594689517E-027
 -2.700000000000000E-002   -3.020901880495170E-027
 -2.690000000000000E-002    4.294775456579771E-027
 -2.680000000000000E-002    1.484692295528897E-026
 -2.670000000000000E-002    2.784002350001955E-026
 -2.660000000000000E-002    4.139721945283676E-026
 -2.650000000000000E-002    5.242885939745725E-026
 -2.640000000000000E-002    5.674029857312137E-026
 -2.630000000000000E-002    4.948302311027215E-026
 -2.620000000000000E-002    2.602054873247522E-026
 -2.610000000000000E-002   -1.678817920111027E-026
 -2.600000000000000E-002   -7.899116418909146E-026
 -2.590000000000000E-002   -1.558699022406757E-025
 -2.580000000000000E-002   -2.365729702385984E-025
 -2.570000000000000E-002   -3.035609017055276E-025
 -2.560000000000000E-002   -3.334218662790985E-025
 -2.550000000000000E-002   -2.995592510156119E-025
 -2.540000000000000E-002   -1.770383853645282E-025
 -2.530000000000000E-002    5.051415619080189E-026
 -2.520000000000000E-002    3.826266534957434E-025
 -2.510000000000000E-002    7.936540889817998E-025
 -2.500000000000000E-002    1.226413909680326E-024
 -2.490000000000000E-002    1.590288936386101E-024
 -2.480000000000000E-002    1.766419886050183E-024
 -2.470000000000000E-002    1.622142245578983E-024
 -2.460000000000000E-002    1.035611278669513E-024
 -2.450000000000000E-002   -7.045038945845027E-026
 -2.440000000000000E-002   -1.689630235808315E-024
 -2.430000000000000E-002   -3.694094215319440E-024
 -2.420000000000000E-002   -5.807786649970125E-024
 -2.410000000000000E-002   -7.601855611904609E-024
 -2.400000000000000E-002   -8.523456625450240E-024
 -2.390000000000000E-002   -7.966234564710699E-024
 -2.380000000000000E-002   -5.384719312662386E-024
 -2.370000000000000E-002   -4.456034056025774E-025
 -2.360000000000000E-002    6.802777440779412E-024
 -2.350000000000000E-002    1.577376455242202E-023
 -2.340000000000000E-002    2.523991050061407E-023
 -2.330000000000000E-002    3.333135748373906E-023
 -2.320000000000000E-002    3.767838031075058E-023
 -2.310000000000000E-002    3.572668244749678E-023
 -2.300000000000000E-002    2.522666625766289E-023
 -2.290000000000000E-002    4.858922349201502E-024
 -2.280000000000000E-002   -2.508818817232368E-023
 -2.270000000000000E-002   -6.211905417218819E-023
 -2.260000000000000E-002   -1.011748839015151E-022
 -2.250000000000000E-002   -1.346987590581070E-022
 -2.240000000000000E-002   -1.532759241089289E-022
 -2.230000000000000E-002   -1.469366301449109E-022
 -2.220000000000000E-002   -1.070961087644190E-022
 -2.210000000000000E-002   -2.895521893100375E-023
 -2.200000000000000E-002    8.598479887996647E-023
 -2.190000000000000E-002    2.277986710687244E-022
 -2.180000000000000E-002    3.770172443111318E-022
 -2.170000000000000E-002    5.051369738658662E-022
 -2.160000000000000E-002    5.772646213443458E-022
 -2.150000000000000E-002    5.571279789448994E-022
 -2.140000000000000E-002    4.142550540602584E-022
 -2.130000000000000E-002    1.325821461901893E-022
 -2.120000000000000E-002   -2.808288513062665E-022
 -2.110000000000000E-002   -7.887882360403601E-022
 -2.100000000000000E-002   -1.320807484776926E-021
 -2.090000000000000E-002   -1.775815382479450E-021
 -2.080000000000000E-002   -2.032294112763532E-021
 -2.070000000000000E-002   -1.966329142043230E-021
 -2.060000000000000E-002   -1.476559494469109E-021
 -2.050000000000000E-002   -5.131951361478170E-022
 -2.040000000000000E-002    8.935763589576612E-022
 -2.030000000000000E-002    2.611960788288936E-021
 -2.020000000000000E-002    4.400563310479409E-021
 -2.010000000000000E-002    5.920361138987436E-021
 -2.000000000000000E-002    6.770943602430476E-021
 -1.990000000000000E-002    6.551691794775018E-021
 -1.980000000000000E-002    4.943602740717472E-021
 -1.970000000000000E-002    1.801740298971213E-021
 -1.960000000000000E-002   -2.757216558207131E-021
 -1.950000000000000E-002   -8.291934894572274E-021
 -1.940000000000000E-002   -1.401884690443932E-020
 -1.930000000000000E-002   -1.885839491699900E-020
 -1.920000000000000E-002   -2.155628054955240E-020
 -1.910000000000000E-002   -2.087910084376448E-020
 -1.900000000000000E-002   -1.586837193486090E-020
 -1.890000000000000E-002   -6.119965234449657E-021
 -1.880000000000000E-002    7.959495142807634E-021
 -1.870000000000000E-002    2.497816243756377E-020
 -1.860000000000000E-002    4.252694796811211E-020
 -1.850000000000000E-002    5.734032852062635E-020
 -1.840000000000000E-002    6.567688909187256E-020
 -1.830000000000000E-002    6.391057450493889E-020
 -1.820000000000000E-002    4.927856085738518E-020
 -1.810000000000000E-002    2.068430049775430E-020
 -1.800000000000000E-002   -2.058703980241568E-020
 -1.790000000000000E-002   -7.040817719223124E-020
 -1.780000000000000E-002   -1.217703023757628E-019
 -1.770000000000000E-002   -1.652955646397981E-019
 -1.760000000000000E-002   -1.903611945081644E-019
 -1.750000000000000E-002   -1.867914514489839E-019
 -1.740000000000000E-002   -1.469493609514576E-019
 -1.730000000000000E-002   -6.793393207036460E-020
 -1.720000000000000E-002    4.651512178078720E-020
 -1.710000000000000E-002    1.848575159216834E-019
 -1.700000000000000E-002    3.277701235982997E-019
 -1.690000000000000E-002    4.496655747000354E-019
 -1.680000000000000E-002    5.218318545484610E-019
 -1.670000000000000E-002    5.170314893800110E-019
 -1.660000000000000E-002    4.150725223819593E-019
 -1.650000000000000E-002    2.085441769644228E-019
 -1.640000000000000E-002   -9.233753443981830E-020
 -1.630000000000000E-002   -4.569384004922618E-019
 -1.620000000000000E-002   -8.345458354993803E-019
 -1.610000000000000E-002   -1.158599933491619E-018
 -1.600000000000000E-002   -1.355027906825163E-018
 -1.590000000000000E-002   -1.354167748072539E-018
 -1.580000000000000E-002   -1.104947222755595E-018
 -1.570000000000000E-002   -5.892158719044592E-019
 -1.560000000000000E-002    1.664379164478949E-019
 -1.550000000000000E-002    1.084249551583052E-018
 -1.540000000000000E-002    2.036787551298614E-018
 -1.530000000000000E-002    2.858116258768612E-018
 -1.520000000000000E-002    3.364922217081648E-018
 -1.510000000000000E-002    3.386115052083840E-018
 -1.500000000000000E-002    2.797454959677229E-018
 -1.490000000000000E-002    1.555980832428096E-018
 -1.480000000000000E-002   -2.722241993851898E-019
 -1.470000000000000E-002   -2.497694300814158E-018
 -1.460000000000000E-002   -4.812556811643143E-018
 -1.450000000000000E-002   -6.818508847680675E-018
 -1.440000000000000E-002   -8.078079578527017E-018
 -1.430000000000000E-002   -8.185211764268773E-018
 -1.420000000000000E-002   -6.846692857432766E-018
 -1.410000000000000E-002   -3.961993143109714E-018
 -1.400000000000000E-002    3.135064440718505E-019
 -1.390000000000000E-002    5.537303140669291E-018
 -1.380000000000000E-002    1.099360714436391E-017
 -1.370000000000000E-002    1.575994624536900E-017
 -1.360000000000000E-002    1.882634598810555E-017
 -1.350000000000000E-002    1.925723142942196E-017
 -1.340000000000000E-002    1.637622426779345E-017
 -1.330000000000000E-002    9.945458027593450E-018
 -1.320000000000000E-002    3.057926025009296E-019
 -1.310000000000000E-002   -1.155593639497389E-017
 -1.300000000000000E-002   -2.404064950490267E-017
 -1.290000000000000E-002   -3.508754662217240E-017
 -1.280000000000000E-002   -4.243956835675673E-017
 -1.270000000000000E-002   -4.400088788779423E-017
 -1.260000000000000E-002   -3.824212129021397E-017
 -1.250000000000000E-002   -2.459110131780825E-017
 -1.240000000000000E-002   -3.736656638610513E-018
 -1.230000000000000E-002    2.222674262793002E-017
 -1.220000000000000E-002    4.987209475199959E-017
 -1.210000000000000E-002    7.476268898829411E-017
 -1.200000000000000E-002    9.201877638551727E-017
 -1.190000000000000E-002    9.707788465311278E-017
 -1.180000000000000E-002    8.655412898692911E-017
 -1.170000000000000E-002    5.906559951942285E-017
 -1.160000000000000E-002    1.587839631511863E-017
 -1.150000000000000E-002   -3.878173112128746E-017
 -1.140000000000000E-002   -9.787017371707655E-017
 -1.130000000000000E-002   -1.521809041850547E-016
 -1.120000000000000E-002   -1.915069249063504E-016
 -1.110000000000000E-002   -2.061997050260513E-016
 -1.100000000000000E-002   -1.889341752462646E-016
 -1.090000000000000E-002   -1.364132904383378E-016
 -1.080000000000000E-002   -5.070628061405556E-017
 -1.070000000000000E-002    6.007942781999905E-017
 -1.060000000000000E-002    1.820336295954351E-016
 -1.050000000000000E-002    2.967154505838098E-016
 -1.040000000000000E-002    3.834367005343428E-016
 -1.030000000000000E-002    4.223528734414552E-016
 -1.020000000000000E-002    3.979821397016861E-016
 -1.010000000000000E-002    3.026304037920751E-016
 -1.000000000000000E-002    1.391221603924513E-016
 -9.899999999999999E-003   -7.775261118175140E-017
 -9.800000000000000E-003   -3.215522688633110E-016
 -9.699999999999999E-003   -5.565199731409310E-016
 -9.599999999999999E-003   -7.419085793698830E-016
 -9.500000000000000E-003   -8.379159185089215E-016
 -9.399999999999999E-003   -8.125147859896380E-016
 -9.299999999999999E-003   -6.481853639876702E-016
 -9.200000000000000E-003   -3.474028188999173E-016
 -9.099999999999999E-003    6.425706355862260E-017
 -8.999999999999999E-003    5.383261194305270E-016
 -8.900000000000000E-003    1.007502648825092E-015
 -8.799999999999999E-003    1.393544113050085E-015
 -8.699999999999999E-003    1.618335423415939E-015
 -8.600000000000000E-003    1.616831629190785E-015
 -8.499999999999999E-003    1.350045127728532E-015
 -8.399999999999999E-003    8.159322946703971E-016
 -8.300000000000000E-003    5.602421905620630E-017
 -8.199999999999999E-003   -8.440069487796367E-016
 -8.100000000000000E-003   -1.760952079495893E-015
 -8.000000000000000E-003   -2.547944950474522E-015
 -7.899999999999999E-003   -3.054542496733723E-015
 -7.800000000000000E-003   -3.150732486348513E-015
 -7.699999999999999E-003   -2.751580791310606E-015
 -7.599999999999999E-003   -1.838586782129996E-015
 -7.499999999999999E-003   -4.737174195492021E-016
 -7.399999999999999E-003    1.197367001496227E-015
 -7.299999999999999E-003    2.955181201522829E-015
 -7.199999999999999E-003    4.529897714086486E-015
 -7.100000000000000E-003    5.636830948818840E-015
 -6.999999999999999E-003    6.020100113303163E-015
 -6.899999999999999E-003    5.498705695002952E-015
 -6.800000000000000E-003    4.007945099011144E-015
 -6.699999999999999E-003    1.628714888227964E-015
 -6.599999999999999E-003   -1.401974101250880E-015
 -6.499999999999999E-003   -4.703972873798887E-015
 -6.399999999999999E-003   -7.792112042519346E-015
 -6.299999999999999E-003   -1.013732198205137E-014
 -6.199999999999999E-003   -1.124456724726083E-014
 -6.100000000000000E-003   -1.073772111045970E-014
 -5.999999999999999E-003   -8.438834516147915E-015
 -5.899999999999999E-003   -4.428172797307172E-015
 -5.800000000000000E-003    9.276540515927345E-016
 -5.699999999999999E-003    6.989013816472462E-015
 -5.599999999999999E-003    1.290241293813593E-014
 -5.499999999999999E-003    1.770321770628891E-014
 -5.399999999999999E-003    2.045230584808650E-014
 -5.299999999999999E-003    2.039008501718313E-014
 -5.199999999999999E-003    1.708590526386175E-014
 -5.099999999999999E-003    1.055824417041446E-014
 -4.999999999999999E-003    1.341840584743587E-015
 -4.899999999999999E-003   -9.517232286641420E-015
 -4.799999999999999E-003   -2.054899709964786E-014
 -4.699999999999999E-003   -3.002832560458194E-014
 -4.599999999999999E-003   -3.621064819836903E-014
 -4.499999999999999E-003   -3.760725198570875E-014
 -4.399999999999999E-003   -3.326221522311969E-014
 -4.299999999999999E-003   -2.298690628478657E-014
 -4.199999999999999E-003   -7.507904113144170E-015
 -4.099999999999999E-003    1.150870090038564E-014
 -3.999999999999999E-003    3.157954294640778E-014
 -3.899999999999999E-003    4.967569544312268E-014
 -3.799999999999999E-003    6.262322725028274E-014
 -3.699999999999999E-003    6.758806989743224E-014
 -3.599999999999999E-003    6.258030160612872E-014
 -3.499999999999999E-003    4.689983027613288E-014
 -3.399999999999999E-003    2.144298917063896E-014
 -3.299999999999999E-003   -1.120036870590322E-014
 -3.199999999999999E-003   -4.690666831504116E-014
 -3.099999999999999E-003   -8.044846777497461E-014
 -2.999999999999999E-003   -1.061660297959288E-013
 -2.899999999999999E-003   -1.188089040904948E-013
 -2.799999999999999E-003   -1.144375716796645E-013
 -2.699999999999999E-003   -9.124892712810977E-014
 -2.599999999999999E-003   -5.018111564874371E-014
 -2.499999999999999E-003    4.832596513463591E-015
 -2.399999999999999E-003    6.705412975623109E-014
 -2.299999999999999E-003    1.276101579328470E-013
 -2.199999999999999E-003    1.766036521885837E-013
 -2.099999999999999E-003    2.045530054362211E-013
 -1.999999999999999E-003    2.039743583067622E-013
 -1.899999999999999E-003    1.708723200348431E-013
 -1.799999999999999E-003    1.058846902130365E-013
 -1.699999999999999E-003    1.484581954871949E-014
 -1.599999999999999E-003   -9.140672380819941E-014
 -1.499999999999999E-003   -1.980600868211776E-013
 -1.399999999999999E-003   -2.881421459639414E-013
 -1.299999999999999E-003   -3.449444151164873E-013
 -1.199999999999999E-003   -3.547458652159093E-013
 -1.099999999999999E-003   -3.094393332302148E-013
 -9.999999999999989E-004   -2.086209448806455E-013
 -8.999999999999990E-004   -6.072848750648250E-014
 -7.999999999999990E-004    1.170891404919698E-013
 -6.999999999999989E-004    3.005273090007576E-013
 -5.999999999999990E-004    4.610518529064234E-013
 -4.999999999999989E-004    5.699109074420229E-013
 -3.999999999999989E-004    6.027314141837356E-013
 -2.999999999999989E-004    5.440351369371819E-013
 -1.999999999999989E-004    3.909303397253274E-013
 -9.999999999999892E-005    1.552691792531240E-013
  1.084202172485504E-018   -1.362868003616064E-013
  1.000000000000011E-004   -4.445843351443874E-013
  2.000000000000011E-004   -7.226219612214767E-013
  3.000000000000011E-004   -9.220756190004531E-013
  4.000000000000011E-004   -1.000896611338328E-012
  5.000000000000011E-004   -9.308917939890171E-013
  6.000000000000011E-004   -7.040536669193919E-013
  7.000000000000011E-004   -3.364519736156991E-013
  8.000000000000011E-004    1.312594263619949E-013
  9.000000000000012E-004    6.372384112910872E-013
  1.000000000000001E-003    1.105702350139641E-012
  1.100000000000001E-003    1.457343068056889E-012
  1.200000000000001E-003    1.621622576143600E-012
  1.300000000000001E-003    1.549194655679297E-012
  1.400000000000001E-003    1.222456573210060E-012
  1.500000000000001E-003    6.622888525276531E-013
  1.600000000000001E-003   -7.057758793961046E-014
  1.700000000000001E-003   -8.804496398994942E-013
  1.800000000000001E-003   -1.647787518264511E-012
  1.900000000000001E-003   -2.245507131998423E-012
  2.000000000000001E-003   -2.558456419727421E-012
  2.100000000000001E-003   -2.503298933008018E-012
  2.200000000000001E-003   -2.045638049620001E-012
  2.300000000000001E-003   -1.211287048429779E-012
  2.400000000000001E-003   -8.917488057138113E-014
  2.500000000000001E-003    1.175562475091343E-012
  2.600000000000001E-003    2.398331003847328E-012
  2.700000000000001E-003    3.380104095238151E-012
  2.800000000000001E-003    3.937636912803238E-012
  2.900000000000001E-003    3.934588982760219E-012
  3.000000000000001E-003    3.308638148286380E-012
  3.100000000000001E-003    2.089763265862990E-012
  3.200000000000001E-003    4.057556923204116E-013
  3.300000000000001E-003   -1.527352266960484E-012
  3.400000000000001E-003   -3.430075082605121E-012
  3.500000000000001E-003   -4.997164097760719E-012
  3.600000000000001E-003   -5.943550103206558E-012
  3.700000000000001E-003   -6.052050320587511E-012
  3.800000000000001E-003   -5.215355294734050E-012
  3.900000000000001E-003   -3.464939737011626E-012
  4.000000000000001E-003   -9.808519131238744E-013
  4.100000000000001E-003    1.921222732646602E-012
  4.200000000000001E-003    4.825948479368652E-012
  4.300000000000001E-003    7.274024877564863E-012
  4.400000000000001E-003    8.830702012681921E-012
  4.500000000000001E-003    9.157481386959891E-012
  4.600000000000002E-003    8.075844898846876E-012
  4.700000000000001E-003    5.612008807535136E-012
  4.800000000000001E-003    2.013603503807993E-012
  4.900000000000002E-003   -2.267220328803203E-012
  5.000000000000001E-003   -6.624932505865117E-012
  5.100000000000001E-003   -1.038127052499128E-011
  5.200000000000001E-003   -1.288545327270839E-011
  5.300000000000002E-003   -1.361990830645948E-011
  5.400000000000001E-003   -1.229521872072010E-011
  5.500000000000001E-003   -8.918109046680158E-012
  5.600000000000002E-003   -3.819058412228261E-012
  5.700000000000001E-003    2.368734163077501E-012
  5.800000000000001E-003    8.780324560880992E-012
  5.900000000000002E-003    1.443340775070193E-011
  6.000000000000001E-003    1.837203546691557E-011
  6.100000000000001E-003    1.981963010897278E-011
  6.200000000000002E-003    1.831789920092347E-011
  6.300000000000002E-003    1.382835212576138E-011
  6.400000000000001E-003    6.776926316734954E-012
  6.500000000000001E-003   -1.970526045283607E-012
  6.600000000000002E-003   -1.120426395753446E-011
  6.700000000000001E-003   -1.952946322903875E-011
  6.800000000000001E-003   -2.556834476392497E-011
  6.900000000000002E-003   -2.817758148208951E-011
  7.000000000000001E-003   -2.664806096815161E-011
  7.100000000000001E-003   -2.085400866483526E-011
  7.200000000000002E-003   -1.132356420457382E-011
  7.300000000000002E-003    7.870543074758221E-013
  7.400000000000001E-003    1.382003956174845E-011
  7.500000000000001E-003    2.583184840868749E-011
  7.600000000000002E-003    3.487211627200679E-011
  7.700000000000001E-003    3.928720667679834E-011
  7.800000000000001E-003    3.800285618019620E-011
  7.900000000000001E-003    3.073990777018194E-011
  8.000000000000002E-003    1.812383242371722E-011
  8.100000000000001E-003    1.662174363796648E-012
  8.200000000000001E-003   -1.641735540861209E-011
  8.300000000000002E-003   -3.345413989453130E-011
  8.400000000000001E-003   -4.673256221406732E-011
  8.500000000000002E-003   -5.389886385629442E-011
  8.600000000000002E-003   -5.335507629471584E-011
  8.700000000000001E-003   -4.456687288616559E-011
  8.800000000000002E-003   -2.823058983172864E-011
  8.900000000000002E-003   -6.262447961054969E-012
  9.000000000000001E-003    1.840220860317473E-011
  9.100000000000002E-003    4.218317783303105E-011
  9.200000000000002E-003    6.135841595072577E-011
  9.300000000000001E-003    7.262761166773908E-011
  9.400000000000002E-003    7.365361190655876E-011
  9.500000000000001E-003    6.349604945600921E-011
  9.600000000000001E-003    4.286202419942386E-011
  9.700000000000002E-003    1.412131562112957E-011
  9.800000000000001E-003   -1.893375994546898E-011
  9.900000000000001E-003   -5.156562889959739E-011
  1.000000000000000E-002   -7.874966723619958E-011
  1.010000000000000E-002   -9.592503993818671E-011
  1.020000000000000E-002   -9.972912530257453E-011
  1.030000000000000E-002   -8.860114892865357E-011
  1.040000000000000E-002   -6.315268820965561E-011
  1.050000000000000E-002   -2.623117697000706E-011
  1.060000000000000E-002    1.735522485040606E-011
  1.070000000000000E-002    6.143327063970815E-011
  1.080000000000000E-002    9.931196946739801E-011
  1.090000000000000E-002    1.247693309554577E-010
  1.100000000000000E-002    1.330369008374286E-010
  1.110000000000000E-002    1.216310562379075E-010
  1.120000000000000E-002    9.089301331713100E-011
  1.130000000000000E-002    4.413464043530062E-011
  1.140000000000000E-002   -1.265933652407856E-011
  1.150000000000000E-002   -7.155775224736912E-011
  1.160000000000000E-002   -1.237563712098772E-010
  1.170000000000000E-002   -1.608578417111459E-010
  1.180000000000000E-002   -1.761771248681668E-010
  1.190000000000000E-002   -1.658748293182222E-010
  1.200000000000000E-002   -1.297343285556533E-010
  1.210000000000000E-002   -7.144040222438611E-011
  1.220000000000000E-002    1.716195185803858E-012
  1.230000000000000E-002    7.970142990538061E-011
  1.240000000000000E-002    1.510742589054765E-010
  1.250000000000000E-002    2.046245890502783E-010
  1.260000000000000E-002    2.310840776614088E-010
  1.270000000000000E-002    2.246549350312194E-010
  1.280000000000000E-002    1.841130106837253E-010
  1.290000000000000E-002    1.132907069824795E-010
  1.300000000000000E-002    2.082656334878113E-011
  1.310000000000000E-002   -8.082729931396302E-011
  1.320000000000000E-002   -1.770369841352470E-010
  1.330000000000000E-002   -2.530515554590152E-010
  1.340000000000000E-002   -2.962156895468000E-010
  1.350000000000000E-002   -2.980053886637583E-010
  1.360000000000000E-002   -2.555680559229210E-010
  1.370000000000000E-002   -1.725036481774415E-010
  1.380000000000000E-002   -5.872218758957610E-011
  1.390000000000000E-002    7.065777799021305E-011
  1.400000000000000E-002    1.972622408382849E-010
  1.410000000000000E-002    3.020235496140340E-010
  1.420000000000000E-002    3.680018977693380E-010
  1.430000000000000E-002    3.830565000236638E-010
  1.440000000000000E-002    3.419549690476913E-010
  1.450000000000000E-002    2.475694239888875E-010
  1.460000000000000E-002    1.109244275871225E-010
  1.470000000000000E-002   -4.997835408712703E-011
  1.480000000000000E-002   -2.124543484910929E-010
  1.490000000000000E-002   -3.522693779017553E-010
  1.500000000000000E-002   -4.471894347103459E-010
  1.510000000000000E-002   -4.804367544542971E-010
  1.520000000000000E-002   -4.435260458782139E-010
  1.530000000000000E-002   -3.380181306092147E-010
  1.540000000000000E-002   -1.758637848924813E-010
  1.550000000000000E-002    2.179521563200427E-011
  1.560000000000000E-002    2.272762224004062E-010
  1.570000000000000E-002    4.101416331360033E-010
  1.580000000000000E-002    5.416157203204227E-010
  1.590000000000000E-002    5.990038412101731E-010
  1.600000000000000E-002    5.694492973603266E-010
  1.610000000000000E-002    4.524248060951300E-010
  1.620000000000000E-002    2.605126237897306E-010
  1.630000000000000E-002    1.825902869388452E-011
  1.640000000000000E-002   -2.408328526445091E-010
  1.650000000000000E-002   -4.788244795454321E-010
  1.660000000000000E-002   -6.587829592764513E-010
  1.670000000000000E-002   -7.503757814716175E-010
  1.680000000000000E-002   -7.347880423579913E-010
  1.690000000000000E-002   -6.081861822009633E-010
  1.700000000000000E-002   -3.831289274087574E-010
  1.710000000000000E-002   -8.760097802096807E-011
  1.720000000000000E-002    2.383155788829909E-010
  1.730000000000000E-002    5.477619748787948E-010
  1.740000000000000E-002    7.937265486766765E-010
  1.750000000000000E-002    9.360503457416250E-010
  1.760000000000000E-002    9.477868920433159E-010
  1.770000000000000E-002    8.199306614770655E-010
  1.780000000000000E-002    5.637209443340480E-010
  1.790000000000000E-002    2.100495255375615E-010
  1.800000000000000E-002   -1.940909583875685E-010
  1.810000000000000E-002   -5.917417589408509E-010
  1.820000000000000E-002   -9.239138233224588E-010
  1.830000000000000E-002   -1.138233809049795E-009
  1.840000000000000E-002   -1.197047791324899E-009
  1.850000000000000E-002   -1.083747974748663E-009
  1.860000000000000E-002   -8.062907689544570E-010
  1.870000000000000E-002   -3.972441001736191E-010