 -4.000000000000000E-002    0.000000000000000E+000
 -3.990000000000000E-002    0.000000000000000E+000
 -3.980000000000000E-002    0.000000000000000E+000
 -3.970000000000000E-002    0.000000000000000E+000
 -3.960000000000000E-002    0.000000000000000E+000
 -3.950000000000000E-002    0.000000000000000E+000
 -3.940000000000000E-002    0.000000000000000E+000
 -3.930000000000000E-002    0.000000000000000E+000
 -3.920000000000000E-002    0.000000000000000E+000
 -3.910000000000000E-002    0.000000000000000E+000
 -3.900000000000000E-002    0.000000000000000E+000
 -3.890000000000000E-002    0.000000000000000E+000
 -3.880000000000000E-002    0.000000000000000E+000
 -3.870000000000000E-002    0.000000000000000E+000
 -3.860000000000000E-002    0.000000000000000E+000
 -3.850000000000000E-002   -1.233489070338133E-047
 -3.840000000000000E-002   -2.399440475971859E-046
 -3.830000000000000E-002    1.250436381913703E-044
 -3.820000000000000E-002    1.965867935567266E-043
 -3.810000000000000E-002    1.950561474963952E-042
 -3.800000000000000E-002    1.456145736643958E-041
 -3.790000000000000E-002    8.742365977221691E-041
 -3.780000000000000E-002    4.385739083602945E-040
 -3.770000000000000E-002    1.882617255288071E-039
 -3.760000000000000E-002    7.011795583427760E-039
 -3.750000000000000E-002    2.277962604559046E-038
 -3.740000000000000E-002    6.420552541555143E-038
 -3.730000000000000E-002    1.531434999766308E-037
 -3.720000000000000E-002    2.854780802154254E-037
 -3.710000000000000E-002    2.830888140632664E-037
 -3.700000000000000E-002   -6.850033674944804E-037
 -3.690000000000000E-002   -5.385346675139158E-036
 -3.680000000000000E-002   -2.149008448241055E-035
 -3.670000000000000E-002   -6.758281178340320E-035
 -3.660000000000000E-002   -1.836209828015328E-034
 -3.650000000000000E-002   -4.457842497111043E-034
 -3.640000000000000E-002   -9.801949111096409E-034
 -3.630000000000000E-002   -1.956645070267668E-033
 -3.620000000000000E-002   -3.517044259265094E-033
 -3.610000000000000E-002   -5.549637820251882E-033
 -3.600000000000000E-002   -7.161668877523089E-033
 -3.590000000000000E-002   -5.649655826907826E-033
 -3.580000000000000E-002    5.228616285435315E-033
 -3.570000000000000E-002    3.770829635065842E-032
 -3.560000000000000E-002    1.127248170780932E-031
 -3.550000000000000E-002    2.613471704600622E-031
 -3.540000000000000E-002    5.216016479997228E-031
 -3.530000000000000E-002    9.247608515052361E-031
 -3.520000000000000E-002    1.462235993089556E-030
 -3.510000000000000E-002    2.022208907545152E-030
 -3.500000000000000E-002    2.286646790426538E-030
 -3.490000000000000E-002    1.588458212673712E-030
 -3.480000000000000E-002   -1.249213211372286E-030
 -3.470000000000000E-002   -8.028862400320320E-030
 -3.460000000000000E-002   -2.112484745737231E-029
 -3.450000000000000E-002   -4.305683905647481E-029
 -3.440000000000000E-002   -7.541141713721019E-029
 -3.430000000000000E-002   -1.167996401058817E-028
 -3.420000000000000E-002   -1.596141654578139E-028
 -3.410000000000000E-002   -1.856242827918606E-028
 -3.400000000000000E-002   -1.610174432541891E-028
 -3.390000000000000E-002   -3.243693684090091E-029
 -3.380000000000000E-002    2.731442416604760E-028
 -3.370000000000000E-002    8.404063737369857E-028
 -3.360000000000000E-002    1.744013028791386E-027
 -3.350000000000000E-002    3.007594982110539E-027
 -3.340000000000000E-002    4.539595907212373E-027
 -3.330000000000000E-002    6.047432317472937E-027
 -3.320000000000000E-002    6.941135219326241E-027
 -3.310000000000000E-002    6.252206371221452E-027
 -3.300000000000000E-002    2.611858061871483E-027
 -3.290000000000000E-002   -5.648355105046691E-027
 -3.280000000000000E-002   -2.019760695004443E-026
 -3.270000000000000E-002   -4.213545893479406E-026
 -3.260000000000000E-002   -7.110771042075524E-026
 -3.250000000000000E-002   -1.041366301418075E-025
 -3.240000000000000E-002   -1.343129602991400E-025
 -3.230000000000000E-002   -1.496630078829258E-025
 -3.220000000000000E-002   -1.326977646477183E-025
 -3.210000000000000E-002   -6.133079709742204E-026
 -3.200000000000000E-002    8.805160280979720E-026
 -3.190000000000000E-002    3.346620217391750E-025
 -3.180000000000000E-002    6.841783104601549E-025
 -3.170000000000000E-002    1.116779894541898E-024
 -3.160000000000000E-002    1.573858657694926E-024
 -3.150000000000000E-002    1.946370946589297E-024
 -3.140000000000000E-002    2.069399871846575E-024
 -3.130000000000000E-002    1.728818400056597E-024
 -3.120000000000000E-002    6.864469415569726E-025
 -3.110000000000000E-002   -1.270920506344320E-024
 -3.100000000000000E-002   -4.256516374950791E-024
 -3.090000000000000E-002   -8.186435338988839E-024
 -3.080000000000000E-002   -1.267275847233523E-023
 -3.070000000000000E-002   -1.693000774613642E-023
 -3.060000000000000E-002   -1.972862485009660E-023
 -3.050000000000000E-002   -1.943718264656266E-023
 -3.040000000000000E-002   -1.419629815699938E-023
 -3.030000000000000E-002   -2.257861883615673E-024
 -3.020000000000000E-002    1.750101126278303E-023
 -3.010000000000000E-002    4.492056345222041E-023
 -3.000000000000000E-002    7.784404825803431E-023
 -2.990000000000000E-002    1.114977381668155E-022
 -2.980000000000000E-002    1.381767619981012E-022
 -2.970000000000000E-002    1.474883263561764E-022
 -2.960000000000000E-002    1.274001390734874E-022
 -2.950000000000000E-002    6.627278711648425E-023
 -2.940000000000000E-002   -4.409554276127039E-023
 -2.930000000000000E-002   -2.046207063554664E-022
 -2.920000000000000E-002   -4.047993745736263E-022
 -2.910000000000000E-002   -6.191476766739929E-022
 -2.900000000000000E-002   -8.053699995535018E-022
 -2.890000000000000E-002   -9.055849926683283E-022
 -2.880000000000000E-002   -8.518650427441151E-022
 -2.870000000000000E-002   -5.769360035229212E-022
 -2.860000000000000E-002   -3.007518069388527E-023
 -2.850000000000000E-002    8.029674582687051E-022
 -2.840000000000000E-002    1.878707949474518E-021
 -2.830000000000000E-002    3.077593220443703E-021
 -2.820000000000000E-002    4.194191879289461E-021
 -2.810000000000000E-002    4.942137854631806E-021
 -2.800000000000000E-002    4.979539250824594E-021
 -2.790000000000000E-002    3.958519426596615E-021
 -2.780000000000000E-002    1.598721977518025E-021
 -2.770000000000000E-002   -2.220816626504338E-021
 -2.760000000000000E-002   -7.363577572482982E-021
 -2.750000000000000E-002   -1.335006641613774E-020
 -2.740000000000000E-002   -1.930898707735297E-020
 -2.730000000000000E-002   -2.399131770730022E-020
 -2.720000000000000E-002   -2.587079938110872E-020
 -2.710000000000000E-002   -2.334532626669357E-020
 -2.700000000000000E-002   -1.503792646688895E-020
 -2.690000000000000E-002   -1.741201052972514E-022
 -2.680000000000000E-002    2.101312141685008E-020
 -2.670000000000000E-002    4.692464163610191E-020
 -2.660000000000000E-002    7.437561269060790E-020
 -2.650000000000000E-002    9.861472247845017E-020
 -2.640000000000000E-002    1.136696422166969E-019
 -2.630000000000000E-002    1.130713616074521E-019
 -2.620000000000000E-002    9.095103012684138E-020
 -2.610000000000000E-002    4.342351295464575E-020
 -2.600000000000000E-002   -2.991802153347033E-020
 -2.590000000000000E-002   -1.246586781561588E-019
 -2.580000000000000E-002   -2.306943366935121E-019
 -2.570000000000000E-002   -3.321823233652733E-019
 -2.560000000000000E-002   -4.086069250608491E-019
 -2.550000000000000E-002   -4.371314800995306E-019
 -2.540000000000000E-002   -3.962116048586781E-019
 -2.530000000000000E-002   -2.701783528281700E-019
 -2.520000000000000E-002   -5.421057092123905E-020
 -2.510000000000000E-002    2.411566129348354E-019
 -2.500000000000000E-002    5.870279242247374E-019
 -2.490000000000000E-002    9.357293352149210E-019
 -2.480000000000000E-002    1.223894338769194E-018
 -2.470000000000000E-002    1.379570795678747E-018
 -2.460000000000000E-002    1.333241433512435E-018
 -2.450000000000000E-002    1.031836175710264E-018
 -2.440000000000000E-002    4.539491760174632E-019
 -2.430000000000000E-002   -3.763284837681610E-019
 -2.420000000000000E-002   -1.380066805787145E-018
 -2.410000000000000E-002   -2.421834486440700E-018
 -2.400000000000000E-002   -3.318362336109847E-018
 -2.390000000000000E-002   -3.858989560725331E-018
 -2.380000000000000E-002   -3.837478716746679E-018
 -2.370000000000000E-002   -3.092480542403534E-018
 -2.360000000000000E-002   -1.551449149854437E-018
 -2.350000000000000E-002    7.293731603175126E-019
 -2.340000000000000E-002    3.537677490666680E-018
 -2.330000000000000E-002    6.499403103262647E-018
 -2.320000000000000E-002    9.101955347702616E-018
 -2.310000000000000E-002    1.075022035512874E-017
 -2.300000000000000E-002    1.085416697502757E-017
 -2.290000000000000E-002    8.940508101088395E-018
 -2.280000000000000E-002    4.774265542874371E-018
 -2.270000000000000E-002   -1.529700719376045E-018
 -2.260000000000000E-002   -9.428727783550756E-018
 -2.250000000000000E-002   -1.793166756206130E-017
 -2.240000000000000E-002   -2.565494196924813E-017
 -2.230000000000000E-002   -3.096587150620319E-017
 -2.220000000000000E-002   -3.221042860297878E-017
 -2.210000000000000E-002   -2.800653783085952E-017
 -2.200000000000000E-002   -1.756671806189053E-017
 -2.190000000000000E-002   -9.995151848015712E-019
 -2.180000000000000E-002    2.047028427756044E-017
 -2.170000000000000E-002    4.442313268830364E-017
 -2.160000000000000E-002    6.735838450610638E-017
 -2.150000000000000E-002    8.502838435578121E-017
 -2.140000000000000E-002    9.298926071282279E-017
 -2.130000000000000E-002    8.732487586672137E-017
 -2.120000000000000E-002    6.545900978382868E-017
 -2.110000000000000E-002    2.693473465288028E-017
 -2.100000000000000E-002   -2.598327789030771E-017
 -2.090000000000000E-002   -8.803116495921980E-017
 -2.080000000000000E-002   -1.511182586322744E-016
 -2.070000000000000E-002   -2.050256792827727E-016
 -2.060000000000000E-002   -2.386331671243991E-016
 -2.050000000000000E-002   -2.415849553103508E-016
 -2.040000000000000E-002   -2.062100868869132E-016
 -2.030000000000000E-002   -1.294254182884914E-016
 -2.020000000000000E-002   -1.429374373926099E-017
 -2.010000000000000E-002    1.291048585225268E-016
 -2.000000000000000E-002    2.837884672434692E-016
 -1.990000000000000E-002    4.271707555699832E-016
 -1.980000000000000E-002    5.335791503713544E-016
 -1.970000000000000E-002    5.778320418108102E-016
 -1.960000000000000E-002    5.394992594569287E-016
 -1.950000000000000E-002    4.072788511587629E-016
 -1.940000000000000E-002    1.827812649730755E-016
 -1.930000000000000E-002   -1.170328108258488E-016
 -1.920000000000000E-002   -4.594452080628504E-016
 -1.910000000000000E-002   -7.980876391341164E-016
 -1.900000000000000E-002   -1.077727232524139E-015
 -1.890000000000000E-002   -1.241481112963152E-015
 -1.880000000000000E-002   -1.239756156467242E-015
 -1.870000000000000E-002   -1.039786315117349E-015
 -1.860000000000000E-002   -6.343181210371633E-016
 -1.850000000000000E-002   -4.784924059479157E-017
 -1.840000000000000E-002    6.610802091194281E-016
 -1.830000000000000E-002    1.402690626880266E-015
 -1.820000000000000E-002    2.064386477157718E-015
 -1.810000000000000E-002    2.524515953673824E-015
 -1.800000000000000E-002    2.670251414121355E-015
 -1.790000000000000E-002    2.417470091485025E-015
 -1.780000000000000E-002    1.729799160754691E-015
 -1.770000000000000E-002    6.335784725414351E-016
 -1.760000000000000E-002   -7.744380866956865E-016
 -1.750000000000000E-002   -2.329251514867882E-015
 -1.740000000000000E-002   -3.811148466875073E-015
 -1.730000000000000E-002   -4.970528049881984E-015
 -1.720000000000000E-002   -5.562135079533618E-015
 -1.710000000000000E-002   -5.384948976993442E-015
 -1.700000000000000E-002   -4.322391973663725E-015
 -1.690000000000000E-002   -2.376494413708117E-015
 -1.680000000000000E-002    3.105323889205530E-016
 -1.670000000000000E-002    3.453034845338779E-015
 -1.660000000000000E-002    6.640788532526629E-015
 -1.650000000000000E-002    9.381022917321019E-015
 -1.640000000000000E-002    1.116108333116240E-014
 -1.630000000000000E-002    1.152551701818410E-014
 -1.620000000000000E-002    1.015800184016986E-014
 -1.610000000000000E-002    6.956045608851967E-015
 -1.600000000000000E-002    2.085408652008571E-015
 -1.590000000000000E-002   -3.997872329644875E-015
 -1.580000000000000E-002   -1.056704103231471E-014
 -1.570000000000000E-002   -1.668996988113416E-014
 -1.560000000000000E-002   -2.133807434781061E-014
 -1.550000000000000E-002   -2.352934965532586E-014
 -1.540000000000000E-002   -2.248909243352798E-014
 -1.530000000000000E-002   -1.780629154694526E-014
 -1.520000000000000E-002   -9.560549242703387E-015
 -1.510000000000000E-002    1.605290840169609E-015
 -1.500000000000000E-002    1.448738916327905E-014
 -1.490000000000000E-002    2.741048334265886E-014
 -1.480000000000000E-002    3.840559568436912E-014
 -1.470000000000000E-002    4.546334609665703E-014
 -1.460000000000000E-002    4.683618248000099E-014
 -1.450000000000000E-002    4.135100389649428E-014
 -1.440000000000000E-002    2.868545453765509E-014
 -1.430000000000000E-002    9.559076794217184E-015
 -1.420000000000000E-002   -1.420428956088731E-014
 -1.410000000000000E-002   -3.977383407540070E-014
 -1.400000000000000E-002   -6.357986490883351E-014
 -1.390000000000000E-002   -8.173933172786443E-014
 -1.380000000000000E-002   -9.059857570890837E-014
 -1.370000000000000E-002   -8.732848796714517E-014
 -1.360000000000000E-002   -7.048878978639976E-014
 -1.350000000000000E-002   -4.046928088460868E-014
 -1.340000000000000E-002    2.795739102956990E-016
 -1.330000000000000E-002    4.729599337958560E-014
 -1.320000000000000E-002    9.447255944593535E-014
 -1.310000000000000E-002    1.347319005185098E-013
 -1.300000000000000E-002    1.609566955371781E-013
 -1.290000000000000E-002    1.670701090782309E-013
 -1.280000000000000E-002    1.491233945729467E-013
 -1.270000000000000E-002    1.062238805932683E-013
 -1.260000000000000E-002    4.113548872164780E-014
 -1.250000000000000E-002   -3.959091629130225E-014
 -1.240000000000000E-002   -1.260496302960006E-013
 -1.230000000000000E-002   -2.059927986836784E-013
 -1.220000000000000E-002   -2.663556410081703E-013
 -1.210000000000000E-002   -2.951354458283603E-013
 -1.200000000000000E-002   -2.833871423146704E-013
 -1.190000000000000E-002   -2.270443398258056E-013
 -1.180000000000000E-002   -1.282588106834716E-013
 -1.170000000000000E-002    4.020344119312984E-015
 -1.160000000000000E-002    1.544289813957619E-013
 -1.150000000000000E-002    3.026137053282195E-013
 -1.140000000000000E-002    4.256334725144617E-013
 -1.130000000000000E-002    5.011071499091969E-013
 -1.120000000000000E-002    5.107286290739536E-013
 -1.110000000000000E-002    4.436596776607872E-013
 -1.100000000000000E-002    2.992579411878354E-013
 -1.090000000000000E-002    8.862431417336946E-014
 -1.080000000000000E-002   -1.654379906837847E-013
 -1.070000000000000E-002   -4.302702141018583E-013
 -1.060000000000000E-002   -6.669808928348570E-013
 -1.050000000000000E-002   -8.355338028044666E-013
 -1.040000000000000E-002   -9.007206218291511E-013
 -1.030000000000000E-002   -8.382197323053400E-013
 -1.020000000000000E-002   -6.398191462175100E-013
 -1.010000000000000E-002   -3.168834318917265E-013
 -1.000000000000000E-002    9.870980564230748E-014
 -9.899999999999999E-003    5.566520670315594E-013
 -9.800000000000000E-003    9.933915415279139E-013
 -9.699999999999999E-003    1.340048289994148E-012
 -9.599999999999999E-003    1.532202979168502E-012
 -9.500000000000000E-003    1.520303938412513E-012
 -9.399999999999999E-003    1.279175631382157E-012
 -9.299999999999999E-003    8.150504089436425E-013
 -9.200000000000000E-003    1.687193675926418E-013
 -9.099999999999999E-003   -5.861875846073956E-013
 -8.999999999999999E-003   -1.350155998916792E-012
 -8.900000000000000E-003   -2.009587078307418E-012
 -8.799999999999999E-003   -2.452251720248878E-012
 -8.699999999999999E-003   -2.584500548150101E-012
 -8.600000000000000E-003   -2.347810835735334E-012
 -8.499999999999999E-003   -1.732060173349312E-012
 -8.399999999999999E-003   -7.830814955935131E-013
 -8.300000000000000E-003    3.973662864968709E-013
 -8.199999999999999E-003    1.660145812229932E-012
 -8.100000000000000E-003    2.825553787286803E-012
 -8.000000000000000E-003    3.706831834918476E-012
 -7.899999999999999E-003    4.137610063048693E-012
 -7.800000000000000E-003    3.999563321608700E-012
 -7.699999999999999E-003    3.246083967632863E-012
 -7.599999999999999E-003    1.917881031583256E-012
 -7.499999999999999E-003    1.471660092652975E-013
 -7.399999999999999E-003   -1.851574170913840E-012
 -7.299999999999999E-003   -3.804386061081014E-012
 -7.199999999999999E-003   -5.412355094967170E-012
 -7.100000000000000E-003   -6.393922820168753E-012
 -6.999999999999999E-003   -6.529469809201538E-012
 -6.899999999999999E-003   -5.701636039959046E-012
 -6.800000000000000E-003   -3.924748039526743E-012
 -6.699999999999999E-003   -1.357635482426820E-012
 -6.599999999999999E-003    1.704013195407007E-012
 -6.499999999999999E-003    4.856900569640332E-012
 -6.399999999999999E-003    7.638956184319025E-012
 -6.299999999999999E-003    9.592523637628232E-012
 -6.199999999999999E-003    1.033389401417396E-011
 -6.100000000000000E-003    9.619304764247676E-012
 -5.999999999999999E-003    7.396998580928400E-012
 -5.899999999999999E-003    3.835888332379384E-012
 -5.800000000000000E-003   -6.760610559972279E-013
 -5.699999999999999E-003   -5.566787611411852E-012
 -5.599999999999999E-003   -1.014669245076784E-011
 -5.499999999999999E-003   -1.370009058237485E-011
 -5.399999999999999E-003   -1.559031945635561E-011
 -5.299999999999999E-003   -1.536397582554223E-011
 -5.199999999999999E-003   -1.283837291610772E-011
 -5.099999999999999E-003   -8.157161046850793E-012
 -4.999999999999999E-003   -1.802318688383984E-012
 -4.899999999999999E-003    5.443802574125164E-012
 -4.799999999999999E-003    1.258585076295992E-011
 -4.699999999999999E-003    1.854403456737857E-011
 -4.599999999999999E-003    2.230858235378914E-011
 -4.499999999999999E-003    2.309927951537142E-011
 -4.399999999999999E-003    2.050637397431933E-011
 -4.299999999999999E-003    1.458952640137067E-011
 -4.199999999999999E-003    5.915586335076354E-012
 -4.099999999999999E-003   -4.476733010833282E-012
 -3.999999999999999E-003   -1.518718201115892E-011
 -3.899999999999999E-003   -2.463002530794627E-011
 -3.799999999999999E-003   -3.125558932456419E-011
 -3.699999999999999E-003   -3.378812836948367E-011
 -3.599999999999999E-003   -3.144551192646483E-011
 -3.499999999999999E-003   -2.410561468686466E-011
 -3.399999999999999E-003   -1.238897090954531E-011
 -3.299999999999999E-003    2.363014704467264E-012
 -3.199999999999999E-003    1.822094560374361E-011
 -3.099999999999999E-003    3.290203570550278E-011
 -2.999999999999999E-003    4.408048228558617E-011
 -2.899999999999999E-003    4.973384291317913E-011
 -2.799999999999999E-003    4.847633664320789E-011
 -2.699999999999999E-003    3.982740471272908E-011
 -2.599999999999999E-003    2.436889226788273E-011
 -2.499999999999999E-003    3.756669124785628E-012
 -2.399999999999999E-003   -1.942833942428122E-011
 -2.299999999999999E-003   -4.198196478277209E-011
 -2.199999999999999E-003   -6.049983106363566E-011
 -2.099999999999999E-003   -7.186859009135492E-011
 -1.999999999999999E-003   -7.375739796237075E-011
 -1.899999999999999E-003   -6.503559479724599E-011
 -1.799999999999999E-003   -4.604714144039676E-011
 -1.699999999999999E-003   -1.868777637067582E-011
 -1.599999999999999E-003    1.374367048555645E-011
 -1.499999999999999E-003    4.691707719796791E-011
 -1.399999999999999E-003    7.602892181713835E-011
 -1.299999999999999E-003    9.647819642489497E-011
 -1.199999999999999E-003    1.045684815043461E-010
 -1.099999999999999E-003    9.813292342641426E-011
 -9.999999999999989E-004    7.698146190708617E-011
 -8.999999999999990E-004    4.308851173568002E-011
 -7.999999999999990E-004    4.717604647669570E-013
 -6.999999999999989E-004   -4.524504461321442E-011
 -5.999999999999990E-004   -8.754477901968435E-011
 -4.999999999999989E-004   -1.199200932403811E-010
 -3.999999999999989E-004   -1.368463115709133E-010
 -2.999999999999989E-004   -1.346831915859485E-010
 -1.999999999999989E-004   -1.123644428363384E-010
 -9.999999999999892E-005   -7.175441028640235E-011
  1.084202172485504E-018   -1.759268166784883E-011
  1.000000000000011E-004    4.299709367693526E-011
  2.000000000000011E-004    1.013937914345970E-010
  3.000000000000011E-004    1.486576892723247E-010
  4.000000000000011E-004    1.768467597273894E-010
  5.000000000000011E-004    1.802828086181811E-010
  6.000000000000011E-004    1.565734101338012E-010
  7.000000000000011E-004    1.072178926788015E-010
  8.000000000000011E-004    3.767521319741055E-011
  9.000000000000012E-004   -4.315650514938466E-011
  1.000000000000001E-003   -1.240139559876557E-010
  1.100000000000001E-003   -1.927761093493040E-010
  1.200000000000001E-003   -2.382105612928407E-010
  1.300000000000001E-003   -2.517149733980269E-010
  1.400000000000001E-003   -2.287922127092525E-010
  1.500000000000001E-003   -1.700197876932442E-010
  1.600000000000001E-003   -8.133241134968207E-011
  1.700000000000001E-003    2.647322578238810E-011
  1.800000000000001E-003    1.389920824398432E-010
  1.900000000000001E-003    2.400886238720793E-010
  2.000000000000001E-003    3.141628171804962E-010
  2.100000000000001E-003    3.484926267624962E-010
  2.200000000000001E-003    3.353098259503884E-010
  2.300000000000001E-003    2.732821104884310E-010
  2.400000000000001E-003    1.681407620576621E-010
  2.500000000000001E-003    3.230391281946469E-011
  2.600000000000001E-003   -1.165156810751046E-010
  2.700000000000001E-003   -2.575777772602735E-010
  2.800000000000001E-003   -3.699779229933413E-010
  2.900000000000001E-003   -4.357193160948643E-010
  3.000000000000001E-003   -4.425518652752537E-010
  3.100000000000001E-003   -3.861409085360826E-010
  3.200000000000001E-003   -2.712015414874014E-010
  3.300000000000001E-003   -1.113645703944728E-010
  3.400000000000001E-003    7.228692685129943E-011
  3.500000000000001E-003    2.538767170617293E-010
  3.600000000000001E-003    4.062708950619357E-010
  3.700000000000001E-003    5.050208917271063E-010
  3.800000000000001E-003    5.321553605255852E-010
  3.900000000000001E-003    4.792495619284458E-010
  4.000000000000001E-003    3.492738823573685E-010
  4.100000000000001E-003    1.568723866688055E-010
  4.200000000000001E-003   -7.306549911182112E-011
  4.300000000000001E-003   -3.084343059572342E-010
  4.400000000000001E-003   -5.141926561522818E-010
  4.500000000000001E-003   -6.573391599591876E-010
  4.600000000000002E-003   -7.118932160518634E-010
  4.700000000000001E-003   -6.631481426364787E-010
  4.800000000000001E-003   -5.105283764552210E-010
  4.900000000000002E-003   -2.685497205442021E-010
  5.000000000000001E-003    3.436874742578883E-011
  5.100000000000001E-003    3.591902063744019E-010
  5.200000000000001E-003    6.612821497841159E-010
  5.300000000000002E-003    8.965365982816430E-010
  5.400000000000001E-003    1.027754510043931E-009
  5.500000000000001E-003    1.030375617254675E-009
  5.600000000000002E-003    8.966797158544934E-010
  5.700000000000001E-003    6.377627981466160E-010
  5.800000000000001E-003    2.828815557948723E-010
  5.900000000000002E-003   -1.238765877015061E-010
  6.000000000000001E-003   -5.292497741691901E-010
  6.100000000000001E-003   -8.780744123738992E-010
  6.200000000000002E-003   -1.121190616444085E-009
  6.300000000000002E-003   -1.222850730546557E-009
  6.400000000000001E-003   -1.166516313951802E-009
  6.500000000000001E-003   -9.581064866492481E-010
  6.600000000000002E-003   -6.260869531237011E-010
  6.700000000000001E-003   -2.182252414179995E-010
  6.800000000000001E-003    2.046841644112834E-010
  6.900000000000002E-003    5.773548105987264E-010
  7.000000000000001E-003    8.396621386372617E-010
  7.100000000000001E-003    9.460486571439127E-010
  7.200000000000002E-003    8.732780728038128E-010
  7.300000000000002E-003    6.253044981104344E-010
  7.400000000000001E-003    2.343836830518020E-010
  7.500000000000001E-003   -2.419441469730637E-010
  7.600000000000002E-003   -7.277780525349249E-010
  7.700000000000001E-003   -1.138887841035857E-009
  7.800000000000001E-003   -1.394553753616982E-009
  7.900000000000001E-003   -1.429585413869976E-009
  8.000000000000002E-003   -1.204783472778848E-009
  8.100000000000001E-003   -7.142499433949468E-010
  8.200000000000001E-003    1.167105285739342E-011
  8.300000000000002E-003    9.084567494357724E-010
  8.400000000000001E-003    1.884411371473877E-009
  8.500000000000002E-003    2.831834758471454E-009
  8.600000000000002E-003    3.640926681944330E-009
  8.700000000000001E-003    4.214542499216562E-009
  8.800000000000002E-003    4.481705304472460E-009
  8.900000000000002E-003    4.407874930745695E-009
  9.000000000000001E-003    4.000359721414196E-009
  9.100000000000002E-003    3.307900755131946E-009
  9.200000000000002E-003    2.414277430975326E-009
  9.300000000000001E-003    1.426653096562685E-009
  9.400000000000002E-003    4.601936788236020E-010
  9.500000000000001E-003   -3.788889726879878E-010
  9.600000000000001E-003   -1.009382538982746E-009
  9.700000000000002E-003   -1.387738422714826E-009
  9.800000000000001E-003   -1.515263689527798E-009
  9.900000000000001E-003   -1.438446691537073E-009
  1.000000000000000E-002   -1.241971478575026E-009
  1.010000000000000E-002   -1.035012002444949E-009
  1.020000000000000E-002   -9.323931377502446E-010
  1.030000000000000E-002   -1.033046990242587E-009
  1.040000000000000E-002   -1.398659245946892E-009
  1.050000000000000E-002   -2.035521184135316E-009
  1.060000000000000E-002   -2.882254957871440E-009
  1.070000000000000E-002   -3.805328880051698E-009
  1.080000000000000E-002   -4.603265175429856E-009
  1.090000000000000E-002   -5.019158787897244E-009
  1.100000000000000E-002   -4.760005629712324E-009
  1.110000000000000E-002   -3.520196435808875E-009
  1.120000000000000E-002   -1.005902023429104E-009
  1.130000000000000E-002    3.043177919711276E-009
  1.140000000000000E-002    8.837985038081718E-009
  1.150000000000000E-002    1.653271538431567E-008
  1.160000000000000E-002    2.622729395571451E-008
  1.170000000000000E-002    3.797959654664250E-008
  1.180000000000000E-002    5.182615120350743E-008
  1.190000000000000E-002    6.780837502692109E-008
  1.200000000000000E-002    8.600091368879273E-008
  1.210000000000000E-002    1.065378319852897E-007
  1.220000000000000E-002    1.296328523045295E-007
  1.230000000000000E-002    1.555904027432238E-007
  1.240000000000000E-002    1.848054964470122E-007
  1.250000000000000E-002    2.177521445204918E-007
  1.260000000000000E-002    2.549614924760829E-007
  1.270000000000000E-002    2.969923655682521E-007
  1.280000000000000E-002    3.443986993990837E-007
  1.290000000000000E-002    3.976980216898287E-007
  1.300000000000000E-002    4.573458008619264E-007
  1.310000000000000E-002    5.237199245055979E-007
  1.320000000000000E-002    5.971175392768465E-007
  1.330000000000000E-002    6.777657105185297E-007
  1.340000000000000E-002    7.658444318109265E-007
  1.350000000000000E-002    8.615200190737324E-007
  1.360000000000000E-002    9.649831955425725E-007
  1.370000000000000E-002    1.076488517648002E-006
  1.380000000000000E-002    1.196388138375397E-006
  1.390000000000000E-002    1.325155572083336E-006
  1.400000000000000E-002    1.463396655001228E-006
  1.410000000000000E-002    1.611844695699527E-006
  1.420000000000000E-002    1.771341373169062E-006
  1.430000000000000E-002    1.942805235664302E-006
  1.440000000000000E-002    2.127193113857716E-006
  1.450000000000000E-002    2.325459424802007E-006
  1.460000000000000E-002    2.538519941400530E-006
  1.470000000000000E-002    2.767225048932064E-006
  1.480000000000000E-002    3.012348554330082E-006
  1.490000000000000E-002    3.274593242164242E-006
  1.500000000000000E-002    3.554612545175060E-006
  1.510000000000000E-002    3.853049170461691E-006
  1.520000000000000E-002    4.170582543424727E-006
  1.530000000000000E-002    4.507979873645423E-006
  1.540000000000000E-002    4.866146824782121E-006
  1.550000000000000E-002    5.246166237431597E-006
  1.560000000000000E-002    5.649322954593416E-006
  1.570000000000000E-002    6.077109652139307E-006
  1.580000000000000E-002    6.531212490490056E-006
  1.590000000000000E-002    7.013481072316292E-006
  1.600000000000000E-002    7.525882551897394E-006
  1.610000000000000E-002    8.070451082074949E-006
  1.620000000000000E-002    8.649236432312547E-006
  1.630000000000000E-002    9.264264541014306E-006
  1.640000000000000E-002    9.917509368506768E-006
  1.650000000000000E-002    1.061088763249792E-005
  1.660000000000000E-002    1.134627898941239E-005
  1.670000000000000E-002    1.212555847055299E-005
  1.680000000000000E-002    1.295065610719528E-005
  1.690000000000000E-002    1.382361962132744E-005
  1.700000000000000E-002    1.474668375886233E-005
  1.710000000000000E-002    1.572233059202587E-005
  1.720000000000000E-002    1.675333687453288E-005
  1.730000000000000E-002    1.784279877388469E-005
  1.740000000000000E-002    1.899413592913700E-005
  1.750000000000000E-002    2.021107180076533E-005
  1.760000000000000E-002    2.149758952833893E-005
  1.770000000000000E-002    2.285787781237112E-005
  1.780000000000000E-002    2.429627735413264E-005
  1.790000000000000E-002    2.581722327235666E-005
  1.800000000000000E-002    2.742520436495303E-005
  1.810000000000000E-002    2.912474704982798E-005
  1.820000000000000E-002    3.092042668825666E-005
  1.830000000000000E-002    3.281689357167895E-005
  1.840000000000000E-002    3.481893280978559E-005
  1.850000000000000E-002    3.693153883829931E-005
  1.860000000000000E-002    3.916000396670248E-005
  1.870000000000000E-002    4.150998927280101E-005