 -4.000000000000000E-002    0.000000000000000E+000
 -3.990000000000000E-002    0.000000000000000E+000
 -3.980000000000000E-002    0.000000000000000E+000
 -3.970000000000000E-002    0.000000000000000E+000
 -3.960000000000000E-002    0.000000000000000E+000
 -3.950000000000000E-002    0.000000000000000E+000
 -3.940000000000000E-002    0.000000000000000E+000
 -3.930000000000000E-002    0.000000000000000E+000
 -3.920000000000000E-002    0.000000000000000E+000
 -3.910000000000000E-002    0.000000000000000E+000
 -3.900000000000000E-002    0.000000000000000E+000
 -3.890000000000000E-002    0.000000000000000E+000
 -3.880000000000000E-002    0.000000000000000E+000
 -3.870000000000000E-002    0.000000000000000E+000
 -3.860000000000000E-002    0.000000000000000E+000
 -3.850000000000000E-002    0.000000000000000E+000
 -3.840000000000000E-002    0.000000000000000E+000
 -3.830000000000000E-002    0.000000000000000E+000
 -3.820000000000000E-002    0.000000000000000E+000
 -3.810000000000000E-002    0.000000000000000E+000
 -3.800000000000000E-002    0.000000000000000E+000
 -3.790000000000000E-002    0.000000000000000E+000
 -3.780000000000000E-002    0.000000000000000E+000
 -3.770000000000000E-002    0.000000000000000E+000
 -3.760000000000000E-002    0.000000000000000E+000
 -3.750000000000000E-002    0.000000000000000E+000
 -3.740000000000000E-002    0.000000000000000E+000
 -3.730000000000000E-002    0.000000000000000E+000
 -3.720000000000000E-002    0.000000000000000E+000
 -3.710000000000000E-002    0.000000000000000E+000
 -3.700000000000000E-002    0.000000000000000E+000
 -3.690000000000000E-002    0.000000000000000E+000
 -3.680000000000000E-002    0.000000000000000E+000
 -3.670000000000000E-002    0.000000000000000E+000
 -3.660000000000000E-002    0.000000000000000E+000
 -3.650000000000000E-002    0.000000000000000E+000
 -3.640000000000000E-002    0.000000000000000E+000
 -3.630000000000000E-002    0.000000000000000E+000
 -3.620000000000000E-002    0.000000000000000E+000
 -3.610000000000000E-002    0.000000000000000E+000
 -3.600000000000000E-002    0.000000000000000E+000
 -3.590000000000000E-002    0.000000000000000E+000
 -3.580000000000000E-002    0.000000000000000E+000
 -3.570000000000000E-002    0.000000000000000E+000
 -3.560000000000000E-002    0.000000000000000E+000
 -3.550000000000000E-002    0.000000000000000E+000
 -3.540000000000000E-002    0.000000000000000E+000
 -3.530000000000000E-002    0.000000000000000E+000
 -3.520000000000000E-002    0.000000000000000E+000
 -3.510000000000000E-002    0.000000000000000E+000
 -3.500000000000000E-002    0.000000000000000E+000
 -3.490000000000000E-002    0.000000000000000E+000
 -3.480000000000000E-002    0.000000000000000E+000
 -3.470000000000000E-002    0.000000000000000E+000
 -3.460000000000000E-002    0.000000000000000E+000
 -3.450000000000000E-002    0.000000000000000E+000
 -3.440000000000000E-002    0.000000000000000E+000
 -3.430000000000000E-002    0.000000000000000E+000
 -3.420000000000000E-002    0.000000000000000E+000
 -3.410000000000000E-002    0.000000000000000E+000
 -3.400000000000000E-002    0.000000000000000E+000
 -3.390000000000000E-002    0.000000000000000E+000
 -3.380000000000000E-002    0.000000000000000E+000
 -3.370000000000000E-002    0.000000000000000E+000
 -3.360000000000000E-002    0.000000000000000E+000
 -3.350000000000000E-002    0.000000000000000E+000
 -3.340000000000000E-002    0.000000000000000E+000
 -3.330000000000000E-002    0.000000000000000E+000
 -3.320000000000000E-002    0.000000000000000E+000
 -3.310000000000000E-002    0.000000000000000E+000
 -3.300000000000000E-002    0.000000000000000E+000
 -3.290000000000000E-002    0.000000000000000E+000
 -3.280000000000000E-002    0.000000000000000E+000
 -3.270000000000000E-002    0.000000000000000E+000
 -3.260000000000000E-002    0.000000000000000E+000
 -3.250000000000000E-002    0.000000000000000E+000
 -3.240000000000000E-002    0.000000000000000E+000
 -3.230000000000000E-002    0.000000000000000E+000
 -3.220000000000000E-002    0.000000000000000E+000
 -3.210000000000000E-002    0.000000000000000E+000
 -3.200000000000000E-002    0.000000000000000E+000
 -3.190000000000000E-002    0.000000000000000E+000
 -3.180000000000000E-002    0.000000000000000E+000
 -3.170000000000000E-002    0.000000000000000E+000
 -3.160000000000000E-002    0.000000000000000E+000
 -3.150000000000000E-002    0.000000000000000E+000
 -3.140000000000000E-002    0.000000000000000E+000
 -3.130000000000000E-002    0.000000000000000E+000
 -3.120000000000000E-002    0.000000000000000E+000
 -3.110000000000000E-002    0.000000000000000E+000
 -3.100000000000000E-002    0.000000000000000E+000
 -3.090000000000000E-002    0.000000000000000E+000
 -3.080000000000000E-002    0.000000000000000E+000
 -3.070000000000000E-002    0.000000000000000E+000
 -3.060000000000000E-002    0.000000000000000E+000
 -3.050000000000000E-002    0.000000000000000E+000
 -3.040000000000000E-002    0.000000000000000E+000
 -3.030000000000000E-002    0.000000000000000E+000
 -3.020000000000000E-002    0.000000000000000E+000
 -3.010000000000000E-002    0.000000000000000E+000
 -3.000000000000000E-002    0.000000000000000E+000
 -2.990000000000000E-002    0.000000000000000E+000
 -2.980000000000000E-002    0.000000000000000E+000
 -2.970000000000000E-002    0.000000000000000E+000
 -2.960000000000000E-002    0.000000000000000E+000
 -2.950000000000000E-002    0.000000000000000E+000
 -2.940000000000000E-002    0.000000000000000E+000
 -2.930000000000000E-002    0.000000000000000E+000
 -2.920000000000000E-002    0.000000000000000E+000
 -2.910000000000000E-002    0.000000000000000E+000
 -2.900000000000000E-002    0.000000000000000E+000
 -2.890000000000000E-002    0.000000000000000E+000
 -2.880000000000000E-002    0.000000000000000E+000
 -2.870000000000000E-002    0.000000000000000E+000
 -2.860000000000000E-002    0.000000000000000E+000
 -2.850000000000000E-002    0.000000000000000E+000
 -2.840000000000000E-002    0.000000000000000E+000
 -2.830000000000000E-002    0.000000000000000E+000
 -2.820000000000000E-002    0.000000000000000E+000
 -2.810000000000000E-002    0.000000000000000E+000
 -2.800000000000000E-002    0.000000000000000E+000
 -2.790000000000000E-002    0.000000000000000E+000
 -2.780000000000000E-002    0.000000000000000E+000
 -2.770000000000000E-002    0.000000000000000E+000
 -2.760000000000000E-002    0.000000000000000E+000
 -2.750000000000000E-002    0.000000000000000E+000
 -2.740000000000000E-002    0.000000000000000E+000
 -2.730000000000000E-002    0.000000000000000E+000
 -2.720000000000000E-002    0.000000000000000E+000
 -2.710000000000000E-002    0.000000000000000E+000
 -2.700000000000000E-002    0.000000000000000E+000
 -2.690000000000000E-002    0.000000000000000E+000
 -2.680000000000000E-002    0.000000000000000E+000
 -2.670000000000000E-002    0.000000000000000E+000
 -2.660000000000000E-002    0.000000000000000E+000
 -2.650000000000000E-002    0.000000000000000E+000
 -2.640000000000000E-002    0.000000000000000E+000
 -2.630000000000000E-002    0.000000000000000E+000
 -2.620000000000000E-002    0.000000000000000E+000
 -2.610000000000000E-002    0.000000000000000E+000
 -2.600000000000000E-002    0.000000000000000E+000
 -2.590000000000000E-002    0.000000000000000E+000
 -2.580000000000000E-002    0.000000000000000E+000
 -2.570000000000000E-002    0.000000000000000E+000
 -2.560000000000000E-002    0.000000000000000E+000
 -2.550000000000000E-002    0.000000000000000E+000
 -2.540000000000000E-002    0.000000000000000E+000
 -2.530000000000000E-002    0.000000000000000E+000
 -2.520000000000000E-002    0.000000000000000E+000
 -2.510000000000000E-002    0.000000000000000E+000
 -2.500000000000000E-002    0.000000000000000E+000
 -2.490000000000000E-002    0.000000000000000E+000
 -2.480000000000000E-002    0.000000000000000E+000
 -2.470000000000000E-002    0.000000000000000E+000
 -2.460000000000000E-002    0.000000000000000E+000
 -2.450000000000000E-002    0.000000000000000E+000
 -2.440000000000000E-002    0.000000000000000E+000
 -2.430000000000000E-002    0.000000000000000E+000
 -2.420000000000000E-002    0.000000000000000E+000
 -2.410000000000000E-002    0.000000000000000E+000
 -2.400000000000000E-002    0.000000000000000E+000
 -2.390000000000000E-002    0.000000000000000E+000
 -2.380000000000000E-002    0.000000000000000E+000
 -2.370000000000000E-002    0.000000000000000E+000
 -2.360000000000000E-002    0.000000000000000E+000
 -2.350000000000000E-002    0.000000000000000E+000
 -2.340000000000000E-002    0.000000000000000E+000
 -2.330000000000000E-002    0.000000000000000E+000
 -2.320000000000000E-002    0.000000000000000E+000
 -2.310000000000000E-002    0.000000000000000E+000
 -2.300000000000000E-002    0.000000000000000E+000
 -2.290000000000000E-002    0.000000000000000E+000
 -2.280000000000000E-002    0.000000000000000E+000
 -2.270000000000000E-002    0.000000000000000E+000
 -2.260000000000000E-002    0.000000000000000E+000
 -2.250000000000000E-002    0.000000000000000E+000
 -2.240000000000000E-002    0.000000000000000E+000
 -2.230000000000000E-002    0.000000000000000E+000
 -2.220000000000000E-002    0.000000000000000E+000
 -2.210000000000000E-002    0.000000000000000E+000
 -2.200000000000000E-002    0.000000000000000E+000
 -2.190000000000000E-002    0.000000000000000E+000
 -2.180000000000000E-002    0.000000000000000E+000
 -2.170000000000000E-002    0.000000000000000E+000
 -2.160000000000000E-002    0.000000000000000E+000
 -2.150000000000000E-002    0.000000000000000E+000
 -2.140000000000000E-002    0.000000000000000E+000
 -2.130000000000000E-002    0.000000000000000E+000
 -2.120000000000000E-002    0.000000000000000E+000
 -2.110000000000000E-002    0.000000000000000E+000
 -2.100000000000000E-002    0.000000000000000E+000
 -2.090000000000000E-002    0.000000000000000E+000
 -2.080000000000000E-002    0.000000000000000E+000
 -2.070000000000000E-002    0.000000000000000E+000
 -2.060000000000000E-002    0.000000000000000E+000
 -2.050000000000000E-002    0.000000000000000E+000
 -2.040000000000000E-002    0.000000000000000E+000
 -2.030000000000000E-002    0.000000000000000E+000
 -2.020000000000000E-002    0.000000000000000E+000
 -2.010000000000000E-002    0.000000000000000E+000
 -2.000000000000000E-002    0.000000000000000E+000
 -1.990000000000000E-002    0.000000000000000E+000
 -1.980000000000000E-002    0.000000000000000E+000
 -1.970000000000000E-002    0.000000000000000E+000
 -1.960000000000000E-002    0.000000000000000E+000
 -1.950000000000000E-002    0.000000000000000E+000
 -1.940000000000000E-002    0.000000000000000E+000
 -1.930000000000000E-002    0.000000000000000E+000
 -1.920000000000000E-002    0.000000000000000E+000
 -1.910000000000000E-002    0.000000000000000E+000
 -1.900000000000000E-002    0.000000000000000E+000
 -1.890000000000000E-002    0.000000000000000E+000
 -1.880000000000000E-002    0.000000000000000E+000
 -1.870000000000000E-002    0.000000000000000E+000
 -1.860000000000000E-002    0.000000000000000E+000
 -1.850000000000000E-002    0.000000000000000E+000
 -1.840000000000000E-002    0.000000000000000E+000
 -1.830000000000000E-002    0.000000000000000E+000
 -1.820000000000000E-002    0.000000000000000E+000
 -1.810000000000000E-002    0.000000000000000E+000
 -1.800000000000000E-002    0.000000000000000E+000
 -1.790000000000000E-002    0.000000000000000E+000
 -1.780000000000000E-002    0.000000000000000E+000
 -1.770000000000000E-002    0.000000000000000E+000
 -1.760000000000000E-002    0.000000000000000E+000
 -1.750000000000000E-002    0.000000000000000E+000
 -1.740000000000000E-002    0.000000000000000E+000
 -1.730000000000000E-002    0.000000000000000E+000
 -1.720000000000000E-002    0.000000000000000E+000
 -1.710000000000000E-002    0.000000000000000E+000
 -1.700000000000000E-002    0.000000000000000E+000
 -1.690000000000000E-002    0.000000000000000E+000
 -1.680000000000000E-002    0.000000000000000E+000
 -1.670000000000000E-002    0.000000000000000E+000
 -1.660000000000000E-002    0.000000000000000E+000
 -1.650000000000000E-002    0.000000000000000E+000
 -1.640000000000000E-002    0.000000000000000E+000
 -1.630000000000000E-002    0.000000000000000E+000
 -1.620000000000000E-002    0.000000000000000E+000
 -1.610000000000000E-002    0.000000000000000E+000
 -1.600000000000000E-002    0.000000000000000E+000
 -1.590000000000000E-002    0.000000000000000E+000
 -1.580000000000000E-002    0.000000000000000E+000
 -1.570000000000000E-002    0.000000000000000E+000
 -1.560000000000000E-002    0.000000000000000E+000
 -1.550000000000000E-002    0.000000000000000E+000
 -1.540000000000000E-002    0.000000000000000E+000
 -1.530000000000000E-002    0.000000000000000E+000
 -1.520000000000000E-002    0.000000000000000E+000
 -1.510000000000000E-002    0.000000000000000E+000
 -1.500000000000000E-002    0.000000000000000E+000
 -1.490000000000000E-002    0.000000000000000E+000
 -1.480000000000000E-002    0.000000000000000E+000
 -1.470000000000000E-002    0.000000000000000E+000
 -1.460000000000000E-002    0.000000000000000E+000
 -1.450000000000000E-002    0.000000000000000E+000
 -1.440000000000000E-002    0.000000000000000E+000
 -1.430000000000000E-002    0.000000000000000E+000
 -1.420000000000000E-002    0.000000000000000E+000
 -1.410000000000000E-002    0.000000000000000E+000
 -1.400000000000000E-002    0.000000000000000E+000
 -1.390000000000000E-002    0.000000000000000E+000
 -1.380000000000000E-002    0.000000000000000E+000
 -1.370000000000000E-002    0.000000000000000E+000
 -1.360000000000000E-002    0.000000000000000E+000
 -1.350000000000000E-002    0.000000000000000E+000
 -1.340000000000000E-002    0.000000000000000E+000
 -1.330000000000000E-002    0.000000000000000E+000
 -1.320000000000000E-002    0.000000000000000E+000
 -1.310000000000000E-002    0.000000000000000E+000
 -1.300000000000000E-002    0.000000000000000E+000
 -1.290000000000000E-002    0.000000000000000E+000
 -1.280000000000000E-002    0.000000000000000E+000
 -1.270000000000000E-002    0.000000000000000E+000
 -1.260000000000000E-002    0.000000000000000E+000
 -1.250000000000000E-002    0.000000000000000E+000
 -1.240000000000000E-002    0.000000000000000E+000
 -1.230000000000000E-002    0.000000000000000E+000
 -1.220000000000000E-002    0.000000000000000E+000
 -1.210000000000000E-002    0.000000000000000E+000
 -1.200000000000000E-002    0.000000000000000E+000
 -1.190000000000000E-002    0.000000000000000E+000
 -1.180000000000000E-002    0.000000000000000E+000
 -1.170000000000000E-002    0.000000000000000E+000
 -1.160000000000000E-002    0.000000000000000E+000
 -1.150000000000000E-002    0.000000000000000E+000
 -1.140000000000000E-002    0.000000000000000E+000
 -1.130000000000000E-002    0.000000000000000E+000
 -1.120000000000000E-002    0.000000000000000E+000
 -1.110000000000000E-002    0.000000000000000E+000
 -1.100000000000000E-002    0.000000000000000E+000
 -1.090000000000000E-002    0.000000000000000E+000
 -1.080000000000000E-002    0.000000000000000E+000
 -1.070000000000000E-002    0.000000000000000E+000
 -1.060000000000000E-002    0.000000000000000E+000
 -1.050000000000000E-002    0.000000000000000E+000
 -1.040000000000000E-002    0.000000000000000E+000
 -1.030000000000000E-002    0.000000000000000E+000
 -1.020000000000000E-002    0.000000000000000E+000
 -1.010000000000000E-002    0.000000000000000E+000
 -1.000000000000000E-002    0.000000000000000E+000
 -9.899999999999999E-003    0.000000000000000E+000
 -9.800000000000000E-003    0.000000000000000E+000
 -9.699999999999999E-003    0.000000000000000E+000
 -9.599999999999999E-003    0.000000000000000E+000
 -9.500000000000000E-003    0.000000000000000E+000
 -9.399999999999999E-003    0.000000000000000E+000
 -9.299999999999999E-003    0.000000000000000E+000
 -9.200000000000000E-003    0.000000000000000E+000
 -9.099999999999999E-003    0.000000000000000E+000
 -8.999999999999999E-003    0.000000000000000E+000
 -8.900000000000000E-003    0.000000000000000E+000
 -8.799999999999999E-003    0.000000000000000E+000
 -8.699999999999999E-003   -6.414635304221270E-048
 -8.600000000000000E-003   -1.282927060844254E-047
 -8.499999999999999E-003   -1.924390591266381E-047
 -8.399999999999999E-003   -1.924390591266381E-047
 -8.300000000000000E-003   -1.282927060844254E-047
 -8.199999999999999E-003    6.414635304221270E-048
 -8.100000000000000E-003    8.260171179909346E-047
 -8.000000000000000E-003    2.135937471081003E-046
 -7.899999999999999E-003    3.445857824171071E-046
 -7.800000000000000E-003    4.627485471176713E-046
 -7.699999999999999E-003    5.068624470914372E-046
 -7.599999999999999E-003    4.199843117561962E-046
 -7.499999999999999E-003    1.677025401684290E-046
 -7.399999999999999E-003   -4.106429124333355E-046
 -7.299999999999999E-003   -1.194951287329581E-045
 -7.199999999999999E-003   -1.983602823313421E-045
 -7.100000000000000E-003   -2.680672163167040E-045
 -6.999999999999999E-003   -3.209210895189937E-045
 -6.899999999999999E-003   -3.128346974945021E-045
 -6.800000000000000E-003   -2.136258855376661E-045
 -6.699999999999999E-003   -1.327222914767005E-045
 -6.599999999999999E-003    3.982105420134115E-046
 -6.499999999999999E-003    3.171246588413868E-045
 -6.399999999999999E-003    6.435910654418242E-045
 -6.299999999999999E-003    1.075187226931951E-044
 -6.199999999999999E-003    1.337728724477478E-044
 -6.100000000000000E-003    1.451050684687386E-044
 -5.999999999999999E-003    1.385212363359022E-044
 -5.899999999999999E-003    8.689251914795864E-045
 -5.800000000000000E-003   -8.471727912927043E-046
 -5.699999999999999E-003   -1.401579426452305E-044
 -5.599999999999999E-003   -3.086576767854131E-044
 -5.499999999999999E-003   -4.965385332952451E-044
 -5.399999999999999E-003   -6.570062822149986E-044
 -5.299999999999999E-003   -7.470967180054092E-044
 -5.199999999999999E-003   -7.141128061536974E-044
 -5.099999999999999E-003   -4.915426528487997E-044
 -4.999999999999999E-003   -4.759738715102897E-045
 -4.899999999999999E-003    6.136134446268938E-044
 -4.799999999999999E-003    1.445042688873007E-043
 -4.699999999999999E-003    2.346969194272230E-043
 -4.599999999999999E-003    3.132587492552599E-043
 -4.499999999999999E-003    3.582355179624409E-043
 -4.399999999999999E-003    3.429171952395484E-043
 -4.299999999999999E-003    2.422340550733554E-043
 -4.199999999999999E-003    3.901719409394014E-044
 -4.099999999999999E-003   -2.668402421506608E-043
 -3.999999999999999E-003   -6.528846479091475E-043
 -3.899999999999999E-003   -1.069159872070251E-042
 -3.799999999999999E-003   -1.435410656768698E-042
 -3.699999999999999E-003   -1.645101131503373E-042
 -3.599999999999999E-003   -1.580710281841999E-042
 -3.499999999999999E-003   -1.131792974272488E-042
 -3.399999999999999E-003   -2.272634318592534E-043
 -3.299999999999999E-003    1.135826372690819E-042
 -3.199999999999999E-003    2.855771158471056E-042
 -3.099999999999999E-003    4.706158991875859E-042
 -2.999999999999999E-003    6.331314514071151E-042
 -2.899999999999999E-003    7.269658560596226E-042
 -2.799999999999999E-003    7.007604417892101E-042
 -2.699999999999999E-003    5.076940552086358E-042
 -2.599999999999999E-003    1.172825442011914E-042
 -2.499999999999999E-003   -4.699703071101549E-042
 -2.399999999999999E-003   -1.209513519990489E-041
 -2.299999999999999E-003   -2.003870697796355E-041
 -2.199999999999999E-003   -2.701131454368831E-041
 -2.099999999999999E-003   -3.105460073296374E-041
 -1.999999999999999E-003   -3.001932689507386E-041
 -1.899999999999999E-003   -2.195639599962424E-041
 -1.799999999999999E-003   -5.638214705183632E-042
 -1.699999999999999E-003    1.886798680129095E-041
 -1.599999999999999E-003    4.966581543540073E-041
 -1.499999999999999E-003    8.267494174162429E-041
 -1.399999999999999E-003    1.116135955721795E-040
 -1.299999999999999E-003    1.284588219176187E-040
 -1.199999999999999E-003    1.244759455580153E-040
 -1.099999999999999E-003    9.184137685106655E-041
 -9.999999999999989E-004    2.572898151889550E-041
 -8.999999999999990E-004   -7.339586333304062E-041
 -7.999999999999990E-004   -1.976977435374595E-040
 -6.999999999999989E-004   -3.306546365836997E-040
 -5.999999999999990E-004   -4.470936299675901E-040
 -4.999999999999989E-004   -5.151367806080414E-040
 -3.999999999999989E-004   -5.003860840580565E-040
 -2.999999999999989E-004   -3.723577313761442E-040
 -1.999999999999989E-004   -1.126551222586729E-040
 -9.999999999999892E-005    2.761913626879338E-040
  1.084202172485504E-018    7.628687864973933E-040
  1.000000000000011E-004    1.282516989899781E-039
  2.000000000000011E-004    1.737309913667919E-039
  3.000000000000011E-004    2.004367095808195E-039
  4.000000000000011E-004    1.952191556720472E-039
  5.000000000000011E-004    1.465441626040683E-039
  6.000000000000011E-004    4.759620896361724E-040
  7.000000000000011E-004   -1.004144635680941E-039
  8.000000000000011E-004   -2.853719365486214E-039
  9.000000000000012E-004   -4.825859069660641E-039
  1.000000000000001E-003   -6.551600987137786E-039
  1.100000000000001E-003   -7.571064495780431E-039
  1.200000000000001E-003   -7.395951764855252E-039
  1.300000000000001E-003   -5.602091929583238E-039
  1.400000000000001E-003   -1.943813214871404E-039
  1.500000000000001E-003    3.525893084334918E-039
  1.600000000000001E-003    1.035275743687080E-038
  1.700000000000001E-003    1.762458551587713E-038
  1.800000000000001E-003    2.398993605628395E-038
  1.900000000000001E-003    2.777652016440155E-038
  2.000000000000001E-003    2.722167656130182E-038
  2.100000000000001E-003    2.080817716261225E-038
  2.200000000000001E-003    7.673774659089923E-039
  2.300000000000001E-003   -1.196435993654203E-038
  2.400000000000001E-003   -3.645407394292355E-038
  2.500000000000001E-003   -6.252166102668155E-038
  2.600000000000001E-003   -8.535569296068340E-038
  2.700000000000001E-003   -9.904273591443265E-038
  2.800000000000001E-003   -9.739262709824184E-038
  2.900000000000001E-003   -7.512265209374819E-038
  3.000000000000001E-003   -2.928390698986937E-038
  3.100000000000001E-003    3.927989084417511E-038
  3.200000000000001E-003    1.247332931492533E-037
  3.300000000000001E-003    2.156526419916137E-037
  3.400000000000001E-003    2.953724254417912E-037
  3.500000000000001E-003    3.435399690201325E-037
  3.600000000000001E-003    3.389874697029157E-037
  3.700000000000001E-003    2.637946846001167E-037
  3.800000000000001E-003    1.081249077763902E-037
  3.900000000000001E-003   -1.248916763398764E-037
  4.000000000000001E-003   -4.152179878789815E-037
  4.100000000000001E-003   -7.240564332563739E-037
  4.200000000000001E-003   -9.951942551450285E-037
  4.300000000000001E-003   -1.160387220067566E-036
  4.400000000000001E-003   -1.149083123466207E-036
  4.500000000000001E-003   -9.019952682408288E-037
  4.600000000000002E-003   -3.870785503799505E-037
  4.700000000000001E-003    3.845340178854211E-037
  4.800000000000001E-003    1.345903479304214E-036
  4.900000000000002E-003    2.368680343947082E-036
  5.000000000000001E-003    3.268064260886019E-036
  5.100000000000001E-003    3.820918799278194E-036
  5.200000000000001E-003    3.797826194637045E-036
  5.300000000000002E-003    3.007284569966614E-036
  5.400000000000001E-003    1.347179374673726E-036
  5.500000000000001E-003   -1.144462531890606E-036
  5.600000000000002E-003   -4.249952969022126E-036
  5.700000000000001E-003   -7.555420813913120E-036
  5.800000000000001E-003   -1.046829156009374E-035
  5.900000000000002E-003   -1.227655912794200E-035
  6.000000000000001E-003   -1.225174510911279E-035
  6.100000000000001E-003   -9.789271738074962E-036
  6.200000000000002E-003   -4.570318752736298E-036
  6.300000000000002E-003    3.280297537905995E-036
  6.400000000000001E-003    1.307322499301304E-035
  6.500000000000001E-003    2.350698516960868E-035
  6.600000000000002E-003    3.272711967010059E-035
  6.700000000000001E-003    3.851488594582580E-035
  6.800000000000001E-003    3.860975928334765E-035
  6.900000000000002E-003    3.114451710057002E-035
  7.000000000000001E-003    1.514239824365206E-035
  7.100000000000001E-003   -9.002831694445358E-036
  7.200000000000002E-003   -3.916493019573452E-035
  7.300000000000002E-003   -7.135098545105154E-035
  7.400000000000001E-003   -9.989408651014406E-035
  7.500000000000001E-003   -1.180383555809709E-034
  7.600000000000002E-003   -1.189244017915501E-034
  7.700000000000001E-003   -9.690641250824879E-035
  7.800000000000001E-003   -4.904461796366342E-035
  7.900000000000001E-003    2.346676034365308E-035
  8.000000000000002E-003    1.142380837026635E-034
  8.100000000000001E-003    2.113128452515305E-034
  8.200000000000001E-003    2.977738107235542E-034
  8.300000000000002E-003    3.535101702804099E-034
  8.400000000000001E-003    3.581572944128195E-034
  8.500000000000002E-003    2.949925622710639E-034
  8.600000000000002E-003    1.553171966452485E-034
  8.700000000000001E-003   -5.738607733680580E-035
  8.800000000000002E-003   -3.244016455191381E-034
  8.900000000000002E-003   -6.107691840098449E-034
  9.000000000000001E-003   -8.671282240888703E-034
  9.100000000000002E-003   -1.034923786212697E-033
  9.200000000000002E-003   -1.054971342880301E-033
  9.300000000000001E-003   -8.787246908836127E-034
  9.400000000000002E-003   -4.808647931848029E-034
  9.500000000000001E-003    1.288425129717456E-034
  9.600000000000001E-003    8.969397033081377E-034
  9.700000000000002E-003    1.723558205944158E-033
  9.800000000000001E-003    2.467859918386209E-033
  9.900000000000001E-003    2.962996568972193E-033
  1.000000000000000E-002    3.040501497882497E-033
  1.010000000000000E-002    2.562172511790105E-033
  1.020000000000000E-002    1.455486300538666E-033
  1.030000000000000E-002   -2.532530934717180E-034
  1.040000000000000E-002   -2.415075667641421E-033
  1.050000000000000E-002   -4.751115681245363E-033
  1.060000000000000E-002   -6.868182068668354E-033
  1.070000000000000E-002   -8.300739481586453E-033
  1.080000000000000E-002   -8.578837467955398E-033
  1.090000000000000E-002   -7.316419718790497E-033
  1.100000000000000E-002   -4.308941378729039E-033
  1.110000000000000E-002    3.757321250427646E-034
  1.120000000000000E-002    6.332443193807450E-033
  1.130000000000000E-002    1.279964183921744E-032
  1.140000000000000E-002    1.870268784677592E-032
  1.150000000000000E-002    2.276891011001932E-032
  1.160000000000000E-002    2.371272448000056E-032
  1.170000000000000E-002    2.047522846087599E-032
  1.180000000000000E-002    1.248800451271150E-032
  1.190000000000000E-002   -8.223101262829001E-035
  1.200000000000000E-002   -1.615988904749192E-032
  1.210000000000000E-002   -3.371026163492975E-032
  1.220000000000000E-002   -4.985649934535699E-032
  1.230000000000000E-002   -6.118787022405070E-032
  1.240000000000000E-002   -6.425353572158427E-032
  1.250000000000000E-002   -5.619966015511106E-032
  1.260000000000000E-002   -3.546875304731310E-032
  1.270000000000000E-002   -2.446442821613464E-033
  1.280000000000000E-002    4.008041488668468E-032
  1.290000000000000E-002    8.679180588482634E-032
  1.300000000000000E-002    1.301416497526465E-031
  1.310000000000000E-002    1.611649111141085E-031
  1.320000000000000E-002    1.707677222128312E-031
  1.330000000000000E-002    1.513882253692336E-031
  1.340000000000000E-002    9.881635830713623E-032
  1.350000000000000E-002    1.387431801081263E-032
  1.360000000000000E-002   -9.639339363080706E-032
  1.370000000000000E-002   -2.183728350920375E-031
  1.380000000000000E-002   -3.326641743006372E-031
  1.390000000000000E-002   -4.161480084111016E-031
  1.400000000000000E-002   -4.452872974506450E-031
  1.410000000000000E-002   -4.003742426751166E-031
  1.420000000000000E-002   -2.701799140493386E-031
  1.430000000000000E-002   -5.624768216529030E-032
  1.440000000000000E-002    2.240586598960360E-031
  1.450000000000000E-002    5.366408753649248E-031
  1.460000000000000E-002    8.326076507043669E-031
  1.470000000000000E-002    1.053447706197977E-030
  1.480000000000000E-002    1.139311421944548E-030
  1.490000000000000E-002    1.039666016460008E-030
  1.500000000000000E-002    7.249655312614810E-031
  1.510000000000000E-002    1.974421019052545E-031
  1.520000000000000E-002   -5.011936748017252E-031
  1.530000000000000E-002   -1.287346100895901E-030
  1.540000000000000E-002   -2.040201353419035E-030
  1.550000000000000E-002   -2.614398317557676E-030
  1.560000000000000E-002   -2.860385845756125E-030
  1.570000000000000E-002   -2.650664698499117E-030
  1.580000000000000E-002   -1.908571441135541E-030
  1.590000000000000E-002   -6.349699145597706E-031
  1.600000000000000E-002    1.072555082001217E-030
  1.610000000000000E-002    3.013372759176090E-030
  1.620000000000000E-002    4.894691281194818E-030
  1.630000000000000E-002    6.361907852412418E-030
  1.640000000000000E-002    7.047687180228663E-030
  1.650000000000000E-002    6.635416928594063E-030
  1.660000000000000E-002    4.929007560751767E-030
  1.670000000000000E-002    1.917890777077109E-030
  1.680000000000000E-002   -2.175760520942159E-030
  1.690000000000000E-002   -6.880498732653869E-030
  1.700000000000000E-002   -1.150016516673054E-029
  1.710000000000000E-002   -1.518502359215235E-029
  1.720000000000000E-002   -1.704781333212162E-029
  1.730000000000000E-002   -1.631448640618377E-029
  1.740000000000000E-002   -1.249069040904261E-029
  1.750000000000000E-002   -5.517675870270612E-030
  1.760000000000000E-002    4.113031443209125E-030
  1.770000000000000E-002    1.531668462796902E-029
  1.780000000000000E-002    2.646882456703705E-029
  1.790000000000000E-002    3.556840298528448E-029
  1.800000000000000E-002    4.050703630697358E-029
  1.810000000000000E-002    3.942088542702029E-029
  1.820000000000000E-002    3.108140384836771E-029
  1.830000000000000E-002    1.526385818471397E-029
  1.840000000000000E-002   -6.977659344073054E-030
  1.850000000000000E-002   -3.319967325537199E-029
  1.860000000000000E-002   -5.968122323105153E-029
  1.870000000000000E-002   -8.178978952540874E-029