 -4.000000000000000E-002    0.000000000000000E+000
 -3.990000000000000E-002    1.007191278061412E-008
 -3.980000000000000E-002    2.922347330340866E-008
 -3.970000000000000E-002    5.506095801244009E-008
 -3.960000000000000E-002    8.429674875145034E-008
 -3.950000000000000E-002    1.133936113568692E-007
 -3.940000000000000E-002    1.391767998080935E-007
 -3.930000000000000E-002    1.592570110162771E-007
 -3.920000000000000E-002    1.721599105276432E-007
 -3.910000000000000E-002    1.771374893429639E-007
 -3.900000000000000E-002    1.737235534825600E-007
 -3.890000000000000E-002    1.611678029897768E-007
 -3.880000000000000E-002    1.379218763177537E-007
 -3.870000000000000E-002    1.013450038375501E-007
 -3.860000000000000E-002    4.774843936792773E-008
 -3.850000000000000E-002   -2.718553288875914E-008
 -3.840000000000000E-002   -1.276702377853411E-007
 -3.830000000000000E-002   -2.569136611572741E-007
 -3.820000000000000E-002   -4.162525840740760E-007
 -3.810000000000000E-002   -6.045320252286552E-007
 -3.800000000000000E-002   -8.178988075367917E-007
 -3.790000000000000E-002   -1.050089786928587E-006
 -3.780000000000000E-002   -1.293184200621512E-006
 -3.770000000000000E-002   -1.538678225687414E-006
 -3.760000000000000E-002   -1.778652776646413E-006
 -3.750000000000000E-002   -2.006771426484217E-006
 -3.740000000000000E-002   -2.218864680038763E-006
 -3.730000000000000E-002   -2.412943617975520E-006
 -3.720000000000000E-002   -2.588603259232417E-006
 -3.710000000000000E-002   -2.745922760738708E-006
 -3.700000000000000E-002   -2.884091326001491E-006
 -3.690000000000000E-002   -3.000073792751661E-006
 -3.680000000000000E-002   -3.087642225043271E-006
 -3.670000000000000E-002   -3.137046179826070E-006
 -3.660000000000000E-002   -3.135469937527866E-006
 -3.650000000000000E-002   -3.068262531580312E-006
 -3.640000000000000E-002   -2.920753876390803E-006
 -3.630000000000000E-002   -2.680329705705966E-006
 -3.620000000000000E-002   -2.338357035839190E-006
 -3.610000000000000E-002   -1.891556275570974E-006
 -3.600000000000000E-002   -1.342505336601210E-006
 -3.590000000000000E-002   -6.991243062908291E-007
 -3.580000000000000E-002    2.680769817590759E-008
 -3.570000000000000E-002    8.218498269611505E-007
 -3.560000000000000E-002    1.673395221050481E-006
 -3.550000000000000E-002    2.571973728113448E-006
 -3.540000000000000E-002    3.512883005937479E-006
 -3.530000000000000E-002    4.496796022534072E-006
 -3.520000000000000E-002    5.529184116511414E-006
 -3.510000000000000E-002    6.618639479691776E-006
 -3.500000000000000E-002    7.774414262106559E-006
 -3.490000000000000E-002    9.003657116098695E-006
 -3.480000000000000E-002    1.030892914736014E-005
 -3.470000000000000E-002    1.168652687647528E-005
 -3.460000000000000E-002    1.312600821361529E-005
 -3.450000000000000E-002    1.461107417474937E-005
 -3.440000000000000E-002    1.612169995473014E-005
 -3.430000000000000E-002    1.763713623066082E-005
 -3.420000000000000E-002    1.913921726401505E-005
 -3.410000000000000E-002    2.061533205420489E-005
 -3.400000000000000E-002    2.206045150277154E-005
 -3.390000000000000E-002    2.347779219402151E-005
 -3.380000000000000E-002    2.487793801636227E-005
 -3.370000000000000E-002    2.627655895983027E-005
 -3.360000000000000E-002    2.769115172133686E-005
 -3.350000000000000E-002    2.913741985274883E-005
 -3.340000000000000E-002    3.062601077017358E-005
 -3.330000000000000E-002    3.216026703450255E-005
 -3.320000000000000E-002    3.373545325563849E-005
 -3.310000000000000E-002    3.533964299293022E-005
 -3.300000000000000E-002    3.695612438181450E-005
 -3.290000000000000E-002    3.856684842825379E-005
 -3.280000000000000E-002    4.015627774346047E-005
 -3.270000000000000E-002    4.171484289231463E-005
 -3.260000000000000E-002    4.324133942783025E-005
 -3.250000000000000E-002    4.474372386897088E-005
 -3.240000000000000E-002    4.623818677746297E-005
 -3.230000000000000E-002    4.774660603898497E-005
 -3.220000000000000E-002    4.929290876792976E-005
 -3.210000000000000E-002    5.089903109613180E-005
 -3.200000000000000E-002    5.258132039041059E-005
 -3.190000000000000E-002    5.434808153843548E-005
 -3.180000000000000E-002    5.619880380582121E-005
 -3.170000000000000E-002    5.812526432178540E-005
 -3.160000000000000E-002    6.011432512599330E-005
 -3.150000000000000E-002    6.215189020439731E-005
 -3.140000000000000E-002    6.422727110982523E-005
 -3.130000000000000E-002    6.633710529847317E-005
 -3.120000000000000E-002    6.848800750308414E-005
 -3.110000000000000E-002    7.069744801125108E-005
 -3.100000000000000E-002    7.299258891845279E-005
 -3.090000000000000E-002    7.540730199166988E-005
 -3.080000000000000E-002    7.797786457637230E-005
 -3.070000000000000E-002    8.073817513539119E-005
 -3.060000000000000E-002    8.371536212619162E-005
 -3.050000000000000E-002    8.692664242354404E-005
 -3.040000000000000E-002    9.037802125036604E-005
 -3.030000000000000E-002    9.406510268081917E-005
 -3.020000000000000E-002    9.797584663665110E-005
 -3.010000000000000E-002    1.020947589164370E-004
 -3.000000000000000E-002    1.064076841915332E-004
 -2.990000000000000E-002    1.109063054287927E-004
 -2.980000000000000E-002    1.155914475509682E-004
 -2.970000000000000E-002    1.204745392326818E-004
 -2.960000000000000E-002    1.255769491061963E-004
 -2.950000000000000E-002    1.309273205032619E-004
 -2.940000000000000E-002    1.365573515663648E-004
 -2.930000000000000E-002    1.424969263038663E-004
 -2.920000000000000E-002    1.487693814050667E-004
 -2.910000000000000E-002    1.553879961284360E-004
 -2.900000000000000E-002    1.623542237940215E-004
 -2.890000000000000E-002    1.696581257606983E-004
 -2.880000000000000E-002    1.772808740036251E-004
 -2.870000000000000E-002    1.851989421216481E-004
 -2.860000000000000E-002    1.933890772181364E-004
 -2.850000000000000E-002    2.018332717539853E-004
 -2.840000000000000E-002    2.105226841617842E-004
 -2.830000000000000E-002    2.194598377898689E-004
 -2.820000000000000E-002    2.286586876784767E-004
 -2.810000000000000E-002    2.381425048965571E-004
 -2.800000000000000E-002    2.479399897155924E-004
 -2.790000000000000E-002    2.580803801287883E-004
 -2.780000000000000E-002    2.685883610645362E-004
 -2.770000000000000E-002    2.794797863742103E-004
 -2.760000000000000E-002    2.907589630052199E-004
 -2.750000000000000E-002    3.024179217930060E-004
 -2.740000000000000E-002    3.144378249740511E-004
 -2.730000000000000E-002    3.267921835343531E-004
 -2.720000000000000E-002    3.394513110238897E-004
 -2.710000000000000E-002    3.523870175008542E-004
 -2.700000000000000E-002    3.655768344057846E-004
 -2.690000000000000E-002    3.790068830610158E-004
 -2.680000000000000E-002    3.926728434470642E-004
 -2.670000000000000E-002    4.065788703341861E-004
 -2.660000000000000E-002    4.207346747522323E-004
 -2.650000000000000E-002    4.351513468869348E-004
 -2.640000000000000E-002    4.498364587297703E-004
 -2.630000000000000E-002    4.647895702971860E-004
 -2.620000000000000E-002    4.799987942952563E-004
 -2.610000000000000E-002    4.954389445309949E-004
 -2.600000000000000E-002    5.110716769998848E-004
 -2.590000000000000E-002    5.268473857336942E-004
 -2.580000000000000E-002    5.427085612405035E-004
 -2.570000000000000E-002    5.585938819026911E-004
 -2.560000000000000E-002    5.744423944645139E-004
 -2.550000000000000E-002    5.901968568808949E-004
 -2.540000000000000E-002    6.058056583208958E-004
 -2.530000000000000E-002    6.212231784416549E-004
 -2.520000000000000E-002    6.364081320801710E-004
 -2.510000000000000E-002    6.513207695898386E-004
 -2.500000000000000E-002    6.659187459973048E-004
 -2.490000000000000E-002    6.801527974769743E-004
 -2.480000000000000E-002    6.939628529741403E-004
 -2.470000000000000E-002    7.072751157582143E-004
 -2.460000000000000E-002    7.200004932496333E-004
 -2.450000000000000E-002    7.320345581029757E-004
 -2.440000000000000E-002    7.432592246216878E-004
 -2.430000000000000E-002    7.535451215752531E-004
 -2.420000000000000E-002    7.627549262283920E-004
 -2.410000000000000E-002    7.707463038742557E-004
 -2.400000000000000E-002    7.773742348564107E-004
 -2.390000000000000E-002    7.824925246271680E-004
 -2.380000000000000E-002    7.859535346147154E-004
 -2.370000000000000E-002    7.876065588028684E-004
 -2.360000000000000E-002    7.872955689441853E-004
 -2.350000000000000E-002    7.848551429707561E-004
 -2.340000000000000E-002    7.801071266997871E-004
 -2.330000000000000E-002    7.728568124132776E-004
 -2.320000000000000E-002    7.628902540939719E-004
 -2.310000000000000E-002    7.499727373221534E-004
 -2.300000000000000E-002    7.338478069080783E-004
 -2.290000000000000E-002    7.142384598740600E-004
 -2.280000000000000E-002    6.908484851863704E-004
 -2.270000000000000E-002    6.633649329744306E-004
 -2.260000000000000E-002    6.314604772093269E-004
 -2.250000000000000E-002    5.947951605656983E-004
 -2.240000000000000E-002    5.530178605222054E-004
 -2.230000000000000E-002    5.057663615236322E-004
 -2.220000000000000E-002    4.526664915795424E-004
 -2.210000000000000E-002    3.933295516968848E-004
 -2.200000000000000E-002    3.273500709232909E-004
 -2.190000000000000E-002    2.543020838098469E-004
 -2.180000000000000E-002    1.737350497636041E-004
 -2.170000000000000E-002    8.517163935335313E-005
 -2.160000000000000E-002   -1.189486673495988E-005
 -2.150000000000000E-002   -1.180025721615764E-004
 -2.140000000000000E-002   -2.337209588742416E-004
 -2.130000000000000E-002   -3.596495828291507E-004
 -2.120000000000000E-002   -4.964182125675697E-004
 -2.110000000000000E-002   -6.446838740765484E-004
 -2.100000000000000E-002   -8.051297461436936E-004
 -2.090000000000000E-002   -9.784637440644422E-004
 -2.080000000000000E-002   -1.165418085957932E-003
 -2.070000000000000E-002   -1.366749229888229E-003
 -2.060000000000000E-002   -1.583240945833348E-003
 -2.050000000000000E-002   -1.815706743654141E-003
 -2.040000000000000E-002   -2.064992848792721E-003
 -2.030000000000000E-002   -2.331982133227179E-003
 -2.020000000000000E-002   -2.617599039462543E-003
 -2.010000000000000E-002   -2.922809080493002E-003
 -2.000000000000000E-002   -3.248625614060589E-003
 -1.990000000000000E-002   -3.596107271507212E-003
 -1.980000000000000E-002   -3.966361033126434E-003
 -1.970000000000000E-002   -4.360537217621575E-003
 -1.960000000000000E-002   -4.779831680179275E-003
 -1.950000000000000E-002   -5.225480321191569E-003
 -1.940000000000000E-002   -5.698760517181557E-003
 -1.930000000000000E-002   -6.200987104361953E-003
 -1.920000000000000E-002   -6.733515143755493E-003
 -1.910000000000000E-002   -7.297739716006207E-003
 -1.900000000000000E-002   -7.895098767639191E-003
 -1.890000000000000E-002   -8.527074756263874E-003
 -1.880000000000000E-002   -9.195201933293115E-003
 -1.870000000000000E-002   -9.901067386783362E-003
 -1.860000000000000E-002   -1.064631579019189E-002
 -1.850000000000000E-002   -1.143265169065271E-002
 -1.840000000000000E-002   -1.226183933220412E-002
 -1.830000000000000E-002   -1.313570531686764E-002
 -1.820000000000000E-002   -1.405613428774945E-002
 -1.810000000000000E-002   -1.502506909872051E-002
 -1.800000000000000E-002   -1.604450582709717E-002
 -1.790000000000000E-002   -1.711649220196710E-002
 -1.780000000000000E-002   -1.824313176073973E-002
 -1.770000000000000E-002   -1.942657450628979E-002
 -1.760000000000000E-002   -2.066901916652118E-002
 -1.750000000000000E-002   -2.197272510962494E-002
 -1.740000000000000E-002   -2.334000026091515E-002
 -1.730000000000000E-002   -2.477321513603511E-002
 -1.720000000000000E-002   -2.627480353399488E-002
 -1.710000000000000E-002   -2.784726341408363E-002
 -1.700000000000000E-002   -2.949316324444034E-002
 -1.690000000000000E-002   -3.121513256118872E-002
 -1.680000000000000E-002   -3.301587479316871E-002
 -1.670000000000000E-002   -3.489815573937685E-002
 -1.660000000000000E-002   -3.686479758709555E-002
 -1.650000000000000E-002   -3.891868854040242E-002
 -1.640000000000000E-002   -4.106276428749905E-002
 -1.630000000000000E-002   -4.330001662207342E-002
 -1.620000000000000E-002   -4.563348003400260E-002
 -1.610000000000000E-002   -4.806625021033104E-002
 -1.600000000000000E-002   -5.060146124637184E-002
 -1.590000000000000E-002   -5.324230327150650E-002
 -1.580000000000000E-002   -5.599202181990063E-002
 -1.570000000000000E-002   -5.885390974679892E-002
 -1.560000000000000E-002   -6.183132978437707E-002
 -1.550000000000000E-002   -6.492768508130931E-002
 -1.540000000000000E-002   -6.814645153928231E-002
 -1.530000000000000E-002   -7.149113409635892E-002
 -1.520000000000000E-002   -7.496530156214122E-002
 -1.510000000000000E-002   -7.857256316313352E-002
 -1.500000000000000E-002   -8.231656589198780E-002
 -1.490000000000000E-002   -8.620097479582052E-002
 -1.480000000000000E-002   -9.022951279677389E-002
 -1.470000000000000E-002   -9.440591375044613E-002
 -1.460000000000000E-002   -9.873393021254441E-002
 -1.450000000000000E-002   -0.103217341637316     
 -1.440000000000000E-002   -0.107859952393174     
 -1.430000000000000E-002   -0.112665570952795     
 -1.420000000000000E-002   -0.117638047391430     
 -1.410000000000000E-002   -0.122781219484080     
 -1.400000000000000E-002   -0.128098978122591     
 -1.390000000000000E-002   -0.133595193723003     
 -1.380000000000000E-002   -0.139273748507750     
 -1.370000000000000E-002   -0.145138538459022     
 -1.360000000000000E-002   -0.151193426979879     
 -1.350000000000000E-002   -0.157442294544572     
 -1.340000000000000E-002   -0.163888962892630     
 -1.330000000000000E-002   -0.170537263461599     
 -1.320000000000000E-002   -0.177390958568172     
 -1.310000000000000E-002   -0.184453802514206     
 -1.300000000000000E-002   -0.191729505974555     
 -1.290000000000000E-002   -0.199221711734553     
 -1.280000000000000E-002   -0.206934027975241     
 -1.270000000000000E-002   -0.214869989518004     
 -1.260000000000000E-002   -0.223033078680269     
 -1.250000000000000E-002   -0.231426729712290     
 -1.240000000000000E-002   -0.240054269059576     
 -1.230000000000000E-002   -0.248918962248762     
 -1.220000000000000E-002   -0.258023991994802     
 -1.210000000000000E-002   -0.267372416651951     
 -1.200000000000000E-002   -0.276967207624292     
 -1.190000000000000E-002   -0.286811255814041     
 -1.180000000000000E-002   -0.296907253269013     
 -1.170000000000000E-002   -0.307257844045254     
 -1.160000000000000E-002   -0.317865480109790     
 -1.150000000000000E-002   -0.328732452314448     
 -1.140000000000000E-002   -0.339860954195619     
 -1.130000000000000E-002   -0.351252999512290     
 -1.120000000000000E-002   -0.362910405368364     
 -1.110000000000000E-002   -0.374834832453852     
 -1.100000000000000E-002   -0.387027760930449     
 -1.090000000000000E-002   -0.399490532788833     
 -1.080000000000000E-002   -0.412224200983337     
 -1.070000000000000E-002   -0.425229659307502     
 -1.060000000000000E-002   -0.438507548915062     
 -1.050000000000000E-002   -0.452058380968290     
 -1.040000000000000E-002   -0.465882330747665     
 -1.030000000000000E-002   -0.479979309708530     
 -1.020000000000000E-002   -0.494349097202798     
 -1.010000000000000E-002   -0.508991071396760     
 -1.000000000000000E-002   -0.523904430964675     
 -9.899999999999999E-003   -0.539088105529397     
 -9.800000000000000E-003   -0.554540692145000     
 -9.699999999999999E-003   -0.570260502427050     
 -9.599999999999999E-003   -0.586245589352271     
 -9.500000000000000E-003   -0.602493607188392     
 -9.399999999999999E-003   -0.619001977555911     
 -9.299999999999999E-003   -0.635767729020438     
 -9.200000000000000E-003   -0.652787622229938     
 -9.099999999999999E-003   -0.670058019867037     
 -8.999999999999999E-003   -0.687574940954242     
 -8.900000000000000E-003   -0.705334143118692     
 -8.799999999999999E-003   -0.723330936097300     
 -8.699999999999999E-003   -0.741560226084977     
 -8.600000000000000E-003   -0.760016665779642     
 -8.499999999999999E-003   -0.778694432683582     
 -8.399999999999999E-003   -0.797587404360620     
 -8.300000000000000E-003   -0.816688908930553     
 -8.199999999999999E-003   -0.835992055256505     
 -8.100000000000000E-003   -0.855489374877931     
 -8.000000000000000E-003   -0.875173255318403     
 -7.899999999999999E-003   -0.895035364308571     
 -7.800000000000000E-003   -0.915067131373609     
 -7.699999999999999E-003   -0.935259600813504     
 -7.599999999999999E-003   -0.955603353453738     
 -7.499999999999999E-003   -0.976088493674007     
 -7.399999999999999E-003   -0.996704792868626     
 -7.299999999999999E-003    -1.01744165913051     
 -7.199999999999999E-003    -1.03828788890800     
 -7.100000000000000E-003    -1.05923194224910     
 -6.999999999999999E-003    -1.08026192544014     
 -6.899999999999999E-003    -1.10136542659163     
 -6.800000000000000E-003    -1.12252967029975     
 -6.699999999999999E-003    -1.14374146441170     
 -6.599999999999999E-003    -1.16498721310964     
 -6.499999999999999E-003    -1.18625287055730     
 -6.399999999999999E-003    -1.20752389415591     
 -6.299999999999999E-003    -1.22878555668917     
 -6.199999999999999E-003    -1.25002265635282     
 -6.100000000000000E-003    -1.27121947584826     
 -5.999999999999999E-003    -1.29236004108487     
 -5.899999999999999E-003    -1.31342810522917     
 -5.800000000000000E-003    -1.33440674352816     
 -5.699999999999999E-003    -1.35527893610876     
 -5.599999999999999E-003    -1.37602717121759     
 -5.499999999999999E-003    -1.39663366927609     
 -5.399999999999999E-003    -1.41708025217806     
 -5.299999999999999E-003    -1.43734841595813     
 -5.199999999999999E-003    -1.45741949016792     
 -5.099999999999999E-003    -1.47727440262006     
 -4.999999999999999E-003    -1.49689377622101     
 -4.899999999999999E-003    -1.51625808969140     
 -4.799999999999999E-003    -1.53534743747721     
 -4.699999999999999E-003    -1.55414179788506     
 -4.599999999999999E-003    -1.57262089269812     
 -4.499999999999999E-003    -1.59076407253331     
 -4.399999999999999E-003    -1.60855073787721     
 -4.299999999999999E-003    -1.62595995138778     
 -4.199999999999999E-003    -1.64297071180276     
 -4.099999999999999E-003    -1.65956181410015     
 -3.999999999999999E-003    -1.67571201835447     
 -3.899999999999999E-003    -1.69140009252845     
 -3.799999999999999E-003    -1.70660448860243     
 -3.699999999999999E-003    -1.72130382651171     
 -3.599999999999999E-003    -1.73547657359071     
 -3.499999999999999E-003    -1.74910123599688     
 -3.399999999999999E-003    -1.76215638299728     
 -3.299999999999999E-003    -1.77462061225109     
 -3.199999999999999E-003    -1.78647259026865     
 -3.099999999999999E-003    -1.79769095954954     
 -2.999999999999999E-003    -1.80825456683587     
 -2.899999999999999E-003    -1.81814248133362     
 -2.799999999999999E-003    -1.82733385734864     
 -2.699999999999999E-003    -1.83580798433981     
 -2.599999999999999E-003    -1.84354449742066     
 -2.499999999999999E-003    -1.85052315656543     
 -2.399999999999999E-003    -1.85672407036595     
 -2.299999999999999E-003    -1.86212763454797     
 -2.199999999999999E-003    -1.86671468035462     
 -2.099999999999999E-003    -1.87046614388493     
 -1.999999999999999E-003    -1.87336358109379     
 -1.899999999999999E-003    -1.87538876537077     
 -1.799999999999999E-003    -1.87652400097324     
 -1.699999999999999E-003    -1.87675216057894     
 -1.599999999999999E-003    -1.87605645858712     
 -1.499999999999999E-003    -1.87442054569793     
 -1.399999999999999E-003    -1.87182885881670     
 -1.299999999999999E-003    -1.86826613426956     
 -1.199999999999999E-003    -1.86371796638994     
 -1.099999999999999E-003    -1.85817034495108     
 -9.999999999999989E-004    -1.85160996251273     
 -8.999999999999990E-004    -1.84402414648007     
 -7.999999999999990E-004    -1.83540113591962     
 -6.999999999999989E-004    -1.82572959933541     
 -5.999999999999990E-004    -1.81499914497518     
 -4.999999999999989E-004    -1.80320013866034     
 -3.999999999999989E-004    -1.79032364183045     
 -2.999999999999989E-004    -1.77636159498683     
 -1.999999999999989E-004    -1.76130667895790     
 -9.999999999999892E-005    -1.74515255711223     
  1.084202172485504E-018    -1.72789358673371     
  1.000000000000011E-004    -1.70952517681366     
  2.000000000000011E-004    -1.69004355438553     
  3.000000000000011E-004    -1.66944586423937     
  4.000000000000011E-004    -1.64773025558309     
  5.000000000000011E-004    -1.62489580558413     
  6.000000000000011E-004    -1.60094243185915     
  7.000000000000011E-004    -1.57587117052626     
  8.000000000000011E-004    -1.54968417208498     
  9.000000000000012E-004    -1.52238434703356     
  1.000000000000001E-003    -1.49397571533786     
  1.100000000000001E-003    -1.46446339517410     
  1.200000000000001E-003    -1.43385355309854     
  1.300000000000001E-003    -1.40215317246481     
  1.400000000000001E-003    -1.36937054473118     
  1.500000000000001E-003    -1.33551482807593     
  1.600000000000001E-003    -1.30059636339735     
  1.700000000000001E-003    -1.26462640996086     
  1.800000000000001E-003    -1.22761733546190     
  1.900000000000001E-003    -1.18958250744623     
  2.000000000000001E-003    -1.15053644572640     
  2.100000000000001E-003    -1.11049464201327     
  2.200000000000001E-003    -1.06947363261587     
  2.300000000000001E-003    -1.02749097720348     
  2.400000000000001E-003   -0.984565339512651     
  2.500000000000001E-003   -0.940716353626639     
  2.600000000000001E-003   -0.895964723376670     
  2.700000000000001E-003   -0.850332042655233     
  2.800000000000001E-003   -0.803840911059975     
  2.900000000000001E-003   -0.756514933496341     
  3.000000000000001E-003   -0.708378571751108     
  3.100000000000001E-003   -0.659457338796048     
  3.200000000000001E-003   -0.609777572651083     
  3.300000000000001E-003   -0.559366521501985     
  3.400000000000001E-003   -0.508252288273082     
  3.500000000000001E-003   -0.456463880705996     
  3.600000000000001E-003   -0.404031103979414     
  3.700000000000001E-003   -0.350984550365809     
  3.800000000000001E-003   -0.297355657178922     
  3.900000000000001E-003   -0.243176536678045     
  4.000000000000001E-003   -0.188480028971374     
  4.100000000000001E-003   -0.133299730303389     
  4.200000000000001E-003   -7.766985484340480E-002
  4.300000000000001E-003   -2.162521912289152E-002
  4.400000000000001E-003    3.479877349077512E-002
  4.500000000000001E-003    9.156610173174978E-002
  4.600000000000002E-003    0.148640310752810     
  4.700000000000001E-003    0.205984345793749     
  4.800000000000001E-003    0.263560803046183     
  4.900000000000002E-003    0.321331803206883     
  5.000000000000001E-003    0.379259106432947     
  5.100000000000001E-003    0.437304136862640     
  5.200000000000001E-003    0.495427955988619     
  5.300000000000002E-003    0.553591402222678     
  5.400000000000001E-003    0.611755081107777     
  5.500000000000001E-003    0.669879449545826     
  5.600000000000002E-003    0.727924706102066     
  5.700000000000001E-003    0.785851190113546     
  5.800000000000001E-003    0.843618895902069     
  5.900000000000002E-003    0.901188076712049     
  6.000000000000001E-003    0.958518748377246     
  6.100000000000001E-003     1.01557123834655     
  6.200000000000002E-003     1.07230584977770     
  6.300000000000002E-003     1.12868303502330     
  6.400000000000001E-003     1.18466350683940     
  6.500000000000001E-003     1.24020816951676     
  6.600000000000002E-003     1.29527827133700     
  6.700000000000001E-003     1.34983521027145     
  6.800000000000001E-003     1.40384099953107     
  6.900000000000002E-003     1.45725782780014     
  7.000000000000001E-003     1.51004840265000     
  7.100000000000001E-003     1.56217600644527     
  7.200000000000002E-003     1.61360437262708     
  7.300000000000002E-003     1.66429761733538     
  7.400000000000001E-003     1.71422087894233     
  7.500000000000001E-003     1.76333946220522     
  7.600000000000002E-003     1.81161977891822     
  7.700000000000001E-003     1.85902864802369     
  7.800000000000001E-003     1.90553383807695     
  7.900000000000001E-003     1.95110375615214     
  8.000000000000002E-003     1.99570772461240     
  8.100000000000001E-003     2.03931574892062     
  8.200000000000001E-003     2.08189898350719     
  8.300000000000002E-003     2.12342925187604     
  8.400000000000001E-003     2.16387929528262     
  8.500000000000002E-003     2.20322312144622     
  8.600000000000002E-003     2.24143538791429     
  8.700000000000001E-003     2.27849214023273     
  8.800000000000002E-003     2.31437017373742     
  8.900000000000002E-003     2.34904735254101     
  9.000000000000001E-003     2.38250277259275     
  9.100000000000002E-003     2.41471663315494     
  9.200000000000002E-003     2.44567004403167     
  9.300000000000001E-003     2.47534549140954     
  9.400000000000002E-003     2.50372674622704     
  9.500000000000001E-003     2.53079827497205     
  9.600000000000001E-003     2.55654612427037     
  9.700000000000002E-003     2.58095739957819     
  9.800000000000001E-003     2.60402036643340     
  9.900000000000001E-003     2.62572477914175     
  1.000000000000000E-002     2.64606121842574     
  1.010000000000000E-002     2.66502173654635     
  1.020000000000000E-002     2.68259948631605     
  1.030000000000000E-002     2.69878905356476     
  1.040000000000000E-002     2.71358610305477     
  1.050000000000000E-002     2.72698781926170     
  1.060000000000000E-002     2.73899204169405     
  1.070000000000000E-002     2.74959836979893     
  1.080000000000000E-002     2.75880722722151     
  1.090000000000000E-002     2.76662056380394     
  1.100000000000000E-002     2.77304140641941     
  1.110000000000000E-002     2.77807390246476     
  1.120000000000000E-002     2.78172344008378     
  1.130000000000000E-002     2.78399676665685     
  1.140000000000000E-002     2.78490157496346     
  1.150000000000000E-002     2.78444686558083     
  1.160000000000000E-002     2.78264249257365     
  1.170000000000000E-002     2.77949962102001     
  1.180000000000000E-002     2.77503059840315     
  1.190000000000000E-002     2.76924866487143     
  1.200000000000000E-002     2.76216806375095     
  1.210000000000000E-002     2.75380419424940     
  1.220000000000000E-002     2.74417337439880     
  1.230000000000000E-002     2.73329304424879     
  1.240000000000000E-002     2.72118142175912     
  1.250000000000000E-002     2.70785751607880     
  1.260000000000000E-002     2.69334174915594     
  1.270000000000000E-002     2.67765481166761     
  1.280000000000000E-002     2.66081863714820     
  1.290000000000000E-002     2.64285574866536     
  1.300000000000000E-002     2.62378965489098     
  1.310000000000000E-002     2.60364437144323     
  1.320000000000000E-002     2.58244472977833     
  1.330000000000000E-002     2.56021633502642     
  1.340000000000000E-002     2.53698510229479     
  1.350000000000000E-002     2.51277802530006     
  1.360000000000000E-002     2.48762238874395     
  1.370000000000000E-002     2.46154587026965     
  1.380000000000000E-002     2.43457700379408     
  1.390000000000000E-002     2.40674467443429     
  1.400000000000000E-002     2.37807803676524     
  1.410000000000000E-002     2.34860689903753     
  1.420000000000000E-002     2.31836107930222     
  1.430000000000000E-002     2.28737119823932     
  1.440000000000000E-002     2.25566772565530     
  1.450000000000000E-002     2.22328150856018     
  1.460000000000000E-002     2.19024372848388     
  1.470000000000000E-002     2.15658583718132     
  1.480000000000000E-002     2.12233927525016     
  1.490000000000000E-002     2.08753557359523     
  1.500000000000000E-002     2.05220635734630     
  1.510000000000000E-002     2.01638333194720     
  1.520000000000000E-002     1.98009818358094     
  1.530000000000000E-002     1.94338265411070     
  1.540000000000000E-002     1.90626826061306     
  1.550000000000000E-002     1.86878648482223     
  1.560000000000000E-002     1.83096876457761     
  1.570000000000000E-002     1.79284637067347     
  1.580000000000000E-002     1.75445041548864     
  1.590000000000000E-002     1.71581159060395     
  1.600000000000000E-002     1.67696057906562     
  1.610000000000000E-002     1.63792774633127     
  1.620000000000000E-002     1.59874305277439     
  1.630000000000000E-002     1.55943624618409     
  1.640000000000000E-002     1.52003668198199     
  1.650000000000000E-002     1.48057325657778     
  1.660000000000000E-002     1.44107455433848     
  1.670000000000000E-002     1.40156863624269     
  1.680000000000000E-002     1.36208309665889     
  1.690000000000000E-002     1.32264515448796     
  1.700000000000000E-002     1.28328149326838     
  1.710000000000000E-002     1.24401824149244     
  1.720000000000000E-002     1.20488107382134     
  1.730000000000000E-002     1.16589503007703     
  1.740000000000000E-002     1.12708458966142     
  1.750000000000000E-002     1.08847362901544     
  1.760000000000000E-002     1.05008550361602     
  1.770000000000000E-002     1.01194283131866     
  1.780000000000000E-002    0.974067710053808     
  1.790000000000000E-002    0.936481529658428     
  1.800000000000000E-002    0.899205079945066     
  1.810000000000000E-002    0.862258393957823     
  1.820000000000000E-002    0.825660863398994     
  1.830000000000000E-002    0.789431204860886     
  1.840000000000000E-002    0.753587498843370     
  1.850000000000000E-002    0.718147004854191     
  1.860000000000000E-002    0.683126401877602     
  1.870000000000000E-002    0.648541586071516     