 -4.000000000000000E-002    0.000000000000000E+000
 -3.990000000000000E-002    0.000000000000000E+000
 -3.980000000000000E-002    0.000000000000000E+000
 -3.970000000000000E-002    0.000000000000000E+000
 -3.960000000000000E-002    8.221873186225069E-018
 -3.950000000000000E-002    6.111686948486856E-017
 -3.940000000000000E-002    2.368238669512211E-016
 -3.930000000000000E-002    6.152275684026865E-016
 -3.920000000000000E-002    1.126790754984727E-015
 -3.910000000000000E-002    1.266967509391276E-015
 -3.900000000000000E-002   -2.502209588877789E-016
 -3.890000000000000E-002   -5.677952465796880E-015
 -3.880000000000000E-002   -1.788923692491793E-014
 -3.870000000000000E-002   -3.905239413831796E-014
 -3.860000000000000E-002   -6.799006044169046E-014
 -3.850000000000000E-002   -9.624096450689312E-014
 -3.840000000000000E-002   -1.034728989865836E-013
 -3.830000000000000E-002   -5.370876825669529E-014
 -3.820000000000000E-002    1.053718825900150E-013
 -3.810000000000000E-002    4.373159642710653E-013
 -3.800000000000000E-002    1.003409785081200E-012
 -3.790000000000000E-002    1.839425689873263E-012
 -3.780000000000000E-002    2.923462283315453E-012
 -3.770000000000000E-002    4.138943183252201E-012
 -3.760000000000000E-002    5.240507371245438E-012
 -3.750000000000000E-002    5.833811292310693E-012
 -3.740000000000000E-002    5.382074893027938E-012
 -3.730000000000000E-002    3.251488451330029E-012
 -3.720000000000000E-002   -1.196518417765666E-012
 -3.710000000000000E-002   -8.465917165955385E-012
 -3.700000000000000E-002   -1.875025226922218E-011
 -3.690000000000000E-002   -3.174338089439800E-011
 -3.680000000000000E-002   -4.647137118732609E-011
 -3.670000000000000E-002   -6.118802949371842E-011
 -3.660000000000000E-002   -7.337769991823069E-011
 -3.650000000000000E-002   -7.990121923867978E-011
 -3.640000000000000E-002   -7.730364394182774E-011
 -3.630000000000000E-002   -6.227604859993793E-011
 -3.620000000000000E-002   -3.223269752599646E-011
 -3.610000000000000E-002    1.406720003045329E-011
 -3.600000000000000E-002    7.594913113977484E-011
 -3.590000000000000E-002    1.504133534503253E-010
 -3.580000000000000E-002    2.319896019921469E-010
 -3.570000000000000E-002    3.129355386480087E-010
 -3.560000000000000E-002    3.838134302919194E-010
 -3.550000000000000E-002    4.344212991004206E-010
 -3.540000000000000E-002    4.549904653047681E-010
 -3.530000000000000E-002    4.375032017003439E-010
 -3.520000000000000E-002    3.769434116185393E-010
 -3.510000000000000E-002    2.722794765551035E-010
 -3.500000000000000E-002    1.269982837611737E-010
 -3.490000000000000E-002   -5.093711898642652E-011
 -3.480000000000000E-002   -2.497526791512230E-010
 -3.470000000000000E-002   -4.551004797709764E-010
 -3.460000000000000E-002   -6.517196529053905E-010
 -3.450000000000000E-002   -8.252927097012934E-010
 -3.440000000000000E-002   -9.642205908920588E-010
 -3.430000000000000E-002   -1.061035001580949E-009
 -3.420000000000000E-002   -1.113207123316392E-009
 -3.410000000000000E-002   -1.123194300581461E-009
 -3.400000000000000E-002   -1.097677658142130E-009
 -3.390000000000000E-002   -1.046066989706476E-009
 -3.380000000000000E-002   -9.784632930818317E-010
 -3.370000000000000E-002   -9.033597163128489E-010
 -3.360000000000000E-002   -8.254099782763880E-010
 -3.350000000000000E-002   -7.435999027059950E-010
 -3.340000000000000E-002   -6.501178440549219E-010
 -3.330000000000000E-002   -5.301473288197696E-010
 -3.320000000000000E-002   -3.627091897899621E-010
 -3.310000000000000E-002   -1.225755851756609E-010
 -3.300000000000000E-002    2.168263472511151E-010
 -3.290000000000000E-002    6.796987263532302E-010
 -3.280000000000000E-002    1.283609197947171E-009
 -3.270000000000000E-002    2.035022024330270E-009
 -3.260000000000000E-002    2.925039759964200E-009
 -3.250000000000000E-002    3.925836512668602E-009
 -3.240000000000000E-002    4.988312512502646E-009
 -3.230000000000000E-002    6.041515650371311E-009
 -3.220000000000000E-002    6.994339917139036E-009
 -3.210000000000000E-002    7.739896129638957E-009
 -3.200000000000000E-002    8.162732277141465E-009
 -3.190000000000000E-002    8.148768658862417E-009
 -3.180000000000000E-002    7.597416916947097E-009
 -3.170000000000000E-002    6.434896657746067E-009
 -3.160000000000000E-002    4.627351920134966E-009
 -3.150000000000000E-002    2.192046332979272E-009
 -3.140000000000000E-002   -7.952018016342100E-010
 -3.130000000000000E-002   -4.198043915316417E-009
 -3.120000000000000E-002   -7.824333454886443E-009
 -3.110000000000000E-002   -1.143806503528610E-008
 -3.100000000000000E-002   -1.477805374389547E-008
 -3.090000000000000E-002   -1.758179204453319E-008
 -3.080000000000000E-002   -1.961193676004584E-008
 -3.070000000000000E-002   -2.068210435432536E-008
 -3.060000000000000E-002   -2.067833749295660E-008
 -3.050000000000000E-002   -1.957284351912776E-008
 -3.040000000000000E-002   -1.742742572714796E-008
 -3.030000000000000E-002   -1.438540107615552E-008
 -3.020000000000000E-002   -1.065252660876042E-008
 -3.010000000000000E-002   -6.469281339540729E-009
 -3.000000000000000E-002   -2.078486058256295E-009
 -2.990000000000000E-002    2.306653828668081E-009
 -2.980000000000000E-002    6.528686844895264E-009
 -2.970000000000000E-002    1.050141442404779E-008
 -2.960000000000000E-002    1.421146495412423E-008
 -2.950000000000000E-002    1.770488263627314E-008
 -2.940000000000000E-002    2.106030538896397E-008
 -2.930000000000000E-002    2.435292631585115E-008
 -2.920000000000000E-002    2.761549921641006E-008
 -2.910000000000000E-002    3.080378982860120E-008
 -2.900000000000000E-002    3.377376752460766E-008
 -2.890000000000000E-002    3.627640510840713E-008
 -2.880000000000000E-002    3.797332395943192E-008
 -2.870000000000000E-002    3.847308129799538E-008
 -2.860000000000000E-002    3.738420402052240E-008
 -2.850000000000000E-002    3.437775211767439E-008
 -2.840000000000000E-002    2.924989421160990E-008
 -2.830000000000000E-002    2.197417997177783E-008
 -2.820000000000000E-002    1.273415193336437E-008
 -2.810000000000000E-002    1.929637737330810E-009
 -2.800000000000000E-002   -9.845940146532571E-009
 -2.790000000000000E-002   -2.185510572414853E-008
 -2.780000000000000E-002   -3.328594087571324E-008
 -2.770000000000000E-002   -4.333114093054922E-008
 -2.760000000000000E-002   -5.126382269618751E-008
 -2.750000000000000E-002   -5.649721060654014E-008
 -2.740000000000000E-002   -5.861759441667628E-008
 -2.730000000000000E-002   -5.738396850845971E-008
 -2.720000000000000E-002   -5.269320169868776E-008
 -2.710000000000000E-002   -4.451544002629137E-008
 -2.700000000000000E-002   -3.280967336892076E-008
 -2.690000000000000E-002   -1.743322228591922E-008
 -2.680000000000000E-002    1.939709892845460E-009
 -2.670000000000000E-002    2.587621238051341E-008
 -2.660000000000000E-002    5.520894885351822E-008
 -2.650000000000000E-002    9.102141238763240E-008
 -2.640000000000000E-002    1.345953997696378E-007
 -2.630000000000000E-002    1.873286053762431E-007
 -2.620000000000000E-002    2.506352162035924E-007
 -2.610000000000000E-002    3.258460073510787E-007
 -2.600000000000000E-002    4.141242620726675E-007
 -2.590000000000000E-002    5.164126309355232E-007
 -2.580000000000000E-002    6.334196535109387E-007
 -2.570000000000000E-002    7.656503025612423E-007
 -2.560000000000000E-002    9.134760006134738E-007
 -2.550000000000000E-002    1.077233841658710E-006
 -2.540000000000000E-002    1.257340547464266E-006
 -2.530000000000000E-002    1.454402937432487E-006
 -2.520000000000000E-002    1.669307547477885E-006
 -2.510000000000000E-002    1.903276124298585E-006
 -2.500000000000000E-002    2.157876542603227E-006
 -2.490000000000000E-002    2.434987308818828E-006
 -2.480000000000000E-002    2.736719492464476E-006
 -2.470000000000000E-002    3.065307065303459E-006
 -2.460000000000000E-002    3.422977678019884E-006
 -2.450000000000000E-002    3.811823014159769E-006
 -2.440000000000000E-002    4.233685169512307E-006
 -2.430000000000000E-002    4.690070011489669E-006
 -2.420000000000000E-002    5.182101241837327E-006
 -2.410000000000000E-002    5.710520435560817E-006
 -2.400000000000000E-002    6.275730319610869E-006
 -2.390000000000000E-002    6.877883950366864E-006
 -2.380000000000000E-002    7.517000904670994E-006
 -2.370000000000000E-002    8.193111567504104E-006
 -2.360000000000000E-002    8.906410234592382E-006
 -2.350000000000000E-002    9.657404521888333E-006
 -2.340000000000000E-002    1.044705310716758E-005
 -2.330000000000000E-002    1.127687223073852E-005
 -2.320000000000000E-002    1.214900951231308E-005
 -2.310000000000000E-002    1.306627200418433E-005
 -2.300000000000000E-002    1.403210271359791E-005
 -2.290000000000000E-002    1.505051469664794E-005
 -2.280000000000000E-002    1.612597059192431E-005
 -2.270000000000000E-002    1.726323007518945E-005
 -2.260000000000000E-002    1.846717056599558E-005
 -2.250000000000000E-002    1.974260529170260E-005
 -2.240000000000000E-002    2.109411313472189E-005
 -2.230000000000000E-002    2.252590671223822E-005
 -2.220000000000000E-002    2.404176233916002E-005
 -2.210000000000000E-002    2.564501225174277E-005
 -2.200000000000000E-002    2.733862041973036E-005
 -2.190000000000000E-002    2.912533687580918E-005
 -2.180000000000000E-002    3.100790554254076E-005
 -2.170000000000000E-002    3.298932225598409E-005
 -2.160000000000000E-002    3.507308427306913E-005
 -2.150000000000000E-002    3.726344236062773E-005
 -2.140000000000000E-002    3.956557108447491E-005
 -2.130000000000000E-002    4.198568276260889E-005
 -2.120000000000000E-002    4.453103464341976E-005
 -2.110000000000000E-002    4.720985538161900E-005
 -2.100000000000000E-002    5.003118394463317E-005
 -2.090000000000000E-002    5.300466908372854E-005
 -2.080000000000000E-002    5.614034501731139E-005
 -2.070000000000000E-002    5.944841842764618E-005
 -2.060000000000000E-002    6.293914369431415E-005
 -2.050000000000000E-002    6.662274142111480E-005
 -2.040000000000000E-002    7.050942557456152E-005
 -2.030000000000000E-002    7.460949519313903E-005
 -2.020000000000000E-002    7.893351693096265E-005
 -2.010000000000000E-002    8.349251188744386E-005
 -2.000000000000000E-002    8.829813742076596E-005
 -1.990000000000000E-002    9.336284506888495E-005
 -1.980000000000000E-002    9.869994003008876E-005
 -1.970000000000000E-002    1.043235550554061E-004
 -1.960000000000000E-002    1.102485972122001E-004
 -1.950000000000000E-002    1.164905556447325E-004
 -1.940000000000000E-002    1.230653160841492E-004
 -1.930000000000000E-002    1.299890369067085E-004
 -1.920000000000000E-002    1.372779850746277E-004
 -1.910000000000000E-002    1.449485728982080E-004
 -1.900000000000000E-002    1.530174247161370E-004
 -1.890000000000000E-002    1.615015624933253E-004
 -1.880000000000000E-002    1.704187311108113E-004
 -1.870000000000000E-002    1.797876621307592E-004
 -1.860000000000000E-002    1.896284407721374E-004
 -1.850000000000000E-002    1.999627848526270E-004
 -1.840000000000000E-002    2.108141364039309E-004
 -1.830000000000000E-002    2.222077822756184E-004
 -1.820000000000000E-002    2.341706844661448E-004
 -1.810000000000000E-002    2.467312790044745E-004
 -1.800000000000000E-002    2.599191989610762E-004
 -1.790000000000000E-002    2.737649237046297E-004
 -1.780000000000000E-002    2.882994913883871E-004
 -1.770000000000000E-002    3.035543468543498E-004
 -1.760000000000000E-002    3.195612042361147E-004
 -1.750000000000000E-002    3.363521259352006E-004
 -1.740000000000000E-002    3.539597775412703E-004
 -1.730000000000000E-002    3.724176879123706E-004
 -1.720000000000000E-002    3.917606584855724E-004
 -1.710000000000000E-002    4.120251383601838E-004
 -1.700000000000000E-002    4.332494837980956E-004
 -1.690000000000000E-002    4.554741442847126E-004
 -1.680000000000000E-002    4.787417682774465E-004
 -1.670000000000000E-002    5.030971570575641E-004
 -1.660000000000000E-002    5.285870420951266E-004
 -1.650000000000000E-002    5.552598419283682E-004
 -1.640000000000000E-002    5.831654032369679E-004
 -1.630000000000000E-002    6.123547690265426E-004
 -1.620000000000000E-002    6.428801257799458E-004
 -1.610000000000000E-002    6.747947815490870E-004
 -1.600000000000000E-002    7.081533078221209E-004
 -1.590000000000000E-002    7.430117174501081E-004
 -1.580000000000000E-002    7.794278978207679E-004
 -1.570000000000000E-002    8.174618748386205E-004
 -1.560000000000000E-002    8.571760563289084E-004
 -1.550000000000000E-002    8.986355167094279E-004
 -1.540000000000000E-002    9.419080678385184E-004
 -1.530000000000000E-002    9.870642050597519E-004
 -1.520000000000000E-002    1.034176971810775E-003
 -1.510000000000000E-002    1.083321970716124E-003
 -1.500000000000000E-002    1.134576702127582E-003
 -1.490000000000000E-002    1.188020844383219E-003
 -1.480000000000000E-002    1.243735792331669E-003
 -1.470000000000000E-002    1.301804629601461E-003
 -1.460000000000000E-002    1.362312539955568E-003
 -1.450000000000000E-002    1.425346460593747E-003
 -1.440000000000000E-002    1.490995664414341E-003
 -1.430000000000000E-002    1.559351739221759E-003
 -1.420000000000000E-002    1.630508801740532E-003
 -1.410000000000000E-002    1.704563733753589E-003
 -1.400000000000000E-002    1.781616110496845E-003
 -1.390000000000000E-002    1.861768065956579E-003
 -1.380000000000000E-002    1.945124133479084E-003
 -1.370000000000000E-002    2.031791436463726E-003
 -1.360000000000000E-002    2.121879065687063E-003
 -1.350000000000000E-002    2.215498507945914E-003
 -1.340000000000000E-002    2.312763114859726E-003
 -1.330000000000000E-002    2.413788574194512E-003
 -1.320000000000000E-002    2.518692995608027E-003
 -1.310000000000000E-002    2.627597395138299E-003
 -1.300000000000000E-002    2.740625302082393E-003
 -1.290000000000000E-002    2.857903579197863E-003
 -1.280000000000000E-002    2.979562461963987E-003
 -1.270000000000000E-002    3.105735055327731E-003
 -1.260000000000000E-002    3.236557441959127E-003
 -1.250000000000000E-002    3.372168453495224E-003
 -1.240000000000000E-002    3.512709402921354E-003
 -1.230000000000000E-002    3.658323285848039E-003
 -1.220000000000000E-002    3.809154127942535E-003
 -1.210000000000000E-002    3.965348344613684E-003
 -1.200000000000000E-002    4.127052143692060E-003
 -1.190000000000000E-002    4.294413371444636E-003
 -1.180000000000000E-002    4.467581611553815E-003
 -1.170000000000000E-002    4.646706934663834E-003
 -1.160000000000000E-002    4.831941725928730E-003
 -1.150000000000000E-002    5.023440422410720E-003
 -1.140000000000000E-002    5.221359965196250E-003
 -1.130000000000000E-002    5.425858966497102E-003
 -1.120000000000000E-002    5.637098824753837E-003
 -1.110000000000000E-002    5.855241801537422E-003
 -1.100000000000000E-002    6.080452520731671E-003
 -1.090000000000000E-002    6.312896309067203E-003
 -1.080000000000000E-002    6.552738616636499E-003
 -1.070000000000000E-002    6.800145732397659E-003
 -1.060000000000000E-002    7.055283052866910E-003
 -1.050000000000000E-002    7.318315545733482E-003
 -1.040000000000000E-002    7.589407633242265E-003
 -1.030000000000000E-002    7.868724123344158E-003
 -1.020000000000000E-002    8.156427893825273E-003
 -1.010000000000000E-002    8.452681877443281E-003
 -1.000000000000000E-002    8.757649076365842E-003
 -9.899999999999999E-003    9.071490926541102E-003
 -9.800000000000000E-003    9.394367963449678E-003
 -9.699999999999999E-003    9.726438843264780E-003
 -9.599999999999999E-003    1.006785998402646E-002
 -9.500000000000000E-003    1.041878585696081E-002
 -9.399999999999999E-003    1.077936682804466E-002
 -9.299999999999999E-003    1.114975060343836E-002
 -9.200000000000000E-003    1.153007912090222E-002
 -9.099999999999999E-003    1.192049106675212E-002
 -8.999999999999999E-003    1.232112030380004E-002
 -8.900000000000000E-003    1.273209576789044E-002
 -8.799999999999999E-003    1.315354309728716E-002
 -8.699999999999999E-003    1.358558257650574E-002
 -8.600000000000000E-003    1.402832893115696E-002
 -8.499999999999999E-003    1.448189253070365E-002
 -8.399999999999999E-003    1.494637514465386E-002
 -8.300000000000000E-003    1.542187583509566E-002
 -8.199999999999999E-003    1.590848295042204E-002
 -8.100000000000000E-003    1.640627787040722E-002
 -8.000000000000000E-003    1.691532982954871E-002
 -7.899999999999999E-003    1.743570277317284E-002
 -7.800000000000000E-003    1.796744395387218E-002
 -7.699999999999999E-003    1.851059294820896E-002
 -7.599999999999999E-003    1.906517711215972E-002
 -7.499999999999999E-003    1.963121240130734E-002
 -7.399999999999999E-003    2.020870327675730E-002
 -7.299999999999999E-003    2.079763989256126E-002
 -7.199999999999999E-003    2.139800311384620E-002
 -7.100000000000000E-003    2.200975735530914E-002
 -6.999999999999999E-003    2.263285938095295E-002
 -6.899999999999999E-003    2.326724443424474E-002
 -6.800000000000000E-003    2.391283703546145E-002
 -6.699999999999999E-003    2.456954438045044E-002
 -6.599999999999999E-003    2.523725404680032E-002
 -6.499999999999999E-003    2.591583516120081E-002
 -6.399999999999999E-003    2.660513415899141E-002
 -6.299999999999999E-003    2.730498278873513E-002
 -6.199999999999999E-003    2.801518691941168E-002
 -6.100000000000000E-003    2.873553460431551E-002
 -5.999999999999999E-003    2.946578767925026E-002
 -5.899999999999999E-003    3.020569104212738E-002
 -5.800000000000000E-003    3.095496730603921E-002
 -5.699999999999999E-003    3.171331285873510E-002
 -5.599999999999999E-003    3.248040109186908E-002
 -5.499999999999999E-003    3.325588443623542E-002
 -5.399999999999999E-003    3.403938873430925E-002
 -5.299999999999999E-003    3.483051112941364E-002
 -5.199999999999999E-003    3.562882006688588E-002
 -5.099999999999999E-003    3.643386133816615E-002
 -4.999999999999999E-003    3.724514548938247E-002
 -4.899999999999999E-003    3.806215532932470E-002
 -4.799999999999999E-003    3.888433888201000E-002
 -4.699999999999999E-003    3.971111813643974E-002
 -4.599999999999999E-003    4.054188312182113E-002
 -4.499999999999999E-003    4.137598433742737E-002
 -4.399999999999999E-003    4.221274670632325E-002
 -4.299999999999999E-003    4.305146109414070E-002
 -4.199999999999999E-003    4.389138825222537E-002
 -4.099999999999999E-003    4.473174907501063E-002
 -3.999999999999999E-003    4.557173501642908E-002
 -3.899999999999999E-003    4.641049592124672E-002
 -3.799999999999999E-003    4.724714787340988E-002
 -3.699999999999999E-003    4.808077159484690E-002
 -3.599999999999999E-003    4.891040487608424E-002
 -3.499999999999999E-003    4.973504919261112E-002
 -3.399999999999999E-003    5.055366080363411E-002
 -3.299999999999999E-003    5.136516527493096E-002
 -3.199999999999999E-003    5.216844304914198E-002
 -3.099999999999999E-003    5.296233602324888E-002
 -2.999999999999999E-003    5.374564566587932E-002
 -2.899999999999999E-003    5.451713572224877E-002
 -2.799999999999999E-003    5.527552941382820E-002
 -2.699999999999999E-003    5.601951014220182E-002
 -2.599999999999999E-003    5.674771992911820E-002
 -2.499999999999999E-003    5.745875996911071E-002
 -2.399999999999999E-003    5.815119076337229E-002
 -2.299999999999999E-003    5.882352827894981E-002
 -2.199999999999999E-003    5.947424933455753E-002
 -2.099999999999999E-003    6.010179220246469E-002
 -1.999999999999999E-003    6.070454777108841E-002
 -1.899999999999999E-003    6.128086762768780E-002
 -1.799999999999999E-003    6.182906550185582E-002
 -1.699999999999999E-003    6.234741328909472E-002
 -1.599999999999999E-003    6.283414859126842E-002
 -1.499999999999999E-003    6.328745758293927E-002
 -1.399999999999999E-003    6.370550751046664E-002
 -1.299999999999999E-003    6.408641343945358E-002
 -1.199999999999999E-003    6.442825726790478E-002
 -1.099999999999999E-003    6.472908367395061E-002
 -9.999999999999989E-004    6.498689985483000E-002
 -8.999999999999990E-004    6.519967776310789E-002
 -7.999999999999990E-004    6.536535487400201E-002
 -6.999999999999989E-004    6.548183217115087E-002
 -5.999999999999990E-004    6.554697759664566E-002
 -4.999999999999989E-004    6.555863457398101E-002
 -3.999999999999989E-004    6.551460583405591E-002
 -2.999999999999989E-004    6.541267424088953E-002
 -1.999999999999989E-004    6.525059607960067E-002
 -9.999999999999892E-005    6.502609784790379E-002
  1.084202172485504E-018    6.473688747014752E-002
  1.000000000000011E-004    6.438064643291486E-002
  2.000000000000011E-004    6.395503648241607E-002
  3.000000000000011E-004    6.345769941465554E-002
  4.000000000000011E-004    6.288626235679129E-002
  5.000000000000011E-004    6.223833095018214E-002
  6.000000000000011E-004    6.151150157572695E-002
  7.000000000000011E-004    6.070336007357039E-002
  8.000000000000011E-004    5.981147557152956E-002
  9.000000000000012E-004    5.883342240562366E-002
  1.000000000000001E-003    5.776676217446153E-002
  1.100000000000001E-003    5.660905388962305E-002
  1.200000000000001E-003    5.535787014097681E-002
  1.300000000000001E-003    5.401077188183234E-002
  1.400000000000001E-003    5.256533405368640E-002
  1.500000000000001E-003    5.101914175334797E-002
  1.600000000000001E-003    4.936979218879418E-002
  1.700000000000001E-003    4.761489320316216E-002
  1.800000000000001E-003    4.575206830656660E-002
  1.900000000000001E-003    4.377896699880802E-002
  2.000000000000001E-003    4.169326048240994E-002
  2.100000000000001E-003    3.949264142580473E-002
  2.200000000000001E-003    3.717483954665850E-002
  2.300000000000001E-003    3.473761308652976E-002
  2.400000000000001E-003    3.217875742664002E-002
  2.500000000000001E-003    2.949611508001188E-002
  2.600000000000001E-003    2.668756267307945E-002
  2.700000000000001E-003    2.375103070599463E-002
  2.800000000000001E-003    2.068449600719417E-002
  2.900000000000001E-003    1.748599396119798E-002
  3.000000000000001E-003    1.415361420671415E-002
  3.100000000000001E-003    1.068550852423703E-002
  3.200000000000001E-003    7.079893708445455E-003
  3.300000000000001E-003    3.335054615468721E-003
  3.400000000000001E-003   -5.506533497096310E-004
  3.500000000000001E-003   -4.578796392937881E-003
  3.600000000000001E-003   -8.750859226230319E-003
  3.700000000000001E-003   -1.306824628167908E-002
  3.800000000000001E-003   -1.753226566762845E-002
  3.900000000000001E-003   -2.214414449963353E-002
  4.000000000000001E-003   -2.690500306598362E-002
  4.100000000000001E-003   -3.181586466064566E-002
  4.200000000000001E-003   -3.687765586088111E-002
  4.300000000000001E-003   -4.209118938794008E-002
  4.400000000000001E-003   -4.745717068901310E-002
  4.500000000000001E-003   -5.297618612654109E-002
  4.600000000000002E-003   -5.864871781472732E-002
  4.700000000000001E-003   -6.447511810269399E-002
  4.800000000000001E-003   -7.045561550160299E-002
  4.900000000000002E-003   -7.659031546782166E-002
  5.000000000000001E-003   -8.287918412754626E-002
  5.100000000000001E-003   -8.932206018408252E-002
  5.200000000000001E-003   -9.591864468608363E-002
  5.300000000000002E-003   -0.102668484173541     
  5.400000000000001E-003   -0.109570992020997     
  5.500000000000001E-003   -0.116625428208083     
  5.600000000000002E-003   -0.123830906372778     
  5.700000000000001E-003   -0.131186384895438     
  5.800000000000001E-003   -0.138690664972057     
  5.900000000000002E-003   -0.146342382700978     
  6.000000000000001E-003   -0.154140031069898     
  6.100000000000001E-003   -0.162081925441734     
  6.200000000000002E-003   -0.170166212655375     
  6.300000000000002E-003   -0.178390892653959     
  6.400000000000001E-003   -0.186753771092938     
  6.500000000000001E-003   -0.195252494434841     
  6.600000000000002E-003   -0.203884540147832     
  6.700000000000001E-003   -0.212647220356169     
  6.800000000000001E-003   -0.221537644717921     
  6.900000000000002E-003   -0.230552752318065     
  7.000000000000001E-003   -0.239689326700684     
  7.100000000000001E-003   -0.248943952733862     
  7.200000000000002E-003   -0.258313033539994     
  7.300000000000002E-003   -0.267792817707494     
  7.400000000000001E-003   -0.277379343322213     
  7.500000000000001E-003   -0.287068479740460     
  7.600000000000002E-003   -0.296855926577401     
  7.700000000000001E-003   -0.306737221675626     
  7.800000000000001E-003   -0.316707699114403     
  7.900000000000001E-003   -0.326762497217427     
  8.000000000000002E-003   -0.336896591671205     
  8.100000000000001E-003   -0.347104812109719     
  8.200000000000001E-003   -0.357381793336065     
  8.300000000000002E-003   -0.367721992425105     
  8.400000000000001E-003   -0.378119716885235     
  8.500000000000002E-003   -0.388569080643751     
  8.600000000000002E-003   -0.399064049301411     
  8.700000000000001E-003   -0.409598425943026     
  8.800000000000002E-003   -0.420165838269413     
  8.900000000000002E-003   -0.430759769054757     
  9.000000000000001E-003   -0.441373560163874     
  9.100000000000002E-003   -0.452000423343079     
  9.200000000000002E-003   -0.462633354363903     
  9.300000000000001E-003   -0.473265299894389     
  9.400000000000002E-003   -0.483888981512176     
  9.500000000000001E-003   -0.494497044342316     
  9.600000000000001E-003   -0.505082007085404     
  9.700000000000002E-003   -0.515636244237898     
  9.800000000000001E-003   -0.526151979795752     
  9.900000000000001E-003   -0.536621405915546     
  1.000000000000000E-002   -0.547036555537815     
  1.010000000000000E-002   -0.557389355069014     
  1.020000000000000E-002   -0.567671630345453     
  1.030000000000000E-002   -0.577875165387787     
  1.040000000000000E-002   -0.587991624325407     
  1.050000000000000E-002   -0.598012579582481     
  1.060000000000000E-002   -0.607929604683035     
  1.070000000000000E-002   -0.617734181812658     
  1.080000000000000E-002   -0.627417704547988     
  1.090000000000000E-002   -0.636971553776102     
  1.100000000000000E-002   -0.646387072454943     
  1.110000000000000E-002   -0.655655490703602     
  1.120000000000000E-002   -0.664768181738067     
  1.130000000000000E-002   -0.673716297488889     
  1.140000000000000E-002   -0.682491152903241     
  1.150000000000000E-002   -0.691083952818064     
  1.160000000000000E-002   -0.699485984889280     
  1.170000000000000E-002   -0.707688458437852     
  1.180000000000000E-002   -0.715682751356770     
  1.190000000000000E-002   -0.723460165046640     
  1.200000000000000E-002   -0.731012075526982     
  1.210000000000000E-002   -0.738329892512538     
  1.220000000000000E-002   -0.745405097577714     
  1.230000000000000E-002   -0.752229257693888     
  1.240000000000000E-002   -0.758793979281834     
  1.250000000000000E-002   -0.765090964483560     
  1.260000000000000E-002   -0.771112038494153     
  1.270000000000000E-002   -0.776849102263358     
  1.280000000000000E-002   -0.782294142071806     
  1.290000000000000E-002   -0.787439361400556     
  1.300000000000000E-002   -0.792277042382740     
  1.310000000000000E-002   -0.796799613052081     
  1.320000000000000E-002   -0.800999601582967     
  1.330000000000000E-002   -0.804869770215179     
  1.340000000000000E-002   -0.808402965440157     
  1.350000000000000E-002   -0.811592270233997     
  1.360000000000000E-002   -0.814430976955215     
  1.370000000000000E-002   -0.816912445171679     
  1.380000000000000E-002   -0.819030319049116     
  1.390000000000000E-002   -0.820778453256925     
  1.400000000000000E-002   -0.822150887003684     
  1.410000000000000E-002   -0.823141902370361     
  1.420000000000000E-002   -0.823745981456483     
  1.430000000000000E-002   -0.823957913031230     
  1.440000000000000E-002   -0.823772599367017     
  1.450000000000000E-002   -0.823185324886552     
  1.460000000000000E-002   -0.822191618187756     
  1.470000000000000E-002   -0.820787213717557     
  1.480000000000000E-002   -0.818968189121848     
  1.490000000000000E-002   -0.816730878679005     
  1.500000000000000E-002   -0.814071875960652     
  1.510000000000000E-002   -0.810988080149353     
  1.520000000000000E-002   -0.807476637758088     
  1.530000000000000E-002   -0.803535077862507     
  1.540000000000000E-002   -0.799161205141982     
  1.550000000000000E-002   -0.794353122388655     
  1.560000000000000E-002   -0.789109248747480     
  1.570000000000000E-002   -0.783428337901034     
  1.580000000000000E-002   -0.777309408742009     
  1.590000000000000E-002   -0.770751898233004     
  1.600000000000000E-002   -0.763755507910496     
  1.610000000000000E-002   -0.756320263116686     
  1.620000000000000E-002   -0.748446612146944     
  1.630000000000000E-002   -0.740135252444797     
  1.640000000000000E-002   -0.731387269151675     
  1.650000000000000E-002   -0.722204072226325     
  1.660000000000000E-002   -0.712587451444367     
  1.670000000000000E-002   -0.702539447187817     
  1.680000000000000E-002   -0.692062490535635     
  1.690000000000000E-002   -0.681159394551476     
  1.700000000000000E-002   -0.669833292599386     
  1.710000000000000E-002   -0.658087577926770     
  1.720000000000000E-002   -0.645926116313869     
  1.730000000000000E-002   -0.633353003338071     
  1.740000000000000E-002   -0.620372755034873     
  1.750000000000000E-002   -0.606990190012244     
  1.760000000000000E-002   -0.593210490594270     
  1.770000000000000E-002   -0.579039160596736     
  1.780000000000000E-002   -0.564482008429309     
  1.790000000000000E-002   -0.549545167397497     
  1.800000000000000E-002   -0.534235128858956     
  1.810000000000000E-002   -0.518558688829600     
  1.820000000000000E-002   -0.502522945490965     
  1.830000000000000E-002   -0.486135323626550     
  1.840000000000000E-002   -0.469403482748493     
  1.850000000000000E-002   -0.452335462349736     
  1.860000000000000E-002   -0.434939546864061     
  1.870000000000000E-002   -0.417224343594931     