 -4.000000000000000E-002    0.000000000000000E+000
 -3.990000000000000E-002    0.000000000000000E+000
 -3.980000000000000E-002    0.000000000000000E+000
 -3.970000000000000E-002    0.000000000000000E+000
 -3.960000000000000E-002    0.000000000000000E+000
 -3.950000000000000E-002    0.000000000000000E+000
 -3.940000000000000E-002    0.000000000000000E+000
 -3.930000000000000E-002    0.000000000000000E+000
 -3.920000000000000E-002    0.000000000000000E+000
 -3.910000000000000E-002    0.000000000000000E+000
 -3.900000000000000E-002    0.000000000000000E+000
 -3.890000000000000E-002    0.000000000000000E+000
 -3.880000000000000E-002    0.000000000000000E+000
 -3.870000000000000E-002    0.000000000000000E+000
 -3.860000000000000E-002    0.000000000000000E+000
 -3.850000000000000E-002    0.000000000000000E+000
 -3.840000000000000E-002    0.000000000000000E+000
 -3.830000000000000E-002    0.000000000000000E+000
 -3.820000000000000E-002    0.000000000000000E+000
 -3.810000000000000E-002    0.000000000000000E+000
 -3.800000000000000E-002    0.000000000000000E+000
 -3.790000000000000E-002    0.000000000000000E+000
 -3.780000000000000E-002    0.000000000000000E+000
 -3.770000000000000E-002    0.000000000000000E+000
 -3.760000000000000E-002    0.000000000000000E+000
 -3.750000000000000E-002    0.000000000000000E+000
 -3.740000000000000E-002    0.000000000000000E+000
 -3.730000000000000E-002    0.000000000000000E+000
 -3.720000000000000E-002    0.000000000000000E+000
 -3.710000000000000E-002    0.000000000000000E+000
 -3.700000000000000E-002    0.000000000000000E+000
 -3.690000000000000E-002    0.000000000000000E+000
 -3.680000000000000E-002    0.000000000000000E+000
 -3.670000000000000E-002    0.000000000000000E+000
 -3.660000000000000E-002    0.000000000000000E+000
 -3.650000000000000E-002    0.000000000000000E+000
 -3.640000000000000E-002    0.000000000000000E+000
 -3.630000000000000E-002    0.000000000000000E+000
 -3.620000000000000E-002    0.000000000000000E+000
 -3.610000000000000E-002    0.000000000000000E+000
 -3.600000000000000E-002    0.000000000000000E+000
 -3.590000000000000E-002    0.000000000000000E+000
 -3.580000000000000E-002    0.000000000000000E+000
 -3.570000000000000E-002    0.000000000000000E+000
 -3.560000000000000E-002    0.000000000000000E+000
 -3.550000000000000E-002    0.000000000000000E+000
 -3.540000000000000E-002    0.000000000000000E+000
 -3.530000000000000E-002    0.000000000000000E+000
 -3.520000000000000E-002    0.000000000000000E+000
 -3.510000000000000E-002    0.000000000000000E+000
 -3.500000000000000E-002    0.000000000000000E+000
 -3.490000000000000E-002    0.000000000000000E+000
 -3.480000000000000E-002    0.000000000000000E+000
 -3.470000000000000E-002    0.000000000000000E+000
 -3.460000000000000E-002    0.000000000000000E+000
 -3.450000000000000E-002    0.000000000000000E+000
 -3.440000000000000E-002    0.000000000000000E+000
 -3.430000000000000E-002    0.000000000000000E+000
 -3.420000000000000E-002    0.000000000000000E+000
 -3.410000000000000E-002    5.694317058220838E-047
 -3.400000000000000E-002    1.267156117728593E-046
 -3.390000000000000E-002    2.996833352875582E-046
 -3.380000000000000E-002    5.822609764305263E-046
 -3.370000000000000E-002    1.039944552856267E-045
 -3.360000000000000E-002    1.509468640080328E-045
 -3.350000000000000E-002    1.615523948871569E-045
 -3.340000000000000E-002    3.796524706978645E-046
 -3.330000000000000E-002   -2.267214700016801E-045
 -3.320000000000000E-002   -1.052345878254123E-044
 -3.310000000000000E-002   -2.726596410993453E-044
 -3.300000000000000E-002   -5.894428539360754E-044
 -3.290000000000000E-002   -1.094673818815943E-043
 -3.280000000000000E-002   -1.803247867440729E-043
 -3.270000000000000E-002   -2.584146560511689E-043
 -3.260000000000000E-002   -3.032151425266093E-043
 -3.250000000000000E-002   -2.270025050972599E-043
 -3.240000000000000E-002    1.326553518776349E-043
 -3.230000000000000E-002    1.033149691036903E-042
 -3.220000000000000E-002    2.825871218696076E-042
 -3.210000000000000E-002    5.893909754997587E-042
 -3.200000000000000E-002    1.047598479011830E-041
 -3.190000000000000E-002    1.631305649067342E-041
 -3.180000000000000E-002    2.204474813929365E-041
 -3.170000000000000E-002    2.433591584151997E-041
 -3.160000000000000E-002    1.682530243729850E-041
 -3.150000000000000E-002   -1.080441229992583E-041
 -3.140000000000000E-002   -7.297567219588633E-041
 -3.130000000000000E-002   -1.864817255026600E-040
 -3.120000000000000E-002   -3.652689173592944E-040
 -3.110000000000000E-002   -6.098127649517523E-040
 -3.100000000000000E-002   -8.893972907283047E-040
 -3.090000000000000E-002   -1.116887165164740E-039
 -3.080000000000000E-002   -1.118613493052517E-039
 -3.070000000000000E-002   -6.073592535048493E-040
 -3.060000000000000E-002    8.256220142216509E-040
 -3.050000000000000E-002    3.673778286184614E-039
 -3.040000000000000E-002    8.398349718810776E-039
 -3.030000000000000E-002    1.519151514430702E-038
 -3.020000000000000E-002    2.358726459320630E-038
 -3.010000000000000E-002    3.191705551945519E-038
 -3.000000000000000E-002    3.666899869267725E-038
 -2.990000000000000E-002    3.191111202982059E-038
 -2.980000000000000E-002    9.080051941385056E-039
 -2.970000000000000E-002   -4.240106004468401E-038
 -2.960000000000000E-002   -1.330724572597216E-037
 -2.950000000000000E-002   -2.693121935790630E-037
 -2.940000000000000E-002   -4.466643138272079E-037
 -2.930000000000000E-002   -6.406689407618344E-037
 -2.920000000000000E-002   -7.962358836693249E-037
 -2.910000000000000E-002   -8.181356662995056E-037
 -2.900000000000000E-002   -5.671719147510014E-037
 -2.890000000000000E-002    1.312767375239468E-037
 -2.880000000000000E-002    1.458058088775515E-036
 -2.870000000000000E-002    3.542078825636371E-036
 -2.860000000000000E-002    6.367781016814854E-036
 -2.850000000000000E-002    9.650262343543580E-036
 -2.840000000000000E-002    1.269307668494475E-035
 -2.830000000000000E-002    1.426261548263643E-035
 -2.820000000000000E-002    1.253603320864718E-035
 -2.810000000000000E-002    5.202341963053545E-036
 -2.800000000000000E-002   -1.018932261413021E-035
 -2.790000000000000E-002   -3.554588891675332E-035
 -2.780000000000000E-002   -7.116214149416295E-035
 -2.770000000000000E-002   -1.143063611186309E-034
 -2.760000000000000E-002   -1.576410149607106E-034
 -2.750000000000000E-002   -1.878546780803314E-034
 -2.740000000000000E-002   -1.851052052652704E-034
 -2.730000000000000E-002   -1.240755111406941E-034
 -2.720000000000000E-002    2.245780382791385E-035
 -2.710000000000000E-002    2.767546620898297E-034
 -2.700000000000000E-002    6.455934030998543E-034
 -2.690000000000000E-002    1.106628580096226E-033
 -2.680000000000000E-002    1.593487537811294E-033
 -2.670000000000000E-002    1.983193878090655E-033
 -2.660000000000000E-002    2.091361170578004E-033
 -2.650000000000000E-002    1.682107137261115E-033
 -2.640000000000000E-002    5.001075246303451E-034
 -2.630000000000000E-002   -1.669222210908828E-033
 -2.620000000000000E-002   -4.909607597890260E-033
 -2.610000000000000E-002   -9.059583975994661E-033
 -2.600000000000000E-002   -1.359058666017716E-032
 -2.590000000000000E-002   -1.750736030160947E-032
 -2.580000000000000E-002   -1.931394413236254E-032
 -2.570000000000000E-002   -1.709802914237406E-032
 -2.560000000000000E-002   -8.787121074377438E-033
 -2.550000000000000E-002    7.384304136926133E-033
 -2.540000000000000E-002    3.219177267932835E-032
 -2.530000000000000E-002    6.457429479606921E-032
 -2.520000000000000E-002    1.007550493146381E-031
 -2.510000000000000E-002    1.335500384312752E-031
 -2.500000000000000E-002    1.521698560983496E-031
 -2.490000000000000E-002    1.428706820127459E-031
 -2.480000000000000E-002    9.079507462878615E-032
 -2.470000000000000E-002   -1.677488731806612E-032
 -2.460000000000000E-002   -1.857780002051293E-031
 -2.450000000000000E-002   -4.097607131366224E-031
 -2.440000000000000E-002   -6.642046799518581E-031
 -2.430000000000000E-002   -9.022565164249136E-031
 -2.420000000000000E-002   -1.053790348183235E-030
 -2.410000000000000E-002   -1.029961936737194E-030
 -2.400000000000000E-002   -7.351952467243193E-031
 -2.390000000000000E-002   -8.769756543530881E-032
 -2.380000000000000E-002    9.520045510886482E-031
 -2.370000000000000E-002    2.347367503028569E-030
 -2.360000000000000E-002    3.952729673567557E-030
 -2.350000000000000E-002    5.489546521297276E-030
 -2.340000000000000E-002    6.543043083706907E-030
 -2.330000000000000E-002    6.591129431375624E-030
 -2.320000000000000E-002    5.075560484664218E-030
 -2.310000000000000E-002    1.519971052371736E-030
 -2.300000000000000E-002   -4.309923211409723E-030
 -2.290000000000000E-002   -1.222162146975614E-029
 -2.280000000000000E-002   -2.141953484705513E-029
 -2.270000000000000E-002   -3.038473375545920E-029
 -2.260000000000000E-002   -3.686880677828678E-029
 -2.250000000000000E-002   -3.806116975582344E-029
 -2.240000000000000E-002   -3.097641327321923E-029
 -2.230000000000000E-002   -1.307781583077137E-029
 -2.220000000000000E-002    1.689626148691648E-029
 -2.210000000000000E-002    5.800179740234755E-029
 -2.200000000000000E-002    1.062261437173321E-028
 -2.190000000000000E-002    1.539312171224738E-028
 -2.180000000000000E-002    1.898824799527040E-028
 -2.170000000000000E-002    2.001367445542386E-028
 -2.160000000000000E-002    1.699867144329365E-028
 -2.150000000000000E-002    8.700298535451867E-029
 -2.140000000000000E-002   -5.502616534522609E-029
 -2.130000000000000E-002   -2.517600960157573E-028
 -2.120000000000000E-002   -4.844028393977221E-028
 -2.110000000000000E-002   -7.173350889589106E-028
 -2.100000000000000E-002   -8.985259223360734E-028
 -2.090000000000000E-002   -9.638851561209497E-028
 -2.080000000000000E-002   -8.463222553755270E-028
 -2.070000000000000E-002   -4.895339026517323E-028
 -2.060000000000000E-002    1.345371332870580E-028
 -2.050000000000000E-002    1.006933122694645E-027
 -2.040000000000000E-002    2.045290928657203E-027
 -2.030000000000000E-002    3.094569571232465E-027
 -2.020000000000000E-002    3.930053159604796E-027
 -2.010000000000000E-002    4.277202205991638E-027
 -2.000000000000000E-002    3.851062303309001E-027
 -1.990000000000000E-002    2.414662415831264E-027
 -1.980000000000000E-002   -1.486557037696082E-028
 -1.970000000000000E-002   -3.759269582992995E-027
 -1.960000000000000E-002   -8.077020787752157E-027
 -1.950000000000000E-002   -1.246771101938907E-026
 -1.940000000000000E-002   -1.602032084795298E-026
 -1.930000000000000E-002   -1.763176381723309E-026
 -1.920000000000000E-002   -1.616783690037587E-026
 -1.910000000000000E-002   -1.069569753749536E-026
 -1.900000000000000E-002   -7.655928995378863E-028
 -1.890000000000000E-002    1.330000267373911E-026
 -1.880000000000000E-002    3.016979872416653E-026
 -1.870000000000000E-002    4.739148860746099E-026
 -1.860000000000000E-002    6.147662680446004E-026
 -1.850000000000000E-002    6.824054215959891E-026
 -1.840000000000000E-002    6.342221107618183E-026
 -1.830000000000000E-002    4.355804650770970E-026
 -1.820000000000000E-002    7.019056702624090E-027
 -1.810000000000000E-002   -4.494847667478926E-026
 -1.800000000000000E-002   -1.073991191618680E-025
 -1.790000000000000E-002   -1.713373420525182E-025
 -1.780000000000000E-002   -2.240893535080364E-025
 -1.770000000000000E-002   -2.505857405915604E-025
 -1.760000000000000E-002   -2.356183939168956E-025
 -1.750000000000000E-002   -1.669519896074798E-025
 -1.740000000000000E-002   -3.894676200542111E-026
 -1.730000000000000E-002    1.438818174762492E-025
 -1.720000000000000E-002    3.641328000637537E-025
 -1.710000000000000E-002    5.904827463595567E-025
 -1.700000000000000E-002    7.791568259267408E-025
 -1.690000000000000E-002    8.784858733419959E-025
 -1.680000000000000E-002    8.366857867775060E-025
 -1.670000000000000E-002    6.123745948933103E-025
 -1.660000000000000E-002    1.866092979232229E-025
 -1.650000000000000E-002   -4.255076822971697E-025
 -1.640000000000000E-002   -1.166174564679382E-024
 -1.630000000000000E-002   -1.931961999338063E-024
 -1.620000000000000E-002   -2.579133767407448E-024
 -1.610000000000000E-002   -2.938906472365836E-024
 -1.600000000000000E-002   -2.842860002319330E-024
 -1.590000000000000E-002   -2.156721165558196E-024
 -1.580000000000000E-002   -8.184560286108691E-025
 -1.570000000000000E-002    1.125590980212350E-024
 -1.560000000000000E-002    3.494414437051973E-024
 -1.550000000000000E-002    5.964367138988108E-024
 -1.540000000000000E-002    8.086965843614100E-024
 -1.530000000000000E-002    9.337163319194906E-024
 -1.520000000000000E-002    9.192134164941490E-024
 -1.510000000000000E-002    7.234551040788279E-024
 -1.500000000000000E-002    3.267539019665373E-024
 -1.490000000000000E-002   -2.577785236425282E-024
 -1.480000000000000E-002   -9.765746988773535E-024
 -1.470000000000000E-002   -1.733510836653459E-023
 -1.460000000000000E-002   -2.395478240299018E-023
 -1.450000000000000E-002   -2.806867499316491E-023
 -1.440000000000000E-002   -2.812818778282237E-023
 -1.430000000000000E-002   -2.289334085141358E-023
 -1.420000000000000E-002   -1.176422718491112E-023
 -1.410000000000000E-002    4.912728031058864E-024
 -1.400000000000000E-002    2.563065617092533E-023
 -1.390000000000000E-002    4.766885395321295E-023
 -1.380000000000000E-002    6.725734641781103E-023
 -1.370000000000000E-002    7.999089347645610E-023
 -1.360000000000000E-002    8.148448721813281E-023
 -1.350000000000000E-002    6.821332100722212E-023
 -1.340000000000000E-002    3.842855557008599E-023
 -1.330000000000000E-002   -7.005486391752872E-024
 -1.320000000000000E-002   -6.403501349588704E-023
 -1.310000000000000E-002   -1.252847994313987E-022
 -1.300000000000000E-002   -1.805195754922772E-022
 -1.290000000000000E-002   -2.177753862223502E-022
 -1.280000000000000E-002   -2.251304193367294E-022
 -1.270000000000000E-002   -1.929548176161106E-022
 -1.260000000000000E-002   -1.163435004587157E-022
 -1.250000000000000E-002    2.678191368009656E-024
 -1.240000000000000E-002    1.536537844487703E-022
 -1.230000000000000E-002    3.173717421462227E-022
 -1.220000000000000E-002    4.670930302995150E-022
 -1.210000000000000E-002    5.715112963686579E-022
 -1.200000000000000E-002    5.993479436984565E-022
 -1.190000000000000E-002    5.251516673357442E-022
 -1.180000000000000E-002    3.355337847015630E-022
 -1.170000000000000E-002    3.479062188223965E-023
 -1.160000000000000E-002   -3.512910465992451E-022
 -1.150000000000000E-002   -7.746182651717857E-022
 -1.140000000000000E-002   -1.167879705921369E-021
 -1.130000000000000E-002   -1.451956943352279E-021
 -1.120000000000000E-002   -1.547382004695646E-021
 -1.110000000000000E-002   -1.388745683745303E-021
 -1.100000000000000E-002   -9.401448341685881E-022
 -1.090000000000000E-002   -2.090896162499308E-022
 -1.080000000000000E-002    7.440526633548068E-022
 -1.070000000000000E-002    1.803901904155007E-021
 -1.060000000000000E-002    2.807365860608076E-021
 -1.050000000000000E-002    3.561362293231237E-021
 -1.040000000000000E-002    3.870254663777013E-021
 -1.030000000000000E-002    3.570355088351327E-021
 -1.020000000000000E-002    2.566933914032614E-021
 -1.010000000000000E-002    8.676474410761773E-022
 -1.000000000000000E-002   -1.394489273225659E-021
 -9.899999999999999E-003   -3.955160437221646E-021
 -9.800000000000000E-003   -6.434871227073042E-021
 -9.699999999999999E-003   -8.379349434552806E-021
 -9.599999999999999E-003   -9.322586779043345E-021
 -9.500000000000000E-003   -8.866445312896670E-021
 -9.399999999999999E-003   -6.766409793940200E-021
 -9.299999999999999E-003   -3.009641585247359E-021
 -9.200000000000000E-003    2.130257282039462E-021
 -9.099999999999999E-003    8.076656263607000E-021
 -8.999999999999999E-003    1.398289469671884E-020
 -8.900000000000000E-003    1.881997834257138E-020
 -8.799999999999999E-003    2.151553496154167E-020
 -8.699999999999999E-003    2.113077905922832E-020
 -8.600000000000000E-003    1.705269833622820E-020
 -8.499999999999999E-003    9.171096705490255E-021
 -8.399999999999999E-003   -1.993696767458633E-021
 -8.300000000000000E-003   -1.524518461227157E-020
 -8.199999999999999E-003   -2.877247296328912E-020
 -8.100000000000000E-003   -4.033133890791665E-020
 -8.000000000000000E-003   -4.753808885331640E-020
 -7.899999999999999E-003   -4.824890923461059E-020
 -7.800000000000000E-003   -4.097678521643913E-020
 -7.699999999999999E-003   -2.528188421085840E-020
 -7.599999999999999E-003   -2.062739957003095E-021
 -7.499999999999999E-003    2.632183662493626E-020
 -7.399999999999999E-003    5.615542042559348E-020
 -7.299999999999999E-003    8.271857672672448E-020
 -7.199999999999999E-003    1.008854404204717E-019
 -7.100000000000000E-003    1.059085819341453E-019
 -6.999999999999999E-003    9.429585022251488E-020
 -6.899999999999999E-003    6.464853649559755E-020
 -6.800000000000000E-003    1.831092278143664E-020
 -6.699999999999999E-003   -4.031500618326269E-020
 -6.599999999999999E-003   -1.039080365338761E-019
 -6.499999999999999E-003   -1.628831331607805E-019
 -6.399999999999999E-003   -2.065528323592795E-019
 -6.299999999999999E-003   -2.246960564297308E-019
 -6.199999999999999E-003   -2.093488173963889E-019
 -6.100000000000000E-003   -1.565593363965837E-019
 -5.999999999999999E-003   -6.780818325274610E-020
 -5.899999999999999E-003    4.920646940748087E-020
 -5.800000000000000E-003    1.806664078219339E-019
 -5.699999999999999E-003    3.077615378883881E-019
 -5.599999999999999E-003    4.088522114082417E-019
 -5.499999999999999E-003    4.624978429585243E-019
 -5.399999999999999E-003    4.510110602349383E-019
 -5.299999999999999E-003    3.640475465708759E-019
 -5.199999999999999E-003    2.016494094345563E-019
 -5.099999999999999E-003   -2.385706305641040E-020
 -4.999999999999999E-003   -2.876240027714230E-019
 -4.899999999999999E-003   -5.540427146506930E-019
 -4.799999999999999E-003   -7.805692460137060E-019
 -4.699999999999999E-003   -9.233626080850447E-019
 -4.599999999999999E-003   -9.441379117760605E-019
 -4.499999999999999E-003   -8.173402382460839E-019
 -4.399999999999999E-003   -5.365344560117581E-019
 -4.299999999999999E-003   -1.188427059256491E-019
 -4.199999999999999E-003    3.936252395602918E-019
 -4.099999999999999E-003    9.361024073765616E-019
 -3.999999999999999E-003    1.427531848818393E-018
 -3.899999999999999E-003    1.780649295542580E-018
 -3.799999999999999E-003    1.914807572162547E-018
 -3.699999999999999E-003    1.769965815726432E-018
 -3.599999999999999E-003    1.319813598862600E-018
 -3.499999999999999E-003    5.817954947448888E-019
 -3.399999999999999E-003   -3.780853874277019E-019
 -3.299999999999999E-003   -1.447334844932437E-018
 -3.199999999999999E-003   -2.476741712876053E-018
 -3.099999999999999E-003   -3.297611469243877E-018
 -2.999999999999999E-003   -3.745005530946396E-018
 -2.899999999999999E-003   -3.684327245935093E-018
 -2.799999999999999E-003   -3.037629994352196E-018
 -2.699999999999999E-003   -1.805469714427559E-018
 -2.599999999999999E-003   -8.011456838248298E-020
 -2.499999999999999E-003    1.953393554531428E-018
 -2.399999999999999E-003    4.030537044309489E-018
 -2.299999999999999E-003    5.835267638891516E-018
 -2.199999999999999E-003    7.040684294570122E-018
 -2.099999999999999E-003    7.358194627139287E-018
 -1.999999999999999E-003    6.588893056593119E-018
 -1.899999999999999E-003    4.669517355711253E-018
 -1.799999999999999E-003    1.704897684297516E-018
 -1.699999999999999E-003   -2.020362949021734E-018
 -1.599999999999999E-003   -6.056237719437051E-018
 -1.499999999999999E-003   -9.829720369307709E-018
 -1.399999999999999E-003   -1.271339896139063E-017
 -1.299999999999999E-003   -1.411379073778950E-017
 -1.199999999999999E-003   -1.356897083660427E-017
 -1.099999999999999E-003   -1.084184995670290E-017
 -9.999999999999989E-004   -5.993904237341966E-018
 -8.999999999999990E-004    5.752960159537218E-019
 -7.999999999999990E-004    8.134506951547763E-018
 -6.999999999999989E-004    1.567970888507946E-017
 -5.999999999999990E-004    2.204489900866130E-017
 -4.999999999999989E-004    2.605608465378417E-017
 -3.999999999999989E-004    2.671162393411771E-017
 -2.999999999999989E-004    2.336521947693279E-017
 -1.999999999999989E-004    1.588354870156112E-017
 -9.999999999999892E-005    4.750060379532332E-018
  1.084202172485504E-018   -8.910015648634325E-018
  1.000000000000011E-004   -2.340006111062365E-017
  2.000000000000011E-004   -3.662231665622182E-017
  3.000000000000011E-004   -4.633771063104878E-017
  4.000000000000011E-004   -5.048938027686414E-017
  5.000000000000011E-004   -4.754987140465963E-017
  6.000000000000011E-004   -3.684188007882555E-017
  7.000000000000011E-004   -1.877853715574014E-017
  8.000000000000011E-004    5.026991534953672E-018
  9.000000000000012E-004    3.182040599020423E-017
  1.000000000000001E-003    5.795140574169329E-017
  1.100000000000001E-003    7.929641343019149E-017
  1.200000000000001E-003    9.182138794930012E-017
  1.300000000000001E-003    9.221944321234065E-017
  1.400000000000001E-003    7.853579675019077E-017
  1.500000000000001E-003    5.068114249044202E-017
  1.600000000000001E-003    1.073624827985997E-017
  1.700000000000001E-003   -3.703240501158119E-017
  1.800000000000001E-003   -8.649300650337224E-017
  1.900000000000001E-003   -1.303072389418624E-016
  2.000000000000001E-003   -1.608776967857980E-016
  2.100000000000001E-003   -1.714808729173372E-016
  2.200000000000001E-003   -1.574387694509841E-016
  2.300000000000001E-003   -1.171526795664438E-016
  2.400000000000001E-003   -5.281824680515205E-017
  2.500000000000001E-003    2.933841581134930E-017
  2.600000000000001E-003    1.194110554304562E-016
  2.700000000000001E-003    2.047859914159243E-016
  2.800000000000001E-003    2.716785066345476E-016
  2.900000000000001E-003    3.070798854096980E-016
  3.000000000000001E-003    3.008748086602517E-016
  3.100000000000001E-003    2.478262020165938E-016
  3.200000000000001E-003    1.491020634702116E-016
  3.300000000000001E-003    1.303947287110483E-017
  3.400000000000001E-003   -1.450826833534536E-016
  3.500000000000001E-003   -3.043728887517065E-016
  3.600000000000001E-003   -4.407123676847945E-016
  3.700000000000001E-003   -5.299822735678881E-016
  3.800000000000001E-003   -5.517563307864384E-016
  3.900000000000001E-003   -4.929580985622163E-016
  4.000000000000001E-003   -3.509141154428149E-016
  4.100000000000001E-003   -1.352486358990363E-016
  4.200000000000001E-003    1.318354354708445E-016
  4.300000000000001E-003    4.171603841049967E-016
  4.400000000000001E-003    6.800800201097346E-016
  4.500000000000001E-003    8.776194521573456E-016
  4.600000000000002E-003    9.706872928721306E-016
  4.700000000000001E-003    9.305612903285350E-016
  4.800000000000001E-003    7.446919936926389E-016
  4.900000000000002E-003    4.208474060891607E-016
  5.000000000000001E-003   -1.126198630919055E-017
  5.100000000000001E-003   -5.014698290468116E-016
  5.200000000000001E-003   -9.839483600241325E-016
  5.300000000000002E-003   -1.385030139567208E-015
  5.400000000000001E-003   -1.633279044252147E-015
  5.500000000000001E-003   -1.670584323545697E-015
  5.600000000000002E-003   -1.462733159728115E-015
  5.700000000000001E-003   -1.007791814620480E-015
  5.800000000000001E-003   -3.407328328344749E-016
  5.900000000000002E-003    4.668900288504618E-016
  6.000000000000001E-003    1.312823582865688E-015
  6.100000000000001E-003    2.075407321187310E-015
  6.200000000000002E-003    2.629283553558126E-015
  6.300000000000002E-003    2.863740928118157E-015
  6.400000000000001E-003    2.701280939261409E-015
  6.500000000000001E-003    2.113640400519175E-015
  6.600000000000002E-003    1.132526589403014E-015
  6.700000000000001E-003   -1.472321154039156E-016
  6.800000000000001E-003   -1.573586942990756E-015
  6.900000000000002E-003   -2.952520919596819E-015
  7.000000000000001E-003   -4.071585948510524E-015
  7.100000000000001E-003   -4.729275554044795E-015
  7.200000000000002E-003   -4.766605096093504E-015
  7.300000000000002E-003   -4.096468646366350E-015
  7.400000000000001E-003   -2.726072596461301E-015
  7.500000000000001E-003   -7.682191379311829E-016
  7.600000000000002E-003    1.561711316874273E-015
  7.700000000000001E-003    3.964493706899299E-015
  7.800000000000001E-003    6.090760480819448E-015
  7.900000000000001E-003    7.586590130046569E-015
  8.000000000000002E-003    8.145752937594875E-015
  8.100000000000001E-003    7.561661808630745E-015
  8.200000000000001E-003    5.771272170212964E-015
  8.300000000000002E-003    2.883329437188203E-015
  8.400000000000001E-003   -8.153139537308903E-016
  8.500000000000002E-003   -4.879123746605177E-015
  8.600000000000002E-003   -8.749526021476114E-015
  8.700000000000001E-003   -1.182343048309175E-014
  8.800000000000002E-003   -1.353739241295012E-014
  8.900000000000002E-003   -1.345695440806734E-014
  9.000000000000001E-003   -1.135848220205965E-014
  9.100000000000002E-003   -7.290329256897291E-015
  9.200000000000002E-003   -1.601394998073881E-015
  9.300000000000001E-003    5.071434581008566E-015
  9.400000000000002E-003    1.186060298178355E-014
  9.500000000000001E-003    1.776726489574503E-014
  9.600000000000001E-003    2.179348720629017E-014
  9.700000000000002E-003    2.309177314124208E-014
  9.800000000000001E-003    2.111185428405768E-014
  9.900000000000001E-003    1.572229702792216E-014
  1.000000000000000E-002    7.285394072389523E-015
  1.010000000000000E-002   -3.332277287478960E-015
  1.020000000000000E-002   -1.482362489671022E-014
  1.030000000000000E-002   -2.557957811703645E-014
  1.040000000000000E-002   -3.389144598166866E-014
  1.050000000000000E-002   -3.819502705724203E-014
  1.060000000000000E-002   -3.732523061622299E-014
  1.070000000000000E-002   -3.074408078673000E-014
  1.080000000000000E-002   -1.870414247739316E-014
  1.090000000000000E-002   -2.313881970268975E-015
  1.100000000000000E-002    1.651789125933255E-014
  1.110000000000000E-002    3.526618661209553E-014
  1.120000000000000E-002    5.109169347935170E-014
  1.130000000000000E-002    6.122992940375811E-014
  1.140000000000000E-002    6.342036009406063E-014
  1.150000000000000E-002    5.631485801133313E-014
  1.160000000000000E-002    3.980095497001573E-014
  1.170000000000000E-002    1.517892616428155E-014
  1.180000000000000E-002   -1.485327271731947E-014
  1.190000000000000E-002   -4.643044806138718E-014
  1.200000000000000E-002   -7.495871318769681E-014
  1.210000000000000E-002   -9.572234139395178E-014
  1.220000000000000E-002   -1.045874993277341E-013
  1.230000000000000E-002   -9.870784830367199E-014
  1.240000000000000E-002   -7.712358140475785E-014
  1.250000000000000E-002   -4.114799211789920E-014
  1.260000000000000E-002    5.545237819380613E-015
  1.270000000000000E-002    5.718596419328683E-014
  1.280000000000000E-002    1.065271489829644E-013
  1.290000000000000E-002    1.457699152437975E-013
  1.300000000000000E-002    1.676903462651786E-013
  1.310000000000000E-002    1.668194824437736E-013
  1.320000000000000E-002    1.405008849806142E-013
  1.330000000000000E-002    8.964680783362552E-014
  1.340000000000000E-002    1.903823714945180E-014
  1.350000000000000E-002   -6.293478554154868E-014
  1.360000000000000E-002   -1.451221194371520E-013
  1.370000000000000E-002   -2.149934042370502E-013
  1.380000000000000E-002   -2.603998181480214E-013
  1.390000000000000E-002   -2.714921286991375E-013
  1.400000000000000E-002   -2.425162968946426E-013
  1.410000000000000E-002   -1.731918713365751E-013
  1.420000000000000E-002   -6.940940329431910E-014
  1.430000000000000E-002    5.694465947295913E-014
  1.440000000000000E-002    1.891134321621265E-013
  1.450000000000000E-002    3.074842743022548E-013
  1.460000000000000E-002    3.922853695249025E-013
  1.470000000000000E-002    4.266255214283122E-013
  1.480000000000000E-002    3.994439801336341E-013
  1.490000000000000E-002    3.079005008903300E-013
  1.500000000000000E-002    1.587669501346877E-013
  1.510000000000000E-002   -3.151339515528159E-014
  1.520000000000000E-002   -2.382625422752371E-013
  1.530000000000000E-002   -4.314509592845858E-013
  1.540000000000000E-002   -5.797434219387086E-013
  1.550000000000000E-002   -6.552104513252411E-013
  1.560000000000000E-002   -6.380458756878442E-013
  1.570000000000000E-002   -5.205550967188964E-013
  1.580000000000000E-002   -3.097093934775660E-013
  1.590000000000000E-002   -2.770494564053644E-014
  1.600000000000000E-002    2.897843309713315E-013
  1.610000000000000E-002    5.976453347400821E-013
  1.620000000000000E-002    8.472798741117725E-013
  1.630000000000000E-002    9.937595564406285E-013
  1.640000000000000E-002    1.003194081000057E-012
  1.650000000000000E-002    8.591885234973267E-013
  1.660000000000000E-002    5.672841722133414E-013
  1.670000000000000E-002    1.564692600965003E-013
  1.680000000000000E-002   -3.227915668458898E-013
  1.690000000000000E-002   -8.040747792791884E-013
  1.700000000000000E-002   -1.213583436176788E-012
  1.710000000000000E-002   -1.480787521272746E-012
  1.720000000000000E-002   -1.549677848540661E-012
  1.730000000000000E-002   -1.388946528900209E-012
  1.740000000000000E-002   -9.993968196011102E-013
  1.750000000000000E-002   -4.171389229051826E-013
  1.760000000000000E-002    2.883605872132560E-013
  1.770000000000000E-002    1.021600521298896E-012
  1.780000000000000E-002    1.673148488521744E-012
  1.790000000000000E-002    2.135130113816860E-012
  1.800000000000000E-002    2.318035288975995E-012
  1.810000000000000E-002    2.166361848450874E-012
  1.820000000000000E-002    1.670550988839290E-012
  1.830000000000000E-002    8.729853160767114E-013
  1.840000000000000E-002   -1.334642899627531E-013
  1.850000000000000E-002   -1.214851244730584E-012
  1.860000000000000E-002   -2.212841518665915E-012
  1.870000000000000E-002   -2.966792906419813E-012