 -4.000000000000000E-002    0.000000000000000E+000
 -3.990000000000000E-002    0.000000000000000E+000
 -3.980000000000000E-002    0.000000000000000E+000
 -3.970000000000000E-002    0.000000000000000E+000
 -3.960000000000000E-002    0.000000000000000E+000
 -3.950000000000000E-002    0.000000000000000E+000
 -3.940000000000000E-002    0.000000000000000E+000
 -3.930000000000000E-002    0.000000000000000E+000
 -3.920000000000000E-002    0.000000000000000E+000
 -3.910000000000000E-002    0.000000000000000E+000
 -3.900000000000000E-002    0.000000000000000E+000
 -3.890000000000000E-002    0.000000000000000E+000
 -3.880000000000000E-002    0.000000000000000E+000
 -3.870000000000000E-002    0.000000000000000E+000
 -3.860000000000000E-002    0.000000000000000E+000
 -3.850000000000000E-002    0.000000000000000E+000
 -3.840000000000000E-002    0.000000000000000E+000
 -3.830000000000000E-002    0.000000000000000E+000
 -3.820000000000000E-002    0.000000000000000E+000
 -3.810000000000000E-002    0.000000000000000E+000
 -3.800000000000000E-002    0.000000000000000E+000
 -3.790000000000000E-002    0.000000000000000E+000
 -3.780000000000000E-002    0.000000000000000E+000
 -3.770000000000000E-002    0.000000000000000E+000
 -3.760000000000000E-002    0.000000000000000E+000
 -3.750000000000000E-002    0.000000000000000E+000
 -3.740000000000000E-002    0.000000000000000E+000
 -3.730000000000000E-002    0.000000000000000E+000
 -3.720000000000000E-002    0.000000000000000E+000
 -3.710000000000000E-002    0.000000000000000E+000
 -3.700000000000000E-002    0.000000000000000E+000
 -3.690000000000000E-002    0.000000000000000E+000
 -3.680000000000000E-002    1.924390591266381E-047
 -3.670000000000000E-002    3.848781182532762E-047
 -3.660000000000000E-002    1.451709705297401E-046
 -3.650000000000000E-002    1.130977940086337E-046
 -3.640000000000000E-002    3.289177420478456E-046
 -3.630000000000000E-002    6.551130383275014E-047
 -3.620000000000000E-002   -7.290248443796540E-046
 -3.610000000000000E-002   -4.252751898842160E-045
 -3.600000000000000E-002   -1.699284045880825E-044
 -3.590000000000000E-002   -5.430036682085735E-044
 -3.580000000000000E-002   -1.577203084000797E-043
 -3.570000000000000E-002   -4.153298745202880E-043
 -3.560000000000000E-002   -9.980388013479099E-043
 -3.550000000000000E-002   -2.199029623666266E-042
 -3.540000000000000E-002   -4.426646810444276E-042
 -3.530000000000000E-002   -8.015903977123356E-042
 -3.520000000000000E-002   -1.257034918487346E-041
 -3.510000000000000E-002   -1.524677713882220E-041
 -3.500000000000000E-002   -7.041154296692125E-042
 -3.490000000000000E-002    3.421813908875920E-041
 -3.480000000000000E-002    1.553131469079472E-040
 -3.470000000000000E-002    4.431643729706348E-040
 -3.460000000000000E-002    1.039481045194291E-039
 -3.450000000000000E-002    2.139397221722601E-039
 -3.440000000000000E-002    3.940181096466400E-039
 -3.430000000000000E-002    6.476801898687662E-039
 -3.420000000000000E-002    9.243811608290933E-039
 -3.410000000000000E-002    1.047075807340051E-038
 -3.400000000000000E-002    5.924121675729769E-039
 -3.390000000000000E-002   -1.278392274551089E-038
 -3.380000000000000E-002   -6.008958604528398E-038
 -3.370000000000000E-002   -1.576360123857970E-037
 -3.360000000000000E-002   -3.326430446630004E-037
 -3.350000000000000E-002   -6.098063677093194E-037
 -3.340000000000000E-002   -9.911166026525615E-037
 -3.330000000000000E-002   -1.416465360720201E-036
 -3.320000000000000E-002   -1.698285870693751E-036
 -3.310000000000000E-002   -1.428346585695520E-036
 -3.300000000000000E-002    1.321525056359139E-037
 -3.290000000000000E-002    4.142608180137041E-036
 -3.280000000000000E-002    1.217544074543360E-035
 -3.270000000000000E-002    2.597693156718708E-035
 -3.260000000000000E-002    4.680047393384090E-035
 -3.250000000000000E-002    7.407228634802562E-035
 -3.240000000000000E-002    1.031686662430555E-034
 -3.230000000000000E-002    1.222348971950748E-034
 -3.220000000000000E-002    1.083480186360322E-034
 -3.210000000000000E-002    2.400646915291864E-035
 -3.200000000000000E-002   -1.840299266225420E-034
 -3.190000000000000E-002   -5.801869151077614E-034
 -3.180000000000000E-002   -1.225064659973929E-033
 -3.170000000000000E-002   -2.144366550212916E-033
 -3.160000000000000E-002   -3.276769245731231E-033
 -3.150000000000000E-002   -4.399129110157135E-033
 -3.140000000000000E-002   -5.035125337557662E-033
 -3.130000000000000E-002   -4.366787503665106E-033
 -3.120000000000000E-002   -1.187655720411960E-033
 -3.110000000000000E-002    6.040065908176894E-033
 -3.100000000000000E-002    1.893934216865127E-032
 -3.090000000000000E-002    3.868596838452279E-032
 -3.080000000000000E-002    6.510614013781745E-032
 -3.070000000000000E-002    9.537810188295321E-032
 -3.060000000000000E-002    1.224344619501338E-031
 -3.050000000000000E-002    1.333626943412386E-031
 -3.040000000000000E-002    1.083796730718084E-031
 -3.030000000000000E-002    2.127648024740160E-032
 -3.020000000000000E-002   -1.574787897849659E-031
 -3.010000000000000E-002   -4.536666952636673E-031
 -3.000000000000000E-002   -8.771765491662219E-031
 -2.990000000000000E-002   -1.404492475922690E-030
 -2.980000000000000E-002   -1.957052674750237E-030
 -2.970000000000000E-002   -2.379163329896247E-030
 -2.960000000000000E-002   -2.422357617314523E-030
 -2.950000000000000E-002   -1.746631836159236E-030
 -2.940000000000000E-002    4.803413344378985E-032
 -2.930000000000000E-002    3.345487240074084E-030
 -2.920000000000000E-002    8.381028459995991E-030
 -2.910000000000000E-002    1.505009420947074E-029
 -2.900000000000000E-002    2.267155494515963E-029
 -2.890000000000000E-002    2.974361323579465E-029
 -2.880000000000000E-002    3.376109956830800E-029
 -2.870000000000000E-002    3.119539021556478E-029
 -2.860000000000000E-002    1.776348683853987E-029
 -2.850000000000000E-002   -1.088230573388002E-029
 -2.840000000000000E-002   -5.794310621028136E-029
 -2.830000000000000E-002   -1.237222266237403E-028
 -2.820000000000000E-002   -2.034605089496641E-028
 -2.810000000000000E-002   -2.850935588574371E-028
 -2.800000000000000E-002   -3.475182365028450E-028
 -2.790000000000000E-002   -3.602094734162669E-028
 -2.780000000000000E-002   -2.852095003541931E-028
 -2.770000000000000E-002   -8.252071877167089E-029
 -2.760000000000000E-002    2.803408652617632E-028
 -2.750000000000000E-002    8.145448169804224E-028
 -2.740000000000000E-002    1.492926394354881E-027
 -2.730000000000000E-002    2.232320224552021E-027
 -2.720000000000000E-002    2.879619076684747E-027
 -2.710000000000000E-002    3.207653396904746E-027
 -2.700000000000000E-002    2.928113733677083E-027
 -2.690000000000000E-002    1.728592583323354E-027
 -2.680000000000000E-002   -6.612958005560303E-028
 -2.670000000000000E-002   -4.374479643494879E-027
 -2.660000000000000E-002   -9.289005626759121E-027
 -2.650000000000000E-002   -1.490601598641300E-026
 -2.640000000000000E-002   -2.025184770707135E-026
 -2.630000000000000E-002   -2.384335202970020E-026
 -2.620000000000000E-002   -2.376165355747224E-026
 -2.610000000000000E-002   -1.787753588795896E-026
 -2.600000000000000E-002   -4.257357232538679E-027
 -2.590000000000000E-002    1.825106973434818E-026
 -2.580000000000000E-002    4.929861572506836E-026
 -2.570000000000000E-002    8.628561536986948E-026
 -2.560000000000000E-002    1.237515631846022E-025
 -2.550000000000000E-002    1.531277550979445E-025
 -2.540000000000000E-002    1.631066144505378E-025
 -2.530000000000000E-002    1.408635344490509E-025
 -2.520000000000000E-002    7.428315482610322E-026
 -2.510000000000000E-002   -4.482362369711047E-026
 -2.500000000000000E-002   -2.167700056760389E-025
 -2.490000000000000E-002   -4.298761027545016E-025
 -2.480000000000000E-002   -6.570717964351256E-025
 -2.470000000000000E-002   -8.543761829682890E-025
 -2.460000000000000E-002   -9.625370269758722E-025
 -2.450000000000000E-002   -9.129935174581276E-025
 -2.440000000000000E-002   -6.388764255577132E-025
 -2.430000000000000E-002   -9.092539088046187E-026
 -2.420000000000000E-002    7.429977906067231E-025
 -2.410000000000000E-002    1.817570727945134E-024
 -2.400000000000000E-002    3.013103010636320E-024
 -2.390000000000000E-002    4.127490265971473E-024
 -2.380000000000000E-002    4.882922706696336E-024
 -2.370000000000000E-002    4.952544635634228E-024
 -2.360000000000000E-002    4.010071543593569E-024
 -2.350000000000000E-002    1.801512958075596E-024
 -2.340000000000000E-002   -1.767235344803984E-024
 -2.330000000000000E-002   -6.539464371324213E-024
 -2.320000000000000E-002   -1.203214873193275E-023
 -2.310000000000000E-002   -1.739928222513105E-023
 -2.300000000000000E-002   -2.145883597125123E-023
 -2.290000000000000E-002   -2.280453555960155E-023
 -2.280000000000000E-002   -2.001373395598115E-023
 -2.270000000000000E-002   -1.194609537065476E-023
 -2.260000000000000E-002    1.894381751958570E-024
 -2.250000000000000E-002    2.098700388376669E-023
 -2.240000000000000E-002    4.348854744481629E-023
 -2.230000000000000E-002    6.608775166152848E-023
 -2.220000000000000E-002    8.411676655711074E-023
 -2.210000000000000E-002    9.199909066918940E-023
 -2.200000000000000E-002    8.407185782557837E-023
 -2.190000000000000E-002    5.575407753593428E-023
 -2.180000000000000E-002    4.946136311585080E-024
 -2.170000000000000E-002   -6.654953628367388E-023
 -2.160000000000000E-002   -1.518832578854550E-022
 -2.150000000000000E-002   -2.386406660088074E-022
 -2.140000000000000E-002   -3.093067089922085E-022
 -2.130000000000000E-002   -3.429898148055984E-022
 -2.120000000000000E-002   -3.185211074701261E-022
 -2.110000000000000E-002   -2.187946177318649E-022
 -2.100000000000000E-002   -3.589791634206505E-023
 -2.090000000000000E-002    2.237527105738112E-022
 -2.080000000000000E-002    5.353536977066497E-022
 -2.070000000000000E-002    8.539860076392322E-022
 -2.060000000000000E-002    1.116442028227628E-021
 -2.050000000000000E-002    1.247534574688196E-021
 -2.040000000000000E-002    1.171211959866607E-021
 -2.030000000000000E-002    8.259168232025446E-022
 -2.020000000000000E-002    1.825385374118064E-022
 -2.010000000000000E-002   -7.378161379955323E-022
 -2.000000000000000E-002   -1.849963660010511E-021
 -1.990000000000000E-002   -2.998929996376669E-021
 -1.980000000000000E-002   -3.966425990073815E-021
 -1.970000000000000E-002   -4.492463577181593E-021
 -1.960000000000000E-002   -4.312989896316877E-021
 -1.950000000000000E-002   -3.211443843384018E-021
 -1.940000000000000E-002   -1.078606618166583E-021
 -1.930000000000000E-002    2.028493826941054E-021
 -1.920000000000000E-002    5.840767289783865E-021
 -1.910000000000000E-002    9.857917195671468E-021
 -1.900000000000000E-002    1.336869686582638E-020
 -1.890000000000000E-002    1.551960720609592E-020
 -1.880000000000000E-002    1.543438662482691E-020
 -1.870000000000000E-002    1.237723514074342E-020
 -1.860000000000000E-002    5.941833421525152E-021
 -1.850000000000000E-002   -3.762707352850792E-021
 -1.840000000000000E-002   -1.596637056883113E-020
 -1.830000000000000E-002   -2.917451655364786E-020
 -1.820000000000000E-002   -4.122407757177623E-020
 -1.810000000000000E-002   -4.948623617323474E-020
 -1.800000000000000E-002   -5.122173029081565E-020
 -1.790000000000000E-002   -4.406718976305909E-020
 -1.780000000000000E-002   -2.659858748252594E-020
 -1.770000000000000E-002    1.112990456477409E-021
 -1.760000000000000E-002    3.706239643226966E-020
 -1.750000000000000E-002    7.710714753389279E-020
 -1.740000000000000E-002    1.151086625375789E-019
 -1.730000000000000E-002    1.434925340635706E-019
 -1.720000000000000E-002    1.542437308641989E-019
 -1.710000000000000E-002    1.402740233509111E-019
 -1.700000000000000E-002    9.700991980551532E-020
 -1.690000000000000E-002    2.396354348287241E-020
 -1.680000000000000E-002   -7.401474617916678E-020
 -1.670000000000000E-002   -1.861281691989835E-019
 -1.660000000000000E-002   -2.959649461346844E-019
 -1.650000000000000E-002   -3.829686459108608E-019
 -1.640000000000000E-002   -4.250871677731563E-019
 -1.630000000000000E-002   -4.024286920920776E-019
 -1.620000000000000E-002   -3.015149769204163E-019
 -1.610000000000000E-002   -1.195017299061775E-019
 -1.600000000000000E-002    1.324308237164153E-019
 -1.590000000000000E-002    4.273705520073247E-019
 -1.580000000000000E-002    7.234149892236993E-019
 -1.570000000000000E-002    9.673744960686761E-019
 -1.560000000000000E-002    1.101529577115768E-018
 -1.550000000000000E-002    1.072994059661865E-018
 -1.540000000000000E-002    8.446313674142562E-019
 -1.530000000000000E-002    4.059132763359424E-019
 -1.520000000000000E-002   -2.182947350936740E-019
 -1.510000000000000E-002   -9.631684853308976E-019
 -1.500000000000000E-002   -1.725493823045937E-018
 -1.490000000000000E-002   -2.372636577084244E-018
 -1.480000000000000E-002   -2.759136365919400E-018
 -1.470000000000000E-002   -2.749801502749978E-018
 -1.460000000000000E-002   -2.246714265397751E-018
 -1.450000000000000E-002   -1.216192629591230E-018
 -1.440000000000000E-002    2.892009105322298E-019
 -1.430000000000000E-002    2.118815374083582E-018
 -1.420000000000000E-002    4.026857484613913E-018
 -1.410000000000000E-002    5.693185465489449E-018
 -1.400000000000000E-002    6.762495974895563E-018
 -1.390000000000000E-002    6.899263807408538E-018
 -1.380000000000000E-002    5.852306261961582E-018
 -1.370000000000000E-002    3.519666149238976E-018
 -1.360000000000000E-002    2.267003357841341E-021
 -1.350000000000000E-002   -4.365891813225517E-018
 -1.340000000000000E-002   -9.021852207714625E-018
 -1.330000000000000E-002   -1.321936032610348E-017
 -1.320000000000000E-002   -1.611752196568134E-017
 -1.310000000000000E-002   -1.690659894203803E-017
 -1.300000000000000E-002   -1.495711582087740E-017
 -1.290000000000000E-002   -9.971226227528893E-018
 -1.280000000000000E-002   -2.110174683694892E-018
 -1.270000000000000E-002    7.929934743214571E-018
 -1.260000000000000E-002    1.891884517331158E-017
 -1.250000000000000E-002    2.918611689610280E-017
 -1.240000000000000E-002    3.681239822877621E-017
 -1.230000000000000E-002    3.990585333575111E-017
 -1.220000000000000E-002    3.693409161682548E-017
 -1.210000000000000E-002    2.706585051903349E-017
 -1.200000000000000E-002    1.046525742526903E-017
 -1.190000000000000E-002   -1.152233264020302E-017
 -1.180000000000000E-002   -3.634802493482384E-017
 -1.170000000000000E-002   -6.043873670337298E-017
 -1.160000000000000E-002   -7.958947379718337E-017
 -1.150000000000000E-002   -8.954537493899881E-017
 -1.140000000000000E-002   -8.671271301412460E-017
 -1.130000000000000E-002   -6.890368046519898E-017
 -1.120000000000000E-002   -3.599448210026914E-017
 -1.110000000000000E-002    9.632966665722631E-018
 -1.100000000000000E-002    6.298459703151065E-017
 -1.090000000000000E-002    1.167679639136815E-016
 -1.080000000000000E-002    1.621565750719127E-016
 -1.070000000000000E-002    1.899642561066064E-016
 -1.060000000000000E-002    1.921112847727906E-016
 -1.050000000000000E-002    1.631916586245408E-016
 -1.040000000000000E-002    1.018969097705215E-016
 -1.030000000000000E-002    1.202900717507585E-017
 -1.020000000000000E-002   -9.714684642999242E-017
 -1.010000000000000E-002   -2.113944994492655E-016
 -1.000000000000000E-002   -3.129222173297150E-016
 -9.899999999999999E-003   -3.826582709449402E-016
 -9.800000000000000E-003   -4.031677938839184E-016
 -9.699999999999999E-003   -3.618441753742431E-016
 -9.599999999999999E-003   -2.538937272616355E-016
 -9.500000000000000E-003   -8.457863683467100E-017
 -9.399999999999999E-003    1.297905794740583E-016
 -9.299999999999999E-003    3.625072906524087E-016
 -9.200000000000000E-003    5.789569919878636E-016
 -9.099999999999999E-003    7.408622432335304E-016
 -8.999999999999999E-003    8.119007630866633E-016
 -8.900000000000000E-003    7.640144860148529E-016
 -8.799999999999999E-003    5.834943899509032E-016
 -8.699999999999999E-003    2.757982196785076E-016
 -8.600000000000000E-003   -1.319151895963873E-016
 -8.499999999999999E-003   -5.913551415560957E-016
 -8.399999999999999E-003   -1.037224882624972E-015
 -8.300000000000000E-003   -1.394850343857324E-015
 -8.199999999999999E-003   -1.590678422712567E-015
 -8.100000000000000E-003   -1.564425943884410E-015
 -8.000000000000000E-003   -1.281184113712308E-015
 -7.899999999999999E-003   -7.415003973927765E-016
 -7.800000000000000E-003    1.255443231597573E-017
 -7.699999999999999E-003    8.970051814769825E-016
 -7.599999999999999E-003    1.792311052209132E-015
 -7.499999999999999E-003    2.556541025111738E-015
 -7.399999999999999E-003    3.044413327367212E-015
 -7.299999999999999E-003    3.130106420424642E-015
 -7.199999999999999E-003    2.730798973240182E-015
 -7.100000000000000E-003    1.827255831194184E-015
 -6.999999999999999E-003    4.776551117654977E-016
 -6.899999999999999E-003   -1.178702318774497E-015
 -6.800000000000000E-003   -2.930076194382385E-015
 -6.699999999999999E-003   -4.514024481841032E-015
 -6.599999999999999E-003   -5.650864386626964E-015
 -6.499999999999999E-003   -6.085424168083612E-015
 -6.399999999999999E-003   -5.631758357181570E-015
 -6.299999999999999E-003   -4.214162440316408E-015
 -6.199999999999999E-003   -1.897327016903096E-015
 -6.100000000000000E-003    1.100956710100307E-015
 -5.999999999999999E-003    4.419391932595997E-015
 -5.899999999999999E-003    7.587153872525811E-015
 -5.800000000000000E-003    1.008077007827635E-014
 -5.699999999999999E-003    1.139852741501631E-014
 -5.599999999999999E-003    1.114338241611331E-014
 -5.499999999999999E-003    9.102556965100641E-015
 -5.399999999999999E-003    5.310636130736477E-015
 -5.299999999999999E-003    8.352394239424048E-017
 -5.199999999999999E-003   -5.986748622803329E-015
 -5.099999999999999E-003   -1.208173934011997E-014
 -4.999999999999999E-003   -1.724996475285171E-014
 -4.899999999999999E-003   -2.053600481375279E-014
 -4.799999999999999E-003   -2.113047805526770E-014
 -4.699999999999999E-003   -1.852039190643997E-014
 -4.599999999999999E-003   -1.261613111111101E-014
 -4.499999999999999E-003   -3.831324782189061E-015
 -4.399999999999999E-003    6.904345710601524E-015
 -4.299999999999999E-003    1.821181659119224E-014
 -4.199999999999999E-003    2.841050866982528E-014
 -4.099999999999999E-003    3.573647501616178E-014
 -3.999999999999999E-003    3.860714435031581E-014
 -3.899999999999999E-003    3.589784927432166E-014
 -3.799999999999999E-003    2.718826918472850E-014
 -3.699999999999999E-003    1.293516691933366E-014
 -3.599999999999999E-003   -5.467055763786525E-015
 -3.499999999999999E-003   -2.576456687273327E-014
 -3.399999999999999E-003   -4.506962295148075E-014
 -3.299999999999999E-003   -6.021988536426544E-014
 -3.199999999999999E-003   -6.823472584699656E-014
 -3.099999999999999E-003   -6.681091704351763E-014
 -2.999999999999999E-003   -5.478496637494213E-014
 -2.899999999999999E-003   -3.248411280724376E-014
 -2.799999999999999E-003   -1.893849486746979E-015
 -2.699999999999999E-003    3.341164381905333E-014
 -2.599999999999999E-003    6.860000773884740E-014
 -2.499999999999999E-003    9.815810241030003E-014
 -2.399999999999999E-003    1.166609716736180E-013
 -2.299999999999999E-003    1.196383680227710E-013
 -2.199999999999999E-003    1.044158163174098E-013
 -2.099999999999999E-003    7.079300986738172E-014
 -1.999999999999999E-003    2.142876867850919E-014
 -1.899999999999999E-003   -3.817087462271455E-014
 -1.799999999999999E-003   -1.001163649961440E-013
 -1.699999999999999E-003   -1.550410055171000E-013
 -1.599999999999999E-003   -1.933692612011066E-013
 -1.499999999999999E-003   -2.067968874606264E-013
 -1.399999999999999E-003   -1.897780979426034E-013
 -1.299999999999999E-003   -1.407844359645497E-013
 -1.199999999999999E-003   -6.310368056040084E-014
 -1.099999999999999E-003    3.501241592113096E-014
 -9.999999999999989E-004    1.409655808286997E-013
 -8.999999999999990E-004    2.392016330703284E-013
 -7.999999999999990E-004    3.132600834739796E-013
 -6.999999999999989E-004    3.482479522784345E-013
 -5.999999999999990E-004    3.334027199711738E-013
 -4.999999999999989E-004    2.643496871702369E-013
 -3.999999999999989E-004    1.446535073270240E-013
 -2.999999999999989E-004   -1.367762212540788E-014
 -1.999999999999989E-004   -1.909565277893424E-013
 -9.999999999999892E-005   -3.618987635573418E-013
  1.084202172485504E-018   -4.988667094350052E-013
  1.000000000000011E-004   -5.759155229351279E-013
  2.000000000000011E-004   -5.731043832373906E-013
  3.000000000000011E-004   -4.804241999134778E-013
  4.000000000000011E-004   -3.006679368851024E-013
  5.000000000000011E-004   -5.065070872788037E-014
  6.000000000000011E-004    2.396277498036214E-013
  7.000000000000011E-004    5.300106705959261E-013
  8.000000000000011E-004    7.752023911847428E-013
  9.000000000000012E-004    9.312366326745923E-013
  1.000000000000001E-003    9.625524109279145E-013
  1.100000000000001E-003    8.486347112502002E-013
  1.200000000000001E-003    5.891131134533110E-013
  1.300000000000001E-003    2.063187315232727E-013
  1.400000000000001E-003   -2.554202475463565E-013
  1.500000000000001E-003   -7.340350894177762E-013
  1.600000000000001E-003   -1.157287145724532E-012
  1.700000000000001E-003   -1.452859443495584E-012
  1.800000000000001E-003   -1.559678374629500E-012
  1.900000000000001E-003   -1.438824767283758E-012
  2.000000000000001E-003   -1.082258871512097E-012
  2.100000000000001E-003   -5.177232986826615E-013
  2.200000000000001E-003    1.914047737797123E-013
  2.300000000000001E-003    9.518823594919298E-013
  2.400000000000001E-003    1.651736115042966E-012
  2.500000000000001E-003    2.175629942383485E-012
  2.600000000000001E-003    2.422530496711256E-012
  2.700000000000001E-003    2.323141706175749E-012
  2.800000000000001E-003    1.854337523369411E-012
  2.900000000000001E-003    1.047971243129046E-012
  3.000000000000001E-003   -7.961347932690735E-015
  3.100000000000001E-003   -1.176845781949516E-012
  3.200000000000001E-003   -2.289444927058297E-012
  3.300000000000001E-003   -3.166784359521924E-012
  3.400000000000001E-003   -3.647082244321551E-012
  3.500000000000001E-003   -3.612927737151159E-012
  3.600000000000001E-003   -3.014452881528720E-012
  3.700000000000001E-003   -1.884417842896940E-012
  3.800000000000001E-003   -3.419592040021537E-013
  3.900000000000001E-003    1.416801875308374E-012
  4.000000000000001E-003    3.141216428203062E-012
  4.100000000000001E-003    4.559494254805284E-012
  4.200000000000001E-003    5.418917369214117E-012
  4.300000000000001E-003    5.527289098560701E-012
  4.400000000000001E-003    4.789239166108765E-012
  4.500000000000001E-003    3.231149233831501E-012
  4.600000000000002E-003    1.009621194408345E-012
  4.700000000000001E-003   -1.599535664912623E-012
  4.800000000000001E-003   -4.232058626954991E-012
  4.900000000000002E-003   -6.482915971071994E-012
  5.000000000000001E-003   -7.965169502816147E-012
  5.100000000000001E-003   -8.371922731712317E-012
  5.200000000000001E-003   -7.531991549655817E-012
  5.300000000000002E-003   -5.449964491869436E-012
  5.400000000000001E-003   -2.322861425116826E-012
  5.500000000000001E-003    1.471497109654361E-012
  5.600000000000002E-003    5.415356773020127E-012
  5.700000000000001E-003    8.917593806070860E-012
  5.800000000000001E-003    1.139807055864429E-011
  5.900000000000002E-003    1.237837333425859E-011
  6.000000000000001E-003    1.156539598767145E-011
  6.100000000000001E-003    8.914118011990996E-012
  6.200000000000002E-003    4.657859560648986E-012
  6.300000000000002E-003   -7.017210140208226E-013
  6.400000000000001E-003   -6.447064764409102E-012
  6.500000000000001E-003   -1.173536512011431E-011
  6.600000000000002E-003   -1.571687510034219E-011
  6.700000000000001E-003   -1.766507832304045E-011
  6.800000000000001E-003   -1.709960591154683E-011
  6.900000000000002E-003   -1.388226120808961E-011
  7.000000000000001E-003   -8.268866873542881E-012
  7.100000000000001E-003   -9.050047049870248E-013
  7.200000000000002E-003    7.238659817386392E-012
  7.300000000000002E-003    1.498679110565762E-011
  7.400000000000001E-003    2.112181277321185E-011
  7.500000000000001E-003    2.456698454693636E-011
  7.600000000000002E-003    2.456365474354982E-011
  7.700000000000001E-003    2.081491504419041E-011
  7.800000000000001E-003    1.357065431611416E-011
  7.900000000000001E-003    3.635960111819212E-012
  8.000000000000002E-003   -7.704905297149346E-012
  8.100000000000001E-003   -1.884435304226017E-011
  8.200000000000001E-003   -2.806989041155440E-011
  8.300000000000002E-003   -3.381679263770856E-011
  8.400000000000001E-003   -3.491906520813012E-011
  8.500000000000002E-003   -3.082018582507336E-011
  8.600000000000002E-003   -2.170797453087887E-011
  8.700000000000001E-003   -8.546838629521279E-012
  8.800000000000002E-003    7.005817784499440E-012
  8.900000000000002E-003    2.279555139237368E-011
  9.000000000000001E-003    3.645821804936323E-011
  9.100000000000002E-003    4.576205901347774E-011
  9.200000000000002E-003    4.895668550998184E-011
  9.300000000000001E-003    4.507627914305373E-011
  9.400000000000002E-003    3.414721294867665E-011
  9.500000000000001E-003    1.726110594692850E-011
  9.600000000000001E-003   -3.508191754776051E-012
  9.700000000000002E-003   -2.534299363123742E-011
  9.800000000000001E-003   -4.505112471014944E-011
  9.900000000000001E-003   -5.951998320548807E-011
  1.000000000000000E-002   -6.619271565801249E-011
  1.010000000000000E-002   -6.349584156170908E-011
  1.020000000000000E-002   -5.114979325099313E-011
  1.030000000000000E-002   -3.030654523588052E-011
  1.040000000000000E-002   -3.480723583093532E-012
  1.050000000000000E-002    2.573052226162317E-011
  1.060000000000000E-002    5.311184724258110E-011
  1.070000000000000E-002    7.442130487052577E-011
  1.080000000000000E-002    8.602872921326446E-011
  1.090000000000000E-002    8.550765844975591E-011
  1.100000000000000E-002    7.208776706953409E-011
  1.110000000000000E-002    4.688941788085511E-011
  1.120000000000000E-002    1.288919009951116E-011
  1.130000000000000E-002   -2.539748049523906E-011
  1.140000000000000E-002   -6.248864716795366E-011
  1.150000000000000E-002   -9.269463626308945E-011
  1.160000000000000E-002   -1.109619253579870E-010
  1.170000000000000E-002   -1.136804086094143E-010
  1.180000000000000E-002   -9.932980767798086E-011
  1.190000000000000E-002   -6.885635332192806E-011
  1.200000000000000E-002   -2.570417583904954E-011
  1.210000000000000E-002    2.452735020234768E-011
  1.220000000000000E-002    7.477450078708050E-011
  1.230000000000000E-002    1.174684561376183E-010
  1.240000000000000E-002    1.456369385190849E-010
  1.250000000000000E-002    1.539923535606318E-010
  1.260000000000000E-002    1.398421151804157E-010
  1.270000000000000E-002    1.036721609385689E-010
  1.280000000000000E-002    4.929410559439248E-011
  1.290000000000000E-002   -1.649546947189149E-011
  1.300000000000000E-002   -8.472531360388804E-011
  1.310000000000000E-002   -1.454393673474288E-010
  1.320000000000000E-002   -1.891134393329988E-010
  1.330000000000000E-002   -2.081016755970980E-010
  1.340000000000000E-002   -1.978988274415759E-010
  1.350000000000000E-002   -1.580174678057942E-010
  1.360000000000000E-002   -9.232456629697411E-011
  1.370000000000000E-002   -8.752042182620908E-012
  1.380000000000000E-002    8.161561380027654E-011
  1.390000000000000E-002    1.659803469608699E-010
  1.400000000000000E-002    2.316153173402369E-010
  1.410000000000000E-002    2.677512780554605E-010
  1.420000000000000E-002    2.672902959848047E-010
  1.430000000000000E-002    2.280811302324347E-010
  1.440000000000000E-002    1.535394057005293E-010
  1.450000000000000E-002    5.248030526434115E-011
  1.460000000000000E-002   -6.185923529154901E-011
  1.470000000000000E-002   -1.735125706061858E-010
  1.480000000000000E-002   -2.659810175494985E-010
  1.490000000000000E-002   -3.246406225785180E-010
  1.500000000000000E-002   -3.390126857544234E-010
  1.510000000000000E-002   -3.045527068051491E-010
  1.520000000000000E-002   -2.236632748855218E-010
  1.530000000000000E-002   -1.057350412225411E-010
  1.540000000000000E-002    3.384670003158300E-011
  1.550000000000000E-002    1.756421429059447E-010
  1.560000000000000E-002    2.988096481040170E-010
  1.570000000000000E-002    3.841175490752814E-010
  1.580000000000000E-002    4.168873027131588E-010
  1.590000000000000E-002    3.894264252809248E-010
  1.600000000000000E-002    3.025602015362215E-010
  1.610000000000000E-002    1.659831598809645E-010
  1.620000000000000E-002   -2.688503479233577E-012
  1.630000000000000E-002   -1.800956149381331E-010
  1.640000000000000E-002   -3.402905891511515E-010
  1.650000000000000E-002   -4.584530286594426E-010
  1.660000000000000E-002   -5.146443687535616E-010
  1.670000000000000E-002   -4.970451307046139E-010
  1.680000000000000E-002   -4.041641676261272E-010
  1.690000000000000E-002   -2.456338643410179E-010
  1.700000000000000E-002   -4.139494008766100E-011
  1.710000000000000E-002    1.806969733221634E-010
  1.720000000000000E-002    3.885738843968113E-010
  1.730000000000000E-002    5.504884250734205E-010
  1.740000000000000E-002    6.397491948834828E-010
  1.750000000000000E-002    6.389650492539484E-010
  1.760000000000000E-002    5.431421450187536E-010
  1.770000000000000E-002    3.611101426141431E-010
  1.780000000000000E-002    1.149753589504107E-010
  1.790000000000000E-002   -1.624244430654493E-010
  1.800000000000000E-002   -4.317945167871614E-010
  1.810000000000000E-002   -6.528460891937802E-010
  1.820000000000000E-002   -7.902023797724437E-010
  1.830000000000000E-002   -8.188967969559141E-010
  1.840000000000000E-002   -7.286277816868224E-010
  1.850000000000000E-002   -5.260760566555852E-010
  1.860000000000000E-002   -2.348380009408291E-010
  1.870000000000000E-002    1.071390432363337E-010