 -4.000000000000000E-002    0.000000000000000E+000
 -3.990000000000000E-002    0.000000000000000E+000
 -3.980000000000000E-002    0.000000000000000E+000
 -3.970000000000000E-002    0.000000000000000E+000
 -3.960000000000000E-002    0.000000000000000E+000
 -3.950000000000000E-002    0.000000000000000E+000
 -3.940000000000000E-002    0.000000000000000E+000
 -3.930000000000000E-002    0.000000000000000E+000
 -3.920000000000000E-002    0.000000000000000E+000
 -3.910000000000000E-002    0.000000000000000E+000
 -3.900000000000000E-002    0.000000000000000E+000
 -3.890000000000000E-002    0.000000000000000E+000
 -3.880000000000000E-002    0.000000000000000E+000
 -3.870000000000000E-002    0.000000000000000E+000
 -3.860000000000000E-002    0.000000000000000E+000
 -3.850000000000000E-002    0.000000000000000E+000
 -3.840000000000000E-002    0.000000000000000E+000
 -3.830000000000000E-002    0.000000000000000E+000
 -3.820000000000000E-002    0.000000000000000E+000
 -3.810000000000000E-002    0.000000000000000E+000
 -3.800000000000000E-002    0.000000000000000E+000
 -3.790000000000000E-002    0.000000000000000E+000
 -3.780000000000000E-002    0.000000000000000E+000
 -3.770000000000000E-002    0.000000000000000E+000
 -3.760000000000000E-002    0.000000000000000E+000
 -3.750000000000000E-002    0.000000000000000E+000
 -3.740000000000000E-002    0.000000000000000E+000
 -3.730000000000000E-002    0.000000000000000E+000
 -3.720000000000000E-002    0.000000000000000E+000
 -3.710000000000000E-002    0.000000000000000E+000
 -3.700000000000000E-002    0.000000000000000E+000
 -3.690000000000000E-002    0.000000000000000E+000
 -3.680000000000000E-002    0.000000000000000E+000
 -3.670000000000000E-002    0.000000000000000E+000
 -3.660000000000000E-002    0.000000000000000E+000
 -3.650000000000000E-002    0.000000000000000E+000
 -3.640000000000000E-002    0.000000000000000E+000
 -3.630000000000000E-002    0.000000000000000E+000
 -3.620000000000000E-002    0.000000000000000E+000
 -3.610000000000000E-002    0.000000000000000E+000
 -3.600000000000000E-002    0.000000000000000E+000
 -3.590000000000000E-002    0.000000000000000E+000
 -3.580000000000000E-002    0.000000000000000E+000
 -3.570000000000000E-002    0.000000000000000E+000
 -3.560000000000000E-002    0.000000000000000E+000
 -3.550000000000000E-002    0.000000000000000E+000
 -3.540000000000000E-002    0.000000000000000E+000
 -3.530000000000000E-002    0.000000000000000E+000
 -3.520000000000000E-002    0.000000000000000E+000
 -3.510000000000000E-002    0.000000000000000E+000
 -3.500000000000000E-002    0.000000000000000E+000
 -3.490000000000000E-002    0.000000000000000E+000
 -3.480000000000000E-002    0.000000000000000E+000
 -3.470000000000000E-002    0.000000000000000E+000
 -3.460000000000000E-002    0.000000000000000E+000
 -3.450000000000000E-002    0.000000000000000E+000
 -3.440000000000000E-002    0.000000000000000E+000
 -3.430000000000000E-002    0.000000000000000E+000
 -3.420000000000000E-002    0.000000000000000E+000
 -3.410000000000000E-002    0.000000000000000E+000
 -3.400000000000000E-002    0.000000000000000E+000
 -3.390000000000000E-002    0.000000000000000E+000
 -3.380000000000000E-002    0.000000000000000E+000
 -3.370000000000000E-002    0.000000000000000E+000
 -3.360000000000000E-002    0.000000000000000E+000
 -3.350000000000000E-002    0.000000000000000E+000
 -3.340000000000000E-002    0.000000000000000E+000
 -3.330000000000000E-002    0.000000000000000E+000
 -3.320000000000000E-002    0.000000000000000E+000
 -3.310000000000000E-002    0.000000000000000E+000
 -3.300000000000000E-002    0.000000000000000E+000
 -3.290000000000000E-002    0.000000000000000E+000
 -3.280000000000000E-002    0.000000000000000E+000
 -3.270000000000000E-002    0.000000000000000E+000
 -3.260000000000000E-002    0.000000000000000E+000
 -3.250000000000000E-002    0.000000000000000E+000
 -3.240000000000000E-002    0.000000000000000E+000
 -3.230000000000000E-002    0.000000000000000E+000
 -3.220000000000000E-002    0.000000000000000E+000
 -3.210000000000000E-002    0.000000000000000E+000
 -3.200000000000000E-002    0.000000000000000E+000
 -3.190000000000000E-002    0.000000000000000E+000
 -3.180000000000000E-002    0.000000000000000E+000
 -3.170000000000000E-002    0.000000000000000E+000
 -3.160000000000000E-002    0.000000000000000E+000
 -3.150000000000000E-002    0.000000000000000E+000
 -3.140000000000000E-002    0.000000000000000E+000
 -3.130000000000000E-002    0.000000000000000E+000
 -3.120000000000000E-002    0.000000000000000E+000
 -3.110000000000000E-002    0.000000000000000E+000
 -3.100000000000000E-002    0.000000000000000E+000
 -3.090000000000000E-002    0.000000000000000E+000
 -3.080000000000000E-002    0.000000000000000E+000
 -3.070000000000000E-002    0.000000000000000E+000
 -3.060000000000000E-002    0.000000000000000E+000
 -3.050000000000000E-002    0.000000000000000E+000
 -3.040000000000000E-002    0.000000000000000E+000
 -3.030000000000000E-002    0.000000000000000E+000
 -3.020000000000000E-002    0.000000000000000E+000
 -3.010000000000000E-002    0.000000000000000E+000
 -3.000000000000000E-002    0.000000000000000E+000
 -2.990000000000000E-002    0.000000000000000E+000
 -2.980000000000000E-002    0.000000000000000E+000
 -2.970000000000000E-002    0.000000000000000E+000
 -2.960000000000000E-002    0.000000000000000E+000
 -2.950000000000000E-002    0.000000000000000E+000
 -2.940000000000000E-002    0.000000000000000E+000
 -2.930000000000000E-002    0.000000000000000E+000
 -2.920000000000000E-002    0.000000000000000E+000
 -2.910000000000000E-002    0.000000000000000E+000
 -2.900000000000000E-002    0.000000000000000E+000
 -2.890000000000000E-002    0.000000000000000E+000
 -2.880000000000000E-002    0.000000000000000E+000
 -2.870000000000000E-002    0.000000000000000E+000
 -2.860000000000000E-002    0.000000000000000E+000
 -2.850000000000000E-002    0.000000000000000E+000
 -2.840000000000000E-002    0.000000000000000E+000
 -2.830000000000000E-002    0.000000000000000E+000
 -2.820000000000000E-002    0.000000000000000E+000
 -2.810000000000000E-002    0.000000000000000E+000
 -2.800000000000000E-002    0.000000000000000E+000
 -2.790000000000000E-002    0.000000000000000E+000
 -2.780000000000000E-002    0.000000000000000E+000
 -2.770000000000000E-002    0.000000000000000E+000
 -2.760000000000000E-002    0.000000000000000E+000
 -2.750000000000000E-002    0.000000000000000E+000
 -2.740000000000000E-002    0.000000000000000E+000
 -2.730000000000000E-002    0.000000000000000E+000
 -2.720000000000000E-002    0.000000000000000E+000
 -2.710000000000000E-002    0.000000000000000E+000
 -2.700000000000000E-002    0.000000000000000E+000
 -2.690000000000000E-002    0.000000000000000E+000
 -2.680000000000000E-002    0.000000000000000E+000
 -2.670000000000000E-002    0.000000000000000E+000
 -2.660000000000000E-002    0.000000000000000E+000
 -2.650000000000000E-002    0.000000000000000E+000
 -2.640000000000000E-002    0.000000000000000E+000
 -2.630000000000000E-002    0.000000000000000E+000
 -2.620000000000000E-002    0.000000000000000E+000
 -2.610000000000000E-002    0.000000000000000E+000
 -2.600000000000000E-002    0.000000000000000E+000
 -2.590000000000000E-002    0.000000000000000E+000
 -2.580000000000000E-002    0.000000000000000E+000
 -2.570000000000000E-002    0.000000000000000E+000
 -2.560000000000000E-002    0.000000000000000E+000
 -2.550000000000000E-002    0.000000000000000E+000
 -2.540000000000000E-002    0.000000000000000E+000
 -2.530000000000000E-002    0.000000000000000E+000
 -2.520000000000000E-002    0.000000000000000E+000
 -2.510000000000000E-002    0.000000000000000E+000
 -2.500000000000000E-002    0.000000000000000E+000
 -2.490000000000000E-002    0.000000000000000E+000
 -2.480000000000000E-002    0.000000000000000E+000
 -2.470000000000000E-002    0.000000000000000E+000
 -2.460000000000000E-002    0.000000000000000E+000
 -2.450000000000000E-002    0.000000000000000E+000
 -2.440000000000000E-002    0.000000000000000E+000
 -2.430000000000000E-002    0.000000000000000E+000
 -2.420000000000000E-002    0.000000000000000E+000
 -2.410000000000000E-002    0.000000000000000E+000
 -2.400000000000000E-002    0.000000000000000E+000
 -2.390000000000000E-002    0.000000000000000E+000
 -2.380000000000000E-002    0.000000000000000E+000
 -2.370000000000000E-002    0.000000000000000E+000
 -2.360000000000000E-002    0.000000000000000E+000
 -2.350000000000000E-002    0.000000000000000E+000
 -2.340000000000000E-002    0.000000000000000E+000
 -2.330000000000000E-002    0.000000000000000E+000
 -2.320000000000000E-002    0.000000000000000E+000
 -2.310000000000000E-002    0.000000000000000E+000
 -2.300000000000000E-002    0.000000000000000E+000
 -2.290000000000000E-002    0.000000000000000E+000
 -2.280000000000000E-002    0.000000000000000E+000
 -2.270000000000000E-002    0.000000000000000E+000
 -2.260000000000000E-002    0.000000000000000E+000
 -2.250000000000000E-002    0.000000000000000E+000
 -2.240000000000000E-002    0.000000000000000E+000
 -2.230000000000000E-002    0.000000000000000E+000
 -2.220000000000000E-002    0.000000000000000E+000
 -2.210000000000000E-002    0.000000000000000E+000
 -2.200000000000000E-002    0.000000000000000E+000
 -2.190000000000000E-002    0.000000000000000E+000
 -2.180000000000000E-002    0.000000000000000E+000
 -2.170000000000000E-002    0.000000000000000E+000
 -2.160000000000000E-002    0.000000000000000E+000
 -2.150000000000000E-002    0.000000000000000E+000
 -2.140000000000000E-002    0.000000000000000E+000
 -2.130000000000000E-002    0.000000000000000E+000
 -2.120000000000000E-002    0.000000000000000E+000
 -2.110000000000000E-002    0.000000000000000E+000
 -2.100000000000000E-002    0.000000000000000E+000
 -2.090000000000000E-002    0.000000000000000E+000
 -2.080000000000000E-002    0.000000000000000E+000
 -2.070000000000000E-002    0.000000000000000E+000
 -2.060000000000000E-002    0.000000000000000E+000
 -2.050000000000000E-002    0.000000000000000E+000
 -2.040000000000000E-002    0.000000000000000E+000
 -2.030000000000000E-002    0.000000000000000E+000
 -2.020000000000000E-002    0.000000000000000E+000
 -2.010000000000000E-002    0.000000000000000E+000
 -2.000000000000000E-002    0.000000000000000E+000
 -1.990000000000000E-002    0.000000000000000E+000
 -1.980000000000000E-002    0.000000000000000E+000
 -1.970000000000000E-002    0.000000000000000E+000
 -1.960000000000000E-002    0.000000000000000E+000
 -1.950000000000000E-002    0.000000000000000E+000
 -1.940000000000000E-002    0.000000000000000E+000
 -1.930000000000000E-002    0.000000000000000E+000
 -1.920000000000000E-002    0.000000000000000E+000
 -1.910000000000000E-002    0.000000000000000E+000
 -1.900000000000000E-002    0.000000000000000E+000
 -1.890000000000000E-002    0.000000000000000E+000
 -1.880000000000000E-002    0.000000000000000E+000
 -1.870000000000000E-002    0.000000000000000E+000
 -1.860000000000000E-002    0.000000000000000E+000
 -1.850000000000000E-002    0.000000000000000E+000
 -1.840000000000000E-002    0.000000000000000E+000
 -1.830000000000000E-002    0.000000000000000E+000
 -1.820000000000000E-002    0.000000000000000E+000
 -1.810000000000000E-002    0.000000000000000E+000
 -1.800000000000000E-002    0.000000000000000E+000
 -1.790000000000000E-002    0.000000000000000E+000
 -1.780000000000000E-002    0.000000000000000E+000
 -1.770000000000000E-002    0.000000000000000E+000
 -1.760000000000000E-002    0.000000000000000E+000
 -1.750000000000000E-002    0.000000000000000E+000
 -1.740000000000000E-002    0.000000000000000E+000
 -1.730000000000000E-002    0.000000000000000E+000
 -1.720000000000000E-002    0.000000000000000E+000
 -1.710000000000000E-002    0.000000000000000E+000
 -1.700000000000000E-002    0.000000000000000E+000
 -1.690000000000000E-002    0.000000000000000E+000
 -1.680000000000000E-002    0.000000000000000E+000
 -1.670000000000000E-002    0.000000000000000E+000
 -1.660000000000000E-002    0.000000000000000E+000
 -1.650000000000000E-002    6.414635304221270E-048
 -1.640000000000000E-002    1.282927060844254E-047
 -1.630000000000000E-002    6.763422942257716E-047
 -1.620000000000000E-002    1.245774000047855E-046
 -1.610000000000000E-002    1.751059352827726E-046
 -1.600000000000000E-002    1.686912999785514E-046
 -1.590000000000000E-002    1.010570705559742E-046
 -1.580000000000000E-002   -3.634960005725386E-047
 -1.570000000000000E-002   -2.651110421962098E-046
 -1.560000000000000E-002   -5.401913336284518E-046
 -1.550000000000000E-002   -8.442178300036039E-046
 -1.540000000000000E-002   -1.129000420466092E-045
 -1.530000000000000E-002   -1.283873690026079E-045
 -1.520000000000000E-002   -1.205709093910962E-045
 -1.510000000000000E-002   -6.322283993467884E-046
 -1.500000000000000E-002    3.935767337004733E-046
 -1.490000000000000E-002    2.559822367608686E-045
 -1.480000000000000E-002    5.144141531204297E-045
 -1.470000000000000E-002    7.520720470634303E-045
 -1.460000000000000E-002    9.505566715786406E-045
 -1.450000000000000E-002    9.913003630912872E-045
 -1.440000000000000E-002    9.344021361459482E-045
 -1.430000000000000E-002    6.849255970498918E-045
 -1.420000000000000E-002    3.409932853788146E-046
 -1.410000000000000E-002   -8.573549536196823E-045
 -1.400000000000000E-002   -2.046116565313316E-044
 -1.390000000000000E-002   -3.492669787191705E-044
 -1.380000000000000E-002   -4.879492404828272E-044
 -1.370000000000000E-002   -5.895654596626283E-044
 -1.360000000000000E-002   -5.949445566426563E-044
 -1.350000000000000E-002   -4.536418529214878E-044
 -1.340000000000000E-002   -1.179704574071830E-044
 -1.330000000000000E-002    4.453515855954854E-044
 -1.320000000000000E-002    1.220947939847499E-043
 -1.310000000000000E-002    2.125245269370132E-043
 -1.300000000000000E-002    3.006732397112188E-043
 -1.290000000000000E-002    3.641149862219406E-043
 -1.280000000000000E-002    3.714131814594750E-043
 -1.270000000000000E-002    2.906457656952396E-043
 -1.260000000000000E-002    9.192535035376117E-044
 -1.250000000000000E-002   -2.399082994791168E-043
 -1.240000000000000E-002   -6.960060094731154E-043
 -1.230000000000000E-002   -1.232105663130921E-042
 -1.220000000000000E-002   -1.758288382392411E-042
 -1.210000000000000E-002   -2.140852399092624E-042
 -1.200000000000000E-002   -2.206916319030249E-042
 -1.190000000000000E-002   -1.770091630115625E-042
 -1.180000000000000E-002   -6.674791186879023E-043
 -1.170000000000000E-002    1.185537245552205E-042
 -1.160000000000000E-002    3.737449794519912E-042
 -1.150000000000000E-002    6.735334639608835E-042
 -1.140000000000000E-002    9.689049678732395E-042
 -1.130000000000000E-002    1.185795461307262E-041
 -1.120000000000000E-002    1.231104762982193E-041
 -1.110000000000000E-002    1.004673932029687E-041
 -1.100000000000000E-002    4.205466971382118E-042
 -1.090000000000000E-002   -5.652545497164203E-042
 -1.080000000000000E-002   -1.922509303605499E-041
 -1.070000000000000E-002   -3.516438069169975E-041
 -1.060000000000000E-002   -5.087289359184343E-041
 -1.050000000000000E-002   -6.249604589756453E-041
 -1.040000000000000E-002   -6.521699109883409E-041
 -1.030000000000000E-002   -5.392571399629392E-041
 -1.020000000000000E-002   -2.429251648116988E-041
 -1.010000000000000E-002    2.581033798741314E-041
 -1.000000000000000E-002    9.472174992302889E-041
 -9.899999999999999E-003    1.755252996977989E-040
 -9.800000000000000E-003    2.551100567316413E-040
 -9.699999999999999E-003    3.142540449919440E-040
 -9.599999999999999E-003    3.291871959248618E-040
 -9.500000000000000E-003    2.749875804507031E-040
 -9.399999999999999E-003    1.308766293387616E-040
 -9.299999999999999E-003   -1.129292073221839E-040
 -9.200000000000000E-003   -4.476877762608343E-040
 -9.099999999999999E-003   -8.393635585854856E-040
 -8.999999999999999E-003   -1.224592242544760E-039
 -8.900000000000000E-003   -1.511579613827476E-039
 -8.799999999999999E-003   -1.588052606419489E-039
 -8.699999999999999E-003   -1.337677180650524E-039
 -8.600000000000000E-003   -6.650488643094236E-040
 -8.499999999999999E-003    4.726061287288834E-040
 -8.399999999999999E-003    2.031281709243214E-039
 -8.300000000000000E-003    3.850395334282924E-039
 -8.199999999999999E-003    5.636213222767941E-039
 -8.100000000000000E-003    6.968328481305816E-039
 -8.000000000000000E-003    7.338142634109421E-039
 -7.899999999999999E-003    6.224915155881599E-039
 -7.800000000000000E-003    3.208803697331264E-039
 -7.699999999999999E-003   -1.888466357270013E-039
 -7.599999999999999E-003   -8.855162968490783E-039
 -7.499999999999999E-003   -1.696377159941781E-038
 -7.399999999999999E-003   -2.490654757954743E-038
 -7.299999999999999E-003   -3.083406030668694E-038
 -7.199999999999999E-003   -3.253312890558880E-038
 -7.100000000000000E-003   -2.776469868385475E-038
 -6.999999999999999E-003   -1.475482672866516E-038
 -6.899999999999999E-003    7.205766195087283E-039
 -6.800000000000000E-003    3.714184669125180E-038
 -6.699999999999999E-003    7.188427265169026E-038
 -6.599999999999999E-003    1.058327933225111E-037
 -6.499999999999999E-003    1.311603668215980E-037
 -6.399999999999999E-003    1.386009386639519E-037
 -6.299999999999999E-003    1.188916643607686E-037
 -6.199999999999999E-003    6.482387714762826E-038
 -6.100000000000000E-003   -2.629821320213351E-038
 -5.999999999999999E-003   -1.501671188893043E-037
 -5.899999999999999E-003   -2.934895709945189E-037
 -5.800000000000000E-003   -4.331621772038533E-037
 -5.699999999999999E-003   -5.372671409496746E-037
 -5.599999999999999E-003   -5.684182100067006E-037
 -5.499999999999999E-003   -4.896848105777226E-037
 -5.399999999999999E-003   -2.728445869542464E-037
 -5.299999999999999E-003    9.189986206795085E-038
 -5.199999999999999E-003    5.862783290209708E-037
 -5.099999999999999E-003    1.156526369776334E-036
 -4.999999999999999E-003    1.710693950596521E-036
 -4.899999999999999E-003    2.123177278309640E-036
 -4.799999999999999E-003    2.248378267601866E-036
 -4.699999999999999E-003    1.944155048793545E-036
 -4.599999999999999E-003    1.103855243354883E-036
 -4.499999999999999E-003   -3.066233520189415E-037
 -4.399999999999999E-003   -2.212794019588121E-036
 -4.299999999999999E-003   -4.404764972674520E-036
 -4.199999999999999E-003   -6.529045787449850E-036
 -4.099999999999999E-003   -8.108010288446292E-036
 -3.999999999999999E-003   -8.593567435182788E-036
 -3.899999999999999E-003   -7.456739764030888E-036
 -3.799999999999999E-003   -4.307767904244793E-036
 -3.699999999999999E-003    9.672793725798447E-037
 -3.599999999999999E-003    8.076316581491221E-036
 -3.499999999999999E-003    1.622775549100236E-035
 -3.399999999999999E-003    2.410762215641335E-035
 -3.299999999999999E-003    2.995890271105639E-035
 -3.199999999999999E-003    3.178480838066231E-035
 -3.099999999999999E-003    2.767936813198683E-035
 -2.999999999999999E-003    1.626289746125534E-035
 -2.899999999999999E-003   -2.830769464900651E-036
 -2.799999999999999E-003   -2.849911758647414E-035
 -2.699999999999999E-003   -5.785591421592338E-035
 -2.599999999999999E-003   -8.617449494848181E-035
 -2.499999999999999E-003   -1.071963728250547E-034
 -2.399999999999999E-003   -1.138742548530898E-034
 -2.299999999999999E-003   -9.955197934841641E-035
 -2.199999999999999E-003   -5.949302589117844E-035
 -2.099999999999999E-003    7.436325800383709E-036
 -1.999999999999999E-003    9.722520002776489E-035
 -1.899999999999999E-003    1.996908475943331E-034
 -1.799999999999999E-003    2.983648439175953E-034
 -1.699999999999999E-003    3.716428216429466E-034
 -1.599999999999999E-003    3.954092004772646E-034
 -1.499999999999999E-003    3.471148986776723E-034
 -1.399999999999999E-003    2.109760519748479E-034
 -1.299999999999999E-003   -1.638807281065233E-035
 -1.199999999999999E-003   -3.208905383213242E-034
 -1.099999999999999E-003   -6.677328479612498E-034
 -9.999999999999989E-004   -1.001286375582952E-033
 -8.999999999999990E-004   -1.249209688675536E-033
 -7.999999999999990E-004   -1.331421198201871E-033
 -6.999999999999989E-004   -1.173758512210679E-033
 -5.999999999999990E-004   -7.251319714310091E-034
 -4.999999999999989E-004    2.414775065648041E-035
 -3.999999999999989E-004    1.026220591601525E-033
 -2.999999999999989E-004    2.165750484271187E-033
 -1.999999999999989E-004    3.260359644534077E-033
 -9.999999999999892E-005    4.074837925316860E-033
  1.084202172485504E-018    4.350868941355351E-033
  1.000000000000011E-004    3.851435068831646E-033
  2.000000000000011E-004    2.415780470079565E-033
  3.000000000000011E-004    1.729760875880919E-035
  4.000000000000011E-004   -3.186432856557509E-033
  5.000000000000011E-004   -6.824179691233644E-033
  6.000000000000011E-004   -1.031492599067027E-032
  7.000000000000011E-004   -1.291523673320843E-032
  8.000000000000011E-004   -1.381482174589257E-032
  9.000000000000012E-004   -1.227678654899639E-032
  1.000000000000001E-003   -7.808855716593291E-033
  1.100000000000001E-003   -3.412087538160910E-034
  1.200000000000001E-003    9.622675136571406E-033
  1.300000000000001E-003    2.092110238830343E-032
  1.400000000000001E-003    3.175336836335790E-032
  1.500000000000001E-003    3.983256084038176E-032
  1.600000000000001E-003    4.268401743598726E-032
  1.700000000000001E-003    3.807614294777310E-032
  1.800000000000001E-003    2.453958249584785E-032
  1.900000000000001E-003    1.899198319410395E-033
  2.000000000000001E-003   -2.828293410571375E-032
  2.100000000000001E-003   -6.246949234336917E-032
  2.200000000000001E-003   -9.522622468826211E-032
  2.300000000000001E-003   -1.196994999607345E-031
  2.400000000000001E-003   -1.285225889460206E-031
  2.500000000000001E-003   -1.151039883016748E-031
  2.600000000000001E-003   -7.516096598616706E-032
  2.700000000000001E-003   -8.271004497771485E-033
  2.800000000000001E-003    8.085929959524316E-032
  2.900000000000001E-003    1.817441578916704E-031
  3.000000000000001E-003    2.784035233407117E-031
  3.100000000000001E-003    3.508105406680013E-031
  3.200000000000001E-003    3.775692692344767E-031
  3.300000000000001E-003    3.396677262099848E-031
  3.400000000000001E-003    2.248946269323705E-031
  3.500000000000001E-003    3.225412362870308E-032
  3.600000000000001E-003   -2.244848992725684E-031
  3.700000000000001E-003   -5.150548492210345E-031
  3.800000000000001E-003   -7.936473704307867E-031
  3.900000000000001E-003   -1.003171125347433E-030
  4.000000000000001E-003   -1.082953470527934E-030
  4.100000000000001E-003   -9.793977481505451E-031
  4.200000000000001E-003   -6.583943174017843E-031
  4.300000000000001E-003   -1.175872764653813E-031
  4.400000000000001E-003    6.039202567088492E-031
  4.500000000000001E-003    1.421041204152009E-030
  4.600000000000002E-003    2.205730429918190E-030
  4.700000000000001E-003    2.799148029821593E-030
  4.800000000000001E-003    3.033233830875401E-030
  4.900000000000002E-003    2.760224283483093E-030
  5.000000000000001E-003    1.886693189099474E-030
  5.100000000000001E-003    4.068562823090225E-031
  5.200000000000001E-003   -1.571465324352842E-030
  5.300000000000002E-003   -3.815270890453960E-030
  5.400000000000001E-003   -5.975456917443341E-030
  5.500000000000001E-003   -7.620588548362447E-030
  5.600000000000002E-003   -8.295795910024829E-030
  5.700000000000001E-003   -7.602539474541277E-030
  5.800000000000001E-003   -5.289800848902747E-030
  5.900000000000002E-003   -1.342476159965253E-030
  6.000000000000001E-003    3.950625071329358E-030
  6.100000000000001E-003    9.967723072621432E-030
  6.200000000000002E-003    1.578009497068189E-029
  6.300000000000002E-003    2.024329439832103E-029
  6.400000000000001E-003    2.215394116291966E-029
  6.500000000000001E-003    2.046015375708277E-029
  6.600000000000002E-003    1.450026613433061E-029
  6.700000000000001E-003    4.232303809320595E-030
  6.800000000000001E-003   -9.591592151714785E-030
  6.900000000000002E-003   -2.535341259471801E-029
  7.000000000000001E-003   -4.064107351182738E-029
  7.100000000000001E-003   -5.248827506105777E-029
  7.200000000000002E-003   -5.778182072725747E-029
  7.300000000000002E-003   -5.380394575385726E-029
  7.400000000000001E-003   -3.884332050046741E-029
  7.500000000000001E-003   -1.277810570816650E-029
  7.600000000000002E-003    2.248548347215557E-029
  7.700000000000001E-003    6.283876938132775E-029
  7.800000000000001E-003    1.021614574395909E-028
  7.900000000000001E-003    1.329364320704597E-028
  8.000000000000002E-003    1.472829962876142E-028
  8.100000000000001E-003    1.383232088273157E-028
  8.200000000000001E-003    1.017120058227557E-028
  8.300000000000002E-003    3.708812623361727E-029
  8.400000000000001E-003   -5.084406149587813E-029
  8.500000000000002E-003   -1.518962197912552E-028
  8.600000000000002E-003   -2.508865424479532E-028
  8.700000000000001E-003   -3.291764585224022E-028
  8.800000000000002E-003   -3.672315729034676E-028
  8.900000000000002E-003   -3.479890050957763E-028
  9.000000000000001E-003   -2.606092105288072E-028
  9.100000000000002E-003   -1.040150042229745E-028
  9.200000000000002E-003    1.104877127628765E-028
  9.300000000000001E-003    3.582176780919485E-028
  9.400000000000002E-003    6.023372210843862E-028
  9.500000000000001E-003    7.975998455456184E-028
  9.600000000000001E-003    8.965558689656465E-028
  9.700000000000002E-003    8.576741498008713E-028
  9.800000000000001E-003    6.543551574720458E-028
  9.900000000000001E-003    2.833986847276854E-028
  1.000000000000000E-002   -2.287556198352848E-028
  1.010000000000000E-002   -8.236928524176433E-028
  1.020000000000000E-002   -1.413952247474651E-027
  1.030000000000000E-002   -1.891946127453027E-027
  1.040000000000000E-002   -2.144663017641533E-027
  1.050000000000000E-002   -2.072848599441099E-027
  1.060000000000000E-002   -1.612229399256096E-027
  1.070000000000000E-002   -7.533987698312780E-028
  1.080000000000000E-002    4.435623753059761E-028
  1.090000000000000E-002    1.843615926815872E-027
  1.100000000000000E-002    3.243575451449273E-027
  1.110000000000000E-002    4.392811540208861E-027
  1.120000000000000E-002    5.027326755185882E-027
  1.130000000000000E-002    4.914116316052574E-027
  1.140000000000000E-002    3.900170908016035E-027
  1.150000000000000E-002    1.958338098652513E-027
  1.160000000000000E-002   -7.789515938830283E-028
  1.170000000000000E-002   -4.006934373047755E-027
  1.180000000000000E-002   -7.263786765894819E-027
  1.190000000000000E-002   -9.977529125497209E-027
  1.200000000000000E-002   -1.154325001750365E-026
  1.210000000000000E-002   -1.142361233379138E-026
  1.220000000000000E-002   -9.259812813461770E-027
  1.230000000000000E-002   -4.975458938963982E-027
  1.240000000000000E-002    1.146812725901134E-027
  1.250000000000000E-002    8.435724360729126E-027
  1.260000000000000E-002    1.586443734836636E-026
  1.270000000000000E-002    2.215418047112105E-026
  1.280000000000000E-002    2.594548565323483E-026
  1.290000000000000E-002    2.602123933027705E-026
  1.300000000000000E-002    2.155317402406108E-026
  1.310000000000000E-002    1.233302000690031E-026
  1.320000000000000E-002   -1.056088991964845E-027
  1.330000000000000E-002   -1.717122173809408E-026
  1.340000000000000E-002   -3.377865787605576E-026
  1.350000000000000E-002   -4.807733708333284E-026
  1.360000000000000E-002   -5.707036541437721E-026
  1.370000000000000E-002   -5.805016629794525E-026
  1.380000000000000E-002   -4.913576782277886E-026
  1.390000000000000E-002   -2.977825045387200E-026
  1.400000000000000E-002   -1.138582207821737E-027
  1.410000000000000E-002    3.375568663245568E-026
  1.420000000000000E-002    7.014869821337713E-026
  1.430000000000000E-002    1.020265746334683E-025
  1.440000000000000E-002    1.229063231492290E-025
  1.450000000000000E-002    1.268705775119346E-025
  1.460000000000000E-002    1.097173228215709E-025
  1.470000000000000E-002    7.004670822978700E-026
  1.480000000000000E-002    1.008158540718375E-026
  1.490000000000000E-002   -6.397610988837301E-026
  1.500000000000000E-002   -1.422105859593626E-025
  1.510000000000000E-002   -2.119580705580551E-025
  1.520000000000000E-002   -2.594472961584796E-025
  1.530000000000000E-002   -2.719641447142269E-025
  1.540000000000000E-002   -2.402686394979852E-025
  1.550000000000000E-002   -1.608939296225407E-025
  1.560000000000000E-002   -3.790407567344598E-026
  1.570000000000000E-002    1.163032280304585E-025
  1.580000000000000E-002    2.814773631152971E-025
  1.590000000000000E-002    4.314499860093591E-025
  1.600000000000000E-002    5.374750263736270E-025
  1.610000000000000E-002    5.726724770426729E-025
  1.620000000000000E-002    5.170219567896322E-025
  1.630000000000000E-002    3.621505250069729E-025
  1.640000000000000E-002    1.150484133132423E-025
  1.650000000000000E-002   -2.001380243028141E-025
  1.660000000000000E-002   -5.429147440379005E-025
  1.670000000000000E-002   -8.602142710561274E-025
  1.680000000000000E-002   -1.093053026079459E-024
  1.690000000000000E-002   -1.185481689020182E-024
  1.700000000000000E-002   -1.094727270992223E-024
  1.710000000000000E-002   -8.010123370256310E-025
  1.720000000000000E-002   -3.153079920038135E-025
  1.730000000000000E-002    3.166981530024399E-025
  1.740000000000000E-002    1.015809257560080E-024
  1.750000000000000E-002    1.676468785722466E-024
  1.760000000000000E-002    2.179741844804026E-024
  1.770000000000000E-002    2.410994799961605E-024
  1.780000000000000E-002    2.280140212309920E-024
  1.790000000000000E-002    1.741466746617849E-024
  1.800000000000000E-002    8.096076190554544E-025
  1.810000000000000E-002   -4.317816824084748E-025
  1.820000000000000E-002   -1.831442097273698E-024
  1.830000000000000E-002   -3.183628743571694E-024
  1.840000000000000E-002   -4.252837883587229E-024
  1.850000000000000E-002   -4.808059154404593E-024
  1.860000000000000E-002   -4.662471589028027E-024
  1.870000000000000E-002   -3.712863021784069E-024