 -4.000000000000000E-002    0.000000000000000E+000
 -3.990000000000000E-002    0.000000000000000E+000
 -3.980000000000000E-002    0.000000000000000E+000
 -3.970000000000000E-002    0.000000000000000E+000
 -3.960000000000000E-002    0.000000000000000E+000
 -3.950000000000000E-002    0.000000000000000E+000
 -3.940000000000000E-002    0.000000000000000E+000
 -3.930000000000000E-002    0.000000000000000E+000
 -3.920000000000000E-002    0.000000000000000E+000
 -3.910000000000000E-002    0.000000000000000E+000
 -3.900000000000000E-002   -1.673313228007872E-031
 -3.890000000000000E-002   -3.089434767743256E-030
 -3.880000000000000E-002   -2.937369188766181E-029
 -3.870000000000000E-002   -1.909915853780427E-028
 -3.860000000000000E-002   -9.512102452217313E-028
 -3.850000000000000E-002   -3.850676690161176E-027
 -3.840000000000000E-002   -1.311449508212548E-026
 -3.830000000000000E-002   -3.832169058935498E-026
 -3.820000000000000E-002   -9.685357216462697E-026
 -3.810000000000000E-002   -2.106383235657840E-025
 -3.800000000000000E-002   -3.829938776863327E-025
 -3.790000000000000E-002   -5.275093308779186E-025
 -3.780000000000000E-002   -3.054283969741302E-025
 -3.770000000000000E-002    1.176890288141111E-024
 -3.760000000000000E-002    5.827811324133536E-024
 -3.750000000000000E-002    1.709866390591323E-023
 -3.740000000000000E-002    4.026561105766209E-023
 -3.730000000000000E-002    8.178059863029613E-023
 -3.720000000000000E-002    1.465342924438208E-022
 -3.710000000000000E-002    2.314664809325194E-022
 -3.700000000000000E-002    3.139682040258570E-022
 -3.690000000000000E-002    3.344936703485180E-022
 -3.680000000000000E-002    1.754012852354355E-022
 -3.670000000000000E-002   -3.571930689481713E-022
 -3.660000000000000E-002   -1.534854206009231E-021
 -3.650000000000000E-002   -3.669937147938508E-021
 -3.640000000000000E-002   -7.012643925926318E-021
 -3.630000000000000E-002   -1.155484321044190E-020
 -3.620000000000000E-002   -1.672709257565190E-020
 -3.610000000000000E-002   -2.100865214441018E-020
 -3.600000000000000E-002   -2.152740952055539E-020
 -3.590000000000000E-002   -1.380507043085180E-020
 -3.580000000000000E-002    8.110674248353524E-021
 -3.570000000000000E-002    5.081891632568807E-020
 -3.560000000000000E-002    1.197312095410853E-019
 -3.550000000000000E-002    2.160285469785607E-019
 -3.540000000000000E-002    3.324815694866558E-019
 -3.530000000000000E-002    4.486673667731490E-019
 -3.520000000000000E-002    5.267405720227873E-019
 -3.510000000000000E-002    5.096027380620068E-019
 -3.500000000000000E-002    3.238721762709449E-019
 -3.490000000000000E-002   -1.097927680864550E-019
 -3.480000000000000E-002   -8.570408885614006E-019
 -3.470000000000000E-002   -1.940464364221917E-018
 -3.460000000000000E-002   -3.302899523323620E-018
 -3.450000000000000E-002   -4.769539353491045E-018
 -3.440000000000000E-002   -6.019247012385218E-018
 -3.430000000000000E-002   -6.579151957191894E-018
 -3.420000000000000E-002   -5.858325712856863E-018
 -3.410000000000000E-002   -3.234407797224416E-018
 -3.400000000000000E-002    1.799957080001782E-018
 -3.390000000000000E-002    9.436912431952791E-018
 -3.380000000000000E-002    1.932368522900939E-017
 -3.370000000000000E-002    3.034888943925994E-017
 -3.360000000000000E-002    4.051019656308008E-017
 -3.350000000000000E-002    4.694094110511616E-017
 -3.340000000000000E-002    4.617076661055928E-017
 -3.330000000000000E-002    3.467152098921679E-017
 -3.320000000000000E-002    9.690669942154669E-018
 -3.310000000000000E-002   -2.969858633365226E-017
 -3.300000000000000E-002   -8.149024905177990E-017
 -3.290000000000000E-002   -1.398302973006388E-016
 -3.280000000000000E-002   -1.946079386789221E-016
 -3.270000000000000E-002   -2.318836915641452E-016
 -3.260000000000000E-002   -2.354242987026310E-016
 -3.250000000000000E-002   -1.894609149765797E-016
 -3.240000000000000E-002   -8.253908547373748E-017
 -3.230000000000000E-002    8.798994176456809E-017
 -3.220000000000000E-002    3.116282583968902E-016
 -3.210000000000000E-002    5.616205189690229E-016
 -3.200000000000000E-002    7.942973855663297E-016
 -3.190000000000000E-002    9.520070271589040E-016
 -3.180000000000000E-002    9.703748611174790E-016
 -3.170000000000000E-002    7.899140615245571E-016
 -3.160000000000000E-002    3.710184715482338E-016
 -3.150000000000000E-002   -2.897677657197133E-016
 -3.140000000000000E-002   -1.145371659716991E-015
 -3.130000000000000E-002   -2.089595431478040E-015
 -3.120000000000000E-002   -2.958287835906664E-015
 -3.110000000000000E-002   -3.543493416554320E-015
 -3.100000000000000E-002   -3.622028626964514E-015
 -3.090000000000000E-002   -2.997253586469072E-015
 -3.080000000000000E-002   -1.549500798938480E-015
 -3.070000000000000E-002    7.127702979475560E-016
 -3.060000000000000E-002    3.611779204747936E-015
 -3.050000000000000E-002    6.781186839445664E-015
 -3.040000000000000E-002    9.679932695571578E-015
 -3.030000000000000E-002    1.164670873057937E-014
 -3.020000000000000E-002    1.199637233639881E-014
 -3.010000000000000E-002    1.015115872907911E-014
 -3.000000000000000E-002    5.790117369676502E-015
 -2.990000000000000E-002   -1.008540478791663E-015
 -2.980000000000000E-002   -9.663414375252210E-015
 -2.970000000000000E-002   -1.905657855599322E-014
 -2.960000000000000E-002   -2.759800224453122E-014
 -2.950000000000000E-002   -3.340243769341608E-014
 -2.940000000000000E-002   -3.457470947545156E-014
 -2.930000000000000E-002   -2.957634008025167E-014
 -2.920000000000000E-002   -1.762279239031109E-014
 -2.910000000000000E-002    9.589512179105781E-016
 -2.900000000000000E-002    2.449322614516682E-014
 -2.890000000000000E-002    4.991665422611293E-014
 -2.880000000000000E-002    7.299565558503216E-014
 -2.870000000000000E-002    8.882322632729365E-014
 -2.860000000000000E-002    9.256887235721630E-014
 -2.850000000000000E-002    8.040013187808326E-014
 -2.840000000000000E-002    5.044153015052163E-014
 -2.830000000000000E-002    3.598124539947890E-015
 -2.820000000000000E-002   -5.594326940361022E-014
 -2.810000000000000E-002   -1.207033328340073E-013
 -2.800000000000000E-002   -1.805028404879449E-013
 -2.790000000000000E-002   -2.236826626813921E-013
 -2.780000000000000E-002   -2.388627977106385E-013
 -2.770000000000000E-002   -2.170324811323027E-013
 -2.760000000000000E-002   -1.536585313179959E-013
 -2.750000000000000E-002   -5.043118300726949E-014
 -2.740000000000000E-002    8.374351245827244E-014
 -2.730000000000000E-002    2.328350728925962E-013
 -2.720000000000000E-002    3.750607478560170E-013
 -2.710000000000000E-002    4.855398206862790E-013
 -2.700000000000000E-002    5.399997955854442E-013
 -2.690000000000000E-002    5.190707921592350E-013
 -2.680000000000000E-002    4.125142240340355E-013
 -2.670000000000000E-002    2.226261256230568E-013
 -2.660000000000000E-002   -3.393175090039684E-014
 -2.650000000000000E-002   -3.264699875521351E-013
 -2.640000000000000E-002   -6.130940235225630E-013
 -2.630000000000000E-002   -8.459407214371828E-013
 -2.620000000000000E-002   -9.783231968811731E-013
 -2.610000000000000E-002   -9.728613645256255E-013
 -2.600000000000000E-002   -8.093554118450400E-013
 -2.590000000000000E-002   -4.910067175645631E-013
 -2.580000000000000E-002   -4.765814277674922E-014
 -2.570000000000000E-002    4.649678283491349E-013
 -2.560000000000000E-002    9.705263929574657E-013
 -2.550000000000000E-002    1.381606842263286E-012
 -2.540000000000000E-002    1.612637955295598E-012
 -2.530000000000000E-002    1.594492409016993E-012
 -2.520000000000000E-002    1.288620878226538E-012
 -2.510000000000000E-002    6.983169963719190E-013
 -2.500000000000000E-002   -1.251474539419878E-013
 -2.490000000000000E-002   -1.083254420174757E-012
 -2.480000000000000E-002   -2.038702191623992E-012
 -2.470000000000000E-002   -2.831338723571057E-012
 -2.460000000000000E-002   -3.300088949532843E-012
 -2.450000000000000E-002   -3.308260990024643E-012
 -2.440000000000000E-002   -2.768759503242720E-012
 -2.430000000000000E-002   -1.665304250535002E-012
 -2.420000000000000E-002   -6.587678857484303E-014
 -2.410000000000000E-002    1.874679324988593E-012
 -2.400000000000000E-002    3.924733297555982E-012
 -2.390000000000000E-002    5.798791018275465E-012
 -2.380000000000000E-002    7.191581165341814E-012
 -2.370000000000000E-002    7.819786210460637E-012
 -2.360000000000000E-002    7.466376884212027E-012
 -2.350000000000000E-002    6.021518472995718E-012
 -2.340000000000000E-002    3.513756439522966E-012
 -2.330000000000000E-002    1.257720930347731E-013
 -2.320000000000000E-002   -3.809569333946085E-012
 -2.310000000000000E-002   -7.834967526202004E-012
 -2.300000000000000E-002   -1.141558927977790E-011
 -2.290000000000000E-002   -1.400345606097089E-011
 -2.280000000000000E-002   -1.511276831625466E-011
 -2.270000000000000E-002   -1.439714511098379E-011
 -2.260000000000000E-002   -1.171822056853312E-011
 -2.250000000000000E-002   -7.194656812045604E-012
 -2.240000000000000E-002   -1.221705379098339E-012
 -2.230000000000000E-002    5.545962484152061E-012
 -2.220000000000000E-002    1.225139316611568E-011
 -2.210000000000000E-002    1.793051202726800E-011
 -2.200000000000000E-002    2.163756820520194E-011
 -2.190000000000000E-002    2.258739931354365E-011
 -2.180000000000000E-002    2.029624833067026E-011
 -2.170000000000000E-002    1.469991371410649E-011
 -2.160000000000000E-002    6.227650340287475E-012
 -2.150000000000000E-002   -4.186890049660488E-012
 -2.140000000000000E-002   -1.517009698321611E-011
 -2.130000000000000E-002   -2.505123840941469E-011
 -2.120000000000000E-002   -3.207506111170465E-011
 -2.110000000000000E-002   -3.466298732002851E-011
 -2.100000000000000E-002   -3.169023492738522E-011
 -2.090000000000000E-002   -2.273778138404314E-011
 -2.080000000000000E-002   -8.274737083766427E-012
 -2.070000000000000E-002    1.027003078060849E-011
 -2.060000000000000E-002    3.057752954366574E-011
 -2.050000000000000E-002    4.966243859193119E-011
 -2.040000000000000E-002    6.424102765784129E-011
 -2.030000000000000E-002    7.120780200569256E-011
 -2.020000000000000E-002    6.816145071556483E-011
 -2.010000000000000E-002    5.390250080848170E-011
 -2.000000000000000E-002    2.881665629169046E-011
 -1.990000000000000E-002   -4.937510980811339E-012
 -1.980000000000000E-002   -4.349873212674499E-011
 -1.970000000000000E-002   -8.166045267374710E-011
 -1.960000000000000E-002   -1.135017293496375E-010
 -1.950000000000000E-002   -1.332299821681290E-010
 -1.940000000000000E-002   -1.361290378724689E-010
 -1.930000000000000E-002   -1.194718046879047E-010
 -1.920000000000000E-002   -8.324154223875251E-011
 -1.910000000000000E-002   -3.051424036256447E-011
 -1.900000000000000E-002    3.261026336312855E-011
 -1.890000000000000E-002    9.758163955376662E-011
 -1.880000000000000E-002    1.544531278484487E-010
 -1.870000000000000E-002    1.933085128154349E-010
 -1.860000000000000E-002    2.058766755904112E-010
 -1.850000000000000E-002    1.870911698463687E-010
 -1.840000000000000E-002    1.363286830291843E-010
 -1.830000000000000E-002    5.807833381971000E-011
 -1.820000000000000E-002   -3.814377620132228E-011
 -1.810000000000000E-002   -1.387178719962958E-010
 -1.800000000000000E-002   -2.276351982631116E-010
 -1.790000000000000E-002   -2.888193685935674E-010
 -1.780000000000000E-002   -3.087447644699666E-010
 -1.770000000000000E-002   -2.789548934079090E-010
 -1.760000000000000E-002   -1.980520098933190E-010
 -1.750000000000000E-002   -7.276603945811353E-011
 -1.740000000000000E-002    8.218131560858291E-011
 -1.730000000000000E-002    2.455342558518673E-010
 -1.720000000000000E-002    3.921923673551157E-010
 -1.710000000000000E-002    4.968273738824800E-010
 -1.700000000000000E-002    5.379348721391871E-010
 -1.690000000000000E-002    5.017030208905913E-010
 -1.680000000000000E-002    3.850447814413629E-010
 -1.670000000000000E-002    1.972095436907654E-010
 -1.660000000000000E-002   -4.043533675613652E-011
 -1.650000000000000E-002   -2.966021541175945E-010
 -1.640000000000000E-002   -5.340971189247487E-010
 -1.630000000000000E-002   -7.151732693127318E-010
 -1.620000000000000E-002   -8.074781447436479E-010
 -1.610000000000000E-002   -7.896831288184515E-010
 -1.600000000000000E-002   -6.558492303616968E-010
 -1.590000000000000E-002   -4.177051701863712E-010
 -1.580000000000000E-002   -1.042805109310480E-010
 -1.570000000000000E-002    2.412773505442099E-010
 -1.560000000000000E-002    5.674288608642968E-010
 -1.550000000000000E-002    8.217968749623036E-010
 -1.540000000000000E-002    9.594771007882117E-010
 -1.530000000000000E-002    9.508197041559596E-010
 -1.520000000000000E-002    7.873777607946036E-010
 -1.510000000000000E-002    4.849125430048746E-010
 -1.500000000000000E-002    8.273680986089283E-011
 -1.490000000000000E-002   -3.607828703073822E-010
 -1.480000000000000E-002   -7.761345244555598E-010
 -1.470000000000000E-002   -1.092962769975169E-009
 -1.460000000000000E-002   -1.251284870935085E-009
 -1.450000000000000E-002   -1.211884671706044E-009
 -1.440000000000000E-002   -9.641547504443102E-010
 -1.430000000000000E-002   -5.299472105638301E-010
 -1.420000000000000E-002    3.746699835458207E-011
 -1.410000000000000E-002    6.595057228145651E-010
 -1.400000000000000E-002    1.242826348362291E-009
 -1.390000000000000E-002    1.692944087222218E-009
 -1.380000000000000E-002    1.928963581463939E-009
 -1.370000000000000E-002    1.897165859527108E-009
 -1.360000000000000E-002    1.581235151729180E-009
 -1.350000000000000E-002    1.007303539558954E-009
 -1.340000000000000E-002    2.427013476569222E-010
 -1.330000000000000E-002   -6.117716717375024E-010
 -1.320000000000000E-002   -1.435232383475707E-009
 -1.310000000000000E-002   -2.103999854415056E-009
 -1.300000000000000E-002   -2.510316499089465E-009
 -1.290000000000000E-002   -2.579680723776005E-009
 -1.280000000000000E-002   -2.284035636622090E-009
 -1.270000000000000E-002   -1.648557352625097E-009
 -1.260000000000000E-002   -7.506641332522742E-010
 -1.250000000000000E-002    2.889967690851144E-010
 -1.240000000000000E-002    1.322603907704365E-009
 -1.230000000000000E-002    2.196144187173691E-009
 -1.220000000000000E-002    2.772356309879446E-009
 -1.210000000000000E-002    2.952230037640775E-009
 -1.200000000000000E-002    2.691724440976261E-009
 -1.190000000000000E-002    2.010951561787148E-009
 -1.180000000000000E-002    9.940961054362462E-010
 -1.170000000000000E-002   -2.203238781787875E-010
 -1.160000000000000E-002   -1.457804665557533E-009
 -1.150000000000000E-002   -2.532420906854152E-009
 -1.140000000000000E-002   -3.274178245750401E-009
 -1.130000000000000E-002   -3.555169848745543E-009
 -1.120000000000000E-002   -3.310573163116984E-009
 -1.110000000000000E-002   -2.551141632710006E-009
 -1.100000000000000E-002   -1.364975804697355E-009
 -1.090000000000000E-002    9.212171828614691E-011
 -1.080000000000000E-002    1.616744690596435E-009
 -1.070000000000000E-002    2.985883521615232E-009
 -1.060000000000000E-002    3.989012413948934E-009
 -1.050000000000000E-002    4.459701765625920E-009
 -1.040000000000000E-002    4.302093181079347E-009
 -1.030000000000000E-002    3.508143577320834E-009
 -1.020000000000000E-002    2.162748410866592E-009
 -1.010000000000000E-002    4.355072844609625E-010
 -1.000000000000000E-002   -1.440204456453339E-009
 -9.899999999999999E-003   -3.198321497989371E-009
 -9.800000000000000E-003   -4.577226902744625E-009
 -9.699999999999999E-003   -5.357800065463343E-009
 -9.599999999999999E-003   -5.396898849117617E-009
 -9.500000000000000E-003   -4.651249453113957E-009
 -9.399999999999999E-003   -3.187904248349963E-009
 -9.299999999999999E-003   -1.179212775215133E-009
 -9.200000000000000E-003    1.117593724669704E-009
 -9.099999999999999E-003    3.393878059483642E-009
 -8.999999999999999E-003    5.331829035344630E-009
 -8.900000000000000E-003    6.649699564187293E-009
 -8.799999999999999E-003    7.143625749993676E-009
 -8.699999999999999E-003    6.719826294452796E-009
 -8.600000000000000E-003    5.412106579989179E-009
 -8.499999999999999E-003    3.381507675608053E-009
 -8.399999999999999E-003    8.973982676794550E-010
 -8.300000000000000E-003   -1.698019043569904E-009
 -8.199999999999999E-003   -4.037292602227874E-009
 -8.100000000000000E-003   -5.780920649013967E-009
 -8.000000000000000E-003   -6.668546729805473E-009
 -7.899999999999999E-003   -6.560443515759379E-009
 -7.800000000000000E-003   -5.462616381031234E-009
 -7.699999999999999E-003   -3.530917155518550E-009
 -7.599999999999999E-003   -1.052412959734231E-009
 -7.499999999999999E-003    1.594505058308975E-009
 -7.399999999999999E-003    3.996575012739318E-009
 -7.299999999999999E-003    5.771310751283415E-009
 -7.199999999999999E-003    6.632738495192704E-009
 -7.100000000000000E-003    6.447641439321642E-009
 -6.999999999999999E-003    5.273650693918904E-009
 -6.899999999999999E-003    3.372760900833461E-009
 -6.800000000000000E-003    1.197156316122787E-009
 -6.699999999999999E-003   -6.518190257054467E-010
 -6.599999999999999E-003   -1.486713673440309E-009
 -6.499999999999999E-003   -6.107242481168372E-010
 -6.399999999999999E-003    2.602598109134919E-009
 -6.299999999999999E-003    8.638313991819364E-009
 -6.199999999999999E-003    1.778862225712498E-008
 -6.100000000000000E-003    3.012937391082902E-008
 -5.999999999999999E-003    4.552912016628512E-008
 -5.899999999999999E-003    6.369060934186439E-008
 -5.800000000000000E-003    8.421979890128632E-008
 -5.699999999999999E-003    1.067129333129012E-007
 -5.599999999999999E-003    1.308494043854509E-007
 -5.499999999999999E-003    1.564765557407321E-007
 -5.399999999999999E-003    1.836733013765858E-007
 -5.299999999999999E-003    2.127822511657066E-007
 -5.199999999999999E-003    2.444043125782142E-007
 -5.099999999999999E-003    2.793552687632966E-007
 -4.999999999999999E-003    3.185895689386243E-007
 -4.899999999999999E-003    3.631017150282249E-007
 -4.799999999999999E-003    4.138195714203603E-007
 -4.699999999999999E-003    4.715051993601469E-007
 -4.599999999999999E-003    5.366788446379081E-007
 -4.499999999999999E-003    6.095781510970516E-007
 -4.399999999999999E-003    6.901597773645971E-007
 -4.299999999999999E-003    7.781452715181556E-007
 -4.199999999999999E-003    8.731042280783702E-007
 -4.099999999999999E-003    9.745652089591563E-007
 -3.999999999999999E-003    1.082136986479616E-006
 -3.899999999999999E-003    1.195623262172300E-006
 -3.799999999999999E-003    1.315112940919452E-006
 -3.699999999999999E-003    1.441033230564722E-006
 -3.599999999999999E-003    1.574155025259049E-006
 -3.499999999999999E-003    1.715551124002320E-006
 -3.399999999999999E-003    1.866510838971212E-006
 -3.299999999999999E-003    2.028425125224295E-006
 -3.199999999999999E-003    2.202657965644545E-006
 -3.099999999999999E-003    2.390423946917068E-006
 -2.999999999999999E-003    2.592689887427668E-006
 -2.899999999999999E-003    2.810117934141300E-006
 -2.799999999999999E-003    3.043058691121485E-006
 -2.699999999999999E-003    3.291594822936124E-006
 -2.599999999999999E-003    3.555632357038687E-006
 -2.499999999999999E-003    3.835025946960326E-006
 -2.399999999999999E-003    4.129720614966365E-006
 -2.299999999999999E-003    4.439887677896377E-006
 -2.199999999999999E-003    4.766036780876571E-006
 -2.099999999999999E-003    5.109087910834606E-006
 -1.999999999999999E-003    5.470389407087617E-006
 -1.899999999999999E-003    5.851683636723516E-006
 -1.799999999999999E-003    6.255020825540420E-006
 -1.699999999999999E-003    6.682636550873467E-006
 -1.599999999999999E-003    7.136810345601473E-006
 -1.499999999999999E-003    7.619725623403634E-006
 -1.399999999999999E-003    8.133352559112660E-006
 -1.299999999999999E-003    8.679374008400765E-006
 -1.199999999999999E-003    9.259159799517603E-006
 -1.099999999999999E-003    9.873802239080125E-006
 -9.999999999999989E-004    1.052420273341263E-005
 -8.999999999999990E-004    1.121119825344236E-005
 -7.999999999999990E-004    1.193571416756334E-005
 -6.999999999999989E-004    1.269891727361452E-005
 -5.999999999999990E-004    1.350235300995739E-005
 -4.999999999999989E-004    1.434804174717139E-005
 -3.999999999999989E-004    1.523852475249153E-005
 -2.999999999999989E-004    1.617685168989557E-005
 -1.999999999999989E-004    1.716651742599531E-005
 -9.999999999999892E-005    1.821134929331138E-005
  1.084202172485504E-018    1.931536915344550E-005
  1.000000000000011E-004    2.048264221078360E-005
  2.000000000000011E-004    2.171714508069677E-005
  3.000000000000011E-004    2.302266751520436E-005
  4.000000000000011E-004    2.440275594146310E-005
  5.000000000000011E-004    2.586072547773060E-005
  6.000000000000011E-004    2.739971642970421E-005
  7.000000000000011E-004    2.902280370574691E-005
  8.000000000000011E-004    3.073314489270248E-005
  9.000000000000012E-004    3.253414609485403E-005
  1.000000000000001E-003    3.442960753776823E-005
  1.100000000000001E-003    3.642385653274946E-005
  1.200000000000001E-003    3.852183154073820E-005
  1.300000000000001E-003    4.072910207072443E-005
  1.400000000000001E-003    4.305185287267613E-005
  1.500000000000001E-003    4.549679979439053E-005
  1.600000000000001E-003    4.807106554530280E-005
  1.700000000000001E-003    5.078204887664847E-005
  1.800000000000001E-003    5.363727479520844E-005
  1.900000000000001E-003    5.664428585576619E-005
  2.000000000000001E-003    5.981055554480170E-005
  2.100000000000001E-003    6.314346555709476E-005
  2.200000000000001E-003    6.665033459821271E-005
  2.300000000000001E-003    7.033850806008443E-005
  2.400000000000001E-003    7.421548599739263E-005
  2.500000000000001E-003    7.828908560919876E-005
  2.600000000000001E-003    8.256758571047049E-005
  2.700000000000001E-003    8.705990000856473E-005
  2.800000000000001E-003    9.177567036853347E-005
  2.900000000000001E-003    9.672534838385773E-005
  3.000000000000001E-003    1.019201768491303E-004
  3.100000000000001E-003    1.073721696294262E-004
  3.200000000000001E-003    1.130939904981300E-004
  3.300000000000001E-003    1.190988568506708E-004
  3.400000000000001E-003    1.254003616048129E-004
  3.500000000000001E-003    1.320124061830666E-004
  3.600000000000001E-003    1.389490548275785E-004
  3.700000000000001E-003    1.462245456076831E-004
  3.800000000000001E-003    1.538532711365595E-004
  3.900000000000001E-003    1.618498462952021E-004
  4.000000000000001E-003    1.702292817588902E-004
  4.100000000000001E-003    1.790071097339988E-004
  4.200000000000001E-003    1.881995253337972E-004
  4.300000000000001E-003    1.978235931291995E-004
  4.400000000000001E-003    2.078973379562557E-004
  4.500000000000001E-003    2.184398177734840E-004
  4.600000000000002E-003    2.294711734417915E-004
  4.700000000000001E-003    2.410125420459759E-004
  4.800000000000001E-003    2.530860586208704E-004
  4.900000000000002E-003    2.657145970625090E-004
  5.000000000000001E-003    2.789217859589214E-004
  5.100000000000001E-003    2.927317563088606E-004
  5.200000000000001E-003    3.071691579701140E-004
  5.300000000000002E-003    3.222590605718997E-004
  5.400000000000001E-003    3.380269570442985E-004
  5.500000000000001E-003    3.544988716673949E-004
  5.600000000000002E-003    3.717014675265143E-004
  5.700000000000001E-003    3.896622635490274E-004
  5.800000000000001E-003    4.084097485417212E-004
  5.900000000000002E-003    4.279735342608632E-004
  6.000000000000001E-003    4.483845928567363E-004
  6.100000000000001E-003    4.696751903836443E-004
  6.200000000000002E-003    4.918790481848573E-004
  6.300000000000002E-003    5.150312503811322E-004
  6.400000000000001E-003    5.391681362072375E-004
  6.500000000000001E-003    5.643272795439182E-004
  6.600000000000002E-003    5.905471892236085E-004
  6.700000000000001E-003    6.178673852959521E-004
  6.800000000000001E-003    6.463282475512063E-004
  6.900000000000002E-003    6.759708494102449E-004
  7.000000000000001E-003    7.068370876249514E-004
  7.100000000000001E-003    7.389697167942548E-004
  7.200000000000002E-003    7.724124882530489E-004
  7.300000000000002E-003    8.072101775910999E-004
  7.400000000000001E-003    8.434087863903913E-004
  7.500000000000001E-003    8.810558299025258E-004
  7.600000000000002E-003    9.202002521978294E-004
  7.700000000000001E-003    9.608926666332357E-004
  7.800000000000001E-003    1.003185199883608E-003
  7.900000000000001E-003    1.047131679324888E-003
  8.000000000000002E-003    1.092787437504479E-003
  8.100000000000001E-003    1.140209138251642E-003
  8.200000000000001E-003    1.189455039132047E-003
  8.300000000000002E-003    1.240584377219476E-003
  8.400000000000001E-003    1.293657683829550E-003
  8.500000000000002E-003    1.348736488869952E-003
  8.600000000000002E-003    1.405883436178084E-003
  8.700000000000001E-003    1.465162291634181E-003
  8.800000000000002E-003    1.526637924267863E-003
  8.900000000000002E-003    1.590376544059901E-003
  9.000000000000001E-003    1.656445728435221E-003
  9.100000000000002E-003    1.724914426101999E-003
  9.200000000000002E-003    1.795852943709671E-003
  9.300000000000001E-003    1.869333341677460E-003
  9.400000000000002E-003    1.945429113846374E-003
  9.500000000000001E-003    2.024215347181335E-003
  9.600000000000001E-003    2.105768627301397E-003
  9.700000000000002E-003    2.190166846954671E-003
  9.800000000000001E-003    2.277489129829780E-003
  9.900000000000001E-003    2.367815812957819E-003
  1.000000000000000E-002    2.461228595015075E-003
  1.010000000000000E-002    2.557810092286498E-003
  1.020000000000000E-002    2.657643873858963E-003
  1.030000000000000E-002    2.760814824568236E-003
  1.040000000000000E-002    2.867408878044200E-003
  1.050000000000000E-002    2.977513022104083E-003
  1.060000000000000E-002    3.091215250173311E-003
  1.070000000000000E-002    3.208604926503717E-003
  1.080000000000000E-002    3.329772352740787E-003
  1.090000000000000E-002    3.454809343618746E-003
  1.100000000000000E-002    3.583808190320156E-003
  1.110000000000000E-002    3.716862358261905E-003
  1.120000000000000E-002    3.854066175491414E-003
  1.130000000000000E-002    3.995514510139607E-003
  1.140000000000000E-002    4.141303255005840E-003
  1.150000000000000E-002    4.291528181742826E-003
  1.160000000000000E-002    4.446285345684673E-003
  1.170000000000000E-002    4.605671341705834E-003
  1.180000000000000E-002    4.769783022691693E-003
  1.190000000000000E-002    4.938717749062915E-003
  1.200000000000000E-002    5.112572267464349E-003
  1.210000000000000E-002    5.291444197686389E-003
  1.220000000000000E-002    5.475431329821083E-003
  1.230000000000000E-002    5.664631288196141E-003
  1.240000000000000E-002    5.859142026164351E-003
  1.250000000000000E-002    6.059061181584001E-003
  1.260000000000000E-002    6.264486383129765E-003
  1.270000000000000E-002    6.475514902753532E-003
  1.280000000000000E-002    6.692243511491934E-003
  1.290000000000000E-002    6.914768678218702E-003
  1.300000000000000E-002    7.143184619038437E-003
  1.310000000000000E-002    7.377585519760729E-003
  1.320000000000000E-002    7.618063680909438E-003
  1.330000000000000E-002    7.864710035563237E-003
  1.340000000000000E-002    8.117613902095609E-003
  1.350000000000000E-002    8.376862332820397E-003
  1.360000000000000E-002    8.642540840328438E-003
  1.370000000000000E-002    8.914733792788806E-003
  1.380000000000000E-002    9.193522371317890E-003
  1.390000000000000E-002    9.478987056650220E-003
  1.400000000000000E-002    9.771206292142303E-003
  1.410000000000000E-002    1.007025495344311E-002
  1.420000000000000E-002    1.037620673716678E-002
  1.430000000000000E-002    1.068913140194883E-002
  1.440000000000000E-002    1.100909648859545E-002
  1.450000000000000E-002    1.133616539833944E-002
  1.460000000000000E-002    1.167039952650776E-002
  1.470000000000000E-002    1.201185453015959E-002
  1.480000000000000E-002    1.236058244503982E-002
  1.490000000000000E-002    1.271663094409208E-002
  1.500000000000000E-002    1.308004376046582E-002
  1.510000000000000E-002    1.345085957677450E-002
  1.520000000000000E-002    1.382911177596217E-002
  1.530000000000000E-002    1.421482825713034E-002
  1.540000000000000E-002    1.460803424830123E-002
  1.550000000000000E-002    1.500874792785657E-002
  1.560000000000000E-002    1.541698282893330E-002
  1.570000000000000E-002    1.583274830144577E-002
  1.580000000000000E-002    1.625604620952452E-002
  1.590000000000000E-002    1.668687313378549E-002
  1.600000000000000E-002    1.712522012298144E-002
  1.610000000000000E-002    1.757106992680100E-002
  1.620000000000000E-002    1.802439845440831E-002
  1.630000000000000E-002    1.848517642576470E-002
  1.640000000000000E-002    1.895336394486360E-002
  1.650000000000000E-002    1.942891584032242E-002
  1.660000000000000E-002    1.991177648403864E-002
  1.670000000000000E-002    2.040188474760073E-002
  1.680000000000000E-002    2.089916974479543E-002
  1.690000000000000E-002    2.140355064075057E-002
  1.700000000000000E-002    2.191494068466557E-002
  1.710000000000000E-002    2.243324425518194E-002
  1.720000000000000E-002    2.295835658941273E-002
  1.730000000000000E-002    2.349016322000726E-002
  1.740000000000000E-002    2.402854055382167E-002
  1.750000000000000E-002    2.457335684900632E-002
  1.760000000000000E-002    2.512447198371167E-002
  1.770000000000000E-002    2.568173333850549E-002
  1.780000000000000E-002    2.624497795675185E-002
  1.790000000000000E-002    2.681403329152225E-002
  1.800000000000000E-002    2.738871725796494E-002
  1.810000000000000E-002    2.796883665922666E-002
  1.820000000000000E-002    2.855418481581942E-002
  1.830000000000000E-002    2.914454529744617E-002
  1.840000000000000E-002    2.973969344089815E-002
  1.850000000000000E-002    3.033938899445246E-002
  1.860000000000000E-002    3.094338470610303E-002
  1.870000000000000E-002    3.155141909002465E-002