 -4.000000000000000E-002    0.000000000000000E+000
 -3.990000000000000E-002    0.000000000000000E+000
 -3.980000000000000E-002    0.000000000000000E+000
 -3.970000000000000E-002    0.000000000000000E+000
 -3.960000000000000E-002    0.000000000000000E+000
 -3.950000000000000E-002    0.000000000000000E+000
 -3.940000000000000E-002    0.000000000000000E+000
 -3.930000000000000E-002    0.000000000000000E+000
 -3.920000000000000E-002    0.000000000000000E+000
 -3.910000000000000E-002    0.000000000000000E+000
 -3.900000000000000E-002    0.000000000000000E+000
 -3.890000000000000E-002    0.000000000000000E+000
 -3.880000000000000E-002    0.000000000000000E+000
 -3.870000000000000E-002    0.000000000000000E+000
 -3.860000000000000E-002    0.000000000000000E+000
 -3.850000000000000E-002    0.000000000000000E+000
 -3.840000000000000E-002    0.000000000000000E+000
 -3.830000000000000E-002    0.000000000000000E+000
 -3.820000000000000E-002    0.000000000000000E+000
 -3.810000000000000E-002    0.000000000000000E+000
 -3.800000000000000E-002    0.000000000000000E+000
 -3.790000000000000E-002    0.000000000000000E+000
 -3.780000000000000E-002    0.000000000000000E+000
 -3.770000000000000E-002    0.000000000000000E+000
 -3.760000000000000E-002    0.000000000000000E+000
 -3.750000000000000E-002    0.000000000000000E+000
 -3.740000000000000E-002    0.000000000000000E+000
 -3.730000000000000E-002    0.000000000000000E+000
 -3.720000000000000E-002    0.000000000000000E+000
 -3.710000000000000E-002    0.000000000000000E+000
 -3.700000000000000E-002    0.000000000000000E+000
 -3.690000000000000E-002    0.000000000000000E+000
 -3.680000000000000E-002    0.000000000000000E+000
 -3.670000000000000E-002    0.000000000000000E+000
 -3.660000000000000E-002    0.000000000000000E+000
 -3.650000000000000E-002    0.000000000000000E+000
 -3.640000000000000E-002    0.000000000000000E+000
 -3.630000000000000E-002    0.000000000000000E+000
 -3.620000000000000E-002    0.000000000000000E+000
 -3.610000000000000E-002    0.000000000000000E+000
 -3.600000000000000E-002    0.000000000000000E+000
 -3.590000000000000E-002    0.000000000000000E+000
 -3.580000000000000E-002    0.000000000000000E+000
 -3.570000000000000E-002    0.000000000000000E+000
 -3.560000000000000E-002    0.000000000000000E+000
 -3.550000000000000E-002    0.000000000000000E+000
 -3.540000000000000E-002    0.000000000000000E+000
 -3.530000000000000E-002    0.000000000000000E+000
 -3.520000000000000E-002    0.000000000000000E+000
 -3.510000000000000E-002    0.000000000000000E+000
 -3.500000000000000E-002    0.000000000000000E+000
 -3.490000000000000E-002    0.000000000000000E+000
 -3.480000000000000E-002    0.000000000000000E+000
 -3.470000000000000E-002    0.000000000000000E+000
 -3.460000000000000E-002    0.000000000000000E+000
 -3.450000000000000E-002    0.000000000000000E+000
 -3.440000000000000E-002    0.000000000000000E+000
 -3.430000000000000E-002    0.000000000000000E+000
 -3.420000000000000E-002    0.000000000000000E+000
 -3.410000000000000E-002    0.000000000000000E+000
 -3.400000000000000E-002    0.000000000000000E+000
 -3.390000000000000E-002    0.000000000000000E+000
 -3.380000000000000E-002    0.000000000000000E+000
 -3.370000000000000E-002    0.000000000000000E+000
 -3.360000000000000E-002    0.000000000000000E+000
 -3.350000000000000E-002    0.000000000000000E+000
 -3.340000000000000E-002    0.000000000000000E+000
 -3.330000000000000E-002    0.000000000000000E+000
 -3.320000000000000E-002    0.000000000000000E+000
 -3.310000000000000E-002    0.000000000000000E+000
 -3.300000000000000E-002    0.000000000000000E+000
 -3.290000000000000E-002    0.000000000000000E+000
 -3.280000000000000E-002    0.000000000000000E+000
 -3.270000000000000E-002    0.000000000000000E+000
 -3.260000000000000E-002    0.000000000000000E+000
 -3.250000000000000E-002    0.000000000000000E+000
 -3.240000000000000E-002    0.000000000000000E+000
 -3.230000000000000E-002    0.000000000000000E+000
 -3.220000000000000E-002    0.000000000000000E+000
 -3.210000000000000E-002    0.000000000000000E+000
 -3.200000000000000E-002    0.000000000000000E+000
 -3.190000000000000E-002    0.000000000000000E+000
 -3.180000000000000E-002    0.000000000000000E+000
 -3.170000000000000E-002    0.000000000000000E+000
 -3.160000000000000E-002    0.000000000000000E+000
 -3.150000000000000E-002    0.000000000000000E+000
 -3.140000000000000E-002    0.000000000000000E+000
 -3.130000000000000E-002    0.000000000000000E+000
 -3.120000000000000E-002    0.000000000000000E+000
 -3.110000000000000E-002    0.000000000000000E+000
 -3.100000000000000E-002    0.000000000000000E+000
 -3.090000000000000E-002    0.000000000000000E+000
 -3.080000000000000E-002    0.000000000000000E+000
 -3.070000000000000E-002    0.000000000000000E+000
 -3.060000000000000E-002    0.000000000000000E+000
 -3.050000000000000E-002    0.000000000000000E+000
 -3.040000000000000E-002    0.000000000000000E+000
 -3.030000000000000E-002    0.000000000000000E+000
 -3.020000000000000E-002    0.000000000000000E+000
 -3.010000000000000E-002    0.000000000000000E+000
 -3.000000000000000E-002    0.000000000000000E+000
 -2.990000000000000E-002    0.000000000000000E+000
 -2.980000000000000E-002    0.000000000000000E+000
 -2.970000000000000E-002    0.000000000000000E+000
 -2.960000000000000E-002    0.000000000000000E+000
 -2.950000000000000E-002    0.000000000000000E+000
 -2.940000000000000E-002    0.000000000000000E+000
 -2.930000000000000E-002    0.000000000000000E+000
 -2.920000000000000E-002    0.000000000000000E+000
 -2.910000000000000E-002    0.000000000000000E+000
 -2.900000000000000E-002    0.000000000000000E+000
 -2.890000000000000E-002    0.000000000000000E+000
 -2.880000000000000E-002    0.000000000000000E+000
 -2.870000000000000E-002    0.000000000000000E+000
 -2.860000000000000E-002    0.000000000000000E+000
 -2.850000000000000E-002    0.000000000000000E+000
 -2.840000000000000E-002    0.000000000000000E+000
 -2.830000000000000E-002    0.000000000000000E+000
 -2.820000000000000E-002    0.000000000000000E+000
 -2.810000000000000E-002    0.000000000000000E+000
 -2.800000000000000E-002    0.000000000000000E+000
 -2.790000000000000E-002    0.000000000000000E+000
 -2.780000000000000E-002    0.000000000000000E+000
 -2.770000000000000E-002    0.000000000000000E+000
 -2.760000000000000E-002    0.000000000000000E+000
 -2.750000000000000E-002    0.000000000000000E+000
 -2.740000000000000E-002    0.000000000000000E+000
 -2.730000000000000E-002    0.000000000000000E+000
 -2.720000000000000E-002    0.000000000000000E+000
 -2.710000000000000E-002    0.000000000000000E+000
 -2.700000000000000E-002    0.000000000000000E+000
 -2.690000000000000E-002    0.000000000000000E+000
 -2.680000000000000E-002    0.000000000000000E+000
 -2.670000000000000E-002    0.000000000000000E+000
 -2.660000000000000E-002    0.000000000000000E+000
 -2.650000000000000E-002    0.000000000000000E+000
 -2.640000000000000E-002    0.000000000000000E+000
 -2.630000000000000E-002    0.000000000000000E+000
 -2.620000000000000E-002    0.000000000000000E+000
 -2.610000000000000E-002    0.000000000000000E+000
 -2.600000000000000E-002    0.000000000000000E+000
 -2.590000000000000E-002    0.000000000000000E+000
 -2.580000000000000E-002    0.000000000000000E+000
 -2.570000000000000E-002    0.000000000000000E+000
 -2.560000000000000E-002    0.000000000000000E+000
 -2.550000000000000E-002    0.000000000000000E+000
 -2.540000000000000E-002    0.000000000000000E+000
 -2.530000000000000E-002    0.000000000000000E+000
 -2.520000000000000E-002    0.000000000000000E+000
 -2.510000000000000E-002    0.000000000000000E+000
 -2.500000000000000E-002    0.000000000000000E+000
 -2.490000000000000E-002    0.000000000000000E+000
 -2.480000000000000E-002    0.000000000000000E+000
 -2.470000000000000E-002   -1.924390591266381E-047
 -2.460000000000000E-002   -2.093173235719528E-046
 -2.450000000000000E-002   -3.993907412312417E-046
 -2.440000000000000E-002   -5.894641588905306E-046
 -2.430000000000000E-002   -7.602936706371558E-046
 -2.420000000000000E-002   -7.218058588118282E-046
 -2.410000000000000E-002   -4.483421821976627E-046
 -2.400000000000000E-002    5.340980826198884E-046
 -2.390000000000000E-002    2.048270788589979E-045
 -2.380000000000000E-002    5.341093417190288E-045
 -2.370000000000000E-002    8.067590065029900E-045
 -2.360000000000000E-002    1.076898928910914E-044
 -2.350000000000000E-002    1.272717331965087E-044
 -2.340000000000000E-002    1.126756919974040E-044
 -2.330000000000000E-002    4.715577568684015E-045
 -2.320000000000000E-002   -8.738787581981820E-045
 -2.310000000000000E-002   -3.140403735447757E-044
 -2.300000000000000E-002   -6.309297662141128E-044
 -2.290000000000000E-002   -1.002163237105708E-043
 -2.280000000000000E-002   -1.350950640900538E-043
 -2.270000000000000E-002   -1.562844094129664E-043
 -2.260000000000000E-002   -1.464252790589751E-043
 -2.250000000000000E-002   -8.155542277238734E-044
 -2.240000000000000E-002    6.024617001574831E-044
 -2.230000000000000E-002    2.968624994489153E-043
 -2.220000000000000E-002    6.296872173082024E-043
 -2.210000000000000E-002    1.031263212064447E-042
 -2.200000000000000E-002    1.431740240120869E-042
 -2.190000000000000E-002    1.707523392014095E-042
 -2.180000000000000E-002    1.680324746397116E-042
 -2.170000000000000E-002    1.128096129140275E-042
 -2.160000000000000E-002   -1.807299788238447E-043
 -2.150000000000000E-002   -2.418668175861261E-042
 -2.140000000000000E-002   -5.609438250062966E-042
 -2.130000000000000E-002   -9.509206134532143E-042
 -2.120000000000000E-002   -1.348679470734737E-041
 -2.110000000000000E-002   -1.643102063896371E-041
 -2.100000000000000E-002   -1.673241521035443E-041
 -2.090000000000000E-002   -1.240883652695553E-041
 -2.080000000000000E-002   -1.419433791045372E-042
 -2.070000000000000E-002    1.777629785449088E-041
 -2.060000000000000E-002    4.542633674430026E-041
 -2.050000000000000E-002    7.951336640477051E-041
 -2.040000000000000E-002    1.147799962070482E-040
 -2.030000000000000E-002    1.420229135938892E-040
 -2.020000000000000E-002    1.480533983382647E-040
 -2.010000000000000E-002    1.167562448898468E-040
 -2.000000000000000E-002    3.171482264669192E-041
 -1.990000000000000E-002   -1.193562120165086E-040
 -1.980000000000000E-002   -3.384086544228133E-040
 -1.970000000000000E-002   -6.097201786818193E-040
 -1.960000000000000E-002   -8.927359897182496E-040
 -1.950000000000000E-002   -1.117232514993923E-039
 -1.940000000000000E-002   -1.183646256044334E-039
 -1.930000000000000E-002   -9.717721743709589E-040
 -1.920000000000000E-002   -3.606951713371446E-040
 -1.910000000000000E-002    7.384858857696147E-040
 -1.900000000000000E-002    2.338202455102670E-039
 -1.890000000000000E-002    4.323172247956968E-039
 -1.880000000000000E-002    6.402228797204292E-039
 -1.870000000000000E-002    8.078292617273639E-039
 -1.860000000000000E-002    8.655741686723748E-039
 -1.850000000000000E-002    7.305877651364594E-039
 -1.840000000000000E-002    3.207836477994508E-039
 -1.830000000000000E-002   -4.227796763492223E-039
 -1.820000000000000E-002   -1.506344227582460E-038
 -1.810000000000000E-002   -2.850355727299677E-038
 -1.800000000000000E-002   -4.259571888222050E-038
 -1.790000000000000E-002   -5.406206029185643E-038
 -1.780000000000000E-002   -5.838175517844910E-038
 -1.770000000000000E-002   -5.024817295122867E-038
 -1.760000000000000E-002   -2.449614131006940E-038
 -1.750000000000000E-002    2.247501075077761E-038
 -1.740000000000000E-002    9.087275077007650E-038
 -1.730000000000000E-002    1.755245900899475E-037
 -1.720000000000000E-002    2.641612849578818E-037
 -1.710000000000000E-002    3.365665982380623E-037
 -1.700000000000000E-002    3.652962919033917E-037
 -1.690000000000000E-002    3.186501653070275E-037
 -1.680000000000000E-002    1.663746344561775E-037
 -1.670000000000000E-002   -1.118704693099928E-037
 -1.660000000000000E-002   -5.159383004287738E-037
 -1.650000000000000E-002   -1.014068651786243E-036
 -1.640000000000000E-002   -1.533738771626849E-036
 -1.630000000000000E-002   -1.957870913409545E-036
 -1.620000000000000E-002   -2.130213695228714E-036
 -1.610000000000000E-002   -1.873407782419037E-036
 -1.600000000000000E-002   -1.021889956146426E-036
 -1.590000000000000E-002    5.308244147500402E-037
 -1.580000000000000E-002    2.774793639478719E-036
 -1.570000000000000E-002    5.525311624551815E-036
 -1.560000000000000E-002    8.377582141414189E-036
 -1.550000000000000E-002    1.069234721261150E-035
 -1.540000000000000E-002    1.163186950250796E-035
 -1.530000000000000E-002    1.026302728963535E-035
 -1.520000000000000E-002    5.736128060240132E-036
 -1.510000000000000E-002   -2.466311476317510E-036
 -1.500000000000000E-002   -1.423670258335049E-035
 -1.490000000000000E-002   -2.855503819950115E-035
 -1.480000000000000E-002   -4.327989362382699E-035
 -1.470000000000000E-002   -5.510735919806504E-035
 -1.460000000000000E-002   -5.979049046974036E-035
 -1.450000000000000E-002   -5.269364858409746E-035
 -1.440000000000000E-002   -2.971094578150708E-035
 -1.430000000000000E-002    1.149606278224906E-035
 -1.420000000000000E-002    7.008510298209420E-035
 -1.410000000000000E-002    1.406991563517368E-034
 -1.400000000000000E-002    2.125689542531185E-034
 -1.390000000000000E-002    2.694741357751031E-034
 -1.380000000000000E-002    2.909789493220926E-034
 -1.370000000000000E-002    2.552494018363430E-034
 -1.360000000000000E-002    1.435253066502150E-034
 -1.350000000000000E-002   -5.403881681705393E-035
 -1.340000000000000E-002   -3.319077648302168E-034
 -1.330000000000000E-002   -6.633095899766410E-034
 -1.320000000000000E-002   -9.966481698827818E-034
 -1.310000000000000E-002   -1.256066987888168E-033
 -1.300000000000000E-002   -1.347926172902456E-033
 -1.290000000000000E-002   -1.174367411067796E-033
 -1.280000000000000E-002   -6.540076477660842E-034
 -1.270000000000000E-002    2.518436922367327E-034
 -1.260000000000000E-002    1.511056311187003E-033
 -1.250000000000000E-002    2.996306703624290E-033
 -1.240000000000000E-002    4.471766276826574E-033
 -1.230000000000000E-002    5.598814034212439E-033
 -1.220000000000000E-002    5.967838689613825E-033
 -1.210000000000000E-002    5.160252712945234E-033
 -1.200000000000000E-002    2.839687666262067E-033
 -1.190000000000000E-002   -1.135828157846157E-033
 -1.180000000000000E-002   -6.597254203535711E-033
 -1.170000000000000E-002   -1.296815400397532E-032
 -1.160000000000000E-002   -1.921915012313276E-032
 -1.150000000000000E-002   -2.390524752001377E-032
 -1.140000000000000E-002   -2.531280886229738E-032
 -1.130000000000000E-002   -2.172932364851107E-032
 -1.120000000000000E-002   -1.182684252614713E-032
 -1.110000000000000E-002    4.879614370056993E-033
 -1.100000000000000E-002    2.757040857073425E-032
 -1.090000000000000E-002    5.375860707858445E-032
 -1.080000000000000E-002    7.914844430624884E-032
 -1.070000000000000E-002    9.783773658867480E-032
 -1.060000000000000E-002    1.029601977220521E-031
 -1.050000000000000E-002    8.780443382930709E-032
 -1.040000000000000E-002    4.735492692597039E-032
 -1.030000000000000E-002   -1.991585901994809E-032
 -1.020000000000000E-002   -1.102996342453139E-031
 -1.010000000000000E-002   -2.135526600405125E-031
 -1.000000000000000E-002   -3.125101787164810E-031
 -9.899999999999999E-003   -3.840637489318895E-031
 -9.800000000000000E-003   -4.018268992785408E-031
 -9.699999999999999E-003   -3.405710097550023E-031
 -9.599999999999999E-003   -1.821558322610980E-031
 -9.500000000000000E-003    7.775629096899910E-032
 -9.399999999999999E-003    4.233621414932583E-031
 -9.299999999999999E-003    8.142813413863799E-031
 -9.200000000000000E-003    1.184721583140969E-030
 -9.099999999999999E-003    1.447812527023725E-030
 -8.999999999999999E-003    1.506149761102452E-030
 -8.900000000000000E-003    1.268638199707756E-030
 -8.799999999999999E-003    6.723918651879982E-031
 -8.699999999999999E-003   -2.931171635003896E-031
 -8.600000000000000E-003   -1.564009865317496E-030
 -8.499999999999999E-003   -2.987575290387993E-030
 -8.399999999999999E-003   -4.321414238325928E-030
 -8.300000000000000E-003   -5.251382874909830E-030
 -8.199999999999999E-003   -5.431469882702348E-030
 -8.100000000000000E-003   -4.545192215612001E-030
 -8.000000000000000E-003   -2.383336827166789E-030
 -7.899999999999999E-003    1.072504475867955E-030
 -7.800000000000000E-003    5.576238032127494E-030
 -7.699999999999999E-003    1.057261099740418E-029
 -7.599999999999999E-003    1.520154854952836E-029
 -7.499999999999999E-003    1.836821605074600E-029
 -7.399999999999999E-003    1.888760063437886E-029
 -7.299999999999999E-003    1.569976677280194E-029
 -7.199999999999999E-003    8.135639144719650E-030
 -7.100000000000000E-003   -3.804604911171999E-030
 -6.999999999999999E-003   -1.921448810386530E-029
 -6.899999999999999E-003   -3.614970161480427E-029
 -6.800000000000000E-003   -5.166656275758306E-029
 -6.699999999999999E-003   -6.208168867243680E-029
 -6.599999999999999E-003   -6.347563663239610E-029
 -6.499999999999999E-003   -5.242003589874734E-029
 -6.399999999999999E-003   -2.685411355860577E-029
 -6.299999999999999E-003    1.302003710645265E-029
 -6.199999999999999E-003    6.400258282007293E-029
 -6.100000000000000E-003    1.195281572658484E-028
 -5.999999999999999E-003    1.698656815305433E-028
 -5.899999999999999E-003    2.030363313737915E-028
 -5.800000000000000E-003    2.065021250992714E-028
 -5.699999999999999E-003    1.695361625427816E-028
 -5.599999999999999E-003    8.601496184655658E-029
 -5.499999999999999E-003   -4.279938723017622E-029
 -5.399999999999999E-003   -2.060606680425037E-028
 -5.299999999999999E-003   -3.823659090768886E-028
 -5.199999999999999E-003   -5.406102435253030E-028
 -5.099999999999999E-003   -6.430930038553127E-028
 -4.999999999999999E-003   -6.509765819621267E-028
 -4.899999999999999E-003   -5.317519448613769E-028
 -4.799999999999999E-003   -2.678428334004196E-028
 -4.699999999999999E-003    1.350287760630336E-028
 -4.599999999999999E-003    6.414884033604939E-028
 -4.499999999999999E-003    1.184093851354056E-027
 -4.399999999999999E-003    1.666602010413258E-027
 -4.299999999999999E-003    1.974061445151927E-027
 -4.199999999999999E-003    1.989854553751124E-027
 -4.099999999999999E-003    1.618448326747317E-027
 -3.999999999999999E-003    8.110713710364083E-028
 -3.899999999999999E-003   -4.099207396499721E-028
 -3.799999999999999E-003   -1.933284311768575E-027
 -3.699999999999999E-003   -3.553333009020803E-027
 -3.599999999999999E-003   -4.981469863274552E-027
 -3.499999999999999E-003   -5.877760510083518E-027
 -3.399999999999999E-003   -5.902393266816879E-027
 -3.299999999999999E-003   -4.782851231940297E-027
 -3.199999999999999E-003   -2.388212052778786E-027
 -3.099999999999999E-003    1.202020785375678E-027
 -2.999999999999999E-003    5.649861497303524E-027
 -2.899999999999999E-003    1.034733112684927E-026
 -2.799999999999999E-003    1.445471302593611E-026
 -2.699999999999999E-003    1.699586744136008E-026
 -2.599999999999999E-003    1.700875034038300E-026
 -2.499999999999999E-003    1.373780474665817E-026
 -2.399999999999999E-003    6.842701705945046E-027
 -2.299999999999999E-003   -3.412830674473135E-027
 -2.199999999999999E-003   -1.603500293599611E-026
 -2.099999999999999E-003   -2.927984353612404E-026
 -1.999999999999999E-003   -4.077367370730437E-026
 -1.899999999999999E-003   -4.779130288095956E-026
 -1.799999999999999E-003   -4.768305829975146E-026
 -1.699999999999999E-003   -3.841003007228557E-026
 -1.599999999999999E-003   -1.911412638371550E-026
 -1.499999999999999E-003    9.378183065644339E-027
 -1.399999999999999E-003    4.423529641861545E-026
 -1.299999999999999E-003    8.059724600186284E-026
 -1.199999999999999E-003    1.119381661128783E-025
 -1.099999999999999E-003    1.308526128601640E-025
 -9.999999999999989E-004    1.302320533121271E-025
 -8.999999999999990E-004    1.047128802035773E-025
 -7.999999999999990E-004    5.219152835891226E-026
 -6.999999999999989E-004   -2.486708054184287E-026
 -5.999999999999990E-004   -1.186370129870834E-025
 -4.999999999999989E-004   -2.159491306297114E-025
 -3.999999999999989E-004   -2.993377321254293E-025
 -2.999999999999989E-004   -3.491954932525538E-025
 -1.999999999999989E-004   -3.469246782166930E-025
 -9.999999999999892E-005   -2.787502145475604E-025
  1.084202172485504E-018   -1.396431644963503E-025
  1.000000000000011E-004    6.336589943848613E-026
  2.000000000000011E-004    3.092801317737468E-025
  3.000000000000011E-004    5.633753268769327E-025
  4.000000000000011E-004    7.801095443538690E-025
  5.000000000000011E-004    9.088567909455397E-025
  6.000000000000011E-004    9.021195589620989E-025
  7.000000000000011E-004    7.253124250448621E-025
  8.000000000000011E-004    3.666710841420228E-025
  9.000000000000012E-004   -1.545581732230360E-025
  1.000000000000001E-003   -7.836463324359831E-025
  1.100000000000001E-003   -1.431435953642516E-024
  1.200000000000001E-003   -1.982149288665255E-024
  1.300000000000001E-003   -2.308214004453581E-024
  1.400000000000001E-003   -2.291109468333994E-024
  1.500000000000001E-003   -1.845846012278618E-024
  1.600000000000001E-003   -9.453959912253129E-025
  1.700000000000001E-003    3.595255523509563E-025
  1.800000000000001E-003    1.930218535445696E-024
  1.900000000000001E-003    3.543613721254139E-024
  2.000000000000001E-003    4.912543414090210E-024
  2.100000000000001E-003    5.723035000958335E-024
  2.200000000000001E-003    5.685893006110305E-024
  2.300000000000001E-003    4.596480850703573E-024
  2.400000000000001E-003    2.393580135983154E-024
  2.500000000000001E-003   -7.938669261197575E-025
  2.600000000000001E-003   -4.623804604776227E-024
  2.700000000000001E-003   -8.551978267366985E-024
  2.800000000000001E-003   -1.188293877844946E-023
  2.900000000000001E-003   -1.386139669805361E-023
  3.000000000000001E-003   -1.379674645991429E-023
  3.100000000000001E-003   -1.120569541152927E-023
  3.200000000000001E-003   -5.950958943520642E-024
  3.300000000000001E-003    1.650548465688299E-024
  3.400000000000001E-003    1.077726106492849E-023
  3.500000000000001E-003    2.013326123214015E-023
  3.600000000000001E-003    2.807284795833275E-023
  3.700000000000001E-003    3.281866495314026E-023
  3.800000000000001E-003    3.275526146515403E-023
  3.900000000000001E-003    2.676182178995546E-023
  4.000000000000001E-003    1.453213560571112E-023
  4.100000000000001E-003   -3.179775857256484E-024
  4.200000000000001E-003   -2.445059853799794E-023
  4.300000000000001E-003   -4.626664091822519E-023
  4.400000000000001E-003   -6.481953858870755E-023
  4.500000000000001E-003   -7.601439972825712E-023
  4.600000000000002E-003   -7.614618091891635E-023
  4.700000000000001E-003   -6.265936168322978E-023
  4.800000000000001E-003   -3.487143228908891E-023
  4.900000000000002E-003    5.479439558489539E-024
  5.000000000000001E-003    5.400168981586894E-023
  5.100000000000001E-003    1.038453756029500E-022
  5.200000000000001E-003    1.463851603419921E-022
  5.300000000000002E-003    1.723761499076759E-022
  5.400000000000001E-003    1.734784236687920E-022
  5.500000000000001E-003    1.439559909739250E-022
  5.600000000000002E-003    8.228194403972116E-023
  5.700000000000001E-003   -7.660490300192940E-024
  5.800000000000001E-003   -1.160858273473117E-022
  5.900000000000002E-003   -2.277663150844068E-022
  6.000000000000001E-003   -3.235680585341874E-022
  6.100000000000001E-003   -3.830202378096030E-022
  6.200000000000002E-003   -3.876788213944094E-022
  6.300000000000002E-003   -3.248524637891112E-022
  6.400000000000001E-003   -1.911002151249643E-022
  6.500000000000001E-003    5.173647159637092E-024
  6.600000000000002E-003    2.426838119447774E-022
  6.700000000000001E-003    4.883029226124338E-022
  6.800000000000001E-003    7.004279924155758E-022
  6.900000000000002E-003    8.345641919570452E-022
  7.000000000000001E-003    8.505964963808235E-022
  7.100000000000001E-003    7.208076458038702E-022
  7.200000000000002E-003    4.373725440967969E-022
  7.300000000000002E-003    1.788891717029256E-023
  7.400000000000001E-003   -4.924434559272191E-022
  7.500000000000001E-003   -1.023072911920503E-021
  7.600000000000002E-003   -1.485287156195014E-021
  7.700000000000001E-003   -1.784085412815232E-021
  7.800000000000001E-003   -1.833588259357910E-021
  7.900000000000001E-003   -1.573983573112146E-021
  8.000000000000002E-003   -9.873300919506562E-022
  8.100000000000001E-003   -1.092017141147171E-022
  8.200000000000001E-003    9.667147993956296E-022
  8.300000000000002E-003    2.093292875499985E-021
  8.400000000000001E-003    3.084943215298930E-021
  8.500000000000002E-003    3.742318399811697E-021
  8.600000000000002E-003    3.884345138751377E-021
  8.700000000000001E-003    3.383420371029823E-021
  8.800000000000002E-003    2.198234934425942E-021
  8.900000000000002E-003    3.980135610899072E-022
  9.000000000000001E-003   -1.827745341215358E-021
  9.100000000000002E-003   -4.178565736779334E-021
  9.200000000000002E-003   -6.273411175666259E-021
  9.300000000000001E-003   -7.701021533935452E-021
  9.400000000000002E-003   -8.085261453226228E-021
  9.500000000000001E-003   -7.157005807973001E-021
  9.600000000000001E-003   -4.821326876891513E-021
  9.700000000000002E-003   -1.207418367254166E-021
  9.800000000000001E-003    3.310703397567158E-021
  9.900000000000001E-003    8.131869706950151E-021
  1.000000000000000E-002    1.248802049272861E-020
  1.010000000000000E-002    1.554469261541799E-020
  1.020000000000000E-002    1.653194144234240E-020
  1.030000000000000E-002    1.488881696816175E-020
  1.040000000000000E-002    1.039899531727506E-020
  1.050000000000000E-002    3.292538460840954E-021
  1.060000000000000E-002   -5.710054708306123E-021
  1.070000000000000E-002   -1.542979570562011E-020
  1.080000000000000E-002   -2.434572728256781E-020
  1.090000000000000E-002   -3.079159664846594E-020
  1.100000000000000E-002   -3.321367453625841E-020
  1.110000000000000E-002   -3.045670253859753E-020
  1.120000000000000E-002   -2.203412026334551E-020
  1.130000000000000E-002   -8.333439382704395E-021
  1.140000000000000E-002    9.290170695417365E-021
  1.150000000000000E-002    2.856833124123655E-020
  1.160000000000000E-002    4.653939971328031E-020
  1.170000000000000E-002    5.992619833717818E-020
  1.180000000000000E-002    6.563547019568610E-020
  1.190000000000000E-002    6.131579167466648E-020
  1.200000000000000E-002    4.588937224707438E-020
  1.210000000000000E-002    1.996266010104735E-020
  1.220000000000000E-002   -1.397560258163865E-020
  1.230000000000000E-002   -5.164019066776975E-020
  1.240000000000000E-002   -8.735469562987134E-020
  1.250000000000000E-002   -1.147638951869645E-019
  1.260000000000000E-002   -1.277865096671289E-019
  1.270000000000000E-002   -1.216891781640858E-019
  1.280000000000000E-002   -9.412116545652896E-020
  1.290000000000000E-002   -4.592798996942186E-020
  1.300000000000000E-002    1.843188678653879E-020
  1.310000000000000E-002    9.100665807175040E-020
  1.320000000000000E-002    1.610796793128757E-019
  1.330000000000000E-002    2.164893758490428E-019
  1.340000000000000E-002    2.454199790240525E-019
  1.350000000000000E-002    2.384428785557892E-019
  1.360000000000000E-002    1.905080813430923E-019
  1.370000000000000E-002    1.025425162414739E-019
  1.380000000000000E-002   -1.768021107232732E-020
  1.390000000000000E-002   -1.556687221836513E-019
  1.400000000000000E-002   -2.914893899737246E-019
  1.410000000000000E-002   -4.021690647994928E-019
  1.420000000000000E-002   -4.650130735297005E-019
  1.430000000000000E-002   -4.614375416779771E-019
  1.440000000000000E-002   -3.807616568280216E-019
  1.450000000000000E-002   -2.233192627567087E-019
  1.460000000000000E-002   -2.255865858932409E-021
  1.470000000000000E-002    2.565084454381697E-019
  1.480000000000000E-002    5.164499120795145E-019
  1.490000000000000E-002    7.347386530507741E-019
  1.500000000000000E-002    8.683001676477682E-019
  1.510000000000000E-002    8.809228792098060E-019
  1.520000000000000E-002    7.504019157665853E-019
  1.530000000000000E-002    4.745367649961339E-019
  1.540000000000000E-002    7.479698326392267E-020
  1.550000000000000E-002   -4.033360530684910E-019
  1.560000000000000E-002   -8.939523421534905E-019
  1.570000000000000E-002   -1.318268262975115E-018
  1.580000000000000E-002   -1.595547796220635E-018
  1.590000000000000E-002   -1.656126047691419E-018
  1.600000000000000E-002   -1.454718368520971E-018
  1.610000000000000E-002   -9.818553153327773E-019
  1.620000000000000E-002   -2.712469631509406E-019
  1.630000000000000E-002    5.987996237353422E-019
  1.640000000000000E-002    1.511102600984118E-018
  1.650000000000000E-002    2.322667634732214E-018
  1.660000000000000E-002    2.884107683604429E-018
  1.670000000000000E-002    3.063228878907253E-018
  1.680000000000000E-002    2.769548318064599E-018
  1.690000000000000E-002    1.975844018957181E-018
  1.700000000000000E-002    7.327052567132669E-019
  1.710000000000000E-002   -8.274314706840835E-019
  1.720000000000000E-002   -2.499093223338466E-018
  1.730000000000000E-002   -4.026006539699061E-018
  1.740000000000000E-002   -5.135212330762889E-018
  1.750000000000000E-002   -5.579304028607514E-018
  1.760000000000000E-002   -5.181104094638132E-018
  1.770000000000000E-002   -3.873797678683220E-018
  1.780000000000000E-002   -1.729196201809953E-018
  1.790000000000000E-002    1.032382912736899E-018
  1.800000000000000E-002    4.055118627943723E-018
  1.810000000000000E-002    6.884997300160550E-018
  1.820000000000000E-002    9.029067465582790E-018
  1.830000000000000E-002    1.003030007201733E-017
  1.840000000000000E-002    9.548139970957409E-018
  1.850000000000000E-002    7.432380521400271E-018
  1.860000000000000E-002    3.777176400322164E-018
  1.870000000000000E-002   -1.056759788153410E-018