 -4.000000000000000E-002    0.000000000000000E+000
 -3.990000000000000E-002    0.000000000000000E+000
 -3.980000000000000E-002    0.000000000000000E+000
 -3.970000000000000E-002    0.000000000000000E+000
 -3.960000000000000E-002    0.000000000000000E+000
 -3.950000000000000E-002    0.000000000000000E+000
 -3.940000000000000E-002    0.000000000000000E+000
 -3.930000000000000E-002    0.000000000000000E+000
 -3.920000000000000E-002    0.000000000000000E+000
 -3.910000000000000E-002    0.000000000000000E+000
 -3.900000000000000E-002    0.000000000000000E+000
 -3.890000000000000E-002    0.000000000000000E+000
 -3.880000000000000E-002    0.000000000000000E+000
 -3.870000000000000E-002    0.000000000000000E+000
 -3.860000000000000E-002    0.000000000000000E+000
 -3.850000000000000E-002    0.000000000000000E+000
 -3.840000000000000E-002    0.000000000000000E+000
 -3.830000000000000E-002    0.000000000000000E+000
 -3.820000000000000E-002    0.000000000000000E+000
 -3.810000000000000E-002    0.000000000000000E+000
 -3.800000000000000E-002    0.000000000000000E+000
 -3.790000000000000E-002    0.000000000000000E+000
 -3.780000000000000E-002    0.000000000000000E+000
 -3.770000000000000E-002    0.000000000000000E+000
 -3.760000000000000E-002    0.000000000000000E+000
 -3.750000000000000E-002    0.000000000000000E+000
 -3.740000000000000E-002    0.000000000000000E+000
 -3.730000000000000E-002    0.000000000000000E+000
 -3.720000000000000E-002    0.000000000000000E+000
 -3.710000000000000E-002    0.000000000000000E+000
 -3.700000000000000E-002    0.000000000000000E+000
 -3.690000000000000E-002    0.000000000000000E+000
 -3.680000000000000E-002    0.000000000000000E+000
 -3.670000000000000E-002    0.000000000000000E+000
 -3.660000000000000E-002    0.000000000000000E+000
 -3.650000000000000E-002    0.000000000000000E+000
 -3.640000000000000E-002    0.000000000000000E+000
 -3.630000000000000E-002    0.000000000000000E+000
 -3.620000000000000E-002    0.000000000000000E+000
 -3.610000000000000E-002    0.000000000000000E+000
 -3.600000000000000E-002    0.000000000000000E+000
 -3.590000000000000E-002    0.000000000000000E+000
 -3.580000000000000E-002    0.000000000000000E+000
 -3.570000000000000E-002    0.000000000000000E+000
 -3.560000000000000E-002    0.000000000000000E+000
 -3.550000000000000E-002    0.000000000000000E+000
 -3.540000000000000E-002    0.000000000000000E+000
 -3.530000000000000E-002    0.000000000000000E+000
 -3.520000000000000E-002    0.000000000000000E+000
 -3.510000000000000E-002    0.000000000000000E+000
 -3.500000000000000E-002    0.000000000000000E+000
 -3.490000000000000E-002    0.000000000000000E+000
 -3.480000000000000E-002    0.000000000000000E+000
 -3.470000000000000E-002    0.000000000000000E+000
 -3.460000000000000E-002    0.000000000000000E+000
 -3.450000000000000E-002    0.000000000000000E+000
 -3.440000000000000E-002    0.000000000000000E+000
 -3.430000000000000E-002    0.000000000000000E+000
 -3.420000000000000E-002    0.000000000000000E+000
 -3.410000000000000E-002    0.000000000000000E+000
 -3.400000000000000E-002    0.000000000000000E+000
 -3.390000000000000E-002    0.000000000000000E+000
 -3.380000000000000E-002    0.000000000000000E+000
 -3.370000000000000E-002    0.000000000000000E+000
 -3.360000000000000E-002    0.000000000000000E+000
 -3.350000000000000E-002    0.000000000000000E+000
 -3.340000000000000E-002    0.000000000000000E+000
 -3.330000000000000E-002    0.000000000000000E+000
 -3.320000000000000E-002    0.000000000000000E+000
 -3.310000000000000E-002    0.000000000000000E+000
 -3.300000000000000E-002    0.000000000000000E+000
 -3.290000000000000E-002    0.000000000000000E+000
 -3.280000000000000E-002    0.000000000000000E+000
 -3.270000000000000E-002    0.000000000000000E+000
 -3.260000000000000E-002    0.000000000000000E+000
 -3.250000000000000E-002    0.000000000000000E+000
 -3.240000000000000E-002    0.000000000000000E+000
 -3.230000000000000E-002    0.000000000000000E+000
 -3.220000000000000E-002    0.000000000000000E+000
 -3.210000000000000E-002    0.000000000000000E+000
 -3.200000000000000E-002    0.000000000000000E+000
 -3.190000000000000E-002    0.000000000000000E+000
 -3.180000000000000E-002    0.000000000000000E+000
 -3.170000000000000E-002    0.000000000000000E+000
 -3.160000000000000E-002    0.000000000000000E+000
 -3.150000000000000E-002    0.000000000000000E+000
 -3.140000000000000E-002    0.000000000000000E+000
 -3.130000000000000E-002    0.000000000000000E+000
 -3.120000000000000E-002    0.000000000000000E+000
 -3.110000000000000E-002    0.000000000000000E+000
 -3.100000000000000E-002    0.000000000000000E+000
 -3.090000000000000E-002    0.000000000000000E+000
 -3.080000000000000E-002    0.000000000000000E+000
 -3.070000000000000E-002    0.000000000000000E+000
 -3.060000000000000E-002    0.000000000000000E+000
 -3.050000000000000E-002    0.000000000000000E+000
 -3.040000000000000E-002    0.000000000000000E+000
 -3.030000000000000E-002    0.000000000000000E+000
 -3.020000000000000E-002    0.000000000000000E+000
 -3.010000000000000E-002    0.000000000000000E+000
 -3.000000000000000E-002    0.000000000000000E+000
 -2.990000000000000E-002    0.000000000000000E+000
 -2.980000000000000E-002    0.000000000000000E+000
 -2.970000000000000E-002    0.000000000000000E+000
 -2.960000000000000E-002    0.000000000000000E+000
 -2.950000000000000E-002    0.000000000000000E+000
 -2.940000000000000E-002    0.000000000000000E+000
 -2.930000000000000E-002    0.000000000000000E+000
 -2.920000000000000E-002    0.000000000000000E+000
 -2.910000000000000E-002    0.000000000000000E+000
 -2.900000000000000E-002    0.000000000000000E+000
 -2.890000000000000E-002    0.000000000000000E+000
 -2.880000000000000E-002    0.000000000000000E+000
 -2.870000000000000E-002    0.000000000000000E+000
 -2.860000000000000E-002    0.000000000000000E+000
 -2.850000000000000E-002    0.000000000000000E+000
 -2.840000000000000E-002    0.000000000000000E+000
 -2.830000000000000E-002    0.000000000000000E+000
 -2.820000000000000E-002    0.000000000000000E+000
 -2.810000000000000E-002    0.000000000000000E+000
 -2.800000000000000E-002    0.000000000000000E+000
 -2.790000000000000E-002    0.000000000000000E+000
 -2.780000000000000E-002    0.000000000000000E+000
 -2.770000000000000E-002    0.000000000000000E+000
 -2.760000000000000E-002    0.000000000000000E+000
 -2.750000000000000E-002    0.000000000000000E+000
 -2.740000000000000E-002    0.000000000000000E+000
 -2.730000000000000E-002    0.000000000000000E+000
 -2.720000000000000E-002    0.000000000000000E+000
 -2.710000000000000E-002    0.000000000000000E+000
 -2.700000000000000E-002    0.000000000000000E+000
 -2.690000000000000E-002    0.000000000000000E+000
 -2.680000000000000E-002    0.000000000000000E+000
 -2.670000000000000E-002    0.000000000000000E+000
 -2.660000000000000E-002    0.000000000000000E+000
 -2.650000000000000E-002    0.000000000000000E+000
 -2.640000000000000E-002    0.000000000000000E+000
 -2.630000000000000E-002    0.000000000000000E+000
 -2.620000000000000E-002    0.000000000000000E+000
 -2.610000000000000E-002    0.000000000000000E+000
 -2.600000000000000E-002    0.000000000000000E+000
 -2.590000000000000E-002    0.000000000000000E+000
 -2.580000000000000E-002    0.000000000000000E+000
 -2.570000000000000E-002    0.000000000000000E+000
 -2.560000000000000E-002    0.000000000000000E+000
 -2.550000000000000E-002    0.000000000000000E+000
 -2.540000000000000E-002    0.000000000000000E+000
 -2.530000000000000E-002    0.000000000000000E+000
 -2.520000000000000E-002    0.000000000000000E+000
 -2.510000000000000E-002    0.000000000000000E+000
 -2.500000000000000E-002    0.000000000000000E+000
 -2.490000000000000E-002   -6.414635304221270E-048
 -2.480000000000000E-002   -1.282927060844254E-047
 -2.470000000000000E-002   -1.282927060844254E-047
 -2.460000000000000E-002   -1.282927060844254E-047
 -2.450000000000000E-002   -6.414635304221270E-048
 -2.440000000000000E-002    1.282927060844254E-047
 -2.430000000000000E-002    2.223740238796707E-047
 -2.420000000000000E-002   -3.915518733979217E-048
 -2.410000000000000E-002   -6.673755144645491E-050
 -2.400000000000000E-002   -2.632591673134963E-048
 -2.390000000000000E-002   -2.115468798146218E-047
 -2.380000000000000E-002    7.343383520477617E-047
 -2.370000000000000E-002    1.462398154015982E-046
 -2.360000000000000E-002    3.319433769527146E-046
 -2.350000000000000E-002    5.544909184661461E-046
 -2.340000000000000E-002    7.450987585613641E-046
 -2.330000000000000E-002    8.038859736609244E-046
 -2.320000000000000E-002    3.188722952755577E-046
 -2.310000000000000E-002   -9.503424609941655E-046
 -2.300000000000000E-002   -1.504638605120177E-045
 -2.290000000000000E-002   -3.439736947859208E-045
 -2.280000000000000E-002   -5.407326644393368E-045
 -2.270000000000000E-002   -6.724597907365431E-045
 -2.260000000000000E-002   -8.105100888292757E-045
 -2.250000000000000E-002   -6.793543976745410E-045
 -2.240000000000000E-002   -3.009557281152648E-045
 -2.230000000000000E-002    4.843556364480177E-045
 -2.220000000000000E-002    1.776082378479632E-044
 -2.210000000000000E-002    3.542233287140570E-044
 -2.200000000000000E-002    5.598077988198820E-044
 -2.190000000000000E-002    7.646062482734528E-044
 -2.180000000000000E-002    9.107022498237993E-044
 -2.170000000000000E-002    9.026514975318386E-044
 -2.160000000000000E-002    6.119896184966684E-044
 -2.150000000000000E-002   -7.164258471596720E-045
 -2.140000000000000E-002   -1.266505788787600E-043
 -2.130000000000000E-002   -2.998755822287721E-043
 -2.120000000000000E-002   -5.165412101224627E-043
 -2.110000000000000E-002   -7.455414646668433E-043
 -2.100000000000000E-002   -9.292505116947356E-043
 -2.090000000000000E-002   -9.822853959401563E-043
 -2.080000000000000E-002   -7.944240008883354E-043
 -2.070000000000000E-002   -2.431013885740135E-043
 -2.060000000000000E-002    7.775022853257313E-043
 -2.050000000000000E-002    2.313528528102795E-042
 -2.040000000000000E-002    4.297950262842626E-042
 -2.030000000000000E-002    6.489816342908371E-042
 -2.020000000000000E-002    8.421133965484485E-042
 -2.010000000000000E-002    9.371767246922388E-042
 -2.000000000000000E-002    8.399701338924540E-042
 -1.990000000000000E-002    4.448012090159289E-042
 -1.980000000000000E-002   -3.429357118622720E-042
 -1.970000000000000E-002   -1.574219113139709E-041
 -1.960000000000000E-002   -3.212034651620191E-041
 -1.950000000000000E-002   -5.083582027394474E-041
 -1.940000000000000E-002   -6.837762145723774E-041
 -1.930000000000000E-002   -7.923962291624233E-041
 -1.920000000000000E-002   -7.611499923061224E-041
 -1.910000000000000E-002   -5.070771738329036E-041
 -1.900000000000000E-002    4.664628550780672E-042
 -1.890000000000000E-002    9.461094360199190E-041
 -1.880000000000000E-002    2.174750819339061E-040
 -1.870000000000000E-002    3.618121774249494E-040
 -1.860000000000000E-002    5.032803111619117E-040
 -1.850000000000000E-002    6.030314945533618E-040
 -1.840000000000000E-002    6.089625754398672E-040
 -1.830000000000000E-002    4.612568507374983E-040
 -1.820000000000000E-002    1.033463716435121E-040
 -1.810000000000000E-002   -5.012927706517731E-040
 -1.800000000000000E-002   -1.347449759363987E-039
 -1.790000000000000E-002   -2.364339490102115E-039
 -1.780000000000000E-002   -3.394594828909417E-039
 -1.770000000000000E-002   -4.183271005397536E-039
 -1.760000000000000E-002   -4.385621468325607E-039
 -1.750000000000000E-002   -3.602671409352153E-039
 -1.740000000000000E-002   -1.451578199519707E-039
 -1.730000000000000E-002    2.327166909214100E-039
 -1.720000000000000E-002    7.732030160260448E-039
 -1.710000000000000E-002    1.435006975404930E-038
 -1.700000000000000E-002    2.122514933900713E-038
 -1.690000000000000E-002    2.678896751216526E-038
 -1.680000000000000E-002    2.890797242588573E-038
 -1.670000000000000E-002    2.509948169857885E-038
 -1.660000000000000E-002    1.295700238592244E-038
 -1.650000000000000E-002   -9.206021308439627E-039
 -1.640000000000000E-002   -4.153525126948776E-038
 -1.630000000000000E-002   -8.174534426912406E-038
 -1.620000000000000E-002   -1.243458186424565E-037
 -1.610000000000000E-002   -1.602392938146939E-037
 -1.600000000000000E-002   -1.769944790799092E-037
 -1.590000000000000E-002   -1.600902622809786E-037
 -1.580000000000000E-002   -9.534573710433393E-038
 -1.570000000000000E-002    2.743040724425813E-038
 -1.560000000000000E-002    2.098194257643646E-037
 -1.550000000000000E-002    4.398224920036167E-037
 -1.540000000000000E-002    6.875724052113266E-037
 -1.530000000000000E-002    9.031329090599830E-037
 -1.520000000000000E-002    1.018011036561822E-036
 -1.510000000000000E-002    9.519421508793231E-037
 -1.500000000000000E-002    6.260300349894471E-037
 -1.490000000000000E-002   -1.766486014814033E-038
 -1.480000000000000E-002   -9.915117594013986E-037
 -1.470000000000000E-002   -2.236018599580028E-036
 -1.460000000000000E-002   -3.597323940965503E-036
 -1.450000000000000E-002   -4.815752172847245E-036
 -1.440000000000000E-002   -5.533707114974742E-036
 -1.430000000000000E-002   -5.330697638535884E-036
 -1.420000000000000E-002   -3.790651884718318E-036
 -1.410000000000000E-002   -6.015714292252171E-037
 -1.400000000000000E-002    4.320069557649495E-036
 -1.390000000000000E-002    1.069732918986542E-035
 -1.380000000000000E-002    1.778048625869348E-035
 -1.370000000000000E-002    2.429024072563650E-035
 -1.360000000000000E-002    2.845644379502654E-035
 -1.350000000000000E-002    2.818921597505294E-035
 -1.340000000000000E-002    2.140591998193559E-035
 -1.330000000000000E-002    6.512326475760997E-036
 -1.320000000000000E-002   -1.700031480701227E-035
 -1.310000000000000E-002   -4.792538707012296E-035
 -1.300000000000000E-002   -8.280769832078969E-035
 -1.290000000000000E-002   -1.156743472559017E-034
 -1.280000000000000E-002   -1.382137552750704E-034
 -1.270000000000000E-002   -1.405686225553707E-034
 -1.260000000000000E-002   -1.128444906111260E-034
 -1.250000000000000E-002   -4.731788698770890E-035
 -1.240000000000000E-002    5.883859048286406E-035
 -1.230000000000000E-002    2.006962808615131E-034
 -1.220000000000000E-002    3.631608804037587E-034
 -1.210000000000000E-002    5.197575886863733E-034
 -1.200000000000000E-002    6.334170239304047E-034
 -1.190000000000000E-002    6.599746059828910E-034
 -1.180000000000000E-002    5.547983353243047E-034
 -1.170000000000000E-002    2.824420571458111E-034
 -1.160000000000000E-002   -1.715028357294506E-034
 -1.150000000000000E-002   -7.880348193898323E-034
 -1.140000000000000E-002   -1.504369032465760E-033
 -1.130000000000000E-002   -2.208723392830789E-033
 -1.120000000000000E-002   -2.743632553375189E-033
 -1.110000000000000E-002   -2.920711244121011E-033
 -1.100000000000000E-002   -2.548480126063698E-033
 -1.090000000000000E-002   -1.472687784024544E-033
 -1.080000000000000E-002    3.744503628647183E-034
 -1.070000000000000E-002    2.923131033922333E-033
 -1.060000000000000E-002    5.923345158805086E-033
 -1.050000000000000E-002    8.923591310360405E-033
 -1.040000000000000E-002    1.128440667181955E-032
 -1.030000000000000E-002    1.223813144839848E-032
 -1.020000000000000E-002    1.100094290222309E-032
 -1.010000000000000E-002    6.934277034054098E-033
 -1.000000000000000E-002   -2.591747088184526E-034
 -9.899999999999999E-003   -1.033312813908093E-032
 -9.800000000000000E-003   -2.233009138819266E-032
 -9.699999999999999E-003   -3.449845714376834E-032
 -9.599999999999999E-003   -4.434606068751643E-032
 -9.500000000000000E-003   -4.887303740357565E-032
 -9.399999999999999E-003   -4.500541738055057E-032
 -9.299999999999999E-003   -3.021617838847555E-032
 -9.200000000000000E-003   -3.275045496243286E-033
 -9.099999999999999E-003    3.498203155183288E-032
 -8.999999999999999E-003    8.101969734726490E-032
 -8.900000000000000E-003    1.282933352306218E-031
 -8.799999999999999E-003    1.674538959731853E-031
 -8.699999999999999E-003    1.872217803827782E-031
 -8.600000000000000E-003    1.760029668860872E-031
 -8.499999999999999E-003    1.241898404117508E-031
 -8.399999999999999E-003    2.692422478159982E-032
 -8.300000000000000E-003   -1.130837152796817E-031
 -8.199999999999999E-003   -2.832493496124657E-031
 -8.100000000000000E-003   -4.599972987503914E-031
 -8.000000000000000E-003   -6.095125563869671E-031
 -7.899999999999999E-003   -6.909002952344609E-031
 -7.800000000000000E-003   -6.619902470857994E-031
 -7.699999999999999E-003   -4.875567654281814E-031
 -7.599999999999999E-003   -1.491383766869116E-031
 -7.499999999999999E-003    3.449920077562379E-031
 -7.399999999999999E-003    9.517142639532441E-031
 -7.299999999999999E-003    1.589158962146998E-030
 -7.199999999999999E-003    2.139344753678391E-030
 -7.100000000000000E-003    2.459176512930837E-030
 -6.999999999999999E-003    2.400545514649061E-030
 -6.899999999999999E-003    1.838661220794365E-030
 -6.800000000000000E-003    7.057519399298436E-031
 -6.699999999999999E-003   -9.748639138065568E-031
 -6.599999999999999E-003   -3.061162627488310E-030
 -6.499999999999999E-003   -5.279160533118242E-030
 -6.399999999999999E-003   -7.231761719703607E-030
 -6.299999999999999E-003   -8.435616302264267E-030
 -6.199999999999999E-003   -8.388260563675658E-030
 -6.100000000000000E-003   -6.662418343777430E-030
 -5.999999999999999E-003   -3.017728378248773E-030
 -5.899999999999999E-003    2.486667804225619E-030
 -5.800000000000000E-003    9.401122336964702E-030
 -5.699999999999999E-003    1.684174049038710E-029
 -5.599999999999999E-003    2.351875065744144E-029
 -5.499999999999999E-003    2.785562595850096E-029
 -5.399999999999999E-003    2.820565341406120E-029
 -5.299999999999999E-003    2.315518710236005E-029
 -5.199999999999999E-003    1.188187984129759E-029
 -5.099999999999999E-003   -5.485348071840691E-030
 -4.999999999999999E-003   -2.757587692683372E-029
 -4.899999999999999E-003   -5.163718607273861E-029
 -4.799999999999999E-003   -7.362222552014132E-029
 -4.699999999999999E-003   -8.856132333207636E-029
 -4.599999999999999E-003   -9.123767940944969E-029
 -4.499999999999999E-003   -7.713104731549684E-029
 -4.399999999999999E-003   -4.352971869599708E-029
 -4.299999999999999E-003    9.354728937721703E-030
 -4.199999999999999E-003    7.748898337859761E-029
 -4.099999999999999E-003    1.525819278740516E-028
 -3.999999999999999E-003    2.223436953647897E-028
 -3.899999999999999E-003    2.716098536508108E-028
 -3.799999999999999E-003    2.843819128115492E-028
 -3.699999999999999E-003    2.466738728298906E-028
 -3.599999999999999E-003    1.498586165012007E-028
 -3.499999999999999E-003   -5.983405628698671E-030
 -3.399999999999999E-003   -2.093664515722179E-028
 -3.299999999999999E-003   -4.360810732288069E-028
 -3.199999999999999E-003   -6.499360375175291E-028
 -3.099999999999999E-003   -8.060508146454894E-028
 -2.999999999999999E-003   -8.568381359959151E-028
 -2.899999999999999E-003   -7.603365606881044E-028
 -2.799999999999999E-003   -4.899918072853321E-028
 -2.699999999999999E-003   -4.443135565234746E-029
 -2.599999999999999E-003    5.446603649949410E-028
 -2.499999999999999E-003    1.208655337407160E-027
 -2.399999999999999E-003    1.844030873545513E-027
 -2.299999999999999E-003    2.321724058274004E-027
 -2.199999999999999E-003    2.504166800532637E-027
 -2.099999999999999E-003    2.268994708395593E-027
 -1.999999999999999E-003    1.536851003174809E-027
 -1.899999999999999E-003    2.991531534319702E-028
 -1.799999999999999E-003   -1.359504963489005E-027
 -1.699999999999999E-003   -3.250157799663192E-027
 -1.599999999999999E-003   -5.084888212832556E-027
 -1.499999999999999E-003   -6.502617857966601E-027
 -1.399999999999999E-003   -7.116242667589046E-027
 -1.299999999999999E-003   -6.578261919865278E-027
 -1.199999999999999E-003   -4.657716554313235E-027
 -1.099999999999999E-003   -1.317057037847545E-027
 -9.999999999999989E-004    3.225660826869308E-027
 -8.999999999999990E-004    8.465192428312034E-027
 -7.999999999999990E-004    1.362272722261587E-026
 -6.999999999999989E-004    1.771486675249061E-026
 -5.999999999999990E-004    1.968040859961762E-026
 -4.999999999999989E-004    1.855715258236947E-026
 -3.999999999999989E-004    1.368934845926272E-026
 -2.999999999999989E-004    4.935241508085403E-027
 -1.999999999999989E-004   -7.164258843006551E-027
 -9.999999999999892E-005   -2.129808512274963E-026
  1.084202172485504E-018   -3.541736924796989E-026
  1.000000000000011E-004   -4.691421948187804E-026
  2.000000000000011E-004   -5.295332739272954E-026
  3.000000000000011E-004   -5.093579753997979E-026
  4.000000000000011E-004   -3.904435714465291E-026
  5.000000000000011E-004   -1.679026093726406E-026
  6.000000000000011E-004    1.453949320095036E-026
  7.000000000000011E-004    5.164434593805668E-026
  8.000000000000011E-004    8.928163507399049E-026
  9.000000000000012E-004    1.207157393839723E-025
  1.000000000000001E-003    1.385617148541434E-025
  1.100000000000001E-003    1.359706392559362E-025
  1.200000000000001E-003    1.080272029116157E-025
  1.300000000000001E-003    5.315697323478156E-026
  1.400000000000001E-003   -2.571400629468690E-026
  1.500000000000001E-003   -1.205246974279397E-025
  1.600000000000001E-003   -2.182222681344566E-025
  1.700000000000001E-003   -3.018561341932099E-025
  1.800000000000001E-003   -3.526665158887934E-025
  1.900000000000001E-003   -3.530370197938592E-025
  2.000000000000001E-003   -2.899910271386207E-025
  2.100000000000001E-003   -1.587296966774389E-025
  2.200000000000001E-003    3.442523867639641E-026
  2.300000000000001E-003    2.703709046501077E-025
  2.400000000000001E-003    5.174690143285200E-025
  2.500000000000001E-003    7.341294818752051E-025
  2.600000000000001E-003    8.738433135228695E-025
  2.700000000000001E-003    8.923575546885902E-025
  2.800000000000001E-003    7.562173999692804E-025
  2.900000000000001E-003    4.514629554625240E-025
  3.000000000000001E-003   -9.058489139882899E-027
  3.100000000000001E-003   -5.814275163410728E-025
  3.200000000000001E-003   -1.190947952164582E-024
  3.300000000000001E-003   -1.738056005957976E-024
  3.400000000000001E-003   -2.110137877228353E-024
  3.500000000000001E-003   -2.198542136463471E-024
  3.600000000000001E-003   -1.918978324157100E-024
  3.700000000000001E-003   -1.232432718571358E-024
  3.800000000000001E-003   -1.629727844965384E-025
  3.900000000000001E-003    1.191501871567981E-024
  4.000000000000001E-003    2.659161060990849E-024
  4.100000000000001E-003    4.007328744775699E-024
  4.200000000000001E-003    4.969507839094698E-024
  4.300000000000001E-003    5.284781020620673E-024
  4.400000000000001E-003    4.745436827501309E-024
  4.500000000000001E-003    3.246236989151445E-024
  4.600000000000002E-003    8.269132343175485E-025
  4.700000000000001E-003   -2.301233101242913E-024
  4.800000000000001E-003   -5.753034740308406E-024
  4.900000000000002E-003   -8.997437890916929E-024
  5.000000000000001E-003   -1.141774274568532E-023
  5.100000000000001E-003   -1.240073016654330E-023
  5.200000000000001E-003   -1.144549073331879E-023
  5.300000000000002E-003   -8.277100203651195E-024
  5.400000000000001E-003   -2.946152750229392E-024
  5.500000000000001E-003    4.106636617182142E-024
  5.600000000000002E-003    1.203998853754961E-023
  5.700000000000001E-003    1.966972904038458E-023
  5.800000000000001E-003    2.559956792002254E-023
  5.900000000000002E-003    2.841820286920344E-023
  6.000000000000001E-003    2.694274134502684E-023
  6.100000000000001E-003    2.047586563469330E-023
  6.200000000000002E-003    9.034661900654095E-024
  6.300000000000002E-003   -6.495292496939407E-024
  6.400000000000001E-003   -2.432388038697857E-023
  6.500000000000001E-003   -4.187037206076121E-023
  6.600000000000002E-003   -5.604000472370023E-023
  6.700000000000001E-003   -6.365007315786497E-023
  6.800000000000001E-003   -6.196327581774268E-023
  6.900000000000002E-003   -4.925843409098772E-023
  7.000000000000001E-003   -2.534711495869151E-023
  7.100000000000001E-003    8.065318657212915E-024
  7.200000000000002E-003    4.727008217521035E-023
  7.300000000000002E-003    8.676921107752714E-023
  7.400000000000001E-003    1.198448277338858E-022
  7.500000000000001E-003    1.394596330021843E-022
  7.600000000000002E-003    1.394020046519741E-022
  7.700000000000001E-003    1.155290247918537E-022
  7.800000000000001E-003    6.691257862604933E-023
  7.900000000000001E-003   -3.329438441588102E-024
  8.000000000000002E-003   -8.772570054350779E-023
  8.100000000000001E-003   -1.748289953558777E-022
  8.200000000000001E-003   -2.503548305611784E-022
  8.300000000000002E-003   -2.990418414662533E-022
  8.400000000000001E-003   -3.070613487991433E-022
  8.500000000000002E-003   -2.646744684012800E-022
  8.600000000000002E-003   -1.687311305121732E-022
  8.700000000000001E-003   -2.455016890097069E-023
  8.800000000000002E-003    1.532668417135089E-022
  8.900000000000002E-003    3.414423363530419E-022
  9.000000000000001E-003    5.102313432625789E-022
  9.100000000000002E-003    6.271764176324900E-022
  9.200000000000002E-003    6.620761549341066E-022
  9.300000000000001E-003    5.925609353470357E-022
  9.400000000000002E-003    4.094474751986077E-022
  9.500000000000001E-003    1.209146805431421E-022
  9.600000000000001E-003   -2.454395933280696E-022
  9.700000000000002E-003   -6.434309338495933E-022
  9.800000000000001E-003   -1.012431499929387E-021
  9.900000000000001E-003   -1.284770503811620E-021
  1.000000000000000E-002   -1.395771624262432E-021
  1.010000000000000E-002   -1.295237803776417E-021
  1.020000000000000E-002   -9.587227856792049E-022
  1.030000000000000E-002   -3.966376668223173E-022
  1.040000000000000E-002    3.407621002737731E-022
  1.050000000000000E-002    1.164141120018311E-021
  1.060000000000000E-002    1.952573830628443E-021
  1.070000000000000E-002    2.567781668042576E-021
  1.080000000000000E-002    2.874002816316676E-021
  1.090000000000000E-002    2.761215657452477E-021
  1.100000000000000E-002    2.168444519803716E-021
  1.110000000000000E-002    1.103248018055841E-021
  1.120000000000000E-002   -3.466063975394395E-022
  1.130000000000000E-002   -2.012706404961669E-021
  1.140000000000000E-002   -3.658978843397839E-021
  1.150000000000000E-002   -5.008409378059524E-021
  1.160000000000000E-002   -5.781595529650312E-021
  1.170000000000000E-002   -5.742863125953864E-021
  1.180000000000000E-002   -4.747633608581110E-021
  1.190000000000000E-002   -2.783352021586698E-021
  1.200000000000000E-002    4.041724195275158E-024
  1.210000000000000E-002    3.305184811912795E-021
  1.220000000000000E-002    6.668667823130990E-021
  1.230000000000000E-002    9.549961153677975E-021
  1.240000000000000E-002    1.138476016597808E-020
  1.250000000000000E-002    1.167896674522379E-020
  1.260000000000000E-002    1.010335939502188E-020
  1.270000000000000E-002    6.578032612147486E-021
  1.280000000000000E-002    1.330742017538633E-021
  1.290000000000000E-002   -5.085246471943936E-021
  1.300000000000000E-002   -1.182403898453780E-020
  1.310000000000000E-002   -1.783435385505353E-020
  1.320000000000000E-002   -2.199636305655462E-020
  1.330000000000000E-002   -2.329431590183529E-020
  1.340000000000000E-002   -2.100268413358083E-020
  1.350000000000000E-002   -1.485744635075929E-020
  1.360000000000000E-002   -5.181506568074388E-021
  1.370000000000000E-002    7.064538250821240E-021
  1.380000000000000E-002    2.032786008917605E-020
  1.390000000000000E-002    3.261448676173913E-020
  1.400000000000000E-002    4.173953158823022E-020
  1.410000000000000E-002    4.565273707456711E-020
  1.420000000000000E-002    4.279869925402132E-020
  1.430000000000000E-002    3.245854311317125E-020
  1.440000000000000E-002    1.501347609823714E-020
  1.450000000000000E-002   -7.926570335364955E-021
  1.460000000000000E-002   -3.357379238528088E-020
  1.470000000000000E-002   -5.821532866686843E-020
  1.480000000000000E-002   -7.766126158917384E-020
  1.490000000000000E-002   -8.784779067867000E-020
  1.500000000000000E-002   -8.552302060650870E-020
  1.510000000000000E-002   -6.891707170671608E-020
  1.520000000000000E-002   -3.828396196148355E-020
  1.530000000000000E-002    3.795312688582120E-021
  1.540000000000000E-002    5.243851374466799E-020
  1.550000000000000E-002    1.008682032119153E-019
  1.560000000000000E-002    1.411955488245106E-019
  1.570000000000000E-002    1.655174517181897E-019
  1.580000000000000E-002    1.672002638307302E-019
  1.590000000000000E-002    1.421712850185425E-019
  1.600000000000000E-002    9.000878783831114E-020
  1.610000000000000E-002    1.461912336496953E-020
  1.620000000000000E-002   -7.567849632558678E-020
  1.630000000000000E-002   -1.687707651932303E-019
  1.640000000000000E-002   -2.500888923058493E-019
  1.650000000000000E-002   -3.045666580281259E-019
  1.660000000000000E-002   -3.190016183940428E-019
  1.670000000000000E-002   -2.845005309747534E-019
  1.680000000000000E-002   -1.986252762656953E-019
  1.690000000000000E-002   -6.684095303446369E-020
  1.700000000000000E-002    9.708295536135732E-020
  1.710000000000000E-002    2.719534227117531E-019
  1.720000000000000E-002    4.313813267343142E-019
  1.730000000000000E-002    5.472112479370407E-019
  1.740000000000000E-002    5.937905891341872E-019
  1.750000000000000E-002    5.525192285573366E-019
  1.760000000000000E-002    4.159864928351817E-019
  1.770000000000000E-002    1.909585159970827E-019
  1.780000000000000E-002   -1.004534732132808E-019
  1.790000000000000E-002   -4.219221017625848E-019
  1.800000000000000E-002   -7.265138910390854E-019
  1.810000000000000E-002   -9.625867416806000E-019
  1.820000000000000E-002   -1.081381989159963E-018
  1.830000000000000E-002   -1.045348972793387E-018
  1.840000000000000E-002   -8.359687027931639E-019
  1.850000000000000E-002   -4.597301552327732E-019
  1.860000000000000E-002    4.899735175096355E-020
  1.870000000000000E-002    6.291473395901858E-019