 -4.000000000000000E-002    0.000000000000000E+000
 -3.990000000000000E-002    0.000000000000000E+000
 -3.980000000000000E-002    0.000000000000000E+000
 -3.970000000000000E-002    2.041909909932791E-014
 -3.960000000000000E-002    1.288796054939970E-013
 -3.950000000000000E-002    4.497979856583031E-013
 -3.940000000000000E-002    1.134374961171013E-012
 -3.930000000000000E-002    2.281244546031849E-012
 -3.920000000000000E-002    3.818628701414824E-012
 -3.910000000000000E-002    5.380304567400082E-012
 -3.900000000000000E-002    6.221812829898308E-012
 -3.890000000000000E-002    5.223518587271982E-012
 -3.880000000000000E-002    1.010914875121854E-012
 -3.870000000000000E-002   -7.807264774837391E-012
 -3.860000000000000E-002   -2.231816803910268E-011
 -3.850000000000000E-002   -4.296704173542315E-011
 -3.840000000000000E-002   -6.928408010540107E-011
 -3.830000000000000E-002   -9.975134895198951E-011
 -3.820000000000000E-002   -1.318568909121142E-010
 -3.810000000000000E-002   -1.623386145255669E-010
 -3.800000000000000E-002   -1.875720472813484E-010
 -3.790000000000000E-002   -2.040175293780474E-010
 -3.780000000000000E-002   -2.086258888680294E-010
 -3.770000000000000E-002   -1.991142948726881E-010
 -3.760000000000000E-002   -1.740633156992318E-010
 -3.750000000000000E-002   -1.328423724423881E-010
 -3.740000000000000E-002   -7.542683856268854E-011
 -3.730000000000000E-002   -2.208484036289714E-012
 -3.720000000000000E-002    8.609286059105051E-011
 -3.710000000000000E-002    1.883397686712432E-010
 -3.700000000000000E-002    3.026967914071528E-010
 -3.690000000000000E-002    4.262241250703785E-010
 -3.680000000000000E-002    5.544802430102404E-010
 -3.670000000000000E-002    6.813060667352574E-010
 -3.660000000000000E-002    7.989486093854851E-010
 -3.650000000000000E-002    8.986145146129117E-010
 -3.640000000000000E-002    9.714300411543545E-010
 -3.630000000000000E-002    1.009654927122697E-009
 -3.620000000000000E-002    1.007884579460965E-009
 -3.610000000000000E-002    9.639182151785553E-010
 -3.600000000000000E-002    8.789941248484514E-010
 -3.590000000000000E-002    7.572041716393471E-010
 -3.580000000000000E-002    6.040853154398992E-010
 -3.570000000000000E-002    4.246050854667792E-010
 -3.560000000000000E-002    2.209596552672946E-010
 -3.550000000000000E-002   -9.269548644328495E-012
 -3.540000000000000E-002   -2.740418464907714E-010
 -3.530000000000000E-002   -5.864350728181880E-010
 -3.520000000000000E-002   -9.626908385287012E-010
 -3.510000000000000E-002   -1.418870251565875E-009
 -3.500000000000000E-002   -1.966596529836679E-009
 -3.490000000000000E-002   -2.608619774501214E-009
 -3.480000000000000E-002   -3.335062445296017E-009
 -3.470000000000000E-002   -4.121140778938521E-009
 -3.460000000000000E-002   -4.926915482198606E-009
 -3.450000000000000E-002   -5.699246974742030E-009
 -3.440000000000000E-002   -6.375705061518533E-009
 -3.430000000000000E-002   -6.889788468078355E-009
 -3.420000000000000E-002   -7.176578485207492E-009
 -3.410000000000000E-002   -7.177906280666916E-009
 -3.400000000000000E-002   -6.846302702542973E-009
 -3.390000000000000E-002   -6.147360203191881E-009
 -3.380000000000000E-002   -5.060594781911896E-009
 -3.370000000000000E-002   -3.579311231910965E-009
 -3.360000000000000E-002   -1.710243252356477E-009
 -3.350000000000000E-002    5.262349999538821E-010
 -3.340000000000000E-002    3.094784105680394E-009
 -3.330000000000000E-002    5.942585356922736E-009
 -3.320000000000000E-002    8.996165733318774E-009
 -3.310000000000000E-002    1.215862325056867E-008
 -3.300000000000000E-002    1.530864177115354E-008
 -3.290000000000000E-002    1.830267976270514E-008
 -3.280000000000000E-002    2.098127873806531E-008
 -3.270000000000000E-002    2.317964869585033E-008
 -3.260000000000000E-002    2.474168793255867E-008
 -3.250000000000000E-002    2.553557700275500E-008
 -3.240000000000000E-002    2.546835187275255E-008
 -3.230000000000000E-002    2.449657821440147E-008
 -3.220000000000000E-002    2.263061633612283E-008
 -3.210000000000000E-002    1.993097193057860E-008
 -3.200000000000000E-002    1.649667629125857E-008
 -3.190000000000000E-002    1.244735153785284E-008
 -3.180000000000000E-002    7.902135360774699E-009
 -3.170000000000000E-002    2.959693367222951E-009
 -3.160000000000000E-002   -2.316269052912051E-009
 -3.150000000000000E-002   -7.902318651326617E-009
 -3.140000000000000E-002   -1.380929663596635E-008
 -3.130000000000000E-002   -2.006518803235760E-008
 -3.120000000000000E-002   -2.668937671443497E-008
 -3.110000000000000E-002   -3.366290140447002E-008
 -3.100000000000000E-002   -4.090063404413723E-008
 -3.090000000000000E-002   -4.823142183837486E-008
 -3.080000000000000E-002   -5.539116213267903E-008
 -3.070000000000000E-002   -6.203150966576659E-008
 -3.060000000000000E-002   -6.774412092594968E-008
 -3.050000000000000E-002   -7.209723102024944E-008
 -3.040000000000000E-002   -7.467892713266434E-008
 -3.030000000000000E-002   -7.514001862874832E-008
 -3.020000000000000E-002   -7.322939580512151E-008
 -3.010000000000000E-002   -6.881624463995081E-008
 -3.000000000000000E-002   -6.189604644985321E-008
 -2.990000000000000E-002   -5.258051663477016E-008
 -2.980000000000000E-002   -4.107486816013420E-008
 -2.970000000000000E-002   -2.764802660218868E-008
 -2.960000000000000E-002   -1.260253253205352E-008
 -2.950000000000000E-002    3.749734155285695E-009
 -2.940000000000000E-002    2.110186731531925E-008
 -2.930000000000000E-002    3.915514178583718E-008
 -2.920000000000000E-002    5.761327943296850E-008
 -2.910000000000000E-002    7.617245118495272E-008
 -2.900000000000000E-002    9.451327640243678E-008
 -2.890000000000000E-002    1.123006079363335E-007
 -2.880000000000000E-002    1.291950123272311E-007
 -2.870000000000000E-002    1.448765129027421E-007
 -2.860000000000000E-002    1.590774282404739E-007
 -2.850000000000000E-002    1.716178976306887E-007
 -2.840000000000000E-002    1.824360291204888E-007
 -2.830000000000000E-002    1.916046386889587E-007
 -2.820000000000000E-002    1.993293599992368E-007
 -2.810000000000000E-002    2.059271331492453E-007
 -2.800000000000000E-002    2.117894076196666E-007
 -2.790000000000000E-002    2.173392218694809E-007
 -2.780000000000000E-002    2.229946599262712E-007
 -2.770000000000000E-002    2.291514234510843E-007
 -2.760000000000000E-002    2.361942855432479E-007
 -2.750000000000000E-002    2.445416865561340E-007
 -2.740000000000000E-002    2.547188919884603E-007
 -2.730000000000000E-002    2.674478453563568E-007
 -2.720000000000000E-002    2.837338850838331E-007
 -2.710000000000000E-002    3.049269996670724E-007
 -2.700000000000000E-002    3.327362790731623E-007
 -2.690000000000000E-002    3.691829833998438E-007
 -2.680000000000000E-002    4.164881838430579E-007
 -2.670000000000000E-002    4.769048060921236E-007
 -2.660000000000000E-002    5.525165789658230E-007
 -2.650000000000000E-002    6.450375233271978E-007
 -2.640000000000000E-002    7.556497560329836E-007
 -2.630000000000000E-002    8.849153763539387E-007
 -2.620000000000000E-002    1.032786869870496E-006
 -2.610000000000000E-002    1.198725471712030E-006
 -2.600000000000000E-002    1.381917489847250E-006
 -2.590000000000000E-002    1.581553927081541E-006
 -2.580000000000000E-002    1.797131755520525E-006
 -2.570000000000000E-002    2.028717771975528E-006
 -2.560000000000000E-002    2.277125825627274E-006
 -2.550000000000000E-002    2.543967097102154E-006
 -2.540000000000000E-002    2.831554273455727E-006
 -2.530000000000000E-002    3.142669534589278E-006
 -2.520000000000000E-002    3.480232695756733E-006
 -2.510000000000000E-002    3.846922657691496E-006
 -2.500000000000000E-002    4.244825622893917E-006
 -2.490000000000000E-002    4.675177035057578E-006
 -2.480000000000000E-002    5.138248141276525E-006
 -2.470000000000000E-002    5.633413814127021E-006
 -2.460000000000000E-002    6.159390795778254E-006
 -2.450000000000000E-002    6.714615409562456E-006
 -2.440000000000000E-002    7.297692467439493E-006
 -2.430000000000000E-002    7.907842987653865E-006
 -2.420000000000000E-002    8.545259534997340E-006
 -2.410000000000000E-002    9.211308331464038E-006
 -2.400000000000000E-002    9.908535712822405E-006
 -2.390000000000000E-002    1.064047584225672E-005
 -2.380000000000000E-002    1.141129534754308E-005
 -2.370000000000000E-002    1.222533536399467E-005
 -2.360000000000000E-002    1.308664551132256E-005
 -2.350000000000000E-002    1.399859016019316E-005
 -2.340000000000000E-002    1.496360781742538E-005
 -2.330000000000000E-002    1.598317025003779E-005
 -2.320000000000000E-002    1.705794285842478E-005
 -2.310000000000000E-002    1.818811930451569E-005
 -2.300000000000000E-002    1.937387111248411E-005
 -2.290000000000000E-002    2.061580326252825E-005
 -2.280000000000000E-002    2.191535232254287E-005
 -2.270000000000000E-002    2.327503116096776E-005
 -2.260000000000000E-002    2.469848514213325E-005
 -2.250000000000000E-002    2.619036023630192E-005
 -2.240000000000000E-002    2.775599520636407E-005
 -2.230000000000000E-002    2.940104777843877E-005
 -2.220000000000000E-002    3.113110430752502E-005
 -2.210000000000000E-002    3.295138184552843E-005
 -2.200000000000000E-002    3.486659299335805E-005
 -2.190000000000000E-002    3.688101375546174E-005
 -2.180000000000000E-002    3.899874205569171E-005
 -2.170000000000000E-002    4.122409735000049E-005
 -2.160000000000000E-002    4.356209726450612E-005
 -2.150000000000000E-002    4.601891312855625E-005
 -2.140000000000000E-002    4.860219126693056E-005
 -2.130000000000000E-002    5.132122217547237E-005
 -2.120000000000000E-002    5.418686604876601E-005
 -2.110000000000000E-002    5.721131509379538E-005
 -2.100000000000000E-002    6.040768371241991E-005
 -2.090000000000000E-002    6.378958139252366E-005
 -2.080000000000000E-002    6.737069378437506E-005
 -2.070000000000000E-002    7.116454792016304E-005
 -2.060000000000000E-002    7.518440252239654E-005
 -2.050000000000000E-002    7.944341248093150E-005
 -2.040000000000000E-002    8.395494183333068E-005
 -2.030000000000000E-002    8.873293697639677E-005
 -2.020000000000000E-002    9.379238652956520E-005
 -2.010000000000000E-002    9.914959942640158E-005
 -2.000000000000000E-002    1.048223639557639E-004
 -1.990000000000000E-002    1.108298540485412E-004
 -1.980000000000000E-002    1.171922989259630E-004
 -1.970000000000000E-002    1.239305285828273E-004
 -1.960000000000000E-002    1.310654398670641E-004
 -1.950000000000000E-002    1.386175235823779E-004
 -1.940000000000000E-002    1.466065789810105E-004
 -1.930000000000000E-002    1.550516723337813E-004
 -1.920000000000000E-002    1.639713642061229E-004
 -1.910000000000000E-002    1.733842790071443E-004
 -1.900000000000000E-002    1.833097534072963E-004
 -1.890000000000000E-002    1.937686158037587E-004
 -1.880000000000000E-002    2.047838180006194E-004
 -1.870000000000000E-002    2.163808383841499E-004
 -1.860000000000000E-002    2.285877697961789E-004
 -1.850000000000000E-002    2.414350417874743E-004
 -1.840000000000000E-002    2.549548227892439E-004
 -1.830000000000000E-002    2.691802386375060E-004
 -1.820000000000000E-002    2.841445898128885E-004
 -1.810000000000000E-002    2.998805408819023E-004
 -1.800000000000000E-002    3.164198628558200E-004
 -1.790000000000000E-002    3.337933191389467E-004
 -1.780000000000000E-002    3.520311642887191E-004
 -1.770000000000000E-002    3.711638410580109E-004
 -1.760000000000000E-002    3.912230252125500E-004
 -1.750000000000000E-002    4.122426204079188E-004
 -1.740000000000000E-002    4.342597615565451E-004
 -1.730000000000000E-002    4.573152491542358E-004
 -1.720000000000000E-002    4.814536396527985E-004
 -1.710000000000000E-002    5.067228933103905E-004
 -1.700000000000000E-002    5.331735958793319E-004
 -1.690000000000000E-002    5.608578992599819E-004
 -1.680000000000000E-002    5.898283275011441E-004
 -1.670000000000000E-002    6.201370221536166E-004
 -1.660000000000000E-002    6.518350277621384E-004
 -1.650000000000000E-002    6.849724994053858E-004
 -1.640000000000000E-002    7.195990945580359E-004
 -1.630000000000000E-002    7.557649969907893E-004
 -1.620000000000000E-002    7.935223697142005E-004
 -1.610000000000000E-002    8.329266539730350E-004
 -1.600000000000000E-002    8.740378344240391E-004
 -1.590000000000000E-002    9.169212297713404E-004
 -1.580000000000000E-002    9.616478360888079E-004
 -1.570000000000000E-002    1.008293985631828E-003
 -1.560000000000000E-002    1.056940505164340E-003
 -1.550000000000000E-002    1.107671583792060E-003
 -1.540000000000000E-002    1.160573382724335E-003
 -1.530000000000000E-002    1.215733052533009E-003
 -1.520000000000000E-002    1.273237889176242E-003
 -1.510000000000000E-002    1.333175274947868E-003
 -1.500000000000000E-002    1.395633277116795E-003
 -1.490000000000000E-002    1.460701370883958E-003
 -1.480000000000000E-002    1.528471945811963E-003
 -1.470000000000000E-002    1.599042009177550E-003
 -1.460000000000000E-002    1.672514245309951E-003
 -1.450000000000000E-002    1.748997937231873E-003
 -1.440000000000000E-002    1.828609457640409E-003
 -1.430000000000000E-002    1.911471832274533E-003
 -1.420000000000000E-002    1.997714072838211E-003
 -1.410000000000000E-002    2.087469479351577E-003
 -1.400000000000000E-002    2.180874641881222E-003
 -1.390000000000000E-002    2.278067965414212E-003
 -1.380000000000000E-002    2.379188813786093E-003
 -1.370000000000000E-002    2.484377235769816E-003
 -1.360000000000000E-002    2.593773881836391E-003
 -1.350000000000000E-002    2.707521543936497E-003
 -1.340000000000000E-002    2.825765914316845E-003
 -1.330000000000000E-002    2.948657300243913E-003
 -1.320000000000000E-002    3.076352110279245E-003
 -1.310000000000000E-002    3.209012949924483E-003
 -1.300000000000000E-002    3.346809950399341E-003
 -1.290000000000000E-002    3.489920044658503E-003
 -1.280000000000000E-002    3.638526582998168E-003
 -1.270000000000000E-002    3.792817629631359E-003
 -1.260000000000000E-002    3.952985350469291E-003
 -1.250000000000000E-002    4.119224195760426E-003
 -1.240000000000000E-002    4.291730173362386E-003
 -1.230000000000000E-002    4.470701454173161E-003
 -1.220000000000000E-002    4.656336677969483E-003
 -1.210000000000000E-002    4.848837657002728E-003
 -1.200000000000000E-002    5.048409830101432E-003
 -1.190000000000000E-002    5.255263115388818E-003
 -1.180000000000000E-002    5.469614330342162E-003
 -1.170000000000000E-002    5.691686316672093E-003
 -1.160000000000000E-002    5.921710201192894E-003
 -1.150000000000000E-002    6.159924022223400E-003
 -1.140000000000000E-002    6.406572883284882E-003
 -1.130000000000000E-002    6.661906768491133E-003
 -1.120000000000000E-002    6.926180708497783E-003
 -1.110000000000000E-002    7.199652499816090E-003
 -1.100000000000000E-002    7.482582125078433E-003
 -1.090000000000000E-002    7.775231735063901E-003
 -1.080000000000000E-002    8.077865174360920E-003
 -1.070000000000000E-002    8.390748402597799E-003
 -1.060000000000000E-002    8.714151120040359E-003
 -1.050000000000000E-002    9.048347202850160E-003
 -1.040000000000000E-002    9.393615875263725E-003
 -1.030000000000000E-002    9.750241870380441E-003
 -1.020000000000000E-002    1.011851671326325E-002
 -1.010000000000000E-002    1.049873786425461E-002
 -1.000000000000000E-002    1.089120808582383E-002
 -9.899999999999999E-003    1.129623635600129E-002
 -9.800000000000000E-003    1.171413504491416E-002
 -9.699999999999999E-003    1.214521868712367E-002
 -9.599999999999999E-003    1.258980491504237E-002
 -9.500000000000000E-003    1.304821302904208E-002
 -9.399999999999999E-003    1.352076263686313E-002
 -9.299999999999999E-003    1.400777562969081E-002
 -9.200000000000000E-003    1.450957650469336E-002
 -9.099999999999999E-003    1.502649296144300E-002
 -8.999999999999999E-003    1.555885332954177E-002
 -8.900000000000000E-003    1.610699303315415E-002
 -8.799999999999999E-003    1.667124944075703E-002
 -8.699999999999999E-003    1.725196474027092E-002
 -8.600000000000000E-003    1.784948215030333E-002
 -8.499999999999999E-003    1.846414900050314E-002
 -8.399999999999999E-003    1.909631528195115E-002
 -8.300000000000000E-003    1.974633123178750E-002
 -8.199999999999999E-003    2.041454577742129E-002
 -8.100000000000000E-003    2.110130889723014E-002
 -8.000000000000000E-003    2.180697008827115E-002
 -7.899999999999999E-003    2.253187506367685E-002
 -7.800000000000000E-003    2.327637149269913E-002
 -7.699999999999999E-003    2.404080263916464E-002
 -7.599999999999999E-003    2.482551225193680E-002
 -7.499999999999999E-003    2.563084344307669E-002
 -7.399999999999999E-003    2.645713540820910E-002
 -7.299999999999999E-003    2.730472551621681E-002
 -7.199999999999999E-003    2.817394996799998E-002
 -7.100000000000000E-003    2.906513740086070E-002
 -6.999999999999999E-003    2.997861727846115E-002
 -6.899999999999999E-003    3.091471229231335E-002
 -6.800000000000000E-003    3.187373661233087E-002
 -6.699999999999999E-003    3.285599958562853E-002
 -6.599999999999999E-003    3.386180291946452E-002
 -6.499999999999999E-003    3.489144209118313E-002
 -6.399999999999999E-003    3.594520005570461E-002
 -6.299999999999999E-003    3.702335444984819E-002
 -6.199999999999999E-003    3.812616969238533E-002
 -6.100000000000000E-003    3.925390512381675E-002
 -5.999999999999999E-003    4.040680605575923E-002
 -5.899999999999999E-003    4.158510400842932E-002
 -5.800000000000000E-003    4.278902341373106E-002
 -5.699999999999999E-003    4.401877537360914E-002
 -5.599999999999999E-003    4.527455519284686E-002
 -5.499999999999999E-003    4.655654489369732E-002
 -5.399999999999999E-003    4.786491184007003E-002
 -5.299999999999999E-003    4.919980926505807E-002
 -5.199999999999999E-003    5.056137348741037E-002
 -5.099999999999999E-003    5.194971635612644E-002
 -4.999999999999999E-003    5.336494010115436E-002
 -4.899999999999999E-003    5.480712530721966E-002
 -4.799999999999999E-003    5.627632674558267E-002
 -4.699999999999999E-003    5.777258078876702E-002
 -4.599999999999999E-003    5.929589540292377E-002
 -4.499999999999999E-003    6.084626061215097E-002
 -4.399999999999999E-003    6.242363971391188E-002
 -4.299999999999999E-003    6.402797443099019E-002
 -4.199999999999999E-003    6.565917329277882E-002
 -4.099999999999999E-003    6.731712187919872E-002
 -3.999999999999999E-003    6.900168178006864E-002
 -3.899999999999999E-003    7.071267937996335E-002
 -3.799999999999999E-003    7.244990536979760E-002
 -3.699999999999999E-003    7.421313431242305E-002
 -3.599999999999999E-003    7.600209142822636E-002
 -3.499999999999999E-003    7.781647145728163E-002
 -3.399999999999999E-003    7.965593480121358E-002
 -3.299999999999999E-003    8.152009994865710E-002
 -3.199999999999999E-003    8.340854661028474E-002
 -3.099999999999999E-003    8.532081159692560E-002
 -2.999999999999999E-003    8.725640447129446E-002
 -2.899999999999999E-003    8.921477477594765E-002
 -2.799999999999999E-003    9.119533961461271E-002
 -2.699999999999999E-003    9.319747121688493E-002
 -2.599999999999999E-003    9.522049712405939E-002
 -2.499999999999999E-003    9.726370247669974E-002
 -2.399999999999999E-003    9.932632656454540E-002
 -2.299999999999999E-003    0.101407554963301     
 -2.199999999999999E-003    0.103506517887150     
 -2.099999999999999E-003    0.105622302418984     
 -1.999999999999999E-003    0.107753939499402     
 -1.899999999999999E-003    0.109900397497636     
 -1.799999999999999E-003    0.112060587329222     
 -1.699999999999999E-003    0.114233365753381     
 -1.599999999999999E-003    0.116417529727084     
 -1.499999999999999E-003    0.118611817953573     
 -1.399999999999999E-003    0.120814906060306     
 -1.299999999999999E-003    0.123025414161589     
 -1.199999999999999E-003    0.125241904390644     
 -1.099999999999999E-003    0.127462865375304     
 -9.999999999999989E-004    0.129686737888794     
 -8.999999999999990E-004    0.131911877579942     
 -7.999999999999990E-004    0.134136582621247     
 -6.999999999999989E-004    0.136359085419577     
 -5.999999999999990E-004    0.138577530087457     
 -4.999999999999989E-004    0.140790001302984     
 -3.999999999999989E-004    0.142994503077432     
 -2.999999999999989E-004    0.145188972020601     
 -1.999999999999989E-004    0.147371251874440     
 -9.999999999999892E-005    0.149539145317864     
  1.084202172485504E-018    0.151690344256408     
  1.000000000000011E-004    0.153822501884050     
  2.000000000000011E-004    0.155933163699964     
  3.000000000000011E-004    0.158019828960550     
  4.000000000000011E-004    0.160079911328616     
  5.000000000000011E-004    0.162110732560355     
  6.000000000000011E-004    0.164109562581637     
  7.000000000000011E-004    0.166073552602512     
  8.000000000000011E-004    0.167999806962934     
  9.000000000000012E-004    0.169885327156540     
  1.000000000000001E-003    0.171727042878653     
  1.100000000000001E-003    0.173521800091375     
  1.200000000000001E-003    0.175266377664302     
  1.300000000000001E-003    0.176957458459302     
  1.400000000000001E-003    0.178591659244748     
  1.500000000000001E-003    0.180165510357054     
  1.600000000000001E-003    0.181675482608474     
  1.700000000000001E-003    0.183117957997449     
  1.800000000000001E-003    0.184489251587319     
  1.900000000000001E-003    0.185785602429106     
  2.000000000000001E-003    0.187003163836513     
  2.100000000000001E-003    0.188138035287190     
  2.200000000000001E-003    0.189186198798327     
  2.300000000000001E-003    0.190143606545540     
  2.400000000000001E-003    0.191006117882997     
  2.500000000000001E-003    0.191769524453375     
  2.600000000000001E-003    0.192429536571326     
  2.700000000000001E-003    0.192981827797255     
  2.800000000000001E-003    0.193421983334427     
  2.900000000000001E-003    0.193745554340802     
  3.000000000000001E-003    0.193948025184537     
  3.100000000000001E-003    0.194024828145759     
  3.200000000000001E-003    0.193971344808386     
  3.300000000000001E-003    0.193782894808153     
  3.400000000000001E-003    0.193454737301454     
  3.500000000000001E-003    0.192982110882182     
  3.600000000000001E-003    0.192360190486166     
  3.700000000000001E-003    0.191584118411454     
  3.800000000000001E-003    0.190649001130823     
  3.900000000000001E-003    0.189549903893125     
  4.000000000000001E-003    0.188281854846979     
  4.100000000000001E-003    0.186839885400221     
  4.200000000000001E-003    0.185219000244455     
  4.300000000000001E-003    0.183414187252636     
  4.400000000000001E-003    0.181420424221004     
  4.500000000000001E-003    0.179232692028296     
  4.600000000000002E-003    0.176845957691763     
  4.700000000000001E-003    0.174255204149165     
  4.800000000000001E-003    0.171455423089466     
  4.900000000000002E-003    0.168441611625517     
  5.000000000000001E-003    0.165208764686161     
  5.100000000000001E-003    0.161751941155620     
  5.200000000000001E-003    0.158066193520083     
  5.300000000000002E-003    0.154146635400953     
  5.400000000000001E-003    0.149988411006842     
  5.500000000000001E-003    0.145586719820192     
  5.600000000000002E-003    0.140936836467133     
  5.700000000000001E-003    0.136034081566493     
  5.800000000000001E-003    0.130873862923770     
  5.900000000000002E-003    0.125451658420187     
  6.000000000000001E-003    0.119763017445932     
  6.100000000000001E-003    0.113803591648518     
  6.200000000000002E-003    0.107569130639829     
  6.300000000000002E-003    0.101055485192120     
  6.400000000000001E-003    9.425861453901486E-002
  6.500000000000001E-003    8.717459335378208E-002
  6.600000000000002E-003    7.979963817143593E-002
  6.700000000000001E-003    7.213009383469141E-002
  6.800000000000001E-003    6.416246283371971E-002
  6.900000000000002E-003    5.589338705958797E-002
  7.000000000000001E-003    4.731969627118995E-002
  7.100000000000001E-003    3.843838018151464E-002
  7.200000000000002E-003    2.924660759575319E-002
  7.300000000000002E-003    1.974173864069934E-002
  7.400000000000001E-003    9.921322441803854E-003
  7.500000000000001E-003   -2.168897005900231E-004
  7.600000000000002E-003   -1.067492518755860E-002
  7.700000000000001E-003   -2.145461477095888E-002
  7.800000000000001E-003   -3.255755515476391E-002
  7.900000000000001E-003   -4.398508196267222E-002
  8.000000000000002E-003   -5.573832049691975E-002
  8.100000000000001E-003   -6.781811661935247E-002
  8.200000000000001E-003   -8.022505450589523E-002
  8.300000000000002E-003   -9.295944640984995E-002
  8.400000000000001E-003   -0.106021323017020     
  8.500000000000002E-003   -0.119410408832795     
  8.600000000000002E-003   -0.133126162068745     
  8.700000000000001E-003   -0.147167725753692     
  8.800000000000002E-003   -0.161533924700578     
  8.900000000000002E-003   -0.176223264799455     
  9.000000000000001E-003   -0.191233953044764     
  9.100000000000002E-003   -0.206563834668845     
  9.200000000000002E-003   -0.222210463610563     
  9.300000000000001E-003   -0.238170977466550     
  9.400000000000002E-003   -0.254442220304894     
  9.500000000000001E-003   -0.271020640864516     
  9.600000000000001E-003   -0.287902351711251     
  9.700000000000002E-003   -0.305083047286453     
  9.800000000000001E-003   -0.322558068569836     
  9.900000000000001E-003   -0.340322379788560     
  1.000000000000000E-002   -0.358370531783918     
  1.010000000000000E-002   -0.376696715155376     
  1.020000000000000E-002   -0.395294701042588     
  1.030000000000000E-002   -0.414157880661147     
  1.040000000000000E-002   -0.433279209531304     
  1.050000000000000E-002   -0.452651275894088     
  1.060000000000000E-002   -0.472266235808573     
  1.070000000000000E-002   -0.492115876153231     
  1.080000000000000E-002   -0.512191546228391     
  1.090000000000000E-002   -0.532484131007583     
  1.100000000000000E-002   -0.552984184581378     
  1.110000000000000E-002   -0.573681750968504     
  1.120000000000000E-002   -0.594566519564226     
  1.130000000000000E-002   -0.615627778633685     
  1.140000000000000E-002   -0.636854334878138     
  1.150000000000000E-002   -0.658234615914258     
  1.160000000000000E-002   -0.679756705017191     
  1.170000000000000E-002   -0.701408181918648     
  1.180000000000000E-002   -0.723176234770653     
  1.190000000000000E-002   -0.745047734918435     
  1.200000000000000E-002   -0.767009114425960     
  1.210000000000000E-002   -0.789046336949483     
  1.220000000000000E-002   -0.811145189052049     
  1.230000000000000E-002   -0.833290869549256     
  1.240000000000000E-002   -0.855468254719325     
  1.250000000000000E-002   -0.877661943834028     
  1.260000000000000E-002   -0.899856069025350     
  1.270000000000000E-002   -0.922034520992436     
  1.280000000000000E-002   -0.944180772091190     
  1.290000000000000E-002   -0.966278052574357     
  1.300000000000000E-002   -0.988309221156173     
  1.310000000000000E-002    -1.01025680558593     
  1.320000000000000E-002    -1.03210312497605     
  1.330000000000000E-002    -1.05383017070790     
  1.340000000000000E-002    -1.07541965943629     
  1.350000000000000E-002    -1.09685304766719     
  1.360000000000000E-002    -1.11811163125810     
  1.370000000000000E-002    -1.13917644657273     
  1.380000000000000E-002    -1.16002824480686     
  1.390000000000000E-002    -1.18064773072417     
  1.400000000000000E-002    -1.20101525888783     
  1.410000000000000E-002    -1.22111129646097     
  1.420000000000000E-002    -1.24091590224099     
  1.430000000000000E-002    -1.26040910430096     
  1.440000000000000E-002    -1.27957086404740     
  1.450000000000000E-002    -1.29838103366315     
  1.460000000000000E-002    -1.31681939888558     
  1.470000000000000E-002    -1.33486573071189     
  1.480000000000000E-002    -1.35249976972960     
  1.490000000000000E-002    -1.36970136468125     
  1.500000000000000E-002    -1.38645019787806     
  1.510000000000000E-002    -1.40272610399383     
  1.520000000000000E-002    -1.41850893751294     
  1.530000000000000E-002    -1.43377869169366     
  1.540000000000000E-002    -1.44851547811905     
  1.550000000000000E-002    -1.46269940983962     
  1.560000000000000E-002    -1.47631095878118     
  1.570000000000000E-002    -1.48933065404348     
  1.580000000000000E-002    -1.50173925467800     
  1.590000000000000E-002    -1.51351787058405     
  1.600000000000000E-002    -1.52464772194948     
  1.610000000000000E-002    -1.53511027837550     
  1.620000000000000E-002    -1.54488753812477     
  1.630000000000000E-002    -1.55396158646022     
  1.640000000000000E-002    -1.56231491269162     
  1.650000000000000E-002    -1.56993059481373     
  1.660000000000000E-002    -1.57679185291308     
  1.670000000000000E-002    -1.58288239432944     
  1.680000000000000E-002    -1.58818642050714     
  1.690000000000000E-002    -1.59268859224003     
  1.700000000000000E-002    -1.59637408067521     
  1.710000000000000E-002    -1.59922852381125     
  1.720000000000000E-002    -1.60123818106269     
  1.730000000000000E-002    -1.60238990045092     
  1.740000000000000E-002    -1.60267100188794     
  1.750000000000000E-002    -1.60206952157219     
  1.760000000000000E-002    -1.60057404509261     
  1.770000000000000E-002    -1.59817383769239     
  1.780000000000000E-002    -1.59485899048910     
  1.790000000000000E-002    -1.59062001733373     
  1.800000000000000E-002    -1.58544829917186     
  1.810000000000000E-002    -1.57933586847064     
  1.820000000000000E-002    -1.57227560150825     
  1.830000000000000E-002    -1.56426100869001     
  1.840000000000000E-002    -1.55528638110705     
  1.850000000000000E-002    -1.54534704011033     
  1.860000000000000E-002    -1.53443893393307     
  1.870000000000000E-002    -1.52255885520984     