 -4.000000000000000E-002    0.000000000000000E+000
 -3.990000000000000E-002    0.000000000000000E+000
 -3.980000000000000E-002    0.000000000000000E+000
 -3.970000000000000E-002    0.000000000000000E+000
 -3.960000000000000E-002    0.000000000000000E+000
 -3.950000000000000E-002    0.000000000000000E+000
 -3.940000000000000E-002    0.000000000000000E+000
 -3.930000000000000E-002    2.210712930132984E-025
 -3.920000000000000E-002    2.902209550763026E-024
 -3.910000000000000E-002    1.978862754211220E-023
 -3.900000000000000E-002    9.259799423790942E-023
 -3.890000000000000E-002    3.308353241500934E-022
 -3.880000000000000E-002    9.480532284583009E-022
 -3.870000000000000E-002    2.215051185413655E-021
 -3.860000000000000E-002    4.137671779944263E-021
 -3.850000000000000E-002    5.537970751784079E-021
 -3.840000000000000E-002    2.177991894885284E-021
 -3.830000000000000E-002   -1.617458764827153E-020
 -3.820000000000000E-002   -6.898857729746856E-020
 -3.810000000000000E-002   -1.860647537351756E-019
 -3.800000000000000E-002   -4.014750479011476E-019
 -3.790000000000000E-002   -7.325065427311449E-019
 -3.780000000000000E-002   -1.134172271588269E-018
 -3.770000000000000E-002   -1.422021148516006E-018
 -3.760000000000000E-002   -1.165192994062988E-018
 -3.750000000000000E-002    4.290262762486018E-019
 -3.740000000000000E-002    4.587552404090942E-018
 -3.730000000000000E-002    1.291122484751834E-017
 -3.720000000000000E-002    2.705706287103744E-017
 -3.710000000000000E-002    4.802403700841832E-017
 -3.700000000000000E-002    7.493508890715140E-017
 -3.690000000000000E-002    1.033131884321579E-016
 -3.680000000000000E-002    1.230471584171661E-016
 -3.670000000000000E-002    1.165318382519794E-016
 -3.660000000000000E-002    5.781256991514599E-017
 -3.650000000000000E-002   -8.611690507213658E-017
 -3.640000000000000E-002   -3.505504712290747E-016
 -3.630000000000000E-002   -7.636799779137492E-016
 -3.620000000000000E-002   -1.332055359390649E-015
 -3.610000000000000E-002   -2.021592787329593E-015
 -3.600000000000000E-002   -2.736636499327566E-015
 -3.590000000000000E-002   -3.301762212007555E-015
 -3.580000000000000E-002   -3.453185742371641E-015
 -3.570000000000000E-002   -2.848095455539668E-015
 -3.560000000000000E-002   -1.100282712922853E-015
 -3.550000000000000E-002    2.151832822239461E-015
 -3.540000000000000E-002    7.143710721044582E-015
 -3.530000000000000E-002    1.385659326399422E-014
 -3.520000000000000E-002    2.187982596111893E-014
 -3.510000000000000E-002    3.029140765129876E-014
 -3.500000000000000E-002    3.759352497628676E-014
 -3.490000000000000E-002    4.174401490544517E-014
 -3.480000000000000E-002    4.032076169622932E-014
 -3.470000000000000E-002    3.084165080697569E-014
 -3.460000000000000E-002    1.123710181640648E-014
 -3.450000000000000E-002   -1.956331989600836E-014
 -3.440000000000000E-002   -6.100955192209168E-014
 -3.430000000000000E-002   -1.103927438530857E-013
 -3.420000000000000E-002   -1.625343690584748E-013
 -3.410000000000000E-002   -2.098514636584055E-013
 -3.400000000000000E-002   -2.429188495195635E-013
 -3.390000000000000E-002   -2.515864455808488E-013
 -3.380000000000000E-002   -2.266109101175650E-013
 -3.370000000000000E-002   -1.616387458219026E-013
 -3.360000000000000E-002   -5.525083115930594E-014
 -3.350000000000000E-002    8.732818133545757E-014
 -3.340000000000000E-002    2.533075000559961E-013
 -3.330000000000000E-002    4.226218057485478E-013
 -3.320000000000000E-002    5.697424231444098E-013
 -3.310000000000000E-002    6.670880924439006E-013
 -3.300000000000000E-002    6.898086008966736E-013
 -3.290000000000000E-002    6.213612937452231E-013
 -3.280000000000000E-002    4.589688929300754E-013
 -3.270000000000000E-002    2.178053038829433E-013
 -3.260000000000000E-002   -6.731192705554826E-014
 -3.250000000000000E-002   -3.437847794140488E-013
 -3.240000000000000E-002   -5.472926958191973E-013
 -3.230000000000000E-002   -6.120184288266794E-013
 -3.220000000000000E-002   -4.841739659379224E-013
 -3.210000000000000E-002   -1.370622049856037E-013
 -3.200000000000000E-002    4.148651564727803E-013
 -3.190000000000000E-002    1.105987316814850E-012
 -3.180000000000000E-002    1.816585743251938E-012
 -3.170000000000000E-002    2.379514746617777E-012
 -3.160000000000000E-002    2.597811754181209E-012
 -3.150000000000000E-002    2.272906711303050E-012
 -3.140000000000000E-002    1.241053618670231E-012
 -3.130000000000000E-002   -5.864350119971641E-013
 -3.120000000000000E-002   -3.185312872265463E-012
 -3.110000000000000E-002   -6.390025231449047E-012
 -3.100000000000000E-002   -9.881955756934079E-012
 -3.090000000000000E-002   -1.320010654160789E-011
 -3.080000000000000E-002   -1.577748326393103E-011
 -3.070000000000000E-002   -1.700283977018230E-011
 -3.060000000000000E-002   -1.630320584137148E-011
 -3.050000000000000E-002   -1.323836175771007E-011
 -3.040000000000000E-002   -7.594859165025330E-012
 -3.030000000000000E-002    5.349609782742155E-013
 -3.020000000000000E-002    1.070370168071341E-011
 -3.010000000000000E-002    2.210199497226337E-011
 -3.000000000000000E-002    3.360207107452316E-011
 -2.990000000000000E-002    4.385357738700756E-011
 -2.980000000000000E-002    5.142583823132141E-011
 -2.970000000000000E-002    5.498297744449260E-011
 -2.960000000000000E-002    5.347163045358468E-011
 -2.950000000000000E-002    4.629645852694195E-011
 -2.940000000000000E-002    3.345716221843262E-011
 -2.930000000000000E-002    1.562307998765543E-011
 -2.920000000000000E-002   -5.872601390832463E-012
 -2.910000000000000E-002   -2.912761928866641E-011
 -2.900000000000000E-002   -5.185148670512914E-011
 -2.890000000000000E-002   -7.161708520776786E-011
 -2.880000000000000E-002   -8.615615948774494E-011
 -2.870000000000000E-002   -9.366285108352039E-011
 -2.860000000000000E-002   -9.306459415868353E-011
 -2.850000000000000E-002   -8.421970712986677E-011
 -2.840000000000000E-002   -6.800694204597462E-011
 -2.830000000000000E-002   -4.628307245612926E-011
 -2.820000000000000E-002   -2.170036951043415E-011
 -2.810000000000000E-002    2.606207488293423E-012
 -2.800000000000000E-002    2.343307136416408E-011
 -2.790000000000000E-002    3.797694449661403E-011
 -2.780000000000000E-002    4.429908396384394E-011
 -2.770000000000000E-002    4.171786316097019E-011
 -2.760000000000000E-002    3.106396064639979E-011
 -2.750000000000000E-002    1.474208807093247E-011
 -2.740000000000000E-002   -3.437852270607327E-012
 -2.730000000000000E-002   -1.867046315329712E-011
 -2.720000000000000E-002   -2.578326076242114E-011
 -2.710000000000000E-002   -2.002686879631975E-011
 -2.700000000000000E-002    2.062610471565022E-012
 -2.690000000000000E-002    4.184434692808020E-011
 -2.680000000000000E-002    9.792575147626157E-011
 -2.670000000000000E-002    1.658143518788227E-010
 -2.660000000000000E-002    2.379740919298646E-010
 -2.650000000000000E-002    3.043507520154938E-010
 -2.640000000000000E-002    3.533733252190338E-010
 -2.630000000000000E-002    3.733681414768510E-010
 -2.620000000000000E-002    3.542495356331246E-010
 -2.610000000000000E-002    2.892841655134575E-010
 -2.600000000000000E-002    1.766796179734104E-010
 -2.590000000000000E-002    2.072903533614736E-011
 -2.580000000000000E-002   -1.677343727094317E-010
 -2.570000000000000E-002   -3.717573872543851E-010
 -2.560000000000000E-002   -5.696429798535535E-010
 -2.550000000000000E-002   -7.372308413579074E-010
 -2.540000000000000E-002   -8.508841805273420E-010
 -2.530000000000000E-002   -8.908422415414385E-010
 -2.520000000000000E-002   -8.444902635866167E-010
 -2.510000000000000E-002   -7.090403454751107E-010
 -2.500000000000000E-002   -4.931342174093767E-010
 -2.490000000000000E-002   -2.169730705771749E-010
 -2.480000000000000E-002    8.924586941299532E-011
 -2.470000000000000E-002    3.885729723575838E-010
 -2.460000000000000E-002    6.419513154127172E-010
 -2.450000000000000E-002    8.137256894986740E-010
 -2.440000000000000E-002    8.772725954104275E-010
 -2.430000000000000E-002    8.198908195585919E-010
 -2.420000000000000E-002    6.461024494443293E-010
 -2.410000000000000E-002    3.786607628102962E-010
 -2.400000000000000E-002    5.684029716247424E-011
 -2.390000000000000E-002   -2.680321409839659E-010
 -2.380000000000000E-002   -5.394121541908289E-010
 -2.370000000000000E-002   -7.039198022023726E-010
 -2.360000000000000E-002   -7.201133964374594E-010
 -2.350000000000000E-002   -5.663072559472554E-010
 -2.340000000000000E-002   -2.460929322329158E-010
 -2.330000000000000E-002    2.095491497423003E-010
 -2.320000000000000E-002    7.442321032667574E-010
 -2.310000000000000E-002    1.282336705930747E-009
 -2.300000000000000E-002    1.738812278385949E-009
 -2.290000000000000E-002    2.031406319737035E-009
 -2.280000000000000E-002    2.093618356984160E-009
 -2.270000000000000E-002    1.886402720090253E-009
 -2.260000000000000E-002    1.406662994962455E-009
 -2.250000000000000E-002    6.909207286334149E-010
 -2.240000000000000E-002   -1.868300956933345E-010
 -2.230000000000000E-002   -1.123226139739665E-009
 -2.220000000000000E-002   -1.998802495782385E-009
 -2.210000000000000E-002   -2.694745792479712E-009
 -2.200000000000000E-002   -3.110765887351074E-009
 -2.190000000000000E-002   -3.181366101554585E-009
 -2.180000000000000E-002   -2.887839480802660E-009
 -2.170000000000000E-002   -2.263809864538460E-009
 -2.160000000000000E-002   -1.393002752980258E-009
 -2.150000000000000E-002   -3.990795580490275E-010
 -2.140000000000000E-002    5.713888922773799E-010
 -2.130000000000000E-002    1.370574063692107E-009
 -2.120000000000000E-002    1.872555444154818E-009
 -2.110000000000000E-002    1.994457167673587E-009
 -2.100000000000000E-002    1.712112935919242E-009
 -2.090000000000000E-002    1.067477619109003E-009
 -2.080000000000000E-002    1.661316912252104E-010
 -2.070000000000000E-002   -8.353088972112935E-010
 -2.060000000000000E-002   -1.750502228609057E-009
 -2.050000000000000E-002   -2.390597007600893E-009
 -2.040000000000000E-002   -2.593477414280617E-009
 -2.030000000000000E-002   -2.250653439865507E-009
 -2.020000000000000E-002   -1.327550722834198E-009
 -2.010000000000000E-002    1.262209909269763E-010
 -2.000000000000000E-002    1.978670485001702E-009
 -1.990000000000000E-002    4.029583814347462E-009
 -1.980000000000000E-002    6.035466030320628E-009
 -1.970000000000000E-002    7.741980094290661E-009
 -1.960000000000000E-002    8.919346776999859E-009
 -1.950000000000000E-002    9.395546750129863E-009
 -1.940000000000000E-002    9.082309050181809E-009
 -1.930000000000000E-002    7.989794146959913E-009
 -1.920000000000000E-002    6.227420734252687E-009
 -1.910000000000000E-002    3.990278751155386E-009
 -1.900000000000000E-002    1.532701408517320E-009
 -1.890000000000000E-002   -8.674730602329176E-010
 -1.880000000000000E-002   -2.948933135921389E-009
 -1.870000000000000E-002   -4.505394839782164E-009
 -1.860000000000000E-002   -5.416801261287839E-009
 -1.850000000000000E-002   -5.668300765913841E-009
 -1.840000000000000E-002   -5.353708518561055E-009
 -1.830000000000000E-002   -4.662259342959639E-009
 -1.820000000000000E-002   -3.849799350875235E-009
 -1.810000000000000E-002   -3.197787644484520E-009
 -1.800000000000000E-002   -2.965274274844436E-009
 -1.790000000000000E-002   -3.340145562606801E-009
 -1.780000000000000E-002   -4.396180579709665E-009
 -1.770000000000000E-002   -6.061826428688123E-009
 -1.760000000000000E-002   -8.105127837002520E-009
 -1.750000000000000E-002   -1.013714490378049E-008
 -1.740000000000000E-002   -1.163368889823981E-008
 -1.730000000000000E-002   -1.197270024434388E-008
 -1.720000000000000E-002   -1.048236490966763E-008
 -1.710000000000000E-002   -6.493442035785537E-009
 -1.700000000000000E-002    6.114918047427922E-010
 -1.690000000000000E-002    1.135900586144187E-008
 -1.680000000000000E-002    2.616190991325658E-008
 -1.670000000000000E-002    4.531644577911825E-008
 -1.660000000000000E-002    6.902081634968973E-008
 -1.650000000000000E-002    9.741350159537908E-008
 -1.640000000000000E-002    1.306267019049431E-007
 -1.630000000000000E-002    1.688483290705469E-007
 -1.620000000000000E-002    2.123839209477311E-007
 -1.610000000000000E-002    2.617096939648635E-007
 -1.600000000000000E-002    3.175085614935888E-007
 -1.590000000000000E-002    3.806829115335597E-007
 -1.580000000000000E-002    4.523408007419210E-007
 -1.570000000000000E-002    5.337553851626578E-007
 -1.560000000000000E-002    6.263020306063630E-007
 -1.550000000000000E-002    7.313801741063787E-007
 -1.540000000000000E-002    8.503293693174411E-007
 -1.530000000000000E-002    9.843520625728264E-007
 -1.520000000000000E-002    1.134453119096896E-006
 -1.510000000000000E-002    1.301406077713082E-006
 -1.500000000000000E-002    1.485752648673391E-006
 -1.490000000000000E-002    1.687836923464145E-006
 -1.480000000000000E-002    1.907872400205237E-006
 -1.470000000000000E-002    2.146032481217025E-006
 -1.460000000000000E-002    2.402555836532326E-006
 -1.450000000000000E-002    2.677849558355645E-006
 -1.440000000000000E-002    2.972577681500281E-006
 -1.430000000000000E-002    3.287722209361539E-006
 -1.420000000000000E-002    3.624604951607336E-006
 -1.410000000000000E-002    3.984869457610639E-006
 -1.400000000000000E-002    4.370421373444532E-006
 -1.390000000000000E-002    4.783337014493417E-006
 -1.380000000000000E-002    5.225750678930783E-006
 -1.370000000000000E-002    5.699739922458282E-006
 -1.360000000000000E-002    6.207223583105939E-006
 -1.350000000000000E-002    6.749892185307955E-006
 -1.340000000000000E-002    7.329175787756235E-006
 -1.330000000000000E-002    7.946268290468924E-006
 -1.320000000000000E-002    8.602191472113911E-006
 -1.310000000000000E-002    9.297906388036423E-006
 -1.300000000000000E-002    1.003444943373532E-005
 -1.290000000000000E-002    1.081307850124089E-005
 -1.280000000000000E-002    1.163540843589154E-005
 -1.270000000000000E-002    1.250351739017593E-005
 -1.260000000000000E-002    1.342000903641447E-005
 -1.250000000000000E-002    1.438802953532837E-005
 -1.240000000000000E-002    1.541122024702563E-005
 -1.230000000000000E-002    1.649363795905324E-005
 -1.220000000000000E-002    1.763963370001775E-005
 -1.210000000000000E-002    1.885372596830139E-005
 -1.200000000000000E-002    2.014046824822912E-005
 -1.190000000000000E-002    2.150435784676897E-005
 -1.180000000000000E-002    2.294976549785279E-005
 -1.170000000000000E-002    2.448092453139184E-005
 -1.160000000000000E-002    2.610196705098301E-005
 -1.150000000000000E-002    2.781699997548593E-005
 -1.140000000000000E-002    2.963021910247335E-005
 -1.130000000000000E-002    3.154602666071605E-005
 -1.120000000000000E-002    3.356915235566573E-005
 -1.110000000000000E-002    3.570475183112287E-005
 -1.100000000000000E-002    3.795847890625717E-005
 -1.090000000000000E-002    4.033650795516614E-005
 -1.080000000000000E-002    4.284552767813417E-005
 -1.070000000000000E-002    4.549270182081419E-005
 -1.060000000000000E-002    4.828560082093976E-005
 -1.050000000000000E-002    5.123214825796640E-005
 -1.040000000000000E-002    5.434055799689775E-005
 -1.030000000000000E-002    5.761930159350708E-005
 -1.020000000000000E-002    6.107711997789354E-005
 -1.010000000000000E-002    6.472305940791936E-005
 -1.000000000000000E-002    6.856654473997415E-005
 -9.899999999999999E-003    7.261747172392891E-005
 -9.800000000000000E-003    7.688631867362321E-005
 -9.699999999999999E-003    8.138424695127732E-005
 -9.599999999999999E-003    8.612317679043788E-005
 -9.500000000000000E-003    9.111586493038210E-005
 -9.399999999999999E-003    9.637587960733654E-005
 -9.299999999999999E-003    1.019175960181891E-004
 -9.200000000000000E-003    1.077561347193239E-004
 -9.099999999999999E-003    1.139072521968960E-004
 -8.999999999999999E-003    1.203872535273593E-004
 -8.900000000000000E-003    1.272129028400523E-004
 -8.799999999999999E-003    1.344013328655330E-004
 -8.699999999999999E-003    1.419700127493287E-004
 -8.600000000000000E-003    1.499367642521528E-004
 -8.499999999999999E-003    1.583198062033155E-004
 -8.399999999999999E-003    1.671378861587960E-004
 -8.300000000000000E-003    1.764104180907312E-004
 -8.199999999999999E-003    1.861576460343816E-004
 -8.100000000000000E-003    1.964008578936160E-004
 -8.000000000000000E-003    2.071625162532125E-004
 -7.899999999999999E-003    2.184664728095104E-004
 -7.800000000000000E-003    2.303380371182335E-004
 -7.699999999999999E-003    2.428040265245778E-004
 -7.599999999999999E-003    2.558928127954069E-004
 -7.499999999999999E-003    2.696342233175035E-004
 -7.399999999999999E-003    2.840594902574563E-004
 -7.299999999999999E-003    2.992011315280411E-004
 -7.199999999999999E-003    3.150927460860746E-004
 -7.100000000000000E-003    3.317689984478144E-004
 -6.999999999999999E-003    3.492654300581105E-004
 -6.899999999999999E-003    3.676185014482769E-004
 -6.800000000000000E-003    3.868655286817322E-004
 -6.699999999999999E-003    4.070447573887666E-004
 -6.599999999999999E-003    4.281955417691805E-004
 -6.499999999999999E-003    4.503584513279138E-004
 -6.399999999999999E-003    4.735755725708207E-004
 -6.299999999999999E-003    4.978906636719028E-004
 -6.199999999999999E-003    5.233494166419356E-004
 -6.100000000000000E-003    5.499996478411539E-004
 -5.999999999999999E-003    5.778913438436754E-004
 -5.899999999999999E-003    6.070769188085544E-004
 -5.800000000000000E-003    6.376110790604724E-004
 -5.699999999999999E-003    6.695508826390171E-004
 -5.599999999999999E-003    7.029555004708509E-004
 -5.499999999999999E-003    7.378863405185559E-004
 -5.399999999999999E-003    7.744066704047487E-004
 -5.299999999999999E-003    8.125817263447050E-004
 -5.199999999999999E-003    8.524784668314346E-004
 -5.099999999999999E-003    8.941657496035373E-004
 -4.999999999999999E-003    9.377140860298199E-004
 -4.899999999999999E-003    9.831958917399682E-004
 -4.799999999999999E-003    1.030685673227463E-003
 -4.699999999999999E-003    1.080260048374018E-003
 -4.599999999999999E-003    1.131997965440204E-003
 -4.499999999999999E-003    1.185980766720087E-003
 -4.399999999999999E-003    1.242292613378147E-003
 -4.299999999999999E-003    1.301020448003627E-003
 -4.199999999999999E-003    1.362253946163519E-003
 -4.099999999999999E-003    1.426085724857975E-003
 -3.999999999999999E-003    1.492611460736378E-003
 -3.899999999999999E-003    1.561929674602341E-003
 -3.799999999999999E-003    1.634141914112128E-003
 -3.699999999999999E-003    1.709352692296491E-003
 -3.599999999999999E-003    1.787669218210188E-003
 -3.499999999999999E-003    1.869202169932580E-003
 -3.399999999999999E-003    1.954064988714721E-003
 -3.299999999999999E-003    2.042374188495589E-003
 -3.199999999999999E-003    2.134249408566737E-003
 -3.099999999999999E-003    2.229813699435910E-003
 -2.999999999999999E-003    2.329192917600836E-003
 -2.899999999999999E-003    2.432516501418959E-003
 -2.799999999999999E-003    2.539916898970113E-003
 -2.699999999999999E-003    2.651529953795384E-003
 -2.599999999999999E-003    2.767494368747713E-003
 -2.499999999999999E-003    2.887952584094899E-003
 -2.399999999999999E-003    3.013049651902372E-003
 -2.299999999999999E-003    3.142934292376809E-003
 -2.199999999999999E-003    3.277758034197465E-003
 -2.099999999999999E-003    3.417675949711627E-003
 -1.999999999999999E-003    3.562846068440901E-003
 -1.899999999999999E-003    3.713430432705998E-003
 -1.799999999999999E-003    3.869593991863000E-003
 -1.699999999999999E-003    4.031504880304146E-003
 -1.599999999999999E-003    4.199335409299099E-003
 -1.499999999999999E-003    4.373260847101932E-003
 -1.399999999999999E-003    4.553460136040041E-003
 -1.299999999999999E-003    4.740115458352092E-003
 -1.199999999999999E-003    4.933412432469950E-003
 -1.099999999999999E-003    5.133539685302870E-003
 -9.999999999999989E-004    5.340689524345642E-003
 -8.999999999999990E-004    5.555056233577477E-003
 -7.999999999999990E-004    5.776838195896075E-003
 -6.999999999999989E-004    6.006235648204874E-003
 -5.999999999999990E-004    6.243452316368074E-003
 -4.999999999999989E-004    6.488695082259857E-003
 -3.999999999999989E-004    6.742173216073188E-003
 -2.999999999999989E-004    7.004098932966538E-003
 -1.999999999999989E-004    7.274687195237132E-003
 -9.999999999999892E-005    7.554155922254846E-003
  1.084202172485504E-018    7.842725532568869E-003
  1.000000000000011E-004    8.140618290701835E-003
  2.000000000000011E-004    8.448058872284109E-003
  3.000000000000011E-004    8.765274739469473E-003
  4.000000000000011E-004    9.092494712154160E-003
  5.000000000000011E-004    9.429948345229578E-003
  6.000000000000011E-004    9.777867832466312E-003
  7.000000000000011E-004    1.013648508968215E-002
  8.000000000000011E-004    1.050603323260008E-002
  9.000000000000012E-004    1.088674633544393E-002
  1.000000000000001E-003    1.127885816860981E-002
  1.100000000000001E-003    1.168260315948882E-002
  1.200000000000001E-003    1.209821450391691E-002
  1.300000000000001E-003    1.252592620069331E-002
  1.400000000000001E-003    1.296597140223277E-002
  1.500000000000001E-003    1.341858266851245E-002
  1.600000000000001E-003    1.388399201891899E-002
  1.700000000000001E-003    1.436243026843620E-002
  1.800000000000001E-003    1.485412844917358E-002
  1.900000000000001E-003    1.535931426095745E-002
  2.000000000000001E-003    1.587821595868061E-002
  2.100000000000001E-003    1.641106152955520E-002
  2.200000000000001E-003    1.695807157557331E-002
  2.300000000000001E-003    1.751946950304580E-002
  2.400000000000001E-003    1.809547053509950E-002
  2.500000000000001E-003    1.868628981257614E-002
  2.600000000000001E-003    1.929213658234729E-002
  2.700000000000001E-003    1.991321560467181E-002
  2.800000000000001E-003    2.054972452324302E-002
  2.900000000000001E-003    2.120185624938425E-002
  3.000000000000001E-003    2.186979736284778E-002
  3.100000000000001E-003    2.255372551680864E-002
  3.200000000000001E-003    2.325381301887536E-002
  3.300000000000001E-003    2.397022393537647E-002
  3.400000000000001E-003    2.470311412119533E-002
  3.500000000000001E-003    2.545263103318280E-002
  3.600000000000001E-003    2.621891346887251E-002
  3.700000000000001E-003    2.700209005618394E-002
  3.800000000000001E-003    2.780228148387855E-002
  3.900000000000001E-003    2.861959459681048E-002
  4.000000000000001E-003    2.945413205323999E-002
  4.100000000000001E-003    3.030597820522664E-002
  4.200000000000001E-003    3.117520579275822E-002
  4.300000000000001E-003    3.206187786673681E-002
  4.400000000000001E-003    3.296604205264989E-002
  4.500000000000001E-003    3.388773420316505E-002
  4.600000000000002E-003    3.482697334170955E-002
  4.700000000000001E-003    3.578376394697065E-002
  4.800000000000001E-003    3.675809704948545E-002
  4.900000000000002E-003    3.774994937958176E-002
  5.000000000000001E-003    3.875927304347345E-002
  5.100000000000001E-003    3.978600945519140E-002
  5.200000000000001E-003    4.083008166679600E-002
  5.300000000000002E-003    4.189138826643747E-002
  5.400000000000001E-003    4.296981429111602E-002
  5.500000000000001E-003    4.406521867050675E-002
  5.600000000000002E-003    4.517744199851655E-002
  5.700000000000001E-003    4.630630502645375E-002
  5.800000000000001E-003    4.745160050441965E-002
  5.900000000000002E-003    4.861309939798496E-002
  6.000000000000001E-003    4.979054948977883E-002
  6.100000000000001E-003    5.098367332849041E-002
  6.200000000000002E-003    5.219217408347407E-002
  6.300000000000002E-003    5.341572290247727E-002
  6.400000000000001E-003    5.465396810865770E-002
  6.500000000000001E-003    5.590653516839666E-002
  6.600000000000002E-003    5.717301653500292E-002
  6.700000000000001E-003    5.845298515918923E-002
  6.800000000000001E-003    5.974597641813939E-002
  6.900000000000002E-003    6.105150241429239E-002
  7.000000000000001E-003    6.236904002701642E-002
  7.100000000000001E-003    6.369804370887935E-002
  7.200000000000002E-003    6.503794229975876E-002
  7.300000000000002E-003    6.638811227574204E-002
  7.400000000000001E-003    6.774791916291127E-002
  7.500000000000001E-003    6.911668238710297E-002
  7.600000000000002E-003    7.049369946042806E-002
  7.700000000000001E-003    7.187822838825146E-002
  7.800000000000001E-003    7.326949790142862E-002
  7.900000000000001E-003    7.466670353314804E-002
  8.000000000000002E-003    7.606901309536607E-002
  8.100000000000001E-003    7.747555387206870E-002
  8.200000000000001E-003    7.888541382394687E-002
  8.300000000000002E-003    8.029765971117434E-002
  8.400000000000001E-003    8.171130952191903E-002
  8.500000000000002E-003    8.312535189948905E-002
  8.600000000000002E-003    8.453874614051940E-002
  8.700000000000001E-003    8.595040261239141E-002
  8.800000000000002E-003    8.735920731429125E-002
  8.900000000000002E-003    8.876400664611102E-002
  9.000000000000001E-003    9.016361572419880E-002
  9.100000000000002E-003    9.155680584550198E-002
  9.200000000000002E-003    9.294231670638199E-002
  9.300000000000001E-003    9.431886123345334E-002
  9.400000000000002E-003    9.568510828332430E-002
  9.500000000000001E-003    9.703969786543738E-002
  9.600000000000001E-003    9.838123493057137E-002
  9.700000000000002E-003    9.970828776919052E-002
  9.800000000000001E-003    0.101019399586866     
  9.900000000000001E-003    0.102313065253506     
  1.000000000000000E-002    0.103587767321544     
  1.010000000000000E-002    0.104841939443536     
  1.020000000000000E-002    0.106074001316732     
  1.030000000000000E-002    0.107282331543476     
  1.040000000000000E-002    0.108465274323589     
  1.050000000000000E-002    0.109621161213719     
  1.060000000000000E-002    0.110748283446440     
  1.070000000000000E-002    0.111844907255607     
  1.080000000000000E-002    0.112909276087035     
  1.090000000000000E-002    0.113939605615762     
  1.100000000000000E-002    0.114934081898322     
  1.110000000000000E-002    0.115890876581158     
  1.120000000000000E-002    0.116808138239034     
  1.130000000000000E-002    0.117683985884594     
  1.140000000000000E-002    0.118516526965475     
  1.150000000000000E-002    0.119303851978414     
  1.160000000000000E-002    0.120044027424111     
  1.170000000000000E-002    0.120735113955480     
  1.180000000000000E-002    0.121375150277710     
  1.190000000000000E-002    0.121962167834817     
  1.200000000000000E-002    0.122494187208789     
  1.210000000000000E-002    0.122969221398549     
  1.220000000000000E-002    0.123385280861605     
  1.230000000000000E-002    0.123740374013316     
  1.240000000000000E-002    0.124032488792458     
  1.250000000000000E-002    0.124259634688015     
  1.260000000000000E-002    0.124419796360813     
  1.270000000000000E-002    0.124510980994558     
  1.280000000000000E-002    0.124531193890107     
  1.290000000000000E-002    0.124478449199339     
  1.300000000000000E-002    0.124350758801175     
  1.310000000000000E-002    0.124146168463766     
  1.320000000000000E-002    0.123862715458648     
  1.330000000000000E-002    0.123498468251998     
  1.340000000000000E-002    0.123051509888417     
  1.350000000000000E-002    0.122519937498436     
  1.360000000000000E-002    0.121901883112831     
  1.370000000000000E-002    0.121195495415704     
  1.380000000000000E-002    0.120398950716289     
  1.390000000000000E-002    0.119510460105066     
  1.400000000000000E-002    0.118528262477375     
  1.410000000000000E-002    0.117450625360293     
  1.420000000000000E-002    0.116275869687039     
  1.430000000000000E-002    0.115002340946253     
  1.440000000000000E-002    0.113628439480545     
  1.450000000000000E-002    0.112152601127598     
  1.460000000000000E-002    0.110573309841289     
  1.470000000000000E-002    0.108889104603306     
  1.480000000000000E-002    0.107098573029575     
  1.490000000000000E-002    0.105200368091951     
  1.500000000000000E-002    0.103193191968660     
  1.510000000000000E-002    0.101075803337692     
  1.520000000000000E-002    9.884703458814573E-002
  1.530000000000000E-002    9.650577108913033E-002
  1.540000000000000E-002    9.405097789035917E-002
  1.550000000000000E-002    9.148167497350870E-002
  1.560000000000000E-002    8.879696157795833E-002
  1.570000000000000E-002    8.599602059299724E-002
  1.580000000000000E-002    8.307809017699967E-002
  1.590000000000000E-002    8.004250348138922E-002
  1.600000000000000E-002    7.688867244890404E-002
  1.610000000000000E-002    7.361608489152979E-002
  1.620000000000000E-002    7.022432199698732E-002
  1.630000000000000E-002    6.671304937932608E-002
  1.640000000000000E-002    6.308202292740203E-002
  1.650000000000000E-002    5.933109207601808E-002
  1.660000000000000E-002    5.546019412319447E-002
  1.670000000000000E-002    5.146935849032958E-002
  1.680000000000000E-002    4.735871919945862E-002
  1.690000000000000E-002    4.312850134057156E-002
  1.700000000000000E-002    3.877902617656988E-002
  1.710000000000000E-002    3.431072132999741E-002
  1.720000000000000E-002    2.972411306696814E-002
  1.730000000000000E-002    2.501982981794150E-002
  1.740000000000000E-002    2.019860586704229E-002
  1.750000000000000E-002    1.526127972774427E-002
  1.760000000000000E-002    1.020879528393162E-002
  1.770000000000000E-002    5.042203779949984E-003
  1.780000000000000E-002   -2.373361850660869E-004
  1.790000000000000E-002   -5.628558723316760E-003
  1.800000000000000E-002   -1.113009233640865E-002
  1.810000000000000E-002   -1.674045582007352E-002
  1.820000000000000E-002   -2.245806061031691E-002
  1.830000000000000E-002   -2.828120825083263E-002
  1.840000000000000E-002   -3.420809658243705E-002
  1.850000000000000E-002   -4.023681002384397E-002
  1.860000000000000E-002   -4.636533696920048E-002
  1.870000000000000E-002   -5.259154751588071E-002