 -4.000000000000000E-002    0.000000000000000E+000
 -3.990000000000000E-002    0.000000000000000E+000
 -3.980000000000000E-002    0.000000000000000E+000
 -3.970000000000000E-002    0.000000000000000E+000
 -3.960000000000000E-002    0.000000000000000E+000
 -3.950000000000000E-002    0.000000000000000E+000
 -3.940000000000000E-002    0.000000000000000E+000
 -3.930000000000000E-002    0.000000000000000E+000
 -3.920000000000000E-002    0.000000000000000E+000
 -3.910000000000000E-002    0.000000000000000E+000
 -3.900000000000000E-002    0.000000000000000E+000
 -3.890000000000000E-002    0.000000000000000E+000
 -3.880000000000000E-002    0.000000000000000E+000
 -3.870000000000000E-002    0.000000000000000E+000
 -3.860000000000000E-002    0.000000000000000E+000
 -3.850000000000000E-002    0.000000000000000E+000
 -3.840000000000000E-002    0.000000000000000E+000
 -3.830000000000000E-002    0.000000000000000E+000
 -3.820000000000000E-002    0.000000000000000E+000
 -3.810000000000000E-002    0.000000000000000E+000
 -3.800000000000000E-002    0.000000000000000E+000
 -3.790000000000000E-002    0.000000000000000E+000
 -3.780000000000000E-002    0.000000000000000E+000
 -3.770000000000000E-002    0.000000000000000E+000
 -3.760000000000000E-002    0.000000000000000E+000
 -3.750000000000000E-002    0.000000000000000E+000
 -3.740000000000000E-002    0.000000000000000E+000
 -3.730000000000000E-002    0.000000000000000E+000
 -3.720000000000000E-002    0.000000000000000E+000
 -3.710000000000000E-002    0.000000000000000E+000
 -3.700000000000000E-002    0.000000000000000E+000
 -3.690000000000000E-002    0.000000000000000E+000
 -3.680000000000000E-002    0.000000000000000E+000
 -3.670000000000000E-002    0.000000000000000E+000
 -3.660000000000000E-002    0.000000000000000E+000
 -3.650000000000000E-002    0.000000000000000E+000
 -3.640000000000000E-002    0.000000000000000E+000
 -3.630000000000000E-002    0.000000000000000E+000
 -3.620000000000000E-002    0.000000000000000E+000
 -3.610000000000000E-002    0.000000000000000E+000
 -3.600000000000000E-002    0.000000000000000E+000
 -3.590000000000000E-002    0.000000000000000E+000
 -3.580000000000000E-002    0.000000000000000E+000
 -3.570000000000000E-002    0.000000000000000E+000
 -3.560000000000000E-002    0.000000000000000E+000
 -3.550000000000000E-002    0.000000000000000E+000
 -3.540000000000000E-002    0.000000000000000E+000
 -3.530000000000000E-002    0.000000000000000E+000
 -3.520000000000000E-002    0.000000000000000E+000
 -3.510000000000000E-002    0.000000000000000E+000
 -3.500000000000000E-002    0.000000000000000E+000
 -3.490000000000000E-002    0.000000000000000E+000
 -3.480000000000000E-002    0.000000000000000E+000
 -3.470000000000000E-002    0.000000000000000E+000
 -3.460000000000000E-002    0.000000000000000E+000
 -3.450000000000000E-002    0.000000000000000E+000
 -3.440000000000000E-002    0.000000000000000E+000
 -3.430000000000000E-002    0.000000000000000E+000
 -3.420000000000000E-002    0.000000000000000E+000
 -3.410000000000000E-002    0.000000000000000E+000
 -3.400000000000000E-002    0.000000000000000E+000
 -3.390000000000000E-002    0.000000000000000E+000
 -3.380000000000000E-002    0.000000000000000E+000
 -3.370000000000000E-002    0.000000000000000E+000
 -3.360000000000000E-002    0.000000000000000E+000
 -3.350000000000000E-002    0.000000000000000E+000
 -3.340000000000000E-002    0.000000000000000E+000
 -3.330000000000000E-002    0.000000000000000E+000
 -3.320000000000000E-002    0.000000000000000E+000
 -3.310000000000000E-002    0.000000000000000E+000
 -3.300000000000000E-002    0.000000000000000E+000
 -3.290000000000000E-002    0.000000000000000E+000
 -3.280000000000000E-002    0.000000000000000E+000
 -3.270000000000000E-002    0.000000000000000E+000
 -3.260000000000000E-002    0.000000000000000E+000
 -3.250000000000000E-002    0.000000000000000E+000
 -3.240000000000000E-002    0.000000000000000E+000
 -3.230000000000000E-002    0.000000000000000E+000
 -3.220000000000000E-002    0.000000000000000E+000
 -3.210000000000000E-002    0.000000000000000E+000
 -3.200000000000000E-002    0.000000000000000E+000
 -3.190000000000000E-002    0.000000000000000E+000
 -3.180000000000000E-002    0.000000000000000E+000
 -3.170000000000000E-002    0.000000000000000E+000
 -3.160000000000000E-002    0.000000000000000E+000
 -3.150000000000000E-002    0.000000000000000E+000
 -3.140000000000000E-002    0.000000000000000E+000
 -3.130000000000000E-002    0.000000000000000E+000
 -3.120000000000000E-002    0.000000000000000E+000
 -3.110000000000000E-002    0.000000000000000E+000
 -3.100000000000000E-002    0.000000000000000E+000
 -3.090000000000000E-002    0.000000000000000E+000
 -3.080000000000000E-002    0.000000000000000E+000
 -3.070000000000000E-002    0.000000000000000E+000
 -3.060000000000000E-002    0.000000000000000E+000
 -3.050000000000000E-002    0.000000000000000E+000
 -3.040000000000000E-002    0.000000000000000E+000
 -3.030000000000000E-002    0.000000000000000E+000
 -3.020000000000000E-002    0.000000000000000E+000
 -3.010000000000000E-002    0.000000000000000E+000
 -3.000000000000000E-002    0.000000000000000E+000
 -2.990000000000000E-002    0.000000000000000E+000
 -2.980000000000000E-002    0.000000000000000E+000
 -2.970000000000000E-002    0.000000000000000E+000
 -2.960000000000000E-002    0.000000000000000E+000
 -2.950000000000000E-002    0.000000000000000E+000
 -2.940000000000000E-002    0.000000000000000E+000
 -2.930000000000000E-002    0.000000000000000E+000
 -2.920000000000000E-002    0.000000000000000E+000
 -2.910000000000000E-002    0.000000000000000E+000
 -2.900000000000000E-002    0.000000000000000E+000
 -2.890000000000000E-002    0.000000000000000E+000
 -2.880000000000000E-002    0.000000000000000E+000
 -2.870000000000000E-002    0.000000000000000E+000
 -2.860000000000000E-002    0.000000000000000E+000
 -2.850000000000000E-002    0.000000000000000E+000
 -2.840000000000000E-002    0.000000000000000E+000
 -2.830000000000000E-002    0.000000000000000E+000
 -2.820000000000000E-002    0.000000000000000E+000
 -2.810000000000000E-002    0.000000000000000E+000
 -2.800000000000000E-002    0.000000000000000E+000
 -2.790000000000000E-002    0.000000000000000E+000
 -2.780000000000000E-002    0.000000000000000E+000
 -2.770000000000000E-002    0.000000000000000E+000
 -2.760000000000000E-002    0.000000000000000E+000
 -2.750000000000000E-002    0.000000000000000E+000
 -2.740000000000000E-002    0.000000000000000E+000
 -2.730000000000000E-002    0.000000000000000E+000
 -2.720000000000000E-002    0.000000000000000E+000
 -2.710000000000000E-002    0.000000000000000E+000
 -2.700000000000000E-002    0.000000000000000E+000
 -2.690000000000000E-002    0.000000000000000E+000
 -2.680000000000000E-002    0.000000000000000E+000
 -2.670000000000000E-002    0.000000000000000E+000
 -2.660000000000000E-002    0.000000000000000E+000
 -2.650000000000000E-002    0.000000000000000E+000
 -2.640000000000000E-002    0.000000000000000E+000
 -2.630000000000000E-002    0.000000000000000E+000
 -2.620000000000000E-002    0.000000000000000E+000
 -2.610000000000000E-002    0.000000000000000E+000
 -2.600000000000000E-002    0.000000000000000E+000
 -2.590000000000000E-002    0.000000000000000E+000
 -2.580000000000000E-002    0.000000000000000E+000
 -2.570000000000000E-002    0.000000000000000E+000
 -2.560000000000000E-002    0.000000000000000E+000
 -2.550000000000000E-002    0.000000000000000E+000
 -2.540000000000000E-002    0.000000000000000E+000
 -2.530000000000000E-002    0.000000000000000E+000
 -2.520000000000000E-002    0.000000000000000E+000
 -2.510000000000000E-002    0.000000000000000E+000
 -2.500000000000000E-002    0.000000000000000E+000
 -2.490000000000000E-002    0.000000000000000E+000
 -2.480000000000000E-002    0.000000000000000E+000
 -2.470000000000000E-002    0.000000000000000E+000
 -2.460000000000000E-002    0.000000000000000E+000
 -2.450000000000000E-002    0.000000000000000E+000
 -2.440000000000000E-002    0.000000000000000E+000
 -2.430000000000000E-002    0.000000000000000E+000
 -2.420000000000000E-002    0.000000000000000E+000
 -2.410000000000000E-002    0.000000000000000E+000
 -2.400000000000000E-002    0.000000000000000E+000
 -2.390000000000000E-002    0.000000000000000E+000
 -2.380000000000000E-002    0.000000000000000E+000
 -2.370000000000000E-002    0.000000000000000E+000
 -2.360000000000000E-002    0.000000000000000E+000
 -2.350000000000000E-002    0.000000000000000E+000
 -2.340000000000000E-002    0.000000000000000E+000
 -2.330000000000000E-002    0.000000000000000E+000
 -2.320000000000000E-002    0.000000000000000E+000
 -2.310000000000000E-002    0.000000000000000E+000
 -2.300000000000000E-002    0.000000000000000E+000
 -2.290000000000000E-002    0.000000000000000E+000
 -2.280000000000000E-002    0.000000000000000E+000
 -2.270000000000000E-002    0.000000000000000E+000
 -2.260000000000000E-002    0.000000000000000E+000
 -2.250000000000000E-002    0.000000000000000E+000
 -2.240000000000000E-002    0.000000000000000E+000
 -2.230000000000000E-002    0.000000000000000E+000
 -2.220000000000000E-002    0.000000000000000E+000
 -2.210000000000000E-002    0.000000000000000E+000
 -2.200000000000000E-002    0.000000000000000E+000
 -2.190000000000000E-002    0.000000000000000E+000
 -2.180000000000000E-002    0.000000000000000E+000
 -2.170000000000000E-002    0.000000000000000E+000
 -2.160000000000000E-002    0.000000000000000E+000
 -2.150000000000000E-002    0.000000000000000E+000
 -2.140000000000000E-002    0.000000000000000E+000
 -2.130000000000000E-002    0.000000000000000E+000
 -2.120000000000000E-002    0.000000000000000E+000
 -2.110000000000000E-002    0.000000000000000E+000
 -2.100000000000000E-002    0.000000000000000E+000
 -2.090000000000000E-002    0.000000000000000E+000
 -2.080000000000000E-002    0.000000000000000E+000
 -2.070000000000000E-002    0.000000000000000E+000
 -2.060000000000000E-002    0.000000000000000E+000
 -2.050000000000000E-002    0.000000000000000E+000
 -2.040000000000000E-002    0.000000000000000E+000
 -2.030000000000000E-002    0.000000000000000E+000
 -2.020000000000000E-002    0.000000000000000E+000
 -2.010000000000000E-002    0.000000000000000E+000
 -2.000000000000000E-002    0.000000000000000E+000
 -1.990000000000000E-002    0.000000000000000E+000
 -1.980000000000000E-002    0.000000000000000E+000
 -1.970000000000000E-002    0.000000000000000E+000
 -1.960000000000000E-002    0.000000000000000E+000
 -1.950000000000000E-002    0.000000000000000E+000
 -1.940000000000000E-002    0.000000000000000E+000
 -1.930000000000000E-002    0.000000000000000E+000
 -1.920000000000000E-002    0.000000000000000E+000
 -1.910000000000000E-002    0.000000000000000E+000
 -1.900000000000000E-002    0.000000000000000E+000
 -1.890000000000000E-002    0.000000000000000E+000
 -1.880000000000000E-002    0.000000000000000E+000
 -1.870000000000000E-002    0.000000000000000E+000
 -1.860000000000000E-002    0.000000000000000E+000
 -1.850000000000000E-002    0.000000000000000E+000
 -1.840000000000000E-002    0.000000000000000E+000
 -1.830000000000000E-002    0.000000000000000E+000
 -1.820000000000000E-002    0.000000000000000E+000
 -1.810000000000000E-002    0.000000000000000E+000
 -1.800000000000000E-002    0.000000000000000E+000
 -1.790000000000000E-002    0.000000000000000E+000
 -1.780000000000000E-002    0.000000000000000E+000
 -1.770000000000000E-002    0.000000000000000E+000
 -1.760000000000000E-002    0.000000000000000E+000
 -1.750000000000000E-002    0.000000000000000E+000
 -1.740000000000000E-002    0.000000000000000E+000
 -1.730000000000000E-002    0.000000000000000E+000
 -1.720000000000000E-002    0.000000000000000E+000
 -1.710000000000000E-002    0.000000000000000E+000
 -1.700000000000000E-002    0.000000000000000E+000
 -1.690000000000000E-002    0.000000000000000E+000
 -1.680000000000000E-002    0.000000000000000E+000
 -1.670000000000000E-002    0.000000000000000E+000
 -1.660000000000000E-002    0.000000000000000E+000
 -1.650000000000000E-002    0.000000000000000E+000
 -1.640000000000000E-002    0.000000000000000E+000
 -1.630000000000000E-002    0.000000000000000E+000
 -1.620000000000000E-002    0.000000000000000E+000
 -1.610000000000000E-002    0.000000000000000E+000
 -1.600000000000000E-002    0.000000000000000E+000
 -1.590000000000000E-002    0.000000000000000E+000
 -1.580000000000000E-002    0.000000000000000E+000
 -1.570000000000000E-002    0.000000000000000E+000
 -1.560000000000000E-002    0.000000000000000E+000
 -1.550000000000000E-002    0.000000000000000E+000
 -1.540000000000000E-002    0.000000000000000E+000
 -1.530000000000000E-002    0.000000000000000E+000
 -1.520000000000000E-002    0.000000000000000E+000
 -1.510000000000000E-002    0.000000000000000E+000
 -1.500000000000000E-002    0.000000000000000E+000
 -1.490000000000000E-002    0.000000000000000E+000
 -1.480000000000000E-002    0.000000000000000E+000
 -1.470000000000000E-002    0.000000000000000E+000
 -1.460000000000000E-002    0.000000000000000E+000
 -1.450000000000000E-002    0.000000000000000E+000
 -1.440000000000000E-002    0.000000000000000E+000
 -1.430000000000000E-002    0.000000000000000E+000
 -1.420000000000000E-002    0.000000000000000E+000
 -1.410000000000000E-002    0.000000000000000E+000
 -1.400000000000000E-002    0.000000000000000E+000
 -1.390000000000000E-002    0.000000000000000E+000
 -1.380000000000000E-002    0.000000000000000E+000
 -1.370000000000000E-002    0.000000000000000E+000
 -1.360000000000000E-002    0.000000000000000E+000
 -1.350000000000000E-002    0.000000000000000E+000
 -1.340000000000000E-002    0.000000000000000E+000
 -1.330000000000000E-002    0.000000000000000E+000
 -1.320000000000000E-002    0.000000000000000E+000
 -1.310000000000000E-002    0.000000000000000E+000
 -1.300000000000000E-002    0.000000000000000E+000
 -1.290000000000000E-002    0.000000000000000E+000
 -1.280000000000000E-002    0.000000000000000E+000
 -1.270000000000000E-002    0.000000000000000E+000
 -1.260000000000000E-002    0.000000000000000E+000
 -1.250000000000000E-002    0.000000000000000E+000
 -1.240000000000000E-002    0.000000000000000E+000
 -1.230000000000000E-002    0.000000000000000E+000
 -1.220000000000000E-002    0.000000000000000E+000
 -1.210000000000000E-002    0.000000000000000E+000
 -1.200000000000000E-002    0.000000000000000E+000
 -1.190000000000000E-002    0.000000000000000E+000
 -1.180000000000000E-002    6.414635304221270E-048
 -1.170000000000000E-002    1.282927060844254E-047
 -1.160000000000000E-002    1.282927060844254E-047
 -1.150000000000000E-002    6.414635304221270E-048
 -1.140000000000000E-002   -6.414635304221270E-048
 -1.130000000000000E-002    2.273178229302827E-047
 -1.120000000000000E-002    2.187649758579877E-047
 -1.110000000000000E-002    6.085868931618759E-047
 -1.100000000000000E-002    9.984088104657642E-047
 -1.090000000000000E-002    1.054002316435682E-046
 -1.080000000000000E-002    8.928329730910055E-047
 -1.070000000000000E-002   -8.663839707960856E-047
 -1.060000000000000E-002   -2.616652862545777E-046
 -1.050000000000000E-002   -4.121414826614556E-046
 -1.040000000000000E-002   -5.333105693232550E-046
 -1.030000000000000E-002   -7.268051258114619E-046
 -1.020000000000000E-002   -8.006265608389850E-046
 -1.010000000000000E-002   -5.521263159527292E-046
 -1.000000000000000E-002   -6.910454365182893E-047
 -9.899999999999999E-003    9.318321563126204E-046
 -9.800000000000000E-003    9.659032043515378E-046
 -9.699999999999999E-003    2.011813488357255E-045
 -9.599999999999999E-003    2.994580570689886E-045
 -9.500000000000000E-003    3.682394566810507E-045
 -9.399999999999999E-003    3.809591221167704E-045
 -9.299999999999999E-003    3.160771740618176E-045
 -9.200000000000000E-003    8.135947856227859E-046
 -9.099999999999999E-003   -2.926277358921511E-045
 -8.999999999999999E-003   -8.212881334641623E-045
 -8.900000000000000E-003   -1.436418254873104E-044
 -8.799999999999999E-003   -2.007974187583801E-044
 -8.699999999999999E-003   -2.444955481598431E-044
 -8.600000000000000E-003   -2.596642533605374E-044
 -8.499999999999999E-003   -2.204302937222783E-044
 -8.399999999999999E-003   -1.167379639075527E-044
 -8.300000000000000E-003    7.803090519679333E-045
 -8.199999999999999E-003    3.440930499890081E-044
 -8.100000000000000E-003    6.668870415421155E-044
 -8.000000000000000E-003    9.881419852429661E-044
 -7.899999999999999E-003    1.249801859948153E-043
 -7.800000000000000E-003    1.356076069537945E-043
 -7.699999999999999E-003    1.208009899693837E-043
 -7.599999999999999E-003    6.933284773000948E-044
 -7.499999999999999E-003   -2.300512233205400E-044
 -7.399999999999999E-003   -1.546716033522470E-043
 -7.299999999999999E-003   -3.157489032127570E-043
 -7.199999999999999E-003   -4.845043371202399E-043
 -7.100000000000000E-003   -6.239570417103273E-043
 -6.999999999999999E-003   -6.878649479170342E-043
 -6.899999999999999E-003   -6.238321835477723E-043
 -6.800000000000000E-003   -3.853151249787329E-043
 -6.699999999999999E-003    5.807817424288752E-044
 -6.599999999999999E-003    7.036239607269015E-043
 -6.499999999999999E-003    1.501277746865958E-042
 -6.399999999999999E-003    2.339435514060432E-042
 -6.299999999999999E-003    3.046972049246460E-042
 -6.199999999999999E-003    3.399408505810592E-042
 -6.100000000000000E-003    3.147543580075643E-042
 -5.999999999999999E-003    2.062234899111597E-042
 -5.899999999999999E-003   -2.672955270806746E-045
 -5.800000000000000E-003   -3.037090718805603E-042
 -5.699999999999999E-003   -6.808459922641305E-042
 -5.599999999999999E-003   -1.080434264407441E-041
 -5.499999999999999E-003   -1.422639480585079E-041
 -5.399999999999999E-003   -1.603412812744943E-041
 -5.299999999999999E-003   -1.507291405376745E-041
 -5.199999999999999E-003   -1.028698124672390E-041
 -5.099999999999999E-003   -9.977547561476793E-043
 -4.999999999999999E-003    1.276575950114538E-041
 -4.899999999999999E-003    2.995144175179933E-041
 -4.799999999999999E-003    4.826030966561039E-041
 -4.699999999999999E-003    6.410096563671041E-041
 -4.599999999999999E-003    7.281891031339636E-041
 -4.499999999999999E-003    6.926270196438717E-041
 -4.399999999999999E-003    4.872558328220234E-041
 -4.299999999999999E-003    8.193294190431065E-042
 -4.199999999999999E-003   -5.222257225400140E-041
 -4.099999999999999E-003   -1.279290711440230E-040
 -3.999999999999999E-003   -2.088984168901516E-040
 -3.899999999999999E-003   -2.795160518795229E-040
 -3.799999999999999E-003   -3.196102565896540E-040
 -3.699999999999999E-003   -3.069473893756659E-040
 -3.599999999999999E-003   -2.212755295858146E-040
 -3.499999999999999E-003   -4.967434409924770E-041
 -3.399999999999999E-003    2.074068175230056E-040
 -3.299999999999999E-003    5.304789296135354E-040
 -3.199999999999999E-003    8.771369426465576E-040
 -3.099999999999999E-003    1.181588822699346E-039
 -2.999999999999999E-003    1.359156507280079E-039
 -2.899999999999999E-003    1.316856326837074E-039
 -2.799999999999999E-003    9.702947623331015E-040
 -2.699999999999999E-003    2.658045608485518E-040
 -2.599999999999999E-003   -7.948446329556645E-040
 -2.499999999999999E-003   -2.131542926980585E-039
 -2.399999999999999E-003   -3.570506616750248E-039
 -2.299999999999999E-003   -4.843055750344693E-039
 -2.199999999999999E-003   -5.604604269681783E-039
 -2.099999999999999E-003   -5.478068282167962E-039
 -1.999999999999999E-003   -4.122261844572333E-039
 -1.899999999999999E-003   -1.320630073941867E-039
 -1.799999999999999E-003    2.920710195512935E-039
 -1.699999999999999E-003    8.283146182508616E-039
 -1.599999999999999E-003    1.407680119797778E-038
 -1.499999999999999E-003    1.923818689742875E-038
 -1.399999999999999E-003    2.240755856074510E-038
 -1.299999999999999E-003    2.210129289821462E-038
 -1.199999999999999E-003    1.698023904623861E-038
 -1.099999999999999E-003    6.194531215683307E-039
 -9.999999999999989E-004   -1.023896646436778E-038
 -8.999999999999990E-004   -3.109471768097007E-038
 -7.999999999999990E-004   -5.371963488411179E-038
 -6.999999999999989E-004   -7.403273028204803E-038
 -5.999999999999990E-004   -8.682935881764185E-038
 -4.999999999999989E-004   -8.644446163790847E-038
 -3.999999999999989E-004   -6.777332172014037E-038
 -2.999999999999989E-004   -2.757164564823208E-038
 -1.999999999999989E-004    3.413371879650473E-038
 -9.999999999999892E-005    1.127803779133699E-037
  1.084202172485504E-018    1.984775981645915E-037
  1.000000000000011E-004    2.760341082192126E-037
  2.000000000000011E-004    3.261159075089776E-037
  3.000000000000011E-004    3.277196930464749E-037
  4.000000000000011E-004    2.619413740044299E-037
  5.000000000000011E-004    1.167353965966484E-037
  6.000000000000011E-004   -1.079626919068747E-037
  7.000000000000011E-004   -3.956917751898816E-037
  8.000000000000011E-004   -7.106703154955808E-037
  9.000000000000012E-004   -9.979940507086443E-037
  1.000000000000001E-003   -1.187902117891759E-036
  1.100000000000001E-003   -1.204732649855851E-036
  1.200000000000001E-003   -9.804348832475727E-037
  1.300000000000001E-003   -4.715039520576819E-037
  1.400000000000001E-003    3.229332005852113E-037
  1.500000000000001E-003    1.345225638001337E-036
  1.600000000000001E-003    2.469608158676319E-036
  1.700000000000001E-003    3.503203567377340E-036
  1.800000000000001E-003    4.201276702204961E-036
  1.900000000000001E-003    4.298736662175262E-036
  2.000000000000001E-003    3.557254448836401E-036
  2.100000000000001E-003    1.823881066058333E-036
  2.200000000000001E-003   -9.068026965291708E-037
  2.300000000000001E-003   -4.438560719006611E-036
  2.400000000000001E-003   -8.341412476133869E-036
  2.500000000000001E-003   -1.195603988652963E-035
  2.600000000000001E-003   -1.444673933972102E-035
  2.700000000000001E-003   -1.490922108114859E-035
  2.800000000000001E-003   -1.253052659399009E-035
  2.900000000000001E-003   -6.786627446519347E-036
  3.000000000000001E-003    2.349486334273939E-036
  3.100000000000001E-003    1.422808433914636E-035
  3.200000000000001E-003    2.741791102664388E-035
  3.300000000000001E-003    3.972373208687669E-035
  3.400000000000001E-003    4.836500392520172E-035
  3.500000000000001E-003    5.033503975189332E-035
  3.600000000000001E-003    4.292972090593879E-035
  3.700000000000001E-003    2.439682257810567E-035
  3.800000000000001E-003   -5.384467032373742E-036
  3.900000000000001E-003   -4.432110648638572E-035
  4.000000000000001E-003   -8.777163771287106E-035
  4.100000000000001E-003   -1.286110923937142E-034
  4.200000000000001E-003   -1.578173440346593E-034
  4.300000000000001E-003   -1.656367515859839E-034
  4.400000000000001E-003   -1.432884726445890E-034
  4.500000000000001E-003   -8.504608083093720E-035
  4.600000000000002E-003    9.596471245692359E-036
  4.700000000000001E-003    1.340803894292460E-034
  4.800000000000001E-003    2.737357851567301E-034
  4.900000000000002E-003    4.060074084390604E-034
  5.000000000000001E-003    5.023267450932692E-034
  5.100000000000001E-003    5.317986941891888E-034
  5.200000000000001E-003    4.665617001769838E-034
  5.300000000000002E-003    2.883015040410007E-034
  5.400000000000001E-003   -5.003203147741745E-036
  5.500000000000001E-003   -3.933688341948286E-034
  5.600000000000002E-003   -8.315986577485640E-034
  5.700000000000001E-003   -1.250024048428114E-033
  5.800000000000001E-003   -1.560320698060662E-033
  5.900000000000002E-003   -1.666877866593632E-033
  6.000000000000001E-003   -1.483253754010154E-033
  6.100000000000001E-003   -9.520823872706247E-034
  6.200000000000002E-003   -6.560994433704728E-035
  6.300000000000002E-003    1.116993848667811E-033
  6.400000000000001E-003    2.459977931763520E-033
  6.500000000000001E-003    3.753318861475261E-033
  6.600000000000002E-003    4.730311606375129E-033
  6.700000000000001E-003    5.101773566692340E-033
  6.800000000000001E-003    4.605360435426872E-033
  6.900000000000002E-003    3.065028258997863E-033
  7.000000000000001E-003    4.521693719753205E-034
  7.100000000000001E-003   -3.063012264734259E-033
  7.200000000000002E-003   -7.082940120531702E-033
  7.300000000000002E-003   -1.098952134299888E-032
  7.400000000000001E-003   -1.399595116991781E-032
  7.500000000000001E-003   -1.524714324157216E-032
  7.600000000000002E-003   -1.396411068685237E-032
  7.700000000000001E-003   -9.617605203378353E-033
  7.800000000000001E-003   -2.106188815336832E-033
  7.900000000000001E-003    8.094437984050835E-033
  8.000000000000002E-003    1.984845574359328E-032
  8.100000000000001E-003    3.137934951139124E-032
  8.200000000000001E-003    4.041857314224853E-032
  8.300000000000002E-003    4.449354977146710E-032
  8.400000000000001E-003    4.134081022275991E-032
  8.500000000000002E-003    2.940195307744727E-032
  8.600000000000002E-003    8.331353097528439E-033
  8.700000000000001E-003   -2.057853923062933E-032
  8.800000000000002E-003   -5.416034062066417E-032
  8.900000000000002E-003   -8.742421449372335E-032
  9.000000000000001E-003   -1.139742246073307E-031
  9.100000000000002E-003   -1.268152279198968E-031
  9.200000000000002E-003   -1.195093585514829E-031
  9.300000000000001E-003   -8.756222831751956E-032
  9.400000000000002E-003   -2.984077719567451E-032
  9.500000000000001E-003    5.023927747704484E-032
  9.600000000000001E-003    1.440489502216946E-031
  9.700000000000002E-003    2.378814822353395E-031
  9.800000000000001E-003    3.140905386149537E-031
  9.900000000000001E-003    3.533012106548913E-031
  1.000000000000000E-002    3.375781133718869E-031
  1.010000000000000E-002    2.542207453736951E-031
  1.020000000000000E-002    9.964377056141125E-032
  1.030000000000000E-002   -1.173703918565781E-031
  1.040000000000000E-002   -3.738385889489429E-031
  1.050000000000000E-002   -6.329087353195162E-031
  1.060000000000000E-002   -8.468990664783433E-031
  1.070000000000000E-002   -9.632266671386788E-031
  1.080000000000000E-002   -9.329084391688882E-031
  1.090000000000000E-002   -7.207457055465904E-031
  1.100000000000000E-002   -3.157390043822179E-031
  1.110000000000000E-002    2.601637015444523E-031
  1.120000000000000E-002    9.470894312826059E-031
  1.130000000000000E-002    1.648002517453285E-030
  1.140000000000000E-002    2.236633023219437E-030
  1.150000000000000E-002    2.573037372403308E-030
  1.160000000000000E-002    2.525952767751771E-030
  1.170000000000000E-002    1.999597245189289E-030
  1.180000000000000E-002    9.611096683795857E-031
  1.190000000000000E-002   -5.363340383089396E-031
  1.200000000000000E-002   -2.340202706586375E-030
  1.210000000000000E-002   -4.200201678283130E-030
  1.220000000000000E-002   -5.788472245807838E-030
  1.230000000000000E-002   -6.739584943437173E-030
  1.240000000000000E-002   -6.708153723131137E-030
  1.250000000000000E-002   -5.438038651117046E-030
  1.260000000000000E-002   -2.833327102443288E-030
  1.270000000000000E-002    9.816042489111909E-031
  1.280000000000000E-002    5.626956112879293E-030
  1.290000000000000E-002    1.047034448728787E-029
  1.300000000000000E-002    1.467700309166131E-029
  1.310000000000000E-002    1.731045854749022E-029
  1.320000000000000E-002    1.747811662673380E-029
  1.330000000000000E-002    1.450658860485882E-029
  1.340000000000000E-002    8.122054522192959E-030
  1.350000000000000E-002   -1.396258798506681E-030
  1.360000000000000E-002   -1.312467059805610E-029
  1.370000000000000E-002   -2.549846102674851E-029
  1.380000000000000E-002   -3.643367699839281E-029
  1.390000000000000E-002   -4.357514912708330E-029
  1.400000000000000E-002   -4.465730791624606E-029
  1.410000000000000E-002   -3.794012791013374E-029
  1.420000000000000E-002   -2.265940510366563E-029
  1.430000000000000E-002    5.875737299851584E-031
  1.440000000000000E-002    2.960761287786988E-029
  1.450000000000000E-002    6.060941018726922E-029
  1.460000000000000E-002    8.849176285560770E-029
  1.470000000000000E-002    1.074421829449774E-028
  1.480000000000000E-002    1.118136656012782E-028
  1.490000000000000E-002    9.718909920025448E-029
  1.500000000000000E-002    6.148560726237198E-029
  1.510000000000000E-002    5.907910810217037E-030
  1.520000000000000E-002   -6.445963503818875E-029
  1.530000000000000E-002   -1.406185242888022E-028
  1.540000000000000E-002   -2.103213968391710E-028
  1.550000000000000E-002   -2.594875446759688E-028
  1.560000000000000E-002   -2.742937236298720E-028
  1.570000000000000E-002   -2.437262826225142E-028
  1.580000000000000E-002   -1.622434967129952E-028
  1.590000000000000E-002   -3.209410131849102E-029
  1.600000000000000E-002    1.352099636358353E-028
  1.610000000000000E-002    3.187346764446813E-028
  1.620000000000000E-002    4.896225351845122E-028
  1.630000000000000E-002    6.143725972593847E-028
  1.640000000000000E-002    6.597364297051332E-028
  1.650000000000000E-002    5.987302256406078E-028
  1.660000000000000E-002    4.169479457491213E-028
  1.670000000000000E-002    1.181107622590618E-028
  1.680000000000000E-002   -2.723231875986172E-028
  1.690000000000000E-002   -7.065906272760428E-028
  1.700000000000000E-002   -1.117911597735409E-027
  1.710000000000000E-002   -1.427945736909912E-027
  1.720000000000000E-002   -1.558048555076840E-027
  1.730000000000000E-002   -1.443202282774618E-027
  1.740000000000000E-002   -1.046743449462795E-027
  1.750000000000000E-002   -3.734472633841853E-028
  1.760000000000000E-002    5.217506149752165E-028
  1.770000000000000E-002    1.531948744553944E-027
  1.780000000000000E-002    2.505300428967675E-027
  1.790000000000000E-002    3.261629230082625E-027
  1.800000000000000E-002    3.617860753601887E-027
  1.810000000000000E-002    3.419765167380100E-027
  1.820000000000000E-002    2.575792247707269E-027
  1.830000000000000E-002    1.087469262370851E-027
  1.840000000000000E-002   -9.298096920644478E-028
  1.850000000000000E-002   -3.241448763798368E-027
  1.860000000000000E-002   -5.508181148024154E-027
  1.870000000000000E-002   -7.322352514667606E-027