 -4.000000000000000E-002    0.000000000000000E+000
 -3.990000000000000E-002    0.000000000000000E+000
 -3.980000000000000E-002    0.000000000000000E+000
 -3.970000000000000E-002    0.000000000000000E+000
 -3.960000000000000E-002    0.000000000000000E+000
 -3.950000000000000E-002    0.000000000000000E+000
 -3.940000000000000E-002    0.000000000000000E+000
 -3.930000000000000E-002    0.000000000000000E+000
 -3.920000000000000E-002    0.000000000000000E+000
 -3.910000000000000E-002    0.000000000000000E+000
 -3.900000000000000E-002    0.000000000000000E+000
 -3.890000000000000E-002    0.000000000000000E+000
 -3.880000000000000E-002    0.000000000000000E+000
 -3.870000000000000E-002    0.000000000000000E+000
 -3.860000000000000E-002    0.000000000000000E+000
 -3.850000000000000E-002    0.000000000000000E+000
 -3.840000000000000E-002   -6.414635304221270E-048
 -3.830000000000000E-002   -6.905879669979513E-046
 -3.820000000000000E-002   -8.770691888868763E-045
 -3.810000000000000E-002   -7.428995937784410E-044
 -3.800000000000000E-002   -4.590978171687094E-043
 -3.790000000000000E-002   -2.083431377110617E-042
 -3.780000000000000E-002   -6.434179267596411E-042
 -3.770000000000000E-002   -6.317886801378227E-042
 -3.760000000000000E-002    7.894969516299157E-041
 -3.750000000000000E-002    7.131653927634475E-040
 -3.740000000000000E-002    3.936230003726120E-039
 -3.730000000000000E-002    1.728883238863893E-038
 -3.720000000000000E-002    6.512404863229789E-038
 -3.710000000000000E-002    2.175009535295272E-037
 -3.700000000000000E-002    6.556934431766440E-037
 -3.690000000000000E-002    1.802701077863096E-036
 -3.680000000000000E-002    4.544561790469618E-036
 -3.670000000000000E-002    1.052033792230111E-035
 -3.660000000000000E-002    2.229578197109483E-035
 -3.650000000000000E-002    4.284074370061398E-035
 -3.640000000000000E-002    7.295201108486312E-035
 -3.630000000000000E-002    1.039945493475440E-034
 -3.620000000000000E-002    1.017153676463146E-034
 -3.610000000000000E-002   -2.430824489551015E-035
 -3.600000000000000E-002   -4.697916945984222E-034
 -3.590000000000000E-002   -1.600110270332414E-033
 -3.580000000000000E-002   -4.006684628923389E-033
 -3.570000000000000E-002   -8.492481360597147E-033
 -3.560000000000000E-002   -1.585877260480775E-032
 -3.550000000000000E-002   -2.627867904373040E-032
 -3.540000000000000E-002   -3.795951998918509E-032
 -3.530000000000000E-002   -4.477777047379384E-032
 -3.520000000000000E-002   -3.273253506475721E-032
 -3.510000000000000E-002    2.442156165622559E-032
 -3.500000000000000E-002    1.689280079460486E-031
 -3.490000000000000E-002    4.589424307284019E-031
 -3.480000000000000E-002    9.589052168918749E-031
 -3.470000000000000E-002    1.711981950055491E-030
 -3.460000000000000E-002    2.684470069464264E-030
 -3.450000000000000E-002    3.673513929872690E-030
 -3.440000000000000E-002    4.177273007643518E-030
 -3.430000000000000E-002    3.244665984273054E-030
 -3.420000000000000E-002   -6.468201966607145E-031
 -3.410000000000000E-002   -9.591573626532293E-030
 -3.400000000000000E-002   -2.598756333627268E-029
 -3.390000000000000E-002   -5.180649043139261E-029
 -3.380000000000000E-002   -8.720010100553002E-029
 -3.370000000000000E-002   -1.283100924559039E-028
 -3.360000000000000E-002   -1.643496921229236E-028
 -3.350000000000000E-002   -1.744041808927655E-028
 -3.340000000000000E-002   -1.249744573481458E-028
 -3.330000000000000E-002    2.998235220490894E-029
 -3.320000000000000E-002    3.440255014493518E-028
 -3.310000000000000E-002    8.652723720229650E-028
 -3.300000000000000E-002    1.612825474698557E-027
 -3.290000000000000E-002    2.541420301418664E-027
 -3.280000000000000E-002    3.496444447592062E-027
 -3.270000000000000E-002    4.166914952478242E-027
 -3.260000000000000E-002    4.051376334588872E-027
 -3.250000000000000E-002    2.459952501153857E-027
 -3.240000000000000E-002   -1.417244728689857E-027
 -3.230000000000000E-002   -8.342969909633758E-027
 -3.220000000000000E-002   -1.874174383302966E-026
 -3.210000000000000E-002   -3.228091019036145E-026
 -3.200000000000000E-002   -4.735912215006637E-026
 -3.190000000000000E-002   -6.059490312775586E-026
 -3.180000000000000E-002   -6.647825207507760E-026
 -3.170000000000000E-002   -5.741787180743026E-026
 -3.160000000000000E-002   -2.446309708787625E-026
 -3.150000000000000E-002    4.102859796059621E-026
 -3.140000000000000E-002    1.446057013122951E-025
 -3.130000000000000E-002    2.848646004121274E-025
 -3.120000000000000E-002    4.489200372042154E-025
 -3.110000000000000E-002    6.080767138755457E-025
 -3.100000000000000E-002    7.150984022053804E-025
 -3.090000000000000E-002    7.049243263787504E-025
 -3.080000000000000E-002    5.008863275799263E-025
 -3.070000000000000E-002    2.821630160122430E-026
 -3.060000000000000E-002   -7.643086405017729E-025
 -3.050000000000000E-002   -1.875500223165514E-024
 -3.040000000000000E-002   -3.219170765662857E-024
 -3.030000000000000E-002   -4.594467539258248E-024
 -3.020000000000000E-002   -5.668943277024280E-024
 -3.010000000000000E-002   -5.986483245423907E-024
 -3.000000000000000E-002   -5.012538097837087E-024
 -2.990000000000000E-002   -2.226243945272550E-024
 -2.980000000000000E-002    2.738070805965145E-024
 -2.970000000000000E-002    9.909140744335132E-024
 -2.960000000000000E-002    1.878159348854235E-023
 -2.950000000000000E-002    2.814572550766784E-023
 -2.940000000000000E-002    3.600250564903276E-023
 -2.930000000000000E-002    3.963117277587449E-023
 -2.920000000000000E-002    3.587328657779768E-023
 -2.910000000000000E-002    2.167529151869466E-023
 -2.900000000000000E-002   -5.112034014997319E-024
 -2.890000000000000E-002   -4.474418075969327E-023
 -2.880000000000000E-002   -9.455162506754469E-023
 -2.870000000000000E-002   -1.480987185816099E-022
 -2.860000000000000E-002   -1.948321277550973E-022
 -2.850000000000000E-002   -2.205437935426941E-022
 -2.840000000000000E-002   -2.089309571898445E-022
 -2.830000000000000E-002   -1.444046852509663E-022
 -2.820000000000000E-002   -1.606813168703323E-023
 -2.810000000000000E-002    1.775309500506069E-022
 -2.800000000000000E-002    4.236359937677119E-022
 -2.790000000000000E-002    6.916183343756732E-022
 -2.780000000000000E-002    9.317701861636948E-022
 -2.770000000000000E-002    1.077936102192755E-021
 -2.760000000000000E-002    1.055081997344831E-021
 -2.750000000000000E-002    7.922311421239783E-022
 -2.740000000000000E-002    2.401450779163355E-022
 -2.730000000000000E-002   -6.082313056130462E-022
 -2.720000000000000E-002   -1.698012267748925E-021
 -2.710000000000000E-002   -2.898042676822817E-021
 -2.700000000000000E-002   -3.997477880601155E-021
 -2.690000000000000E-002   -4.718543958230810E-021
 -2.680000000000000E-002   -4.749259507369977E-021
 -2.670000000000000E-002   -3.796969478682753E-021
 -2.660000000000000E-002   -1.659253295385542E-021
 -2.650000000000000E-002    1.696429966653146E-021
 -2.640000000000000E-002    6.058290414180479E-021
 -2.630000000000000E-002    1.091912225696845E-020
 -2.620000000000000E-002    1.546860928321144E-020
 -2.610000000000000E-002    1.864719865584353E-020
 -2.600000000000000E-002    1.927322550968734E-020
 -2.590000000000000E-002    1.624351441540066E-020
 -2.580000000000000E-002    8.792029498734166E-021
 -2.570000000000000E-002   -3.226869580139551E-021
 -2.560000000000000E-002   -1.908126764817053E-020
 -2.550000000000000E-002   -3.699388803538649E-020
 -2.540000000000000E-002   -5.413035516781475E-020
 -2.530000000000000E-002   -6.680077867426674E-020
 -2.520000000000000E-002   -7.090705597147453E-020
 -2.510000000000000E-002   -6.262822623366424E-020
 -2.500000000000000E-002   -3.928411824926275E-020
 -2.490000000000000E-002   -2.607037506193672E-022
 -2.480000000000000E-002    5.217096165173322E-020
 -2.470000000000000E-002    1.123437986254987E-019
 -2.460000000000000E-002    1.711958937254804E-019
 -2.450000000000000E-002    2.169495279005552E-019
 -2.440000000000000E-002    2.365492015421168E-019
 -2.430000000000000E-002    2.178112974219828E-019
 -2.420000000000000E-002    1.520802718574360E-019
 -2.410000000000000E-002    3.702046624785259E-020
 -2.400000000000000E-002   -1.209684663274561E-019
 -2.390000000000000E-002   -3.053051058759121E-019
 -2.380000000000000E-002   -4.893270892002790E-019
 -2.370000000000000E-002   -6.383829575080002E-019
 -2.360000000000000E-002   -7.140963336376638E-019
 -2.350000000000000E-002   -6.806076917295629E-019
 -2.340000000000000E-002   -5.121547025105359E-019
 -2.330000000000000E-002   -2.009045547037738E-019
 -2.320000000000000E-002    2.364063652662830E-019
 -2.310000000000000E-002    7.546460631577938E-019
 -2.300000000000000E-002    1.280800330241873E-018
 -2.290000000000000E-002    1.719936811092101E-018
 -2.280000000000000E-002    1.966979376096393E-018
 -2.270000000000000E-002    1.923635527930955E-018
 -2.260000000000000E-002    1.518648538956599E-018
 -2.250000000000000E-002    7.284234665735333E-019
 -2.240000000000000E-002   -4.057812429163065E-019
 -2.230000000000000E-002   -1.768248615963940E-018
 -2.220000000000000E-002   -3.170579031048005E-018
 -2.210000000000000E-002   -4.367472859707282E-018
 -2.200000000000000E-002   -5.087168533580928E-018
 -2.190000000000000E-002   -5.074597340777416E-018
 -2.180000000000000E-002   -4.142451375835484E-018
 -2.170000000000000E-002   -2.222676141195214E-018
 -2.160000000000000E-002    5.910165129306596E-019
 -2.150000000000000E-002    4.019664763302329E-018
 -2.140000000000000E-002    7.603554278471940E-018
 -2.130000000000000E-002    1.074064626628630E-017
 -2.120000000000000E-002    1.276007549533656E-017
 -2.110000000000000E-002    1.302568607705650E-017
 -2.100000000000000E-002    1.105794553777108E-017
 -2.090000000000000E-002    6.656531675143169E-018
 -2.080000000000000E-002    1.725826786906909E-021
 -2.070000000000000E-002   -8.288372647429631E-018
 -2.060000000000000E-002   -1.716502338379787E-017
 -2.050000000000000E-002   -2.523351485185589E-017
 -2.040000000000000E-002   -3.091755693578269E-017
 -2.030000000000000E-002   -3.269184098667482E-017
 -2.020000000000000E-002   -2.935674477019788E-017
 -2.010000000000000E-002   -2.031614292326937E-017
 -2.000000000000000E-002   -5.810584784236042E-018
 -1.990000000000000E-002    1.294401109639633E-017
 -1.980000000000000E-002    3.375567726635792E-017
 -1.970000000000000E-002    5.362221152454958E-017
 -1.960000000000000E-002    6.906861697914291E-017
 -1.950000000000000E-002    7.663293341833777E-017
 -1.940000000000000E-002    7.344700968911794E-017
 -1.930000000000000E-002    5.783214543232428E-017
 -1.920000000000000E-002    2.981177954034849E-017
 -1.910000000000000E-002   -8.561062685857716E-018
 -1.900000000000000E-002   -5.315146181952222E-017
 -1.890000000000000E-002   -9.802559623588505E-017
 -1.880000000000000E-002   -1.360834375776612E-016
 -1.870000000000000E-002   -1.599999352709815E-016
 -1.860000000000000E-002   -1.633740892876174E-016
 -1.850000000000000E-002   -1.419332972708636E-016
 -1.840000000000000E-002   -9.460452935006699E-017
 -1.830000000000000E-002   -2.425324269560985E-017
 -1.820000000000000E-002    6.208770709885063E-017
 -1.810000000000000E-002    1.536237088898590E-016
 -1.800000000000000E-002    2.368796931256642E-016
 -1.790000000000000E-002    2.973947184456020E-016
 -1.780000000000000E-002    3.218582313454091E-016
 -1.770000000000000E-002    3.004165927278117E-016
 -1.760000000000000E-002    2.288081668041152E-016
 -1.750000000000000E-002    1.099580845145046E-016
 -1.740000000000000E-002   -4.530696630994977E-017
 -1.730000000000000E-002   -2.186771326178232E-016
 -1.720000000000000E-002   -3.860227177187348E-016
 -1.710000000000000E-002   -5.202347600618073E-016
 -1.700000000000000E-002   -5.949806697376149E-016
 -1.690000000000000E-002   -5.889282308308314E-016
 -1.680000000000000E-002   -4.898529909174954E-016
 -1.670000000000000E-002   -2.979746451388078E-016
 -1.660000000000000E-002   -2.789090157845307E-017
 -1.650000000000000E-002    2.914006887130466E-016
 -1.640000000000000E-002    6.186830941618308E-016
 -1.630000000000000E-002    9.048981401213612E-016
 -1.620000000000000E-002    1.099386884462340E-015
 -1.610000000000000E-002    1.157326522959483E-015
 -1.600000000000000E-002    1.047417786297532E-015
 -1.590000000000000E-002    7.587117771060312E-016
 -1.580000000000000E-002    3.054248925503282E-016
 -1.570000000000000E-002   -2.712671141040752E-016
 -1.560000000000000E-002   -9.051710048997396E-016
 -1.550000000000000E-002   -1.511015808077696E-015
 -1.540000000000000E-002   -1.994109278101768E-015
 -1.530000000000000E-002   -2.262842567817320E-015
 -1.520000000000000E-002   -2.242639310803960E-015
 -1.510000000000000E-002   -1.889526944094720E-015
 -1.500000000000000E-002   -1.201306352089359E-015
 -1.490000000000000E-002   -2.243352284293133E-016
 -1.480000000000000E-002    9.456988826859102E-016
 -1.470000000000000E-002    2.170043235301530E-015
 -1.460000000000000E-002    3.280324517339574E-015
 -1.450000000000000E-002    4.098322961789911E-015
 -1.440000000000000E-002    4.460188302169348E-015
 -1.430000000000000E-002    4.242288878863217E-015
 -1.420000000000000E-002    3.385222122414877E-015
 -1.410000000000000E-002    1.912257799344596E-015
 -1.400000000000000E-002   -6.128976050270625E-017
 -1.390000000000000E-002   -2.330497371959868E-015
 -1.380000000000000E-002   -4.616566305711010E-015
 -1.370000000000000E-002   -6.595586486690413E-015
 -1.360000000000000E-002   -7.938237594023174E-015
 -1.350000000000000E-002   -8.356349068150435E-015
 -1.340000000000000E-002   -7.650660233909958E-015
 -1.330000000000000E-002   -5.753026001357354E-015
 -1.320000000000000E-002   -2.756125600310056E-015
 -1.310000000000000E-002    1.075619239136645E-015
 -1.300000000000000E-002    5.318359388058134E-015
 -1.290000000000000E-002    9.426129621014448E-015
 -1.280000000000000E-002    1.279154697657031E-014
 -1.270000000000000E-002    1.482455162214016E-014
 -1.260000000000000E-002    1.504039860095276E-014
 -1.250000000000000E-002    1.314536326156195E-014
 -1.240000000000000E-002    9.107226388198205E-015
 -1.230000000000000E-002    3.197937602027777E-015
 -1.220000000000000E-002   -4.002019089319254E-015
 -1.210000000000000E-002   -1.164377932790497E-014
 -1.200000000000000E-002   -1.869530929205303E-014
 -1.190000000000000E-002   -2.406564962704348E-014
 -1.180000000000000E-002   -2.675533078386503E-014
 -1.170000000000000E-002   -2.601446230316315E-014
 -1.160000000000000E-002   -2.148610635379850E-014
 -1.150000000000000E-002   -1.331167644493459E-014
 -1.140000000000000E-002   -2.177520697905724E-015
 -1.130000000000000E-002    1.071228229082471E-014
 -1.120000000000000E-002    2.374278642239281E-014
 -1.110000000000000E-002    3.506946213401089E-014
 -1.100000000000000E-002    4.285688797945095E-014
 -1.090000000000000E-002    4.554688970916984E-014
 -1.080000000000000E-002    4.212038685104371E-014
 -1.070000000000000E-002    3.231329775403321E-014
 -1.060000000000000E-002    1.674888249940995E-014
 -1.050000000000000E-002   -3.043210826065916E-015
 -1.040000000000000E-002   -2.473810440347316E-014
 -1.030000000000000E-002   -4.545614574219389E-014
 -1.020000000000000E-002   -6.211301984843287E-014
 -1.010000000000000E-002   -7.184105098642735E-014
 -1.000000000000000E-002   -7.242855411725141E-014
 -9.899999999999999E-003   -6.271511001321547E-014
 -9.800000000000000E-003   -4.288090983514280E-014
 -9.699999999999999E-003   -1.457580859950154E-014
 -9.599999999999999E-003    1.914754213169101E-014
 -9.500000000000000E-003    5.410852642714351E-014
 -9.399999999999999E-003    8.546440339658635E-014
 -9.299999999999999E-003    1.083209929912577E-013
 -9.200000000000000E-003    1.184171395001472E-013
 -9.099999999999999E-003    1.127942185061398E-013
 -8.999999999999999E-003    9.035562428796918E-014
 -8.900000000000000E-003    5.222704150142823E-014
 -8.799999999999999E-003    1.847982243782970E-015
 -8.699999999999999E-003   -5.524428810218315E-014
 -8.600000000000000E-003   -1.119401589766419E-013
 -8.499999999999999E-003   -1.603510763377788E-013
 -8.399999999999999E-003   -1.927909211931410E-013
 -8.300000000000000E-003   -2.028331562624402E-013
 -8.199999999999999E-003   -1.863115275183367E-013
 -8.100000000000000E-003   -1.421284607745257E-013
 -8.000000000000000E-003   -7.274726439214536E-014
 -7.899999999999999E-003    1.572692093683614E-014
 -7.800000000000000E-003    1.139277711902506E-013
 -7.699999999999999E-003    2.100693473333601E-013
 -7.599999999999999E-003    2.911904995367916E-013
 -7.499999999999999E-003    3.446889873771805E-013
 -7.399999999999999E-003    3.599859269587885E-013
 -7.299999999999999E-003    3.301311472200444E-013
 -7.199999999999999E-003    2.531421848886840E-013
 -7.100000000000000E-003    1.328843259146570E-013
 -6.999999999999999E-003   -2.067556229964052E-014
 -6.899999999999999E-003   -1.919502987116415E-013
 -6.800000000000000E-003   -3.609863850652851E-013
 -6.699999999999999E-003   -5.054404341906418E-013
 -6.599999999999999E-003   -6.031335376657482E-013
 -6.499999999999999E-003   -6.349472734560996E-013
 -6.399999999999999E-003   -5.877442569170966E-013
 -6.299999999999999E-003   -4.569493866599183E-013
 -6.199999999999999E-003   -2.484003271727360E-013
 -6.100000000000000E-003    2.088697105025619E-014
 -5.999999999999999E-003    3.233157498474579E-013
 -5.899999999999999E-003    6.228173921750658E-013
 -5.800000000000000E-003    8.784397027972569E-013
 -5.699999999999999E-003    1.049178240631064E-012
 -5.599999999999999E-003    1.099599117979445E-012
 -5.499999999999999E-003    1.005609075797481E-012
 -5.399999999999999E-003    7.595863279822069E-013
 -5.299999999999999E-003    3.740367647392648E-013
 -5.199999999999999E-003   -1.170055074002344E-013
 -5.099999999999999E-003   -6.594249081156201E-013
 -4.999999999999999E-003   -1.183604452220922E-012
 -4.899999999999999E-003   -1.612007185618104E-012
 -4.799999999999999E-003   -1.869163992526443E-012
 -4.699999999999999E-003   -1.892991094557201E-012
 -4.599999999999999E-003   -1.645986382086553E-012
 -4.499999999999999E-003   -1.124594587957954E-012
 -4.399999999999999E-003   -3.650323875005371E-013
 -4.299999999999999E-003    5.559081573757691E-013
 -4.199999999999999E-003    1.526027951306706E-012
 -4.099999999999999E-003    2.409059276664887E-012
 -3.999999999999999E-003    3.061437256056479E-012
 -3.899999999999999E-003    3.352819711694214E-012
 -3.799999999999999E-003    3.187788414643504E-012
 -3.699999999999999E-003    2.525566924287102E-012
 -3.599999999999999E-003    1.394393396831004E-012
 -3.499999999999999E-003   -1.025211606977052E-013
 -3.399999999999999E-003   -1.791677613187943E-012
 -3.299999999999999E-003   -3.445521157780594E-012
 -3.199999999999999E-003   -4.809448014745093E-012
 -3.099999999999999E-003   -5.636981543313424E-012
 -2.999999999999999E-003   -5.728845614850979E-012
 -2.899999999999999E-003   -4.970384442084758E-012
 -2.799999999999999E-003   -3.361212970874102E-012
 -2.699999999999999E-003   -1.031318134992622E-012
 -2.599999999999999E-003    1.760877307289545E-012
 -2.499999999999999E-003    4.650751264606107E-012
 -2.399999999999999E-003    7.209408734650066E-012
 -2.299999999999999E-003    9.001442959767826E-012
 -2.199999999999999E-003    9.651644046716084E-012
 -2.099999999999999E-003    8.911375180033124E-012
 -1.999999999999999E-003    6.714101791660875E-012
 -1.899999999999999E-003    3.209852371027272E-012
 -1.799999999999999E-003   -1.229655915120555E-012
 -1.699999999999999E-003   -6.039936846654426E-012
 -1.599999999999999E-003   -1.052663312234798E-011
 -1.499999999999999E-003   -1.395692544657417E-011
 -1.399999999999999E-003   -1.566872560591788E-011
 -1.299999999999999E-003   -1.518272817083868E-011
 -1.199999999999999E-003   -1.230003326462003E-011
 -1.099999999999999E-003   -7.168110227349516E-012
 -9.999999999999989E-004   -3.007723171237678E-013
 -8.999999999999990E-004    7.456709035050689E-012
 -7.999999999999990E-004    1.501858734271431E-011
 -6.999999999999989E-004    2.119827859084699E-011
 -5.999999999999990E-004    2.488050752101423E-011
 -4.999999999999989E-004    2.520288299404045E-011
 -3.999999999999989E-004    2.171942042833247E-011
 -2.999999999999989E-004    1.451824565035585E-011
 -1.999999999999989E-004    4.269693754037366E-012
 -9.999999999999892E-005   -7.810769784682556E-012
  1.084202172485504E-018   -2.008873070103752E-011
  1.000000000000011E-004   -3.071640233549550E-011
  2.000000000000011E-004   -3.789427324462817E-011
  3.000000000000011E-004   -4.015415353762086E-011
  4.000000000000011E-004   -3.662162842767779E-011
  5.000000000000011E-004   -2.721474013133925E-011
  6.000000000000011E-004   -1.274090997905148E-011
  7.000000000000011E-004    5.133813458191584E-012
  8.000000000000011E-004    2.405189407331691E-011
  9.000000000000012E-004    4.125594168709675E-011
  1.000000000000001E-003    5.397233113941242E-011
  1.100000000000001E-003    5.983625603334729E-011
  1.200000000000001E-003    5.729631978492580E-011
  1.300000000000001E-003    4.593348050227317E-011
  1.400000000000001E-003    2.663612542876075E-011
  1.500000000000001E-003    1.589824200247469E-012
  1.600000000000001E-003   -2.593474049692899E-011
  1.700000000000001E-003   -5.198221644920228E-011
  1.800000000000001E-003   -7.245716415940235E-011
  1.900000000000001E-003   -8.374180034337117E-011
  2.000000000000001E-003   -8.329755103191467E-011
  2.100000000000001E-003   -7.015546780264929E-011
  2.200000000000001E-003   -4.520879390358665E-011
  2.300000000000001E-003   -1.124398202448242E-011
  2.400000000000001E-003    2.731861055810966E-011
  2.500000000000001E-003    6.496041097221821E-011
  2.600000000000001E-003    9.581842870767798E-011
  2.700000000000001E-003    1.145594866734132E-010
  2.800000000000001E-003    1.172499163475397E-010
  2.900000000000001E-003    1.020852575014590E-010
  3.000000000000001E-003    6.985446591917743E-011
  3.100000000000001E-003    2.404345746953814E-011
  3.200000000000001E-003   -2.946924457862168E-011
  3.300000000000001E-003   -8.311262332163460E-011
  3.400000000000001E-003   -1.286446266264253E-010
  3.500000000000001E-003   -1.583638186600661E-010
  3.600000000000001E-003   -1.663400802744693E-010
  3.700000000000001E-003   -1.494756819947693E-010
  3.800000000000001E-003   -1.082188358528405E-010
  3.900000000000001E-003   -4.679082405477431E-011
  4.000000000000001E-003    2.714816811151706E-011
  4.100000000000001E-003    1.033885068208637E-010
  4.200000000000001E-003    1.705240565165725E-010
  4.300000000000001E-003    2.175974795653670E-010
  4.400000000000001E-003    2.358086765123066E-010
  4.500000000000001E-003    2.200287551012448E-010
  4.600000000000002E-003    1.698724908037964E-010
  4.700000000000001E-003    9.013054772828276E-011
  4.800000000000001E-003   -9.553935544021682E-012
  4.900000000000002E-003   -1.157727177423776E-010
  5.000000000000001E-003   -2.130953925519945E-010
  5.100000000000001E-003   -2.862512062055116E-010
  5.200000000000001E-003   -3.224501544042301E-010
  5.300000000000002E-003   -3.134993085971443E-010
  5.400000000000001E-003   -2.573782451355194E-010
  5.500000000000001E-003   -1.589942535659676E-010
  5.600000000000002E-003   -2.994412573177383E-011
  5.700000000000001E-003    1.127523131875395E-010
  5.800000000000001E-003    2.488269873756224E-010
  5.900000000000002E-003    3.575810260518360E-010
  6.000000000000001E-003    4.209623627900332E-010
  6.100000000000001E-003    4.264559067341927E-010
  6.200000000000002E-003    3.693364406858787E-010
  6.300000000000002E-003    2.539010350199939E-010
  6.400000000000001E-003    9.342649338916513E-011
  6.500000000000001E-003   -9.122607295569942E-011
  6.600000000000002E-003   -2.742382654404019E-010
  6.700000000000001E-003   -4.283767988929482E-010
  6.800000000000001E-003   -5.289771184294414E-010
  6.900000000000002E-003   -5.577964158207156E-010
  7.000000000000001E-003   -5.061478580744805E-010
  7.100000000000001E-003   -3.767988329171476E-010
  7.200000000000002E-003   -1.842702800351371E-010
  7.300000000000002E-003    4.660776998807185E-011
  7.400000000000001E-003    2.837754494470185E-010
  7.500000000000001E-003    4.922952145523267E-010
  7.600000000000002E-003    6.394010599283214E-010
  7.700000000000001E-003    6.995303207471579E-010
  7.800000000000001E-003    6.585807953070868E-010
  7.900000000000001E-003    5.167090358941398E-010
  8.000000000000002E-003    2.891627013034584E-010
  8.100000000000001E-003    4.904642024811316E-012
  8.200000000000001E-003   -2.968959680409996E-010
  8.300000000000002E-003   -5.721055818609945E-010
  8.400000000000001E-003   -7.779202827959981E-010
  8.500000000000002E-003   -8.793304116862342E-010
  8.600000000000002E-003   -8.548003962570725E-010
  8.700000000000001E-003   -7.002693094069985E-010
  8.800000000000002E-003   -4.307776459557145E-010
  8.900000000000002E-003   -7.934176233388611E-011
  9.000000000000001E-003    3.069143010339455E-010
  9.100000000000002E-003    6.729478579517391E-010
  9.200000000000002E-003    9.635166125077109E-010
  9.300000000000001E-003    1.131363419330358E-009
  9.400000000000002E-003    1.144674200337034E-009
  9.500000000000001E-003    9.926569309840661E-010
  9.600000000000001E-003    6.883075646769526E-010
  9.700000000000002E-003    2.677950910944765E-010
  9.800000000000001E-003   -2.136287952482035E-010
  9.900000000000001E-003   -6.887781718008276E-010
  1.000000000000000E-002   -1.087842424513845E-009
  1.010000000000000E-002   -1.348591383241001E-009
  1.020000000000000E-002   -1.426005177142423E-009
  1.030000000000000E-002   -1.299865817773187E-009
  1.040000000000000E-002   -9.790713848431801E-010
  1.050000000000000E-002   -5.018516337866495E-010
  1.060000000000000E-002    6.836808976069005E-011
  1.070000000000000E-002    6.510775985586033E-010
  1.080000000000000E-002    1.159776723140099E-009
  1.090000000000000E-002    1.514569849474821E-009
  1.100000000000000E-002    1.654471605947043E-009
  1.110000000000000E-002    1.547584106729113E-009
  1.120000000000000E-002    1.197520815862619E-009
  1.130000000000000E-002    6.449253478542719E-010
  1.140000000000000E-002   -3.640562826763467E-011
  1.150000000000000E-002   -7.485113246679990E-010
  1.160000000000000E-002   -1.382315123714059E-009
  1.170000000000000E-002   -1.833026719033352E-009
  1.180000000000000E-002   -2.015756542831592E-009
  1.190000000000000E-002   -1.879061154283673E-009
  1.200000000000000E-002   -1.414329994565378E-009
  1.210000000000000E-002   -6.594304790254747E-010
  1.220000000000000E-002    3.042051274467438E-010
  1.230000000000000E-002    1.360942013125700E-009
  1.240000000000000E-002    2.375692974260003E-009
  1.250000000000000E-002    3.212151265470250E-009
  1.260000000000000E-002    3.752005181408217E-009
  1.270000000000000E-002    3.912370427225285E-009
  1.280000000000000E-002    3.658816791159046E-009
  1.290000000000000E-002    3.011899259880505E-009
  1.300000000000000E-002    2.045968734581371E-009
  1.310000000000000E-002    8.801267070497412E-010
  1.320000000000000E-002   -3.376542157086248E-010
  1.330000000000000E-002   -1.451162344381936E-009
  1.340000000000000E-002   -2.318452324860493E-009
  1.350000000000000E-002   -2.832937602262967E-009
  1.360000000000000E-002   -2.939844872726427E-009
  1.370000000000000E-002   -2.645344631933069E-009
  1.380000000000000E-002   -2.016646603537019E-009
  1.390000000000000E-002   -1.172600836317464E-009
  1.400000000000000E-002   -2.657380813219675E-010
  1.410000000000000E-002    5.420143295965786E-010
  1.420000000000000E-002    1.106663886010104E-009
  1.430000000000000E-002    1.328668067112394E-009
  1.440000000000000E-002    1.174727644161403E-009
  1.450000000000000E-002    6.914711975741951E-010
  1.460000000000000E-002    8.713769084256578E-012
  1.470000000000000E-002   -6.685949935647834E-010
  1.480000000000000E-002   -1.078968939068238E-009
  1.490000000000000E-002   -9.311956346045183E-010
  1.500000000000000E-002    6.428539434425076E-011
  1.510000000000000E-002    2.163914718261016E-009
  1.520000000000000E-002    5.564118815727721E-009
  1.530000000000000E-002    1.038311518699647E-008
  1.540000000000000E-002    1.665448808449816E-008
  1.550000000000000E-002    2.433393836681977E-008
  1.560000000000000E-002    3.331868541592951E-008
  1.570000000000000E-002    4.347716248467576E-008
  1.580000000000000E-002    5.468502783707406E-008
  1.590000000000000E-002    6.686235611661919E-008
  1.600000000000000E-002    8.000658986638551E-008
  1.610000000000000E-002    9.421614405733081E-008
  1.620000000000000E-002    1.097009072879682E-007
  1.630000000000000E-002    1.267774971737357E-007
  1.640000000000000E-002    1.458493855331744E-007
  1.650000000000000E-002    1.673742473867416E-007
  1.660000000000000E-002    1.918228702217229E-007
  1.670000000000000E-002    2.196352820804225E-007
  1.680000000000000E-002    2.511805334524562E-007
  1.690000000000000E-002    2.867259982320373E-007
  1.700000000000000E-002    3.264213086614890E-007
  1.710000000000000E-002    3.702996298327174E-007
  1.720000000000000E-002    4.182966394454306E-007
  1.730000000000000E-002    4.702855801294411E-007
  1.740000000000000E-002    5.261236299085245E-007
  1.750000000000000E-002    5.857027952561608E-007
  1.760000000000000E-002    6.489994739327814E-007
  1.770000000000000E-002    7.161140628072330E-007
  1.780000000000000E-002    7.872960357448679E-007
  1.790000000000000E-002    8.629494703237128E-007
  1.800000000000000E-002    9.436185389215411E-007
  1.810000000000000E-002    1.029954269445490E-006
  1.820000000000000E-002    1.122667142388371E-006
  1.830000000000000E-002    1.222472182754800E-006
  1.840000000000000E-002    1.330034478882910E-006
  1.850000000000000E-002    1.445922918677037E-006
  1.860000000000000E-002    1.570580159684857E-006
  1.870000000000000E-002    1.704312437028822E-006