 -4.000000000000000E-002    0.000000000000000E+000
 -3.990000000000000E-002    0.000000000000000E+000
 -3.980000000000000E-002    0.000000000000000E+000
 -3.970000000000000E-002    0.000000000000000E+000
 -3.960000000000000E-002    0.000000000000000E+000
 -3.950000000000000E-002    0.000000000000000E+000
 -3.940000000000000E-002    0.000000000000000E+000
 -3.930000000000000E-002    0.000000000000000E+000
 -3.920000000000000E-002    0.000000000000000E+000
 -3.910000000000000E-002    0.000000000000000E+000
 -3.900000000000000E-002    0.000000000000000E+000
 -3.890000000000000E-002    0.000000000000000E+000
 -3.880000000000000E-002    0.000000000000000E+000
 -3.870000000000000E-002    0.000000000000000E+000
 -3.860000000000000E-002    0.000000000000000E+000
 -3.850000000000000E-002    0.000000000000000E+000
 -3.840000000000000E-002    0.000000000000000E+000
 -3.830000000000000E-002    0.000000000000000E+000
 -3.820000000000000E-002    0.000000000000000E+000
 -3.810000000000000E-002    0.000000000000000E+000
 -3.800000000000000E-002    0.000000000000000E+000
 -3.790000000000000E-002    0.000000000000000E+000
 -3.780000000000000E-002    0.000000000000000E+000
 -3.770000000000000E-002    0.000000000000000E+000
 -3.760000000000000E-002    0.000000000000000E+000
 -3.750000000000000E-002    0.000000000000000E+000
 -3.740000000000000E-002    0.000000000000000E+000
 -3.730000000000000E-002    0.000000000000000E+000
 -3.720000000000000E-002    0.000000000000000E+000
 -3.710000000000000E-002    0.000000000000000E+000
 -3.700000000000000E-002    0.000000000000000E+000
 -3.690000000000000E-002    0.000000000000000E+000
 -3.680000000000000E-002    0.000000000000000E+000
 -3.670000000000000E-002    0.000000000000000E+000
 -3.660000000000000E-002    0.000000000000000E+000
 -3.650000000000000E-002    0.000000000000000E+000
 -3.640000000000000E-002    0.000000000000000E+000
 -3.630000000000000E-002    0.000000000000000E+000
 -3.620000000000000E-002    0.000000000000000E+000
 -3.610000000000000E-002    0.000000000000000E+000
 -3.600000000000000E-002    0.000000000000000E+000
 -3.590000000000000E-002    0.000000000000000E+000
 -3.580000000000000E-002    0.000000000000000E+000
 -3.570000000000000E-002    0.000000000000000E+000
 -3.560000000000000E-002    0.000000000000000E+000
 -3.550000000000000E-002    0.000000000000000E+000
 -3.540000000000000E-002    0.000000000000000E+000
 -3.530000000000000E-002    0.000000000000000E+000
 -3.520000000000000E-002    0.000000000000000E+000
 -3.510000000000000E-002    0.000000000000000E+000
 -3.500000000000000E-002    0.000000000000000E+000
 -3.490000000000000E-002    0.000000000000000E+000
 -3.480000000000000E-002    0.000000000000000E+000
 -3.470000000000000E-002    0.000000000000000E+000
 -3.460000000000000E-002    0.000000000000000E+000
 -3.450000000000000E-002    0.000000000000000E+000
 -3.440000000000000E-002    0.000000000000000E+000
 -3.430000000000000E-002    0.000000000000000E+000
 -3.420000000000000E-002    0.000000000000000E+000
 -3.410000000000000E-002    0.000000000000000E+000
 -3.400000000000000E-002    0.000000000000000E+000
 -3.390000000000000E-002    0.000000000000000E+000
 -3.380000000000000E-002    0.000000000000000E+000
 -3.370000000000000E-002    0.000000000000000E+000
 -3.360000000000000E-002    0.000000000000000E+000
 -3.350000000000000E-002    0.000000000000000E+000
 -3.340000000000000E-002    0.000000000000000E+000
 -3.330000000000000E-002    0.000000000000000E+000
 -3.320000000000000E-002    0.000000000000000E+000
 -3.310000000000000E-002    0.000000000000000E+000
 -3.300000000000000E-002    0.000000000000000E+000
 -3.290000000000000E-002    0.000000000000000E+000
 -3.280000000000000E-002    0.000000000000000E+000
 -3.270000000000000E-002    0.000000000000000E+000
 -3.260000000000000E-002    0.000000000000000E+000
 -3.250000000000000E-002    0.000000000000000E+000
 -3.240000000000000E-002    0.000000000000000E+000
 -3.230000000000000E-002    0.000000000000000E+000
 -3.220000000000000E-002    0.000000000000000E+000
 -3.210000000000000E-002    0.000000000000000E+000
 -3.200000000000000E-002    0.000000000000000E+000
 -3.190000000000000E-002    0.000000000000000E+000
 -3.180000000000000E-002    0.000000000000000E+000
 -3.170000000000000E-002    0.000000000000000E+000
 -3.160000000000000E-002    0.000000000000000E+000
 -3.150000000000000E-002    0.000000000000000E+000
 -3.140000000000000E-002    0.000000000000000E+000
 -3.130000000000000E-002    0.000000000000000E+000
 -3.120000000000000E-002    0.000000000000000E+000
 -3.110000000000000E-002    0.000000000000000E+000
 -3.100000000000000E-002    0.000000000000000E+000
 -3.090000000000000E-002    0.000000000000000E+000
 -3.080000000000000E-002    0.000000000000000E+000
 -3.070000000000000E-002    0.000000000000000E+000
 -3.060000000000000E-002    0.000000000000000E+000
 -3.050000000000000E-002    0.000000000000000E+000
 -3.040000000000000E-002    0.000000000000000E+000
 -3.030000000000000E-002    0.000000000000000E+000
 -3.020000000000000E-002    0.000000000000000E+000
 -3.010000000000000E-002    0.000000000000000E+000
 -3.000000000000000E-002    0.000000000000000E+000
 -2.990000000000000E-002    0.000000000000000E+000
 -2.980000000000000E-002    0.000000000000000E+000
 -2.970000000000000E-002    0.000000000000000E+000
 -2.960000000000000E-002    0.000000000000000E+000
 -2.950000000000000E-002    0.000000000000000E+000
 -2.940000000000000E-002    0.000000000000000E+000
 -2.930000000000000E-002    0.000000000000000E+000
 -2.920000000000000E-002    0.000000000000000E+000
 -2.910000000000000E-002    0.000000000000000E+000
 -2.900000000000000E-002    0.000000000000000E+000
 -2.890000000000000E-002    0.000000000000000E+000
 -2.880000000000000E-002    0.000000000000000E+000
 -2.870000000000000E-002    0.000000000000000E+000
 -2.860000000000000E-002    0.000000000000000E+000
 -2.850000000000000E-002    0.000000000000000E+000
 -2.840000000000000E-002    0.000000000000000E+000
 -2.830000000000000E-002    0.000000000000000E+000
 -2.820000000000000E-002    0.000000000000000E+000
 -2.810000000000000E-002    0.000000000000000E+000
 -2.800000000000000E-002    0.000000000000000E+000
 -2.790000000000000E-002    0.000000000000000E+000
 -2.780000000000000E-002    0.000000000000000E+000
 -2.770000000000000E-002    0.000000000000000E+000
 -2.760000000000000E-002    0.000000000000000E+000
 -2.750000000000000E-002    0.000000000000000E+000
 -2.740000000000000E-002    0.000000000000000E+000
 -2.730000000000000E-002    0.000000000000000E+000
 -2.720000000000000E-002    0.000000000000000E+000
 -2.710000000000000E-002    0.000000000000000E+000
 -2.700000000000000E-002    0.000000000000000E+000
 -2.690000000000000E-002    0.000000000000000E+000
 -2.680000000000000E-002    0.000000000000000E+000
 -2.670000000000000E-002    0.000000000000000E+000
 -2.660000000000000E-002    0.000000000000000E+000
 -2.650000000000000E-002    0.000000000000000E+000
 -2.640000000000000E-002    0.000000000000000E+000
 -2.630000000000000E-002    0.000000000000000E+000
 -2.620000000000000E-002    0.000000000000000E+000
 -2.610000000000000E-002    0.000000000000000E+000
 -2.600000000000000E-002    0.000000000000000E+000
 -2.590000000000000E-002    0.000000000000000E+000
 -2.580000000000000E-002    0.000000000000000E+000
 -2.570000000000000E-002    0.000000000000000E+000
 -2.560000000000000E-002    0.000000000000000E+000
 -2.550000000000000E-002    0.000000000000000E+000
 -2.540000000000000E-002    0.000000000000000E+000
 -2.530000000000000E-002    0.000000000000000E+000
 -2.520000000000000E-002    0.000000000000000E+000
 -2.510000000000000E-002    0.000000000000000E+000
 -2.500000000000000E-002    0.000000000000000E+000
 -2.490000000000000E-002    0.000000000000000E+000
 -2.480000000000000E-002    0.000000000000000E+000
 -2.470000000000000E-002    0.000000000000000E+000
 -2.460000000000000E-002    0.000000000000000E+000
 -2.450000000000000E-002    0.000000000000000E+000
 -2.440000000000000E-002    0.000000000000000E+000
 -2.430000000000000E-002    0.000000000000000E+000
 -2.420000000000000E-002    0.000000000000000E+000
 -2.410000000000000E-002    0.000000000000000E+000
 -2.400000000000000E-002    0.000000000000000E+000
 -2.390000000000000E-002    0.000000000000000E+000
 -2.380000000000000E-002    0.000000000000000E+000
 -2.370000000000000E-002    0.000000000000000E+000
 -2.360000000000000E-002    0.000000000000000E+000
 -2.350000000000000E-002    0.000000000000000E+000
 -2.340000000000000E-002    0.000000000000000E+000
 -2.330000000000000E-002    0.000000000000000E+000
 -2.320000000000000E-002    0.000000000000000E+000
 -2.310000000000000E-002    0.000000000000000E+000
 -2.300000000000000E-002    0.000000000000000E+000
 -2.290000000000000E-002    0.000000000000000E+000
 -2.280000000000000E-002    0.000000000000000E+000
 -2.270000000000000E-002    0.000000000000000E+000
 -2.260000000000000E-002    0.000000000000000E+000
 -2.250000000000000E-002    0.000000000000000E+000
 -2.240000000000000E-002    0.000000000000000E+000
 -2.230000000000000E-002    0.000000000000000E+000
 -2.220000000000000E-002    1.924390591266381E-047
 -2.210000000000000E-002    3.848781182532762E-047
 -2.200000000000000E-002    5.773171773799143E-047
 -2.190000000000000E-002    5.773171773799143E-047
 -2.180000000000000E-002    3.848781182532762E-047
 -2.170000000000000E-002   -1.924390591266381E-047
 -2.160000000000000E-002    2.329289974953594E-047
 -2.150000000000000E-002    1.017516631153748E-046
 -2.140000000000000E-002    6.454677835089142E-047
 -2.130000000000000E-002   -3.700467211014400E-047
 -2.120000000000000E-002   -3.648568528193397E-048
 -2.110000000000000E-002   -9.987119207717204E-046
 -2.100000000000000E-002   -1.358981029736336E-045
 -2.090000000000000E-002   -1.631810885909202E-045
 -2.080000000000000E-002   -2.011524113440821E-045
 -2.070000000000000E-002   -2.298305475135145E-045
 -2.060000000000000E-002   -1.554101526882304E-045
 -2.050000000000000E-002    4.171026559877441E-046
 -2.040000000000000E-002    3.057327761698913E-045
 -2.030000000000000E-002    7.672660643242203E-045
 -2.020000000000000E-002    1.371378109906656E-044
 -2.010000000000000E-002    2.048393430846666E-044
 -2.000000000000000E-002    2.665924543520908E-044
 -1.990000000000000E-002    2.921258578907696E-044
 -1.980000000000000E-002    2.587832370941929E-044
 -1.970000000000000E-002    1.192236886217820E-044
 -1.960000000000000E-002   -1.640801308708191E-044
 -1.950000000000000E-002   -6.122155312962644E-044
 -1.940000000000000E-002   -1.205250378652760E-043
 -1.930000000000000E-002   -1.877888447614161E-043
 -1.920000000000000E-002   -2.516332816008072E-043
 -1.910000000000000E-002   -2.904704456181293E-043
 -1.900000000000000E-002   -2.752171602332244E-043
 -1.890000000000000E-002   -1.720481050013784E-043
 -1.880000000000000E-002    5.069753926643611E-044
 -1.870000000000000E-002    4.158778604085490E-043
 -1.860000000000000E-002    9.197766339249802E-043
 -1.850000000000000E-002    1.518074776768771E-042
 -1.840000000000000E-002    2.110923361736868E-042
 -1.830000000000000E-002    2.530827995614618E-042
 -1.820000000000000E-002    2.546948244087507E-042
 -1.810000000000000E-002    1.881663509919542E-042
 -1.800000000000000E-002    2.610791292012268E-043
 -1.790000000000000E-002   -2.508927806776117E-042
 -1.780000000000000E-002   -6.439038386728328E-042
 -1.770000000000000E-002   -1.123336783989731E-041
 -1.760000000000000E-002   -1.617006319696046E-041
 -1.750000000000000E-002   -2.002148299149616E-041
 -1.740000000000000E-002   -2.106362687929825E-041
 -1.730000000000000E-002   -1.721932096913095E-041
 -1.720000000000000E-002   -6.395013774066108E-042
 -1.710000000000000E-002    1.297809043920688E-041
 -1.700000000000000E-002    4.119185099737682E-041
 -1.690000000000000E-002    7.639085000882420E-041
 -1.680000000000000E-002    1.137351081555559E-040
 -1.670000000000000E-002    1.448301366052920E-040
 -1.660000000000000E-002    1.577615303383936E-040
 -1.650000000000000E-002    1.380595248752847E-040
 -1.640000000000000E-002    7.093203854178222E-041
 -1.630000000000000E-002   -5.508506324507702E-041
 -1.620000000000000E-002   -2.431590966814637E-040
 -1.610000000000000E-002   -4.823903770974198E-040
 -1.600000000000000E-002   -7.422812582915391E-040
 -1.590000000000000E-002   -9.690027327201336E-040
 -1.580000000000000E-002   -1.085494978749486E-039
 -1.570000000000000E-002   -9.975939924237296E-040
 -1.560000000000000E-002   -6.080905177392384E-040
 -1.550000000000000E-002    1.603208208003551E-040
 -1.540000000000000E-002    1.333995109262334E-039
 -1.530000000000000E-002    2.852503303219131E-039
 -1.520000000000000E-002    4.534426537949636E-039
 -1.510000000000000E-002    6.054373957520624E-039
 -1.500000000000000E-002    6.943346649586855E-039
 -1.490000000000000E-002    6.625381898367412E-039
 -1.480000000000000E-002    4.501413739038700E-039
 -1.470000000000000E-002    8.538139589481167E-041
 -1.460000000000000E-002   -6.812735963014440E-039
 -1.450000000000000E-002   -1.587698014187444E-038
 -1.440000000000000E-002   -2.608619577532862E-038
 -1.430000000000000E-002   -3.558080479896385E-038
 -1.420000000000000E-002   -4.166416574198731E-038
 -1.410000000000000E-002   -4.101041784553547E-038
 -1.400000000000000E-002   -3.013797486792190E-038
 -1.390000000000000E-002   -6.173384173966152E-039
 -1.380000000000000E-002    3.212770493432968E-038
 -1.370000000000000E-002    8.321679668163648E-038
 -1.360000000000000E-002    1.416547715528570E-037
 -1.350000000000000E-002    1.973812226717686E-037
 -1.340000000000000E-002    2.357184890486549E-037
 -1.330000000000000E-002    2.384888771750965E-037
 -1.320000000000000E-002    1.865474397194234E-037
 -1.310000000000000E-002    6.384541111421130E-038
 -1.300000000000000E-002   -1.371721539347173E-037
 -1.290000000000000E-002   -4.094498143154823E-037
 -1.280000000000000E-002   -7.255846358557197E-037
 -1.270000000000000E-002   -1.034023519382085E-036
 -1.260000000000000E-002   -1.259064624630676E-036
 -1.250000000000000E-002   -1.306552531204210E-036
 -1.240000000000000E-002   -1.076734338220905E-036
 -1.230000000000000E-002   -4.847720673442746E-037
 -1.220000000000000E-002    5.121648072351928E-037
 -1.210000000000000E-002    1.884377892104472E-036
 -1.200000000000000E-002    3.501164127090051E-036
 -1.190000000000000E-002    5.112028929542285E-036
 -1.180000000000000E-002    6.346611384415711E-036
 -1.170000000000000E-002    6.742292563401633E-036
 -1.160000000000000E-002    5.806254510729445E-036
 -1.150000000000000E-002    3.113939991683227E-036
 -1.140000000000000E-002   -1.561637568666670E-036
 -1.130000000000000E-002   -8.105069452390452E-036
 -1.120000000000000E-002   -1.592423357030784E-035
 -1.110000000000000E-002   -2.386218113565893E-035
 -1.100000000000000E-002   -3.019676926307180E-035
 -1.090000000000000E-002   -3.276851920524321E-035
 -1.080000000000000E-002   -2.926635867566451E-035
 -1.070000000000000E-002   -1.767826726477973E-035
 -1.060000000000000E-002    3.120530084115815E-036
 -1.050000000000000E-002    3.271293069630256E-035
 -1.040000000000000E-002    6.853689914526641E-035
 -1.030000000000000E-002    1.054932870454914E-034
 -1.020000000000000E-002    1.359468845936118E-034
 -1.010000000000000E-002    1.502950308618455E-034
 -1.000000000000000E-002    1.382272908656789E-034
 -9.899999999999999E-003    9.069821042860315E-035
 -9.800000000000000E-003    2.484525092032588E-036
 -9.699999999999999E-003   -1.249886399240129E-034
 -9.599999999999999E-003   -2.810652615006764E-034
 -9.500000000000000E-003   -4.441994379062602E-034
 -9.399999999999999E-003   -5.819862864378843E-034
 -9.299999999999999E-003   -6.536001501091688E-034
 -9.200000000000000E-003   -6.151300445556283E-034
 -9.099999999999999E-003   -4.278651358784480E-034
 -8.999999999999999E-003   -6.895510022369982E-035
 -8.900000000000000E-003    4.569015842784356E-034
 -8.799999999999999E-003    1.106876614877452E-033
 -8.699999999999999E-003    1.793322553687429E-033
 -8.600000000000000E-003    2.384064128989477E-033
 -8.499999999999999E-003    2.712501300126720E-033
 -8.399999999999999E-003    2.599375970873574E-033
 -8.300000000000000E-003    1.886258029623952E-033
 -8.199999999999999E-003    4.782698874109433E-034
 -8.100000000000000E-003   -1.609460800548515E-033
 -8.000000000000000E-003   -4.210179403013786E-033
 -7.899999999999999E-003   -6.979689766312326E-033
 -7.800000000000000E-003   -9.398301007523436E-033
 -7.699999999999999E-003   -1.081128387796532E-032
 -7.599999999999999E-003   -1.051452946229690E-032
 -7.499999999999999E-003   -7.885010882691142E-033
 -7.399999999999999E-003   -2.545800990079009E-033
 -7.299999999999999E-003    5.456061447000523E-033
 -7.199999999999999E-003    1.549190948552779E-032
 -7.100000000000000E-003    2.625563005209814E-032
 -6.999999999999999E-003    3.577433944479991E-032
 -6.899999999999999E-003    4.156475232214154E-032
 -6.800000000000000E-003    4.095853932184502E-032
 -6.699999999999999E-003    3.159281603534320E-032
 -6.599999999999999E-003    1.202528744193571E-032
 -6.499999999999999E-003   -1.760845534854361E-032
 -6.399999999999999E-003   -5.501839898635176E-032
 -6.299999999999999E-003   -9.541679165775335E-032
 -6.199999999999999E-003   -1.315689974232808E-031
 -6.100000000000000E-003   -1.543764148253307E-031
 -5.999999999999999E-003   -1.540692433182101E-031
 -5.899999999999999E-003   -1.219872297980805E-031
 -5.800000000000000E-003   -5.279458936697756E-032
 -5.699999999999999E-003    5.317289232998029E-032
 -5.599999999999999E-003    1.878698740844166E-031
 -5.499999999999999E-003    3.343518962291158E-031
 -5.399999999999999E-003    4.669932487019438E-031
 -5.299999999999999E-003    5.535830396941751E-031
 -5.199999999999999E-003    5.595470059727983E-031
 -5.099999999999999E-003    4.541938316877977E-031
 -4.999999999999999E-003    2.184232976595830E-031
 -4.899999999999999E-003   -1.471701551490325E-031
 -4.799999999999999E-003   -6.153291044695473E-031
 -4.699999999999999E-003   -1.128142953788375E-030
 -4.599999999999999E-003   -1.597916005174378E-030
 -4.499999999999999E-003   -1.914440130857830E-030
 -4.399999999999999E-003   -1.959441491730135E-030
 -4.299999999999999E-003   -1.627762985497460E-030
 -4.199999999999999E-003   -8.533105455970855E-031
 -4.099999999999999E-003    3.638777184303434E-031
 -3.999999999999999E-003    1.934576181378034E-030
 -3.899999999999999E-003    3.667417377401710E-030
 -3.799999999999999E-003    5.272164121274565E-030
 -3.699999999999999E-003    6.384125655318230E-030
 -3.599999999999999E-003    6.611988914644217E-030
 -3.499999999999999E-003    5.607378868281771E-030
 -3.399999999999999E-003    3.149421085854745E-030
 -3.299999999999999E-003   -7.676991840966406E-031
 -3.199999999999999E-003   -5.860864706137485E-030
 -3.099999999999999E-003   -1.151734273717558E-029
 -2.999999999999999E-003   -1.680659626350896E-029
 -2.899999999999999E-003   -2.055974212849577E-029
 -2.799999999999999E-003   -2.152312339880383E-029
 -2.699999999999999E-003   -1.857976854727253E-029
 -2.599999999999999E-003   -1.101664261023472E-029
 -2.499999999999999E-003    1.200717867686630E-030
 -2.399999999999999E-003    1.719873001525119E-029
 -2.299999999999999E-003    3.507206759460498E-029
 -2.199999999999999E-003    5.192474937521915E-029
 -2.099999999999999E-003    6.412126184730177E-029
 -1.999999999999999E-003    6.776542581459178E-029
 -1.899999999999999E-003    5.938510723441556E-029
 -1.799999999999999E-003    3.675252789725704E-029
 -1.699999999999999E-003   -2.790978891259434E-031
 -1.599999999999999E-003   -4.908342506999070E-029
 -1.499999999999999E-003   -1.038960424572163E-028
 -1.399999999999999E-003   -1.559523535527167E-028
 -1.299999999999999E-003   -1.942591803667157E-028
 -1.199999999999999E-003   -2.070467758053255E-028
 -1.099999999999999E-003   -1.838273837907213E-028
 -9.999999999999989E-004   -1.178446254971694E-028
 -8.999999999999990E-004   -8.552445989988832E-030
 -7.999999999999990E-004    1.363535302064119E-028
 -6.999999999999989E-004    2.998890120056035E-028
 -5.999999999999990E-004    4.562258175582423E-028
 -4.999999999999989E-004    5.729979678642573E-028
 -3.999999999999989E-004    6.155860247073755E-028
 -2.999999999999989E-004    5.531431587362347E-028
 -1.999999999999989E-004    3.657155728729161E-028
 -9.999999999999892E-005    5.139930677371409E-029
  1.084202172485504E-018   -3.678493658121880E-028
  1.000000000000011E-004   -8.432831582670000E-028
  2.000000000000011E-004   -1.300741787018250E-027
  3.000000000000011E-004   -1.647354959535840E-027
  4.000000000000011E-004   -1.783849464512869E-027
  5.000000000000011E-004   -1.621735620362609E-027
  6.000000000000011E-004   -1.103483378408875E-027
  7.000000000000011E-004   -2.226726828527865E-028
  8.000000000000011E-004    9.597838666123478E-028
  9.000000000000012E-004    2.307613237371822E-027
  1.000000000000001E-003    3.613280349007350E-027
  1.100000000000001E-003    4.616930859969669E-027
  1.200000000000001E-003    5.040828656067970E-027
  1.300000000000001E-003    4.637125567080069E-027
  1.400000000000001E-003    3.243633021408681E-027
  1.500000000000001E-003    8.391940222280531E-028
  1.600000000000001E-003   -2.412045763205610E-027
  1.700000000000001E-003   -6.139082125268350E-027
  1.800000000000001E-003   -9.775740345379495E-027
  1.900000000000001E-003   -1.261274794158608E-026
  2.000000000000001E-003   -1.389160574335533E-026
  2.100000000000001E-003   -1.293408562304913E-026
  2.200000000000001E-003   -9.292679213271767E-027
  2.300000000000001E-003   -2.899243764602427E-027
  2.400000000000001E-003    5.816837475737088E-027
  2.500000000000001E-003    1.587178219630099E-026
  2.600000000000001E-003    2.575943626411595E-026
  2.700000000000001E-003    3.359050145210278E-026
  2.800000000000001E-003    3.734194945540891E-026
  2.900000000000001E-003    3.519953064571386E-026
  3.000000000000001E-003    2.595408059900597E-026
  3.100000000000001E-003    9.391577689965181E-027
  3.200000000000001E-003   -1.339813849524723E-026
  3.300000000000001E-003   -3.987376201165886E-026
  3.400000000000001E-003   -6.612686460421196E-026
  3.500000000000001E-003   -8.724413633204474E-026
  3.600000000000001E-003   -9.795356826050095E-026
  3.700000000000001E-003   -9.350872562155362E-026
  3.800000000000001E-003   -7.070878655442836E-026
  3.900000000000001E-003   -2.889949726456405E-026
  4.000000000000001E-003    2.923666038224913E-026
  4.100000000000001E-003    9.730327506878299E-026
  4.200000000000001E-003    1.654034688074229E-025
  4.300000000000001E-003    2.210574287283406E-025
  4.400000000000001E-003    2.508354912627445E-025
  4.500000000000001E-003    2.425880188301448E-025
  4.600000000000002E-003    1.880116308273621E-025
  4.700000000000001E-003    8.516279930995964E-026
  4.800000000000001E-003   -5.955986319389171E-026
  4.900000000000002E-003   -2.304658472288729E-025
  5.000000000000001E-003   -4.030922072963799E-025
  5.100000000000001E-003   -5.464671631004307E-025
  5.200000000000001E-003   -6.271383919313227E-025
  5.300000000000002E-003   -6.146676095915716E-025
  5.400000000000001E-003   -4.879452293784926E-025
  5.500000000000001E-003   -2.413702282729103E-025
  5.600000000000002E-003    1.102732693085859E-025
  5.700000000000001E-003    5.294593988541831E-025
  5.800000000000001E-003    9.571360204442974E-025
  5.900000000000002E-003    1.318165760852668E-024
  6.000000000000001E-003    1.531031949844565E-024
  6.100000000000001E-003    1.521075733841027E-024
  6.200000000000002E-003    1.235703831443592E-024
  6.300000000000002E-003    6.592731274684810E-025
  6.400000000000001E-003   -1.751395011007468E-025
  6.500000000000001E-003   -1.179973542384905E-024
  6.600000000000002E-003   -2.215914245663945E-024
  6.700000000000001E-003   -3.104649484369616E-024
  6.800000000000001E-003   -3.651725270495595E-024
  6.900000000000002E-003   -3.677747615156651E-024
  7.000000000000001E-003   -3.054256769834625E-024
  7.100000000000001E-003   -1.738876314055949E-024
  7.200000000000002E-003    1.967926898562995E-025
  7.300000000000002E-003    2.553269456428322E-024
  7.400000000000001E-003    5.009058392409320E-024
  7.500000000000001E-003    7.149826496325019E-024
  7.600000000000002E-003    8.521039220061470E-024
  7.700000000000001E-003    8.699993581192432E-024
  7.800000000000001E-003    7.378766671313300E-024
  7.900000000000001E-003    4.445664800289855E-024
  8.000000000000002E-003    5.021862599020389E-026
  8.100000000000001E-003   -5.363708124494927E-024
  8.200000000000001E-003   -1.106987626325703E-023
  8.300000000000002E-003   -1.612476404342776E-023
  8.400000000000001E-003   -1.948617098726791E-023
  8.500000000000002E-003   -2.017616284863903E-023
  8.600000000000002E-003   -1.746921638036731E-023
  8.700000000000001E-003   -1.107763864562500E-023
  8.800000000000002E-003   -1.300579131139974E-024
  8.900000000000002E-003    1.089800515667584E-023
  9.000000000000001E-003    2.391203505530710E-023
  9.100000000000002E-003    3.563486114656816E-023
  9.200000000000002E-003    4.372071279082392E-023
  9.300000000000001E-003    4.594597067133866E-023
  9.400000000000002E-003    4.062802488355624E-023
  9.500000000000001E-003    2.704012002978179E-023
  9.600000000000001E-003    5.747842540937372E-024
  9.700000000000002E-003   -2.120916446509418E-023
  9.800000000000001E-003   -5.035582903304553E-023
  9.900000000000001E-003   -7.708120450770744E-023
  1.000000000000000E-002   -9.620214149000217E-023
  1.010000000000000E-002   -1.027482835120517E-022
  1.020000000000000E-002   -9.287730125657060E-023
  1.030000000000000E-002   -6.478731051993483E-023
  1.040000000000000E-002   -1.946540916325769E-023
  1.050000000000000E-002    3.889354932529432E-023
  1.060000000000000E-002    1.029407333494877E-022
  1.070000000000000E-002    1.627893390056213E-022
  1.080000000000000E-002    2.072025865296328E-022
  1.090000000000000E-002    2.252648081749499E-022
  1.100000000000000E-002    2.083445274892802E-022
  1.110000000000000E-002    1.520666548662926E-022
  1.120000000000000E-002    5.795209892722482E-023
  1.130000000000000E-002   -6.562938528345829E-023
  1.140000000000000E-002   -2.034996891268828E-022
  1.150000000000000E-002   -3.349021044738600E-022
  1.160000000000000E-002   -4.359482706830958E-022
  1.170000000000000E-002   -4.831052783252305E-022
  1.180000000000000E-002   -4.573270564765583E-022
  1.190000000000000E-002   -3.482442910562709E-022
  1.200000000000000E-002   -1.576990476883065E-022
  1.210000000000000E-002    9.811959744115563E-023
  1.220000000000000E-002    3.885870591622516E-022
  1.230000000000000E-002    6.710249029677728E-022
  1.240000000000000E-002    8.956313032957452E-022
  1.250000000000000E-002    1.012613977483399E-021
  1.260000000000000E-002    9.807290270333473E-022
  1.270000000000000E-002    7.760325567436175E-022
  1.280000000000000E-002    3.993786190597037E-022
  1.290000000000000E-002   -1.188706093088292E-022
  1.300000000000000E-002   -7.182749623185219E-022
  1.310000000000000E-002   -1.312789519798176E-021
  1.320000000000000E-002   -1.800488194036401E-021
  1.330000000000000E-002   -2.077885286686452E-021
  1.340000000000000E-002   -2.057283280025461E-021
  1.350000000000000E-002   -1.684758985624417E-021
  1.360000000000000E-002   -9.558291546855043E-022
  1.370000000000000E-002    7.432486543120570E-023
  1.380000000000000E-002    1.288857646972581E-021
  1.390000000000000E-002    2.517386464094236E-021
  1.400000000000000E-002    3.554776641044687E-021
  1.410000000000000E-002    4.189390826361163E-021
  1.420000000000000E-002    4.237772002609036E-021
  1.430000000000000E-002    3.581060099172841E-021
  1.440000000000000E-002    2.197269326600752E-021
  1.450000000000000E-002    1.831658699406067E-022
  1.460000000000000E-002   -2.239910200122875E-021
  1.470000000000000E-002   -4.740249919015277E-021
  1.480000000000000E-002   -6.911303937879351E-021
  1.490000000000000E-002   -8.326456925994529E-021
  1.500000000000000E-002   -8.607303841660520E-021
  1.510000000000000E-002   -7.496363373486537E-021
  1.520000000000000E-002   -4.922731824408948E-021
  1.530000000000000E-002   -1.048286266841538E-021
  1.540000000000000E-002    3.716908110031280E-021
  1.550000000000000E-002    8.738190225409861E-021
  1.560000000000000E-002    1.322199130985247E-020
  1.570000000000000E-002    1.632017218742415E-020
  1.580000000000000E-002    1.726238350899695E-020
  1.590000000000000E-002    1.549925745822010E-020
  1.600000000000000E-002    1.083426056433454E-020
  1.610000000000000E-002    3.520045508554706E-021
  1.620000000000000E-002   -5.703222877933943E-021
  1.630000000000000E-002   -1.564433263999374E-020
  1.640000000000000E-002   -2.477943196480970E-020
  1.650000000000000E-002   -3.144706993905344E-020
  1.660000000000000E-002   -3.410073446995304E-020
  1.670000000000000E-002   -3.158678941146836E-020
  1.680000000000000E-002   -2.340577148904213E-020
  1.690000000000000E-002   -9.910503170716144E-021
  1.700000000000000E-002    7.603075639341062E-021
  1.710000000000000E-002    2.694623743966843E-020
  1.720000000000000E-002    4.524506570083267E-020
  1.730000000000000E-002    5.929798441140928E-020
  1.740000000000000E-002    6.604961063447153E-020
  1.750000000000000E-002    6.312211448072107E-020
  1.760000000000000E-002    4.932560917997498E-020
  1.770000000000000E-002    2.505909355810759E-020
  1.780000000000000E-002   -7.483278439384891E-021
  1.790000000000000E-002   -4.436811572630751E-020
  1.800000000000000E-002   -8.027621231213281E-020
  1.810000000000000E-002   -1.091452893595861E-019
  1.820000000000000E-002   -1.250444212150091E-019
  1.830000000000000E-002   -1.231745161445438E-019
  1.840000000000000E-002   -1.008502537985724E-019
  1.850000000000000E-002   -5.829784463116368E-020
  1.860000000000000E-002    8.942974092928879E-022
  1.870000000000000E-002    6.980436019981132E-020