 -4.000000000000000E-002    0.000000000000000E+000
 -3.990000000000000E-002    0.000000000000000E+000
 -3.980000000000000E-002    0.000000000000000E+000
 -3.970000000000000E-002    0.000000000000000E+000
 -3.960000000000000E-002    0.000000000000000E+000
 -3.950000000000000E-002    0.000000000000000E+000
 -3.940000000000000E-002   -1.303193218658466E-021
 -3.930000000000000E-002   -1.575733143852321E-020
 -3.920000000000000E-002   -1.009926722040219E-019
 -3.910000000000000E-002   -4.541942989679251E-019
 -3.900000000000000E-002   -1.601133280831549E-018
 -3.890000000000000E-002   -4.685205785455018E-018
 -3.880000000000000E-002   -1.176075262545598E-017
 -3.870000000000000E-002   -2.580566910638888E-017
 -3.860000000000000E-002   -4.991229124693025E-017
 -3.850000000000000E-002   -8.488980585517946E-017
 -3.840000000000000E-002   -1.245043355784373E-016
 -3.830000000000000E-002   -1.480501518623144E-016
 -3.820000000000000E-002   -1.111263225182758E-016
 -3.810000000000000E-002    6.253456975412016E-017
 -3.800000000000000E-002    4.828336689790035E-016
 -3.790000000000000E-002    1.281015498207391E-015
 -3.780000000000000E-002    2.574799934715052E-015
 -3.770000000000000E-002    4.404514937190564E-015
 -3.760000000000000E-002    6.640249473732469E-015
 -3.750000000000000E-002    8.871371923588481E-015
 -3.740000000000000E-002    1.030495824387452E-014
 -3.730000000000000E-002    9.715581232868023E-015
 -3.720000000000000E-002    5.500232846823040E-015
 -3.710000000000000E-002   -4.107928627433570E-015
 -3.700000000000000E-002   -2.063134241200907E-014
 -3.690000000000000E-002   -4.474974951299801E-014
 -3.680000000000000E-002   -7.557721823593294E-014
 -3.670000000000000E-002   -1.099533104593087E-013
 -3.660000000000000E-002   -1.419565511023736E-013
 -3.650000000000000E-002   -1.628906954959728E-013
 -3.640000000000000E-002   -1.619845805415186E-013
 -3.630000000000000E-002   -1.279636515412597E-013
 -3.620000000000000E-002   -5.148788227382525E-014
 -3.610000000000000E-002    7.178181920429476E-014
 -3.600000000000000E-002    2.379925215249869E-013
 -3.590000000000000E-002    4.325266788487853E-013
 -3.580000000000000E-002    6.289307227972550E-013
 -3.570000000000000E-002    7.901919697808512E-013
 -3.560000000000000E-002    8.729460465273137E-013
 -3.550000000000000E-002    8.346908925215858E-013
 -3.540000000000000E-002    6.433798705733173E-013
 -3.530000000000000E-002    2.879790552748563E-013
 -3.520000000000000E-002   -2.121330650916294E-013
 -3.510000000000000E-002   -8.014664207504710E-013
 -3.500000000000000E-002   -1.388916158391538E-012
 -3.490000000000000E-002   -1.856295469973404E-012
 -3.480000000000000E-002   -2.075468145631640E-012
 -3.470000000000000E-002   -1.932860945705999E-012
 -3.460000000000000E-002   -1.358127036681535E-012
 -3.450000000000000E-002   -3.518935338097983E-013
 -3.440000000000000E-002    9.936669168431364E-013
 -3.430000000000000E-002    2.487823096674149E-012
 -3.420000000000000E-002    3.852954273225646E-012
 -3.410000000000000E-002    4.757337584017074E-012
 -3.400000000000000E-002    4.867618246394909E-012
 -3.390000000000000E-002    3.915049273056251E-012
 -3.380000000000000E-002    1.765326343140007E-012
 -3.370000000000000E-002   -1.521221114553151E-012
 -3.360000000000000E-002   -5.653295024413275E-012
 -3.350000000000000E-002   -1.010859220022523E-011
 -3.340000000000000E-002   -1.417783070412792E-011
 -3.330000000000000E-002   -1.705339027164506E-011
 -3.320000000000000E-002   -1.795443658932594E-011
 -3.310000000000000E-002   -1.627169639465902E-011
 -3.300000000000000E-002   -1.170815543289650E-011
 -3.290000000000000E-002   -4.388537681988551E-012
 -3.280000000000000E-002    5.088245878089784E-012
 -3.270000000000000E-002    1.567287131202725E-011
 -3.260000000000000E-002    2.597346561195967E-011
 -3.250000000000000E-002    3.444083115678627E-011
 -3.240000000000000E-002    3.960887613996881E-011
 -3.230000000000000E-002    4.035475654543815E-011
 -3.220000000000000E-002    3.613471694174968E-011
 -3.210000000000000E-002    2.715030333843228E-011
 -3.200000000000000E-002    1.440650626666969E-011
 -3.190000000000000E-002   -3.618498848092167E-013
 -3.180000000000000E-002   -1.489846729099735E-011
 -3.170000000000000E-002   -2.674825990023674E-011
 -3.160000000000000E-002   -3.365198183366932E-011
 -3.150000000000000E-002   -3.395389875393809E-011
 -3.140000000000000E-002   -2.695606087781607E-011
 -3.130000000000000E-002   -1.315597761358183E-011
 -3.120000000000000E-002    5.681242529245857E-012
 -3.110000000000000E-002    2.664202107958678E-011
 -3.100000000000000E-002    4.597197433080851E-011
 -3.090000000000000E-002    5.954025205275701E-011
 -3.080000000000000E-002    6.340391721340431E-011
 -3.070000000000000E-002    5.439934095097642E-011
 -3.060000000000000E-002    3.068196926556400E-011
 -3.050000000000000E-002   -7.858268798463821E-012
 -3.040000000000000E-002   -5.936316901149227E-011
 -3.030000000000000E-002   -1.199890141718457E-010
 -3.020000000000000E-002   -1.841161473963647E-010
 -3.010000000000000E-002   -2.447718986396031E-010
 -3.000000000000000E-002   -2.942339636492082E-010
 -2.990000000000000E-002   -3.247666333487368E-010
 -2.980000000000000E-002   -3.294329664856483E-010
 -2.970000000000000E-002   -3.029193481713623E-010
 -2.960000000000000E-002   -2.423035627694023E-010
 -2.950000000000000E-002   -1.476921315403044E-010
 -2.940000000000000E-002   -2.264807486890362E-011
 -2.930000000000000E-002    1.256716732960093E-010
 -2.920000000000000E-002    2.867440162816469E-010
 -2.910000000000000E-002    4.473284165681055E-010
 -2.900000000000000E-002    5.925556030062378E-010
 -2.890000000000000E-002    7.074198934070638E-010
 -2.880000000000000E-002    7.785665553763676E-010
 -2.870000000000000E-002    7.961872750912558E-010
 -2.860000000000000E-002    7.557638729021189E-010
 -2.850000000000000E-002    6.593549187296349E-010
 -2.840000000000000E-002    5.161165534133248E-010
 -2.830000000000000E-002    3.418034816815355E-010
 -2.820000000000000E-002    1.571155877713354E-010
 -2.810000000000000E-002   -1.506883408048348E-011
 -2.800000000000000E-002   -1.533190888538258E-010
 -2.790000000000000E-002   -2.416670973349534E-010
 -2.780000000000000E-002   -2.733663743574145E-010
 -2.770000000000000E-002   -2.536545246219352E-010
 -2.760000000000000E-002   -2.008115612272256E-010
 -2.750000000000000E-002   -1.449725716681854E-010
 -2.740000000000000E-002   -1.244657973672486E-010
 -2.730000000000000E-002   -1.798581633839861E-010
 -2.720000000000000E-002   -3.463546254245013E-010
 -2.710000000000000E-002   -6.456239818267424E-010
 -2.700000000000000E-002   -1.078431298227106E-009
 -2.690000000000000E-002   -1.619561350878676E-009
 -2.680000000000000E-002   -2.216365564256325E-009
 -2.670000000000000E-002   -2.791841788571414E-009
 -2.660000000000000E-002   -3.252492117265826E-009
 -2.650000000000000E-002   -3.500394142020589E-009
 -2.640000000000000E-002   -3.448078608422742E-009
 -2.630000000000000E-002   -3.034100939131431E-009
 -2.620000000000000E-002   -2.236753337996608E-009
 -2.610000000000000E-002   -1.083329688754479E-009
 -2.600000000000000E-002    3.472272106786450E-010
 -2.590000000000000E-002    1.929605285867772E-009
 -2.580000000000000E-002    3.505434429234963E-009
 -2.570000000000000E-002    4.903355615881395E-009
 -2.560000000000000E-002    5.963261560971985E-009
 -2.550000000000000E-002    6.561101682300477E-009
 -2.540000000000000E-002    6.630152695053360E-009
 -2.530000000000000E-002    6.174829735885703E-009
 -2.520000000000000E-002    5.273983346242663E-009
 -2.510000000000000E-002    4.072150324183236E-009
 -2.500000000000000E-002    2.759145542660822E-009
 -2.490000000000000E-002    1.540447404572697E-009
 -2.480000000000000E-002    6.026450469824878E-010
 -2.470000000000000E-002    7.946918991887224E-011
 -2.460000000000000E-002    2.432029591622469E-011
 -2.450000000000000E-002    3.946070094279271E-010
 -2.440000000000000E-002    1.051625013496016E-009
 -2.430000000000000E-002    1.777335298073137E-009
 -2.420000000000000E-002    2.306599683621292E-009
 -2.410000000000000E-002    2.370644959844202E-009
 -2.400000000000000E-002    1.745259367216812E-009
 -2.390000000000000E-002    2.958968731226917E-010
 -2.380000000000000E-002   -1.988205433779245E-009
 -2.370000000000000E-002   -4.977527406106934E-009
 -2.360000000000000E-002   -8.407500800167313E-009
 -2.350000000000000E-002   -1.190623418701512E-008
 -2.340000000000000E-002   -1.504175484179958E-008
 -2.330000000000000E-002   -1.738234319632366E-008
 -2.320000000000000E-002   -1.856096891527739E-008
 -2.310000000000000E-002   -1.833363586858580E-008
 -2.300000000000000E-002   -1.662188882705991E-008
 -2.290000000000000E-002   -1.353185637199271E-008
 -2.280000000000000E-002   -9.345684303872234E-009
 -2.270000000000000E-002   -4.485573597936015E-009
 -2.260000000000000E-002    5.448657076816252E-010
 -2.250000000000000E-002    5.233337441634675E-009
 -2.240000000000000E-002    9.134421357526881E-009
 -2.230000000000000E-002    1.193590088074014E-008
 -2.220000000000000E-002    1.350490397955535E-008
 -2.210000000000000E-002    1.390590128841225E-008
 -2.200000000000000E-002    1.338695223955683E-008
 -2.190000000000000E-002    1.233574439758413E-008
 -2.180000000000000E-002    1.121189946929146E-008
 -2.170000000000000E-002    1.046607643238366E-008
 -2.160000000000000E-002    1.045879466131092E-008
 -2.150000000000000E-002    1.139222838878288E-008
 -2.140000000000000E-002    1.326641714122007E-008
 -2.130000000000000E-002    1.586764401926296E-008
 -2.120000000000000E-002    1.879175703667477E-008
 -2.110000000000000E-002    2.149973152472093E-008
 -2.100000000000000E-002    2.339767665431489E-008
 -2.090000000000000E-002    2.392960978794116E-008
 -2.080000000000000E-002    2.266926446628379E-008
 -2.070000000000000E-002    1.939728086977508E-008
 -2.060000000000000E-002    1.415230795331429E-008
 -2.050000000000000E-002    7.248483391943532E-009
 -2.040000000000000E-002   -7.432199372277906E-010
 -2.030000000000000E-002   -9.046953806673386E-009
 -2.020000000000000E-002   -1.675963918153852E-008
 -2.010000000000000E-002   -2.294309214838774E-008
 -2.000000000000000E-002   -2.671760262369875E-008
 -1.990000000000000E-002   -2.734402057212120E-008
 -1.980000000000000E-002   -2.428339670353026E-008
 -1.970000000000000E-002   -1.722664265783587E-008
 -1.960000000000000E-002   -6.091036800405745E-009
 -1.950000000000000E-002    9.014942533155986E-009
 -1.940000000000000E-002    2.785282034958422E-008
 -1.930000000000000E-002    5.013239693220907E-008
 -1.920000000000000E-002    7.559610839070312E-008
 -1.910000000000000E-002    1.040982780706295E-007
 -1.900000000000000E-002    1.356686507320201E-007
 -1.890000000000000E-002    1.705523121427803E-007
 -1.880000000000000E-002    2.092207471348376E-007
 -1.870000000000000E-002    2.523528619639036E-007
 -1.860000000000000E-002    3.007881354550107E-007
 -1.850000000000000E-002    3.554576532920835E-007
 -1.840000000000000E-002    4.173017322119269E-007
 -1.830000000000000E-002    4.871840232688381E-007
 -1.820000000000000E-002    5.658133787149128E-007
 -1.810000000000000E-002    6.536840450983833E-007
 -1.800000000000000E-002    7.510431640471815E-007
 -1.790000000000000E-002    8.578915114777212E-007
 -1.780000000000000E-002    9.740194771327131E-007
 -1.770000000000000E-002    1.099076710246549E-006
 -1.760000000000000E-002    1.232668567613156E-006
 -1.750000000000000E-002    1.374467963391121E-006
 -1.740000000000000E-002    1.524329758280485E-006
 -1.730000000000000E-002    1.682391310829629E-006
 -1.720000000000000E-002    1.849143986205036E-006
 -1.710000000000000E-002    2.025463999432581E-006
 -1.700000000000000E-002    2.212593193873976E-006
 -1.690000000000000E-002    2.412070372401121E-006
 -1.680000000000000E-002    2.625618978922667E-006
 -1.670000000000000E-002    2.855002110075480E-006
 -1.660000000000000E-002    3.101869049963559E-006
 -1.650000000000000E-002    3.367610019754999E-006
 -1.640000000000000E-002    3.653247410845159E-006
 -1.630000000000000E-002    3.959380498548978E-006
 -1.620000000000000E-002    4.286196901752062E-006
 -1.610000000000000E-002    4.633553948550445E-006
 -1.600000000000000E-002    5.001123835400070E-006
 -1.590000000000000E-002    5.388582332103256E-006
 -1.580000000000000E-002    5.795816005552273E-006
 -1.570000000000000E-002    6.223116918279003E-006
 -1.560000000000000E-002    6.671333903729179E-006
 -1.550000000000000E-002    7.141953172347397E-006
 -1.540000000000000E-002    7.637094359636957E-006
 -1.530000000000000E-002    8.159418804265110E-006
 -1.520000000000000E-002    8.711957782535425E-006
 -1.510000000000000E-002    9.297894646905049E-006
 -1.500000000000000E-002    9.920320385348277E-006
 -1.490000000000000E-002    1.058201779252762E-005
 -1.480000000000000E-002    1.128530098868606E-005
 -1.470000000000000E-002    1.203194189219167E-005
 -1.460000000000000E-002    1.282320004851049E-005
 -1.450000000000000E-002    1.365995744093507E-005
 -1.440000000000000E-002    1.454293998352589E-005
 -1.430000000000000E-002    1.547298880955109E-005
 -1.420000000000000E-002    1.645134952804134E-005
 -1.410000000000000E-002    1.747992366512715E-005
 -1.400000000000000E-002    1.856144877182145E-005
 -1.390000000000000E-002    1.969957677775226E-005
 -1.380000000000000E-002    2.089883417469601E-005
 -1.370000000000000E-002    2.216447311561546E-005
 -1.360000000000000E-002    2.350223521021261E-005
 -1.350000000000000E-002    2.491806743688967E-005
 -1.340000000000000E-002    2.641783049475435E-005
 -1.330000000000000E-002    2.800705937808205E-005
 -1.320000000000000E-002    2.969079696291903E-005
 -1.310000000000000E-002    3.147354661065449E-005
 -1.300000000000000E-002    3.335933125027545E-005
 -1.290000000000000E-002    3.535186801421538E-005
 -1.280000000000000E-002    3.745480199002967E-005
 -1.270000000000000E-002    3.967200008574061E-005
 -1.260000000000000E-002    4.200780417576049E-005
 -1.250000000000000E-002    4.446726059034904E-005
 -1.240000000000000E-002    4.705623879096209E-005
 -1.230000000000000E-002    4.978147171186803E-005
 -1.220000000000000E-002    5.265047644798583E-005
 -1.210000000000000E-002    5.567139369604959E-005
 -1.200000000000000E-002    5.885277806322366E-005
 -1.190000000000000E-002    6.220337948225117E-005
 -1.180000000000000E-002    6.573195840594141E-005
 -1.170000000000000E-002    6.944714142781254E-005
 -1.160000000000000E-002    7.335739259365760E-005
 -1.150000000000000E-002    7.747106200147262E-005
 -1.140000000000000E-002    8.179651787217539E-005
 -1.130000000000000E-002    8.634236309872986E-005
 -1.120000000000000E-002    9.111764639243069E-005
 -1.110000000000000E-002    9.613210306476804E-005
 -1.100000000000000E-002    1.013963371201595E-004
 -1.090000000000000E-002    1.069219596934453E-004
 -1.080000000000000E-002    1.127215882574993E-004
 -1.070000000000000E-002    1.188088610392749E-004
 -1.060000000000000E-002    1.251983042058436E-004
 -1.050000000000000E-002    1.319051954940196E-004
 -1.040000000000000E-002    1.389454115350860E-004
 -1.030000000000000E-002    1.463352484894983E-004
 -1.020000000000000E-002    1.540913624539444E-004
 -1.010000000000000E-002    1.622306454234417E-004
 -1.000000000000000E-002    1.707702660227843E-004
 -9.899999999999999E-003    1.797277204257138E-004
 -9.800000000000000E-003    1.891209755227162E-004
 -9.699999999999999E-003    1.989685166964969E-004
 -9.599999999999999E-003    2.092896213026307E-004
 -9.500000000000000E-003    2.201044301715121E-004
 -9.399999999999999E-003    2.314340712455941E-004
 -9.299999999999999E-003    2.433008007260265E-004
 -9.200000000000000E-003    2.557280441830795E-004
 -9.099999999999999E-003    2.687403559360382E-004
 -8.999999999999999E-003    2.823634706088646E-004
 -8.900000000000000E-003    2.966242236124852E-004
 -8.799999999999999E-003    3.115504614882928E-004
 -8.699999999999999E-003    3.271710314773219E-004
 -8.600000000000000E-003    3.435156305317039E-004
 -8.499999999999999E-003    3.606147834936353E-004
 -8.399999999999999E-003    3.784997249324411E-004
 -8.300000000000000E-003    3.972024528930379E-004
 -8.199999999999999E-003    4.167556831902727E-004
 -8.100000000000000E-003    4.371929483960634E-004
 -8.000000000000000E-003    4.585486292645225E-004
 -7.899999999999999E-003    4.808579814265638E-004
 -7.800000000000000E-003    5.041574866534791E-004
 -7.699999999999999E-003    5.284847675004362E-004
 -7.599999999999999E-003    5.538788645782273E-004
 -7.499999999999999E-003    5.803803299131903E-004
 -7.399999999999999E-003    6.080312410777751E-004
 -7.299999999999999E-003    6.368752996540842E-004
 -7.199999999999999E-003    6.669578172219941E-004
 -7.100000000000000E-003    6.983255714269089E-004
 -6.999999999999999E-003    7.310268708888764E-004
 -6.899999999999999E-003    7.651112286240336E-004
 -6.800000000000000E-003    8.006293230564952E-004
 -6.699999999999999E-003    8.376330678857999E-004
 -6.599999999999999E-003    8.761752254429594E-004
 -6.499999999999999E-003    9.163097649070085E-004
 -6.399999999999999E-003    9.580917861992164E-004
 -6.299999999999999E-003    1.001577571453019E-003
 -6.199999999999999E-003    1.046825034591616E-003
 -6.100000000000000E-003    1.093893605504345E-003
 -5.999999999999999E-003    1.142844530288683E-003
 -5.899999999999999E-003    1.193740937080822E-003
 -5.800000000000000E-003    1.246647847286295E-003
 -5.699999999999999E-003    1.301632139960048E-003
 -5.599999999999999E-003    1.358762695039827E-003
 -5.499999999999999E-003    1.418109780782254E-003
 -5.399999999999999E-003    1.479745342941619E-003
 -5.299999999999999E-003    1.543742760382006E-003
 -5.199999999999999E-003    1.610176762924301E-003
 -5.099999999999999E-003    1.679123350834257E-003
 -4.999999999999999E-003    1.750659985146233E-003
 -4.899999999999999E-003    1.824866007620196E-003
 -4.799999999999999E-003    1.901822321584734E-003
 -4.699999999999999E-003    1.981612177668781E-003
 -4.599999999999999E-003    2.064321172672533E-003
 -4.499999999999999E-003    2.150037004818551E-003
 -4.399999999999999E-003    2.238850200776580E-003
 -4.299999999999999E-003    2.330853488712616E-003
 -4.199999999999999E-003    2.426142204149746E-003
 -4.099999999999999E-003    2.524813727168547E-003
 -3.999999999999999E-003    2.626967186386395E-003
 -3.899999999999999E-003    2.732703973373844E-003
 -3.799999999999999E-003    2.842126584978873E-003
 -3.699999999999999E-003    2.955339100677449E-003
 -3.599999999999999E-003    3.072447369981346E-003
 -3.499999999999999E-003    3.193558560436757E-003
 -3.399999999999999E-003    3.318781918936230E-003
 -3.299999999999999E-003    3.448228134292004E-003
 -3.199999999999999E-003    3.582010671504451E-003
 -3.099999999999999E-003    3.720244059779153E-003
 -2.999999999999999E-003    3.863045614644325E-003
 -2.899999999999999E-003    4.010534609897263E-003
 -2.799999999999999E-003    4.162831966307729E-003
 -2.699999999999999E-003    4.320060320953886E-003
 -2.599999999999999E-003    4.482343187903665E-003
 -2.499999999999999E-003    4.649805352599123E-003
 -2.399999999999999E-003    4.822571803536646E-003
 -2.299999999999999E-003    5.000769200832736E-003
 -2.199999999999999E-003    5.184523176194617E-003
 -2.099999999999999E-003    5.373960997300179E-003
 -1.999999999999999E-003    5.569210332142823E-003
 -1.899999999999999E-003    5.770399489499108E-003
 -1.799999999999999E-003    5.977658297356874E-003
 -1.699999999999999E-003    6.191116638185881E-003
 -1.599999999999999E-003    6.410906612290981E-003
 -1.499999999999999E-003    6.637160843097647E-003
 -1.399999999999999E-003    6.870011895848008E-003
 -1.299999999999999E-003    7.109592602644183E-003
 -1.199999999999999E-003    7.356037381662889E-003
 -1.099999999999999E-003    7.609478348094426E-003
 -9.999999999999989E-004    7.870048382513845E-003
 -8.999999999999990E-004    8.137878312761096E-003
 -7.999999999999990E-004    8.413098686768442E-003
 -6.999999999999989E-004    8.695839238459901E-003
 -5.999999999999990E-004    8.986227471791886E-003
 -4.999999999999989E-004    9.284390823177325E-003
 -3.999999999999989E-004    9.590455406904405E-003
 -2.999999999999989E-004    9.904545425751149E-003
 -1.999999999999989E-004    1.022678494049118E-002
 -9.999999999999892E-005    1.055729620928189E-002
  1.084202172485504E-018    1.089619994371621E-002
  1.000000000000011E-004    1.124361376942719E-002
  2.000000000000011E-004    1.159965503955425E-002
  3.000000000000011E-004    1.196443660264832E-002
  4.000000000000011E-004    1.233806938886453E-002
  5.000000000000011E-004    1.272066086139211E-002
  6.000000000000011E-004    1.311231543653091E-002
  7.000000000000011E-004    1.351313440000043E-002
  8.000000000000011E-004    1.392321739969888E-002
  9.000000000000012E-004    1.434265891577000E-002
  1.000000000000001E-003    1.477154952089628E-002
  1.100000000000001E-003    1.520997962980578E-002
  1.200000000000001E-003    1.565803329195107E-002
  1.300000000000001E-003    1.611579073897206E-002
  1.400000000000001E-003    1.658332725799441E-002
  1.500000000000001E-003    1.706071530202997E-002
  1.600000000000001E-003    1.754802152424256E-002
  1.700000000000001E-003    1.804530550833937E-002
  1.800000000000001E-003    1.855262315923158E-002
  1.900000000000001E-003    1.907002314716413E-002
  2.000000000000001E-003    1.959755107948041E-002
  2.100000000000001E-003    2.013524480382497E-002
  2.200000000000001E-003    2.068313577486201E-002
  2.300000000000001E-003    2.124125353039713E-002
  2.400000000000001E-003    2.180961994089525E-002
  2.500000000000001E-003    2.238825103933071E-002
  2.600000000000001E-003    2.297715657985074E-002
  2.700000000000001E-003    2.357634053238492E-002
  2.800000000000001E-003    2.418579861119299E-002
  2.900000000000001E-003    2.480551855724362E-002
  3.000000000000001E-003    2.543548212144005E-002
  3.100000000000001E-003    2.607565989108507E-002
  3.200000000000001E-003    2.672601543967654E-002
  3.300000000000001E-003    2.738650277703742E-002
  3.400000000000001E-003    2.805706510397109E-002
  3.500000000000001E-003    2.873764174806782E-002
  3.600000000000001E-003    2.942815961382987E-002
  3.700000000000001E-003    3.012854056120788E-002
  3.800000000000001E-003    3.083869247362598E-002
  3.900000000000001E-003    3.155852146609354E-002
  4.000000000000001E-003    3.228792276761355E-002
  4.100000000000001E-003    3.302677735113976E-002
  4.200000000000001E-003    3.377496490461564E-002
  4.300000000000001E-003    3.453234444949370E-002
  4.400000000000001E-003    3.529877252851952E-002
  4.500000000000001E-003    3.607408931348623E-002
  4.600000000000002E-003    3.685812302394343E-002
  4.700000000000001E-003    3.765069654648837E-002
  4.800000000000001E-003    3.845161344803121E-002
  4.900000000000002E-003    3.926067278055288E-002
  5.000000000000001E-003    4.007765660585542E-002
  5.100000000000001E-003    4.090234398237441E-002
  5.200000000000001E-003    4.173449993851976E-002
  5.300000000000002E-003    4.257387791982516E-002
  5.400000000000001E-003    4.342022559067411E-002
  5.500000000000001E-003    4.427328142081219E-002
  5.600000000000002E-003    4.513276581014963E-002
  5.700000000000001E-003    4.599839813189091E-002
  5.800000000000001E-003    4.686987672323978E-002
  5.900000000000002E-003    4.774689474289037E-002
  6.000000000000001E-003    4.862913364109210E-002
  6.100000000000001E-003    4.951625746823681E-002
  6.200000000000002E-003    5.040793012652854E-002
  6.300000000000002E-003    5.130379534912373E-002
  6.400000000000001E-003    5.220349183786008E-002
  6.500000000000001E-003    5.310664926995964E-002
  6.600000000000002E-003    5.401288716652135E-002
  6.700000000000001E-003    5.492182105123482E-002
  6.800000000000001E-003    5.583305045034988E-002
  6.900000000000002E-003    5.674617589637093E-002
  7.000000000000001E-003    5.766078254908519E-002
  7.100000000000001E-003    5.857645059522876E-002
  7.200000000000002E-003    5.949275266635659E-002
  7.300000000000002E-003    6.040925536802995E-002
  7.400000000000001E-003    6.132551329087959E-002
  7.500000000000001E-003    6.224107911669302E-002
  7.600000000000002E-003    6.315550098296080E-002
  7.700000000000001E-003    6.406830741572675E-002
  7.800000000000001E-003    6.497903438817761E-002
  7.900000000000001E-003    6.588721091997712E-002
  8.000000000000002E-003    6.679236341030255E-002
  8.100000000000001E-003    6.769401300027579E-002
  8.200000000000001E-003    6.859168871683666E-002
  8.300000000000002E-003    6.948490625204894E-002
  8.400000000000001E-003    7.037318650343671E-002
  8.500000000000002E-003    7.125604475839653E-002
  8.600000000000002E-003    7.213300736142522E-002
  8.700000000000001E-003    7.300358877196036E-002
  8.800000000000002E-003    7.386731224748282E-002
  8.900000000000002E-003    7.472369603411730E-002
  9.000000000000001E-003    7.557226424904147E-002
  9.100000000000002E-003    7.641254224933589E-002
  9.200000000000002E-003    7.724406904324495E-002
  9.300000000000001E-003    7.806637633489961E-002
  9.400000000000002E-003    7.887900856664644E-002
  9.500000000000001E-003    7.968151437638381E-002
  9.600000000000001E-003    8.047345037686462E-002
  9.700000000000002E-003    8.125438359195662E-002
  9.800000000000001E-003    8.202388973527620E-002
  9.900000000000001E-003    8.278154836615333E-002
  1.000000000000000E-002    8.352696005317710E-002
  1.010000000000000E-002    8.425973308707788E-002
  1.020000000000000E-002    8.497948516220045E-002
  1.030000000000000E-002    8.568584106106256E-002
  1.040000000000000E-002    8.637844930656420E-002
  1.050000000000000E-002    8.705696414576114E-002
  1.060000000000000E-002    8.772106111049310E-002
  1.070000000000000E-002    8.837042269604715E-002
  1.080000000000000E-002    8.900475832975416E-002
  1.090000000000000E-002    8.962378880311719E-002
  1.100000000000000E-002    9.022725326911668E-002
  1.110000000000000E-002    9.081491338160708E-002
  1.120000000000000E-002    9.138654361742113E-002
  1.130000000000000E-002    9.194194706353392E-002
  1.140000000000000E-002    9.248094342902118E-002
  1.150000000000000E-002    9.300337365397757E-002
  1.160000000000000E-002    9.350910337591201E-002
  1.170000000000000E-002    9.399801669219127E-002
  1.180000000000000E-002    9.447003430189230E-002
  1.190000000000000E-002    9.492508349617211E-002
  1.200000000000000E-002    9.536312196912915E-002
  1.210000000000000E-002    9.578413906594234E-002
  1.220000000000000E-002    9.618813623792813E-002
  1.230000000000000E-002    9.657515699082488E-002
  1.240000000000000E-002    9.694525815426829E-002
  1.250000000000000E-002    9.729852773442943E-002
  1.260000000000000E-002    9.763508937463329E-002
  1.270000000000000E-002    9.795508003444812E-002
  1.280000000000000E-002    9.825867632500665E-002
  1.290000000000000E-002    9.854608597402593E-002
  1.300000000000000E-002    9.881752913610670E-002
  1.310000000000000E-002    9.907327025455386E-002
  1.320000000000000E-002    9.931358703162441E-002
  1.330000000000000E-002    9.953879304497915E-002
  1.340000000000000E-002    9.974923307766241E-002
  1.350000000000000E-002    9.994526236848106E-002
  1.360000000000000E-002    0.100127276925206     
  1.370000000000000E-002    0.100295700272072     
  1.380000000000000E-002    0.100450972622295     
  1.390000000000000E-002    0.100593564653569     
  1.400000000000000E-002    0.100723977653420     
  1.410000000000000E-002    0.100842733230155     
  1.420000000000000E-002    0.100950371826081     
  1.430000000000000E-002    0.101047464584418     
  1.440000000000000E-002    0.101134602008439     
  1.450000000000000E-002    0.101212396870149     
  1.460000000000000E-002    0.101281477656915     
  1.470000000000000E-002    0.101342500108005     
  1.480000000000000E-002    0.101396127115251     
  1.490000000000000E-002    0.101443043414655     
  1.500000000000000E-002    0.101483940211091     
  1.510000000000000E-002    0.101519535213263     
  1.520000000000000E-002    0.101550550125203     
  1.530000000000000E-002    0.101577723723787     
  1.540000000000000E-002    0.101601799475076     
  1.550000000000000E-002    0.101623526950556     
  1.560000000000000E-002    0.101643664665229     
  1.570000000000000E-002    0.101662974397714     
  1.580000000000000E-002    0.101682217506879     
  1.590000000000000E-002    0.101702158299631     
  1.600000000000000E-002    0.101723545440517     
  1.610000000000000E-002    0.101747142117872     
  1.620000000000000E-002    0.101773682059680     
  1.630000000000000E-002    0.101803903650791     
  1.640000000000000E-002    0.101838517825717     
  1.650000000000000E-002    0.101878233669965     
  1.660000000000000E-002    0.101923726713938     
  1.670000000000000E-002    0.101975662184941     
  1.680000000000000E-002    0.102034681069918     
  1.690000000000000E-002    0.102101399596642     
  1.700000000000000E-002    0.102176397276072     
  1.710000000000000E-002    0.102260228742257     
  1.720000000000000E-002    0.102353405089075     
  1.730000000000000E-002    0.102456415101174     
  1.740000000000000E-002    0.102569683443343     
  1.750000000000000E-002    0.102693601616655     
  1.760000000000000E-002    0.102828507598026     
  1.770000000000000E-002    0.102974690467433     
  1.780000000000000E-002    0.103132383187610     
  1.790000000000000E-002    0.103301754521824     
  1.800000000000000E-002    0.103482923799081     
  1.810000000000000E-002    0.103675942673044     
  1.820000000000000E-002    0.103880788611910     
  1.830000000000000E-002    0.104097373197558     
  1.840000000000000E-002    0.104325540495905     
  1.850000000000000E-002    0.104565052877207     
  1.860000000000000E-002    0.104815584414940     
  1.870000000000000E-002    0.105076743691408     