# vtk DataFile Version 3.1
material model VTK file
ASCII
DATASET UNSTRUCTURED_GRID
POINTS         2700 float
      0.000000E+00      0.000000E+00      0.000000E+00
      0.400000E+01      0.000000E+00      0.000000E+00
      0.000000E+00      0.000000E+00      0.400000E+01
      0.400000E+01      0.000000E+00      0.400000E+01
      0.400000E+01      0.000000E+00      0.000000E+00
      0.800000E+01      0.000000E+00      0.000000E+00
      0.400000E+01      0.000000E+00      0.400000E+01
      0.800000E+01      0.000000E+00      0.400000E+01
      0.800000E+01      0.000000E+00      0.000000E+00
      0.120000E+02      0.000000E+00      0.000000E+00
      0.800000E+01      0.000000E+00      0.400000E+01
      0.120000E+02      0.000000E+00      0.400000E+01
      0.120000E+02      0.000000E+00      0.000000E+00
      0.160000E+02      0.000000E+00      0.000000E+00
      0.120000E+02      0.000000E+00      0.400000E+01
      0.160000E+02      0.000000E+00      0.400000E+01
      0.160000E+02      0.000000E+00      0.000000E+00
      0.200000E+02      0.000000E+00      0.000000E+00
      0.160000E+02      0.000000E+00      0.400000E+01
      0.200000E+02      0.000000E+00      0.400000E+01
      0.200000E+02      0.000000E+00      0.000000E+00
      0.240000E+02      0.000000E+00      0.000000E+00
      0.200000E+02      0.000000E+00      0.400000E+01
      0.240000E+02      0.000000E+00      0.400000E+01
      0.240000E+02      0.000000E+00      0.000000E+00
      0.280000E+02      0.000000E+00      0.000000E+00
      0.240000E+02      0.000000E+00      0.400000E+01
      0.280000E+02      0.000000E+00      0.400000E+01
      0.280000E+02      0.000000E+00      0.000000E+00
      0.320000E+02      0.000000E+00      0.000000E+00
      0.280000E+02      0.000000E+00      0.400000E+01
      0.320000E+02      0.000000E+00      0.400000E+01
      0.320000E+02      0.000000E+00      0.000000E+00
      0.360000E+02      0.000000E+00      0.000000E+00
      0.320000E+02      0.000000E+00      0.400000E+01
      0.360000E+02      0.000000E+00      0.400000E+01
      0.360000E+02      0.000000E+00      0.000000E+00
      0.400000E+02      0.000000E+00      0.000000E+00
      0.360000E+02      0.000000E+00      0.400000E+01
      0.400000E+02      0.000000E+00      0.400000E+01
      0.400000E+02      0.000000E+00      0.000000E+00
      0.440000E+02      0.000000E+00      0.000000E+00
      0.400000E+02      0.000000E+00      0.400000E+01
      0.440000E+02      0.000000E+00      0.400000E+01
      0.440000E+02      0.000000E+00      0.000000E+00
      0.480000E+02      0.000000E+00      0.000000E+00
      0.440000E+02      0.000000E+00      0.400000E+01
      0.480000E+02      0.000000E+00      0.400000E+01
      0.480000E+02      0.000000E+00      0.000000E+00
      0.520000E+02      0.000000E+00      0.000000E+00
      0.480000E+02      0.000000E+00      0.400000E+01
      0.520000E+02      0.000000E+00      0.400000E+01
      0.520000E+02      0.000000E+00      0.000000E+00
      0.560000E+02      0.000000E+00      0.000000E+00
      0.520000E+02      0.000000E+00      0.400000E+01
      0.560000E+02      0.000000E+00      0.400000E+01
      0.560000E+02      0.000000E+00      0.000000E+00
      0.600000E+02      0.000000E+00      0.000000E+00
      0.560000E+02      0.000000E+00      0.400000E+01
      0.600000E+02      0.000000E+00      0.400000E+01
      0.600000E+02      0.000000E+00      0.000000E+00
      0.640000E+02      0.000000E+00      0.000000E+00
      0.600000E+02      0.000000E+00      0.400000E+01
      0.640000E+02      0.000000E+00      0.400000E+01
      0.640000E+02      0.000000E+00      0.000000E+00
      0.680000E+02      0.000000E+00      0.000000E+00
      0.640000E+02      0.000000E+00      0.400000E+01
      0.680000E+02      0.000000E+00      0.400000E+01
      0.680000E+02      0.000000E+00      0.000000E+00
      0.720000E+02      0.000000E+00      0.000000E+00
      0.680000E+02      0.000000E+00      0.400000E+01
      0.720000E+02      0.000000E+00      0.400000E+01
      0.720000E+02      0.000000E+00      0.000000E+00
      0.760000E+02      0.000000E+00      0.000000E+00
      0.720000E+02      0.000000E+00      0.400000E+01
      0.760000E+02      0.000000E+00      0.400000E+01
      0.760000E+02      0.000000E+00      0.000000E+00
      0.800000E+02      0.000000E+00      0.000000E+00
      0.760000E+02      0.000000E+00      0.400000E+01
      0.800000E+02      0.000000E+00      0.400000E+01
      0.800000E+02      0.000000E+00      0.000000E+00
      0.840000E+02      0.000000E+00      0.000000E+00
      0.800000E+02      0.000000E+00      0.400000E+01
      0.840000E+02      0.000000E+00      0.400000E+01
      0.840000E+02      0.000000E+00      0.000000E+00
      0.880000E+02      0.000000E+00      0.000000E+00
      0.840000E+02      0.000000E+00      0.400000E+01
      0.880000E+02      0.000000E+00      0.400000E+01
      0.880000E+02      0.000000E+00      0.000000E+00
      0.920000E+02      0.000000E+00      0.000000E+00
      0.880000E+02      0.000000E+00      0.400000E+01
      0.920000E+02      0.000000E+00      0.400000E+01
      0.920000E+02      0.000000E+00      0.000000E+00
      0.960000E+02      0.000000E+00      0.000000E+00
      0.920000E+02      0.000000E+00      0.400000E+01
      0.960000E+02      0.000000E+00      0.400000E+01
      0.960000E+02      0.000000E+00      0.000000E+00
      0.100000E+03      0.000000E+00      0.000000E+00
      0.960000E+02      0.000000E+00      0.400000E+01
      0.100000E+03      0.000000E+00      0.400000E+01
      0.100000E+03      0.000000E+00      0.000000E+00
      0.104000E+03      0.000000E+00      0.000000E+00
      0.100000E+03      0.000000E+00      0.400000E+01
      0.104000E+03      0.000000E+00      0.400000E+01
      0.104000E+03      0.000000E+00      0.000000E+00
      0.108000E+03      0.000000E+00      0.000000E+00
      0.104000E+03      0.000000E+00      0.400000E+01
      0.108000E+03      0.000000E+00      0.400000E+01
      0.108000E+03      0.000000E+00      0.000000E+00
      0.112000E+03      0.000000E+00      0.000000E+00
      0.108000E+03      0.000000E+00      0.400000E+01
      0.112000E+03      0.000000E+00      0.400000E+01
      0.112000E+03      0.000000E+00      0.000000E+00
      0.116000E+03      0.000000E+00      0.000000E+00
      0.112000E+03      0.000000E+00      0.400000E+01
      0.116000E+03      0.000000E+00      0.400000E+01
      0.116000E+03      0.000000E+00      0.000000E+00
      0.120000E+03      0.000000E+00      0.000000E+00
      0.116000E+03      0.000000E+00      0.400000E+01
      0.120000E+03      0.000000E+00      0.400000E+01
      0.120000E+03      0.000000E+00      0.000000E+00
      0.124000E+03      0.000000E+00      0.000000E+00
      0.120000E+03      0.000000E+00      0.400000E+01
      0.124000E+03      0.000000E+00      0.400000E+01
      0.124000E+03      0.000000E+00      0.000000E+00
      0.128000E+03      0.000000E+00      0.000000E+00
      0.124000E+03      0.000000E+00      0.400000E+01
      0.128000E+03      0.000000E+00      0.400000E+01
      0.128000E+03      0.000000E+00      0.000000E+00
      0.132000E+03      0.000000E+00      0.000000E+00
      0.128000E+03      0.000000E+00      0.400000E+01
      0.132000E+03      0.000000E+00      0.400000E+01
      0.132000E+03      0.000000E+00      0.000000E+00
      0.136000E+03      0.000000E+00      0.000000E+00
      0.132000E+03      0.000000E+00      0.400000E+01
      0.136000E+03      0.000000E+00      0.400000E+01
      0.136000E+03      0.000000E+00      0.000000E+00
      0.140000E+03      0.000000E+00      0.000000E+00
      0.136000E+03      0.000000E+00      0.400000E+01
      0.140000E+03      0.000000E+00      0.400000E+01
      0.140000E+03      0.000000E+00      0.000000E+00
      0.144000E+03      0.000000E+00      0.000000E+00
      0.140000E+03      0.000000E+00      0.400000E+01
      0.144000E+03      0.000000E+00      0.400000E+01
      0.144000E+03      0.000000E+00      0.000000E+00
      0.148000E+03      0.000000E+00      0.000000E+00
      0.144000E+03      0.000000E+00      0.400000E+01
      0.148000E+03      0.000000E+00      0.400000E+01
      0.148000E+03      0.000000E+00      0.000000E+00
      0.152000E+03      0.000000E+00      0.000000E+00
      0.148000E+03      0.000000E+00      0.400000E+01
      0.152000E+03      0.000000E+00      0.400000E+01
      0.152000E+03      0.000000E+00      0.000000E+00
      0.156000E+03      0.000000E+00      0.000000E+00
      0.152000E+03      0.000000E+00      0.400000E+01
      0.156000E+03      0.000000E+00      0.400000E+01
      0.156000E+03      0.000000E+00      0.000000E+00
      0.160000E+03      0.000000E+00      0.000000E+00
      0.156000E+03      0.000000E+00      0.400000E+01
      0.160000E+03      0.000000E+00      0.400000E+01
      0.160000E+03      0.000000E+00      0.000000E+00
      0.164000E+03      0.000000E+00      0.000000E+00
      0.160000E+03      0.000000E+00      0.400000E+01
      0.164000E+03      0.000000E+00      0.400000E+01
      0.164000E+03      0.000000E+00      0.000000E+00
      0.168000E+03      0.000000E+00      0.000000E+00
      0.164000E+03      0.000000E+00      0.400000E+01
      0.168000E+03      0.000000E+00      0.400000E+01
      0.168000E+03      0.000000E+00      0.000000E+00
      0.172000E+03      0.000000E+00      0.000000E+00
      0.168000E+03      0.000000E+00      0.400000E+01
      0.172000E+03      0.000000E+00      0.400000E+01
      0.172000E+03      0.000000E+00      0.000000E+00
      0.176000E+03      0.000000E+00      0.000000E+00
      0.172000E+03      0.000000E+00      0.400000E+01
      0.176000E+03      0.000000E+00      0.400000E+01
      0.176000E+03      0.000000E+00      0.000000E+00
      0.180000E+03      0.000000E+00      0.000000E+00
      0.176000E+03      0.000000E+00      0.400000E+01
[...]
POINT_DATA             2700
SCALARS gll_data float
LOOKUP_TABLE default
   1883.14381432986     
   1883.13637704034     
   1770.82739302770     
   1770.82228691412     
   1883.13637704034     
   1885.30640647692     
   1770.82228691412     
   1771.61330604642     
   1885.30640647692     
   1847.76084831335     
   1771.61330604642     
   1738.64565120452     
   1847.76084831335     
   1851.06761379010     
   1738.64565120452     
   1738.20081531213     
   1851.06761379010     
   1738.81153990033     
   1738.20081531213     
   1739.54775215793     
   1738.81153990033     
   1737.98048433326     
   1739.54775215793     
   1741.02791741922     
   1737.98048433326     
   1737.96421304864     
   1741.02791741922     
   1741.03466628877     
   1737.96421304864     
   1769.35068569559     
   1741.03466628877     
   1736.82959929318     
   1769.35068569559     
   1851.24463300586     
   1736.82959929318     
   1737.99487226850     
   1851.24463300586     
   1853.18003684152     
   1737.99487226850     
   1742.29616690095     
   1853.18003684152     
   1883.89488913406     
   1742.29616690095     
   1771.18275148162     
   1883.89488913406     
   1880.30697831731     
   1771.18275148162     
   1775.75108498275     
   1880.30697831731     
   1876.49610444388     
   1775.75108498275     
   1846.40554882361     
   1876.49610444388     
   1876.44810034222     
   1846.40554882361     
   1845.52989731332     
   1876.44810034222     
   1876.00650155544     
   1845.52989731332     
   1876.42005879586     
   1876.00650155544     
   1875.99899454971     
   1876.42005879586     
   1877.14709369287     
   1875.99899454971     
   1875.99511859676     
   1877.14709369287     
   1876.39585191874     
   1875.99511859676     
   1875.99986887661     
   1876.39585191874     
   1875.99705119315     
   1875.99986887661     
   1876.00003609239     
   1875.99705119315     
   1875.99717900764     
   1876.00003609239     
   1876.00003609239     
   1875.99717900764     
   1876.00003609239     
   1876.00003609239     
   1876.00003609239     
   1876.00003609239     
   1876.00003609239     
   1876.00003609239     
   1876.00003609239     
   1876.00003609239     
   1876.00003609239     
   1876.00003609239     
   1876.00003609239     
   1876.00003609239     
   1876.00003609239     
   1876.00003609239     
   1876.00003609239     
   1876.00003609239     
   1876.00003609239     
   1876.00003609239     
   1876.00003609239     
   1876.00003609239     
   1876.00003609239     
   1876.00003609239     
   1876.00003609239     
   1876.00003609239     
   1876.00003609239     
   1876.00003609239     
   1876.00003609239     
   1876.00003609239     
   1876.00003609239     
   1876.00003609239     
   1876.00003609239     
   1876.00003609239     
   1876.00003609239     
   1876.00003609239     
   1876.00003609239     
   1876.00003609239     
   1875.99938990928     
   1876.00003609239     
   1876.00013642185     
   1875.99938990928     
   1875.99232838753     
   1876.00013642185     
   1875.99986887661     
   1875.99232838753     
   1875.99817634544     
   1875.99986887661     
   1876.00003609239     
   1875.99817634544     
   1875.98008768058     
   1876.00003609239     
   1875.99647189503     
   1875.98008768058     
   1876.32223857845     
   1875.99647189503     
   1875.99416065830     
   1876.32223857845     
   1876.46495720332     
   1875.99416065830     
   1875.99426098815     
   1876.46495720332     
   1876.46166179539     
   1875.99426098815     
   1875.99426098815     
   1876.46166179539     
   1876.46166179539     
   1875.99426098815     
   1875.99426098815     
   1876.46166179539     
   1876.46166179539     
   1875.99426098815     
   1875.99426098815     
   1876.46166179539     
   1876.46166179539     
   1875.99426098815     
   1875.99426098815     
   1876.46166179539     
   1876.46118300301     
   1875.99426098815     
   1875.99269626408     
   1876.46118300301     
   1876.57126081357     
   1875.99269626408     
   1875.99021780346     
   1876.57126081357     
   1877.76413328913     
   1875.99021780346     
   1875.97848353732     
   1877.76413328913     
   1879.28323638852     
   1875.97848353732     
   1875.97877857265     
   1879.28323638852     
   1879.26134600098     
   1875.97877857265     
   1875.97877857265     
   1879.26134600098     
   1879.26134600098     
   1875.97877857265     
   1875.97877857265     
   1879.26134600098     
   1879.26134600098     
   1770.82739302770     
   1770.82228691412     
   1707.07786747582     
   1707.07992026130     
   1770.82228691412     
   1771.61330604642     
   1707.07992026130     
   1707.20655463209     
   1771.61330604642     
   1738.64565120452     
   1707.20655463209     
   1677.35400362246     
   1738.64565120452     
   1738.20081531213     
   1677.35400362246     
   1636.58692289727     
   1738.20081531213     
   1739.54775215793     
   1636.58692289727     
   1637.56617337228     
   1739.54775215793     
   1741.02791741922     
   1637.56617337228     
   1637.44285384490     
   1741.02791741922     
   1741.03466628877     
   1637.44285384490     
   1637.44932803020     
   1741.03466628877     
   1736.82959929318     
   1637.44932803020     
   1637.39917210739     
   1736.82959929318     
   1737.99487226850     
   1637.39917210739     
   1637.80248359344     
   1737.99487226850     
   1742.29616690095     
   1637.80248359344     
   1708.02650901211     
   1742.29616690095     
   1771.18275148162     
   1708.02650901211     
   1708.13241669112     
   1771.18275148162     
   1775.75108498275     
   1708.13241669112     
   1737.23695844983     
   1775.75108498275     
   1846.40554882361     
   1737.23695844983     
   1738.21791759029     
   1846.40554882361     
   1845.52989731332     
   1738.21791759029     
   1736.78916940408     
   1845.52989731332     
   1876.42005879586     
   1736.78916940408     
   1766.12967003025     
   1876.42005879586     
   1877.14709369287     
   1766.12967003025     
   1774.89718353579     
   1877.14709369287     
   1876.39585191874     
   1774.89718353579     
   1847.79333447697     
   1876.39585191874     
   1875.99705119315     
   1847.79333447697     
   1877.39624652531     
   1875.99705119315     
   1875.99717900764     
   1877.39624652531     
   1876.26168893204     
   1875.99717900764     
   1876.00003609239     
   1876.26168893204     
   1875.99327556390     
   1876.00003609239     
   1876.00003609239     
   1875.99327556390     
   1875.99986887661     
   1876.00003609239     
   1876.00003609239     
   1875.99986887661     
   1876.00013642185     
   1876.00003609239     
   1876.00003609239     
   1876.00013642185     
   1876.00003609239     
   1876.00003609239     
   1876.00003609239     
   1876.00003609239     
   1876.00003609239     
   1876.00003609239     
   1876.00003609239     
   1876.00003609239     
   1876.00013642185     
   1876.00003609239     
   1876.00003609239     
   1876.00013642185     
   1875.99986887661     
   1876.00003609239     
   1876.00003609239     
   1875.99986887661     
   1875.99841525249     
   1876.00003609239     
   1876.00003609239     
   1875.99841525249     
   1875.99463962762     
   1876.00003609239     
   1875.99938990928     
   1875.99463962762     
   1876.01061753229     
   1875.99938990928     
   1875.99232838753     
   1876.01061753229     
   1876.59494614370     
   1875.99232838753     
   1875.99817634544     
   1876.59494614370     
   1877.94397650411     
   1875.99817634544     
   1875.98008768058     
   1877.94397650411     
   1879.95802382390     
   1875.98008768058     
   1876.32223857845     
   1879.95802382390     
   1852.04798554274     
   1876.32223857845     
   1876.46495720332     
   1852.04798554274     
   1846.34836584727     
   1876.46495720332     
   1876.46166179539     
   1846.34836584727     
   1846.37880833581     
   1876.46166179539     
   1876.46166179539     
   1846.37880833581     
   1846.38059929898     
   1876.46166179539     
   1876.46166179539     
   1846.38059929898     
   1846.38034343565     
   1876.46166179539     
   1876.46166179539     
   1846.38034343565     
   1846.37992128137     
   1876.46166179539     
   1876.46118300301     
   1846.37992128137     
   1846.37259111719     
   1876.46118300301     
   1876.57126081357     
   1846.37259111719     
   1845.14269139445     
   1876.57126081357     
   1877.76413328913     
   1845.14269139445     
   1778.17385117132     
   1877.76413328913     
   1879.28323638852     
   1778.17385117132     
   1767.62448155965     
   1879.28323638852     
   1879.26134600098     
   1767.62448155965     
   1767.62145249054     
   1879.26134600098     
   1879.26134600098     
   1767.62145249054     
   1767.62145249054     
   1879.26134600098     
   1879.26134600098     
   1767.62145249054     
   1767.62145249054     
   1707.07786747582     
   1707.07992026130     
   1609.50731531886     
   1609.55738977074     
   1707.07992026130     
   1707.20655463209     
   1609.55738977074     
   1609.49364557383     
   1707.20655463209     
   1677.35400362246     
   1609.49364557383     
   1609.88133297637     
   1677.35400362246     
   1636.58692289727     
   1609.88133297637     
   1611.34497839913     
   1636.58692289727     
   1637.56617337228     
   1611.34497839913     
   1612.08033227087     
   1637.56617337228     
   1637.44285384490     
   1612.08033227087     
   1612.08985147705     
   1637.44285384490     
   1637.44932803020     
   1612.08985147705     
   1612.09874407202     
   1637.44932803020     
   1637.39917210739     
   1612.09874407202     
   1612.06749400029     
   1637.39917210739     
   1637.80248359344     
   1612.06749400029     
   1611.72910231781     
   1637.80248359344     
   1708.02650901211     
   1611.72910231781     
   1609.56944584040     
   1708.02650901211     
   1708.13241669112     
   1609.56944584040     
   1609.39735321388     
   1708.13241669112     
   1737.23695844983     
   1609.39735321388     
   1607.21204840947     
   1737.23695844983     
   1738.21791759029     
   1607.21204840947     
   1613.21350406192     
   1738.21791759029     
   1736.78916940408     
   1613.21350406192     
   1637.78209204557     
   1736.78916940408     
   1766.12967003025     
   1637.78209204557     
   1642.99281546383     
   1766.12967003025     
   1774.89718353579     
   1642.99281546383     
   1708.16232122383     
   1774.89718353579     
   1847.79333447697     
   1708.16232122383     
   1736.60267704617     
   1847.79333447697     
   1877.39624652531     
   1736.60267704617     
   1744.52684316916     
   1877.39624652531     
   1876.26168893204     
   1744.52684316916     
   1789.64672516082     
   1876.26168893204     
   1875.99327556390     
   1789.64672516082     
   1870.02835171229     
   1875.99327556390     
   1875.99986887661     
   1870.02835171229     
   1876.46435066545     
   1875.99986887661     
   1876.00013642185     
   1876.46435066545     
   1875.97952509670     
   1876.00013642185     
   1876.00003609239     
   1875.97952509670     
   1875.98452626252     
   1876.00003609239     
   1876.00003609239     
   1875.98452626252     
   1875.98463735708     
   1876.00003609239     
   1876.00013642185     
   1875.98463735708     
   1876.00622324874     
   1876.00013642185     
   1875.99986887661     
   1876.00622324874     
   1876.44204312711     
   1875.99986887661     
   1875.99841525249     
   1876.44204312711     
   1876.38938848196     
   1875.99841525249     
   1875.99463962762     
   1876.38938848196     
   1872.75546515428     
   1875.99463962762     
   1876.01061753229     
   1872.75546515428     
   1840.32750635452     
   1876.01061753229     
   1876.59494614370     
   1840.32750635452     
   1767.91226518732     
   1876.59494614370     
   1877.94397650411     
   1767.91226518732     
   1733.65433548904     
   1877.94397650411     
   1879.95802382390     
   1733.65433548904     
   1736.51085379231     
   1879.95802382390     
   1852.04798554274     
   1736.51085379231     
   1737.88390936684     
   1852.04798554274     
   1846.34836584727     
   1737.88390936684     
   1737.97471570864     
   1846.34836584727     
   1846.37880833581     
   1737.97471570864     
   1737.71738658246     
   1846.37880833581     
   1846.38059929898     
   1737.71738658246     
   1737.51879814272     
   1846.38059929898     
   1846.38034343565     
   1737.51879814272     
   1737.52186873473     
   1846.38034343565     
   1846.37992128137     
   1737.52186873473     
   1737.53563442410     
   1846.37992128137     
   1846.37259111719     
   1737.53563442410     
   1737.58142241129     
   1846.37259111719     
   1845.14269139445     
   1737.58142241129     
   1737.65197988426     
   1845.14269139445     
   1778.17385117132     
   1737.65197988426     
   1737.96837452742     
   1778.17385117132     
   1767.62448155965     
   1737.96837452742     
   1738.00138327221     
   1767.62448155965     
   1767.62145249054     
   1738.00138327221     
   1738.00095793819     
   1767.62145249054     
   1767.62145249054     
   1738.00095793819     
   1738.00095793819     
   1767.62145249054     
   1767.62145249054     
   1738.00095793819     
   1738.00095793819     
   1609.50731531886     
   1609.55738977074     
   1614.43166114522     
   1618.33766027587     
   1609.55738977074     
   1609.49364557383     
   1618.33766027587     
   1624.84155548525     
   1609.49364557383     
   1609.88133297637     
   1624.84155548525     
   1616.04284037648     
   1609.88133297637     
   1611.34497839913     
   1616.04284037648     
   1506.00119870619     
   1611.34497839913     
   1612.08033227087     
   1506.00119870619     
   1479.75903075340     
   1612.08033227087     
   1612.08985147705     
   1479.75903075340     
   1478.43128455564     
   1612.08985147705     
   1612.09874407202     
   1478.43128455564     
   1477.76671503414     
   1612.09874407202     
   1612.06749400029     
   1477.76671503414     
   1479.90125548564     
   1612.06749400029     
   1611.72910231781     
   1479.90125548564     
   1475.36231473060     
   1611.72910231781     
   1609.56944584040     
   1475.36231473060     
   1616.06848163031     
   1609.56944584040     
   1609.39735321388     
   1616.06848163031     
   1623.05809749772     
   1609.39735321388     
   1607.21204840947     
   1623.05809749772     
   1615.12159870371     
   1607.21204840947     
   1613.21350406192     
   1615.12159870371     
   1612.07103530242     
   1613.21350406192     
   1637.78209204557     
   1612.07103530242     
   1610.91664342512     
   1637.78209204557     
   1642.99281546383     
   1610.91664342512     
   1609.37242453930     
   1642.99281546383     
   1708.16232122383     
   1609.37242453930     
   1606.30116663418     
   1708.16232122383     
   1736.60267704617     
   1606.30116663418     
   1635.11817331385     
   1736.60267704617     
   1744.52684316916     
   1635.11817331385     
   1699.59850126134     
   1744.52684316916     
   1789.64672516082     
   1699.59850126134     
   1737.81373843153     
   1789.64672516082     
   1870.02835171229     
   1737.81373843153     
   1764.07361203774     
   1870.02835171229     
   1876.46435066545     
   1764.07361203774     
   1845.87939487118     
   1876.46435066545     
   1875.97952509670     
   1845.87939487118     
   1880.23586476174     
   1875.97952509670     
   1875.98452626252     
   1880.23586476174     
   1879.25779109273     
   1875.98452626252     
   1875.98463735708     
   1879.25779109273     
   1879.24035451741     
   1875.98463735708     
   1876.00622324874     
   1879.24035451741     
   1878.43408471065     
   1876.00622324874     
   1876.44204312711     
   1878.43408471065     
   1845.59680855071     
   1876.44204312711     
   1876.38938848196     
   1845.59680855071     
   1803.37207749416     
   1876.38938848196     
   1872.75546515428     
   1803.37207749416     
   1761.96460107023     
   1872.75546515428     
   1840.32750635452     
   1761.96460107023     
   1736.15769834605     
   1840.32750635452     
   1767.91226518732     
   1736.15769834605     
   1738.13125222085     
   1767.91226518732     
   1733.65433548904     
   1738.13125222085     
   1740.96435728215     
   1733.65433548904     
   1736.51085379231     
   1740.96435728215     
   1722.52600181438     
   1736.51085379231     
   1737.88390936684     
   1722.52600181438     
   1712.14768479247     
   1737.88390936684     
   1737.97471570864     
   1712.14768479247     
   1710.60510600559     
   1737.97471570864     
   1737.71738658246     
   1710.60510600559     
   1721.44211794716     
   1737.71738658246     
   1737.51879814272     
   1721.44211794716     
   1741.24035955480     
   1737.51879814272     
   1737.52186873473     
   1741.24035955480     
   1741.08448490078     
   1737.52186873473     
   1737.53563442410     
   1741.08448490078     
   1740.08632579868     
   1737.53563442410     
   1737.58142241129     
   1740.08632579868     
   1736.45444962669     
   1737.58142241129     
   1737.65197988426     
   1736.45444962669     
   1735.73459651743     
   1737.65197988426     
   1737.96837452742     
   1735.73459651743     
   1741.37135880533     
   1737.96837452742     
   1738.00138327221     
   1741.37135880533     
   1741.02869244049     
   1738.00138327221     
   1738.00095793819     
   1741.02869244049     
   1741.04306093864     
   1738.00095793819     
   1738.00095793819     
   1741.04306093864     
   1741.04357694454     
   1738.00095793819     
   1738.00095793819     
   1741.04357694454     
   1741.04357694454     
   1614.43166114522     
   1618.33766027587     
   1437.80238767127     
   1139.61024088728     
   1618.33766027587     
   1624.84155548525     
   1139.61024088728     
   1126.42835079850     
   1624.84155548525     
   1616.04284037648     
   1126.42835079850     
   1113.46824834869     
   1616.04284037648     
   1506.00119870619     
   1113.46824834869     
   1001.00255134356     
   1506.00119870619     
   1479.75903075340     
   1001.00255134356     
   974.846323478554     
   1479.75903075340     
   1478.43128455564     
   974.846323478554     
   979.368203724218     
   1478.43128455564     
   1477.76671503414     
   979.368203724218     
   979.149766271507     
   1477.76671503414     
   1479.90125548564     
   979.149766271507     
   973.194409178378     
   1479.90125548564     
   1475.36231473060     
   973.194409178378     
   970.450012404089     
   1475.36231473060     
   1616.06848163031     
   970.450012404089     
   1113.82312323660     
   1616.06848163031     
   1623.05809749772     
   1113.82312323660     
   1126.58801188477     
   1623.05809749772     
   1615.12159870371     
   1126.58801188477     
   1428.10497657587     
   1615.12159870371     
   1612.07103530242     
   1428.10497657587     
   1478.84535869408     
   1612.07103530242     
   1610.91664342512     
   1478.84535869408     
   1574.06482071880     
   1610.91664342512     
   1609.37242453930     
   1574.06482071880     
   1625.33509911950     
   1609.37242453930     
   1606.30116663418     
   1625.33509911950     
   1625.92396322932     
   1606.30116663418     
   1635.11817331385     
   1625.92396322932     
   1610.92992032930     
   1635.11817331385     
   1699.59850126134     
   1610.92992032930     
   1607.54162042562     
   1699.59850126134     
   1737.81373843153     
   1607.54162042562     
   1683.12659433965     
   1737.81373843153     