# vtk DataFile Version 3.1
material model VTK file
ASCII
DATASET UNSTRUCTURED_GRID
POINTS         2700 float
      0.000000E+00      0.000000E+00      0.000000E+00
      0.400000E+01      0.000000E+00      0.000000E+00
      0.000000E+00      0.000000E+00      0.400000E+01
      0.400000E+01      0.000000E+00      0.400000E+01
      0.400000E+01      0.000000E+00      0.000000E+00
      0.800000E+01      0.000000E+00      0.000000E+00
      0.400000E+01      0.000000E+00      0.400000E+01
      0.800000E+01      0.000000E+00      0.400000E+01
      0.800000E+01      0.000000E+00      0.000000E+00
      0.120000E+02      0.000000E+00      0.000000E+00
      0.800000E+01      0.000000E+00      0.400000E+01
      0.120000E+02      0.000000E+00      0.400000E+01
      0.120000E+02      0.000000E+00      0.000000E+00
      0.160000E+02      0.000000E+00      0.000000E+00
      0.120000E+02      0.000000E+00      0.400000E+01
      0.160000E+02      0.000000E+00      0.400000E+01
      0.160000E+02      0.000000E+00      0.000000E+00
      0.200000E+02      0.000000E+00      0.000000E+00
      0.160000E+02      0.000000E+00      0.400000E+01
      0.200000E+02      0.000000E+00      0.400000E+01
      0.200000E+02      0.000000E+00      0.000000E+00
      0.240000E+02      0.000000E+00      0.000000E+00
      0.200000E+02      0.000000E+00      0.400000E+01
      0.240000E+02      0.000000E+00      0.400000E+01
      0.240000E+02      0.000000E+00      0.000000E+00
      0.280000E+02      0.000000E+00      0.000000E+00
      0.240000E+02      0.000000E+00      0.400000E+01
      0.280000E+02      0.000000E+00      0.400000E+01
      0.280000E+02      0.000000E+00      0.000000E+00
      0.320000E+02      0.000000E+00      0.000000E+00
      0.280000E+02      0.000000E+00      0.400000E+01
      0.320000E+02      0.000000E+00      0.400000E+01
      0.320000E+02      0.000000E+00      0.000000E+00
      0.360000E+02      0.000000E+00      0.000000E+00
      0.320000E+02      0.000000E+00      0.400000E+01
      0.360000E+02      0.000000E+00      0.400000E+01
      0.360000E+02      0.000000E+00      0.000000E+00
      0.400000E+02      0.000000E+00      0.000000E+00
      0.360000E+02      0.000000E+00      0.400000E+01
      0.400000E+02      0.000000E+00      0.400000E+01
      0.400000E+02      0.000000E+00      0.000000E+00
      0.440000E+02      0.000000E+00      0.000000E+00
      0.400000E+02      0.000000E+00      0.400000E+01
      0.440000E+02      0.000000E+00      0.400000E+01
      0.440000E+02      0.000000E+00      0.000000E+00
      0.480000E+02      0.000000E+00      0.000000E+00
      0.440000E+02      0.000000E+00      0.400000E+01
      0.480000E+02      0.000000E+00      0.400000E+01
      0.480000E+02      0.000000E+00      0.000000E+00
      0.520000E+02      0.000000E+00      0.000000E+00
      0.480000E+02      0.000000E+00      0.400000E+01
      0.520000E+02      0.000000E+00      0.400000E+01
      0.520000E+02      0.000000E+00      0.000000E+00
      0.560000E+02      0.000000E+00      0.000000E+00
      0.520000E+02      0.000000E+00      0.400000E+01
      0.560000E+02      0.000000E+00      0.400000E+01
      0.560000E+02      0.000000E+00      0.000000E+00
      0.600000E+02      0.000000E+00      0.000000E+00
      0.560000E+02      0.000000E+00      0.400000E+01
      0.600000E+02      0.000000E+00      0.400000E+01
      0.600000E+02      0.000000E+00      0.000000E+00
      0.640000E+02      0.000000E+00      0.000000E+00
      0.600000E+02      0.000000E+00      0.400000E+01
      0.640000E+02      0.000000E+00      0.400000E+01
      0.640000E+02      0.000000E+00      0.000000E+00
      0.680000E+02      0.000000E+00      0.000000E+00
      0.640000E+02      0.000000E+00      0.400000E+01
      0.680000E+02      0.000000E+00      0.400000E+01
      0.680000E+02      0.000000E+00      0.000000E+00
      0.720000E+02      0.000000E+00      0.000000E+00
      0.680000E+02      0.000000E+00      0.400000E+01
      0.720000E+02      0.000000E+00      0.400000E+01
      0.720000E+02      0.000000E+00      0.000000E+00
      0.760000E+02      0.000000E+00      0.000000E+00
      0.720000E+02      0.000000E+00      0.400000E+01
      0.760000E+02      0.000000E+00      0.400000E+01
      0.760000E+02      0.000000E+00      0.000000E+00
      0.800000E+02      0.000000E+00      0.000000E+00
      0.760000E+02      0.000000E+00      0.400000E+01
      0.800000E+02      0.000000E+00      0.400000E+01
      0.800000E+02      0.000000E+00      0.000000E+00
      0.840000E+02      0.000000E+00      0.000000E+00
      0.800000E+02      0.000000E+00      0.400000E+01
      0.840000E+02      0.000000E+00      0.400000E+01
      0.840000E+02      0.000000E+00      0.000000E+00
      0.880000E+02      0.000000E+00      0.000000E+00
      0.840000E+02      0.000000E+00      0.400000E+01
      0.880000E+02      0.000000E+00      0.400000E+01
      0.880000E+02      0.000000E+00      0.000000E+00
      0.920000E+02      0.000000E+00      0.000000E+00
      0.880000E+02      0.000000E+00      0.400000E+01
      0.920000E+02      0.000000E+00      0.400000E+01
      0.920000E+02      0.000000E+00      0.000000E+00
      0.960000E+02      0.000000E+00      0.000000E+00
      0.920000E+02      0.000000E+00      0.400000E+01
      0.960000E+02      0.000000E+00      0.400000E+01
      0.960000E+02      0.000000E+00      0.000000E+00
      0.100000E+03      0.000000E+00      0.000000E+00
      0.960000E+02      0.000000E+00      0.400000E+01
      0.100000E+03      0.000000E+00      0.400000E+01
      0.100000E+03      0.000000E+00      0.000000E+00
      0.104000E+03      0.000000E+00      0.000000E+00
      0.100000E+03      0.000000E+00      0.400000E+01
      0.104000E+03      0.000000E+00      0.400000E+01
      0.104000E+03      0.000000E+00      0.000000E+00
      0.108000E+03      0.000000E+00      0.000000E+00
      0.104000E+03      0.000000E+00      0.400000E+01
      0.108000E+03      0.000000E+00      0.400000E+01
      0.108000E+03      0.000000E+00      0.000000E+00
      0.112000E+03      0.000000E+00      0.000000E+00
      0.108000E+03      0.000000E+00      0.400000E+01
      0.112000E+03      0.000000E+00      0.400000E+01
      0.112000E+03      0.000000E+00      0.000000E+00
      0.116000E+03      0.000000E+00      0.000000E+00
      0.112000E+03      0.000000E+00      0.400000E+01
      0.116000E+03      0.000000E+00      0.400000E+01
      0.116000E+03      0.000000E+00      0.000000E+00
      0.120000E+03      0.000000E+00      0.000000E+00
      0.116000E+03      0.000000E+00      0.400000E+01
      0.120000E+03      0.000000E+00      0.400000E+01
      0.120000E+03      0.000000E+00      0.000000E+00
      0.124000E+03      0.000000E+00      0.000000E+00
      0.120000E+03      0.000000E+00      0.400000E+01
      0.124000E+03      0.000000E+00      0.400000E+01
      0.124000E+03      0.000000E+00      0.000000E+00
      0.128000E+03      0.000000E+00      0.000000E+00
      0.124000E+03      0.000000E+00      0.400000E+01
      0.128000E+03      0.000000E+00      0.400000E+01
      0.128000E+03      0.000000E+00      0.000000E+00
      0.132000E+03      0.000000E+00      0.000000E+00
      0.128000E+03      0.000000E+00      0.400000E+01
      0.132000E+03      0.000000E+00      0.400000E+01
      0.132000E+03      0.000000E+00      0.000000E+00
      0.136000E+03      0.000000E+00      0.000000E+00
      0.132000E+03      0.000000E+00      0.400000E+01
      0.136000E+03      0.000000E+00      0.400000E+01
      0.136000E+03      0.000000E+00      0.000000E+00
      0.140000E+03      0.000000E+00      0.000000E+00
      0.136000E+03      0.000000E+00      0.400000E+01
      0.140000E+03      0.000000E+00      0.400000E+01
      0.140000E+03      0.000000E+00      0.000000E+00
      0.144000E+03      0.000000E+00      0.000000E+00
      0.140000E+03      0.000000E+00      0.400000E+01
      0.144000E+03      0.000000E+00      0.400000E+01
      0.144000E+03      0.000000E+00      0.000000E+00
      0.148000E+03      0.000000E+00      0.000000E+00
      0.144000E+03      0.000000E+00      0.400000E+01
      0.148000E+03      0.000000E+00      0.400000E+01
      0.148000E+03      0.000000E+00      0.000000E+00
      0.152000E+03      0.000000E+00      0.000000E+00
      0.148000E+03      0.000000E+00      0.400000E+01
      0.152000E+03      0.000000E+00      0.400000E+01
      0.152000E+03      0.000000E+00      0.000000E+00
      0.156000E+03      0.000000E+00      0.000000E+00
      0.152000E+03      0.000000E+00      0.400000E+01
      0.156000E+03      0.000000E+00      0.400000E+01
      0.156000E+03      0.000000E+00      0.000000E+00
      0.160000E+03      0.000000E+00      0.000000E+00
      0.156000E+03      0.000000E+00      0.400000E+01
      0.160000E+03      0.000000E+00      0.400000E+01
      0.160000E+03      0.000000E+00      0.000000E+00
      0.164000E+03      0.000000E+00      0.000000E+00
      0.160000E+03      0.000000E+00      0.400000E+01
      0.164000E+03      0.000000E+00      0.400000E+01
      0.164000E+03      0.000000E+00      0.000000E+00
      0.168000E+03      0.000000E+00      0.000000E+00
      0.164000E+03      0.000000E+00      0.400000E+01
      0.168000E+03      0.000000E+00      0.400000E+01
      0.168000E+03      0.000000E+00      0.000000E+00
      0.172000E+03      0.000000E+00      0.000000E+00
      0.168000E+03      0.000000E+00      0.400000E+01
      0.172000E+03      0.000000E+00      0.400000E+01
      0.172000E+03      0.000000E+00      0.000000E+00
      0.176000E+03      0.000000E+00      0.000000E+00
      0.172000E+03      0.000000E+00      0.400000E+01
      0.176000E+03      0.000000E+00      0.400000E+01
      0.176000E+03      0.000000E+00      0.000000E+00
      0.180000E+03      0.000000E+00      0.000000E+00
      0.176000E+03      0.000000E+00      0.400000E+01
[...]
POINT_DATA             2700
SCALARS gll_data float
LOOKUP_TABLE default
   941.571890522608     
   941.568180198968     
   885.413678541785     
   885.411125484927     
   941.568180198968     
   942.653203238461     
   885.411125484927     
   885.806644042158     
   942.653203238461     
   923.880415635863     
   885.806644042158     
   869.322816407836     
   923.880415635863     
   925.533806895050     
   869.322816407836     
   869.100416853428     
   925.533806895050     
   869.405751563515     
   869.100416853428     
   869.773857702042     
   869.405751563515     
   868.990232967806     
   869.773857702042     
   870.513958709610     
   868.990232967806     
   868.982124922177     
   870.513958709610     
   870.517342323041     
   868.982124922177     
   884.675360838613     
   870.517342323041     
   868.414808853032     
   884.675360838613     
   925.622316502932     
   868.414808853032     
   868.997426935526     
   925.622316502932     
   926.590035400119     
   868.997426935526     
   871.148055939433     
   926.590035400119     
   941.947452884043     
   871.148055939433     
   885.591375740810     
   941.947452884043     
   940.153497495509     
   885.591375740810     
   887.875533536478     
   940.153497495509     
   938.248035505890     
   887.875533536478     
   923.202774411807     
   938.248035505890     
   938.224058529401     
   923.202774411807     
   922.764940122969     
   938.224058529401     
   938.003234056216     
   922.764940122969     
   938.210012681029     
   938.003234056216     
   937.999497274857     
   938.210012681029     
   938.573563555242     
   937.999497274857     
   937.997542576750     
   938.573563555242     
   938.197925959368     
   937.997542576750     
   937.999942799094     
   938.197925959368     
   937.998533957378     
   937.999942799094     
   938.000009685405     
   937.998533957378     
   937.998606225428     
   938.000009685405     
   938.000009685405     
   937.998606225428     
   938.000009685405     
   938.000009685405     
   938.000009685405     
   938.000009685405     
   938.000009685405     
   938.000009685405     
   938.000009685405     
   938.000009685405     
   938.000009685405     
   938.000009685405     
   938.000009685405     
   938.000009685405     
   938.000009685405     
   938.000009685405     
   938.000009685405     
   938.000009685405     
   938.000009685405     
   938.000009685405     
   938.000009685405     
   938.000009685405     
   938.000009685405     
   938.000009685405     
   938.000009685405     
   938.000009685405     
   938.000009685405     
   938.000009685405     
   938.000009685405     
   938.000009685405     
   938.000009685405     
   938.000009685405     
   938.000009685405     
   938.000009685405     
   938.000009685405     
   938.000009685405     
   938.000009685405     
   938.000009685405     
   937.999703315432     
   938.000009685405     
   938.000076571711     
   937.999703315432     
   937.996139111273     
   938.000076571711     
   937.999942799094     
   937.996139111273     
   937.999079811918     
   937.999942799094     
   938.000009685405     
   937.999079811918     
   937.990035479392     
   938.000009685405     
   937.998227586707     
   937.990035479392     
   938.161136007213     
   937.998227586707     
   937.997063607508     
   938.161136007213     
   938.232486959858     
   937.997063607508     
   937.997130494076     
   938.232486959858     
   938.230839255912     
   937.997130494076     
   937.997130494076     
   938.230839255912     
   938.230839255912     
   937.997130494076     
   937.997130494076     
   938.230839255912     
   938.230839255912     
   937.997130494076     
   937.997130494076     
   938.230839255912     
   938.230839255912     
   937.997130494076     
   937.997130494076     
   938.230839255912     
   938.230599859724     
   937.997130494076     
   937.996339771208     
   938.230599859724     
   938.285638764393     
   937.996339771208     
   937.995108901732     
   938.285638764393     
   938.882083346510     
   937.995108901732     
   937.989250129570     
   938.882083346510     
   939.641618194259     
   937.989250129570     
   937.989389286325     
   939.641618194259     
   939.630681343144     
   937.989389286325     
   937.989389286325     
   939.630681343144     
   939.630681343144     
   937.989389286325     
   937.989389286325     
   939.630681343144     
   939.630681343144     
   885.413678541785     
   885.411125484927     
   853.538943145355     
   853.539978945510     
   885.411125484927     
   885.806644042158     
   853.539978945510     
   853.603286722603     
   885.806644042158     
   869.322816407836     
   853.603286722603     
   838.676992194944     
   869.322816407836     
   869.100416853428     
   838.676992194944     
   818.293461448633     
   869.100416853428     
   869.773857702042     
   818.293461448633     
   818.783076776916     
   869.773857702042     
   870.513958709610     
   818.783076776916     
   818.721426922451     
   870.513958709610     
   870.517342323041     
   818.721426922451     
   818.724654104989     
   870.517342323041     
   868.414808853032     
   818.724654104989     
   818.699586053695     
   868.414808853032     
   868.997426935526     
   818.699586053695     
   818.901231889279     
   868.997426935526     
   871.148055939433     
   818.901231889279     
   854.013254506053     
   871.148055939433     
   885.591375740810     
   854.013254506053     
   854.066236546113     
   885.591375740810     
   887.875533536478     
   854.066236546113     
   868.618460817431     
   887.875533536478     
   923.202774411807     
   868.618460817431     
   869.108958795145     
   923.202774411807     
   922.764940122969     
   869.108958795145     
   868.394603115457     
   922.764940122969     
   938.210012681029     
   868.394603115457     
   883.064835015125     
   938.210012681029     
   938.573563555242     
   883.064835015125     
   887.448591767895     
   938.573563555242     
   938.197925959368     
   887.448591767895     
   923.896658717861     
   938.197925959368     
   937.998533957378     
   923.896658717861     
   938.698123262657     
   937.998533957378     
   937.998606225428     
   938.698123262657     
   938.130852825350     
   937.998606225428     
   938.000009685405     
   938.130852825350     
   937.996646142774     
   938.000009685405     
   938.000009685405     
   937.996646142774     
   937.999942799094     
   938.000009685405     
   938.000009685405     
   937.999942799094     
   938.000076571711     
   938.000009685405     
   938.000009685405     
   938.000076571711     
   938.000009685405     
   938.000009685405     
   938.000009685405     
   938.000009685405     
   938.000009685405     
   938.000009685405     
   938.000009685405     
   938.000009685405     
   938.000076571711     
   938.000009685405     
   938.000009685405     
   938.000076571711     
   937.999942799094     
   938.000009685405     
   938.000009685405     
   937.999942799094     
   937.999190904650     
   938.000009685405     
   938.000009685405     
   937.999190904650     
   937.997303092174     
   938.000009685405     
   937.999703315432     
   937.997303092174     
   938.005317126872     
   937.999703315432     
   937.996139111273     
   938.005317126872     
   938.297489786799     
   937.996139111273     
   937.999079811918     
   938.297489786799     
   938.971996602029     
   937.999079811918     
   937.990035479392     
   938.971996602029     
   939.979003573157     
   937.990035479392     
   938.161136007213     
   939.979003573157     
   926.023984275203     
   938.161136007213     
   938.232486959858     
   926.023984275203     
   923.174208510527     
   938.232486959858     
   938.230839255912     
   923.174208510527     
   923.189387110330     
   938.230839255912     
   938.230839255912     
   923.189387110330     
   923.190299649490     
   938.230839255912     
   938.230839255912     
   923.190299649490     
   923.190197304161     
   938.230839255912     
   938.230839255912     
   923.190197304161     
   923.189952111904     
   938.230839255912     
   938.230599859724     
   923.189952111904     
   923.186295558595     
   938.230599859724     
   938.285638764393     
   923.186295558595     
   922.571362769085     
   938.285638764393     
   938.882083346510     
   922.571362769085     
   889.086925585658     
   938.882083346510     
   939.641618194259     
   889.086925585658     
   883.812240779825     
   939.641618194259     
   939.630681343144     
   883.812240779825     
   883.810726245270     
   939.630681343144     
   939.630681343144     
   883.810726245270     
   883.810726245270     
   939.630681343144     
   939.630681343144     
   883.810726245270     
   883.810726245270     
   853.538943145355     
   853.539978945510     
   804.753647533801     
   804.778684760131     
   853.539978945510     
   853.603286722603     
   804.778684760131     
   804.746843038393     
   853.603286722603     
   838.676992194944     
   804.746843038393     
   804.940676610874     
   838.676992194944     
   818.293461448633     
   804.940676610874     
   805.672499310764     
   818.293461448633     
   818.783076776916     
   805.672499310764     
   806.040156030003     
   818.783076776916     
   818.721426922451     
   806.040156030003     
   806.044915633165     
   818.721426922451     
   818.724654104989     
   806.044915633165     
   806.049392246586     
   818.724654104989     
   818.699586053695     
   806.049392246586     
   806.033747000146     
   818.699586053695     
   818.901231889279     
   806.033747000146     
   805.864551158907     
   818.901231889279     
   854.013254506053     
   805.864551158907     
   804.784722920198     
   854.013254506053     
   854.066236546113     
   804.784722920198     
   804.698676606939     
   854.066236546113     
   868.618460817431     
   804.698676606939     
   803.606034348447     
   868.618460817431     
   869.108958795145     
   803.606034348447     
   806.606731837838     
   869.108958795145     
   868.394603115457     
   806.606731837838     
   818.891046022783     
   868.394603115457     
   883.064835015125     
   818.891046022783     
   821.496407731916     
   883.064835015125     
   887.448591767895     
   821.496407731916     
   854.081160611915     
   887.448591767895     
   923.896658717861     
   854.081160611915     
   868.301329315143     
   923.896658717861     
   938.698123262657     
   868.301329315143     
   872.263412428887     
   938.698123262657     
   938.130852825350     
   872.263412428887     
   894.823353712338     
   938.130852825350     
   937.996646142774     
   894.823353712338     
   935.014175856144     
   937.996646142774     
   937.999942799094     
   935.014175856144     
   938.232175332726     
   937.999942799094     
   938.000076571711     
   938.232175332726     
   937.989762548352     
   938.000076571711     
   938.000009685405     
   937.989762548352     
   937.992263131258     
   938.000009685405     
   938.000009685405     
   937.992263131258     
   937.992301956792     
   938.000009685405     
   938.000076571711     
   937.992301956792     
   938.003128345875     
   938.000076571711     
   937.999942799094     
   938.003128345875     
   938.221013205228     
   937.999942799094     
   937.999190904650     
   938.221013205228     
   938.194702599600     
   937.999190904650     
   937.997303092174     
   938.194702599600     
   936.377732577139     
   937.997303092174     
   938.005317126872     
   936.377732577139     
   920.163761741118     
   938.005317126872     
   938.297489786799     
   920.163761741118     
   883.956114584544     
   938.297489786799     
   938.971996602029     
   883.956114584544     
   866.827158516996     
   938.971996602029     
   939.979003573157     
   866.827158516996     
   868.255436104708     
   939.979003573157     
   926.023984275203     
   868.255436104708     
   868.941973082341     
   926.023984275203     
   923.174208510527     
   868.941973082341     
   868.987376252038     
   923.174208510527     
   923.189387110330     
   868.987376252038     
   868.858693291228     
   923.189387110330     
   923.190299649490     
   868.858693291228     
   868.759389869484     
   923.190299649490     
   923.190197304161     
   868.759389869484     
   868.760934367366     
   923.190197304161     
   923.189952111904     
   868.760934367366     
   868.767826413813     
   923.189952111904     
   923.186295558595     
   868.767826413813     
   868.790692802720     
   923.186295558595     
   922.571362769085     
   868.790692802720     
   868.825980741133     
   922.571362769085     
   889.086925585658     
   868.825980741133     
   868.984178064809     
   889.086925585658     
   883.812240779825     
   868.984178064809     
   869.000682437420     
   883.812240779825     
   883.810726245270     
   869.000682437420     
   869.000488167781     
   883.810726245270     
   883.810726245270     
   869.000488167781     
   869.000488167781     
   883.810726245270     
   883.810726245270     
   869.000488167781     
   869.000488167781     
   804.753647533801     
   804.778684760131     
   807.215830572612     
   809.168830137936     
   804.778684760131     
   804.746843038393     
   809.168830137936     
   812.420787748946     
   804.746843038393     
   804.940676610874     
   812.420787748946     
   808.021410113770     
   804.940676610874     
   805.672499310764     
   808.021410113770     
   753.000599353097     
   805.672499310764     
   806.040156030003     
   753.000599353097     
   739.879526624033     
   806.040156030003     
   806.044915633165     
   739.879526624033     
   739.215642277818     
   806.044915633165     
   806.049392246586     
   739.215642277818     
   738.883357517069     
   806.049392246586     
   806.033747000146     
   738.883357517069     
   739.950633365812     
   806.033747000146     
   805.864551158907     
   739.950633365812     
   737.681146076053     
   805.864551158907     
   804.784722920198     
   737.681146076053     
   808.034230740883     
   804.784722920198     
   804.698676606939     
   808.034230740883     
   811.529048748859     
   804.698676606939     
   803.606034348447     
   811.529048748859     
   807.560809433510     
   803.606034348447     
   806.606731837838     
   807.560809433510     
   806.035517651210     
   806.606731837838     
   818.891046022783     
   806.035517651210     
   805.458331827118     
   818.891046022783     
   821.496407731916     
   805.458331827118     
   804.686212269650     
   821.496407731916     
   854.081160611915     
   804.686212269650     
   803.150573166187     
   854.081160611915     
   868.301329315143     
   803.150573166187     
   817.559076729153     
   868.301329315143     
   872.263412428887     
   817.559076729153     
   849.799269549112     
   872.263412428887     
   894.823353712338     
   849.799269549112     
   868.906860015839     
   894.823353712338     
   935.014175856144     
   868.906860015839     
   882.036787960757     
   935.014175856144     
   938.232175332726     
   882.036787960757     
   922.939688903920     
   938.232175332726     
   937.989762548352     
   922.939688903920     
   940.117915706370     
   937.989762548352     
   937.992263131258     
   940.117915706370     
   939.628903889040     
   937.992263131258     
   937.992301956792     
   939.628903889040     
   939.620193944248     
   937.992301956792     
   938.003128345875     
   939.620193944248     
   939.217025660828     
   938.003128345875     
   938.221013205228     
   939.217025660828     
   922.798404275357     
   938.221013205228     
   938.194702599600     
   922.798404275357     
   901.686021179514     
   938.194702599600     
   936.377732577139     
   901.686021179514     
   880.982300535115     
   936.377732577139     
   920.163761741118     
   880.982300535115     
   868.078858383918     
   920.163761741118     
   883.956114584544     
   868.078858383918     
   869.065607714775     
   883.956114584544     
   866.827158516996     
   869.065607714775     
   870.482187820190     
   866.827158516996     
   868.255436104708     
   870.482187820190     
   861.262991605090     
   868.255436104708     
   868.941973082341     
   861.262991605090     
   856.073870514143     
   868.941973082341     
   868.987376252038     
   856.073870514143     
   855.302543619592     
   868.987376252038     
   868.858693291228     
   855.302543619592     
   860.721077592426     
   868.858693291228     
   868.759389869484     
   860.721077592426     
   870.620188954699     
   868.759389869484     
   868.760934367366     
   870.620188954699     
   870.542224093738     
   868.760934367366     
   868.767826413813     
   870.542224093738     
   870.043144529521     
   868.767826413813     
   868.790692802720     
   870.043144529521     
   868.227243231198     
   868.790692802720     
   868.825980741133     
   868.227243231198     
   867.867298258715     
   868.825980741133     
   868.984178064809     
   867.867298258715     
   870.685661049794     
   868.984178064809     
   869.000682437420     
   870.685661049794     
   870.514346220245     
   869.000682437420     
   869.000488167781     
   870.514346220245     
   870.521558005116     
   869.000488167781     
   869.000488167781     
   870.521558005116     
   870.521788472270     
   869.000488167781     
   869.000488167781     
   870.521788472270     
   870.521788472270     
   807.215830572612     
   809.168830137936     
   718.901182176555     
   569.805120443641     
   809.168830137936     
   812.420787748946     
   569.805120443641     
   563.214167490120     
   812.420787748946     
   808.021410113770     
   563.214167490120     
   556.734132198714     
   808.021410113770     
   753.000599353097     
   556.734132198714     
   500.501289421869     
   753.000599353097     
   739.879526624033     
   500.501289421869     
   487.423152264083     
   739.879526624033     
   739.215642277818     
   487.423152264083     
   489.684106572379     
   739.215642277818     
   738.883357517069     
   489.684106572379     
   489.574892558920     
   738.883357517069     
   739.950633365812     
   489.574892558920     
   486.597199841538     
   739.950633365812     
   737.681146076053     
   486.597199841538     
   485.225006202045     
   737.681146076053     
   808.034230740883     
   485.225006202045     
   556.911553597124     
   808.034230740883     
   811.529048748859     
   556.911553597124     
   563.294021757848     
   811.529048748859     
   807.560809433510     
   563.294021757848     
   714.052494166998     
   807.560809433510     
   806.035517651210     
   714.052494166998     
   739.422679347039     
   806.035517651210     
   805.458331827118     
   739.422679347039     
   787.032399947981     
   805.458331827118     
   804.686212269650     
   787.032399947981     
   812.667549559752     
   804.686212269650     
   803.150573166187     
   812.667549559752     
   812.961961618668     
   803.150573166187     
   817.559076729153     
   812.961961618668     
   805.464950050197     
   817.559076729153     
   849.799269549112     
   805.464950050197     
   803.770820353919     
   849.799269549112     
   868.906860015839     
   803.770820353919     
   841.563287594746     
   868.906860015839     