 -4.000000000000000E-002    0.000000000000000E+000
 -3.990000000000000E-002    0.000000000000000E+000
 -3.980000000000000E-002    0.000000000000000E+000
 -3.970000000000000E-002    0.000000000000000E+000
 -3.960000000000000E-002    0.000000000000000E+000
 -3.950000000000000E-002    0.000000000000000E+000
 -3.940000000000000E-002    0.000000000000000E+000
 -3.930000000000000E-002    0.000000000000000E+000
 -3.920000000000000E-002    0.000000000000000E+000
 -3.910000000000000E-002    0.000000000000000E+000
 -3.900000000000000E-002    0.000000000000000E+000
 -3.890000000000000E-002    0.000000000000000E+000
 -3.880000000000000E-002    0.000000000000000E+000
 -3.870000000000000E-002   -6.450360970521783E-043
 -3.860000000000000E-002   -1.467959450461583E-041
 -3.850000000000000E-002   -1.687403279489535E-040
 -3.840000000000000E-002   -1.296248571488643E-039
 -3.830000000000000E-002   -7.398058079889637E-039
 -3.820000000000000E-002   -3.278341801969497E-038
 -3.810000000000000E-002   -1.126906387041574E-037
 -3.800000000000000E-002   -2.757428242172964E-037
 -3.790000000000000E-002   -2.472317941551656E-037
 -3.780000000000000E-002    2.016101983026687E-036
 -3.770000000000000E-002    1.583261066317089E-035
 -3.760000000000000E-002    7.530083317736797E-035
 -3.750000000000000E-002    2.884268802703834E-034
 -3.740000000000000E-002    9.615726437361249E-034
 -3.730000000000000E-002    2.887670801811781E-033
 -3.720000000000000E-002    7.960966526659058E-033
 -3.710000000000000E-002    2.038861178782517E-032
 -3.700000000000000E-002    4.889594495047447E-032
 -3.690000000000000E-002    1.104125289367299E-031
 -3.680000000000000E-002    2.356500313131545E-031
 -3.670000000000000E-002    4.764935119241003E-031
 -3.660000000000000E-002    9.138230322033976E-031
 -3.650000000000000E-002    1.661700006403376E-030
 -3.640000000000000E-002    2.859135503193047E-030
 -3.630000000000000E-002    4.633360873540423E-030
 -3.620000000000000E-002    7.008615487917774E-030
 -3.610000000000000E-002    9.723086712816519E-030
 -3.600000000000000E-002    1.190702103189425E-029
 -3.590000000000000E-002    1.157349221353169E-029
 -3.580000000000000E-002    4.890212358783819E-030
 -3.570000000000000E-002   -1.474935049025265E-029
 -3.560000000000000E-002   -5.773689152235564E-029
 -3.550000000000000E-002   -1.390554783480010E-028
 -3.540000000000000E-002   -2.783486529842266E-028
 -3.530000000000000E-002   -4.984042312427748E-028
 -3.520000000000000E-002   -8.208576585299909E-028
 -3.510000000000000E-002   -1.257626513854592E-027
 -3.500000000000000E-002   -1.796492440938232E-027
 -3.490000000000000E-002   -2.379558330114215E-027
 -3.480000000000000E-002   -2.874288314506327E-027
 -3.470000000000000E-002   -3.038759758119507E-027
 -3.460000000000000E-002   -2.485842129122277E-027
 -3.450000000000000E-002   -6.553203262552037E-028
 -3.440000000000000E-002    3.191742123883387E-027
 -3.430000000000000E-002    9.936579337780557E-027
 -3.420000000000000E-002    2.049993132078471E-026
 -3.410000000000000E-002    3.564708233242063E-026
 -3.400000000000000E-002    5.567904798232330E-026
 -3.390000000000000E-002    8.000068096874716E-026
 -3.380000000000000E-002    1.065799681535817E-025
 -3.370000000000000E-002    1.313487280798220E-025
 -3.360000000000000E-002    1.476425572774293E-025
 -3.350000000000000E-002    1.458332525998976E-025
 -3.340000000000000E-002    1.133607477328946E-025
 -3.330000000000000E-002    3.541111589124680E-026
 -3.320000000000000E-002   -1.035077228618904E-025
 -3.310000000000000E-002   -3.168901790159193E-025
 -3.300000000000000E-002   -6.123815272751824E-025
 -3.290000000000000E-002   -9.868924527299231E-025
 -3.280000000000000E-002   -1.421134065040382E-024
 -3.270000000000000E-002   -1.874413202980455E-024
 -3.260000000000000E-002   -2.280942301656011E-024
 -3.250000000000000E-002   -2.549277753955899E-024
 -3.240000000000000E-002   -2.566692067279240E-024
 -3.230000000000000E-002   -2.210169011759230E-024
 -3.220000000000000E-002   -1.365147079772987E-024
 -3.210000000000000E-002    4.799638178161970E-026
 -3.200000000000000E-002    2.041483854576981E-024
 -3.190000000000000E-002    4.525782589161524E-024
 -3.180000000000000E-002    7.280097265517380E-024
 -3.170000000000000E-002    9.937042493460808E-024
 -3.160000000000000E-002    1.199273930949365E-023
 -3.150000000000000E-002    1.285402256647704E-023
 -3.140000000000000E-002    1.193252971212058E-023
 -3.130000000000000E-002    8.790365281453409E-024
 -3.120000000000000E-002    3.333219490160040E-024
 -3.110000000000000E-002   -3.965802742422698E-024
 -3.100000000000000E-002   -1.184419734361562E-023
 -3.090000000000000E-002   -1.807962324547662E-023
 -3.080000000000000E-002   -1.943674010048178E-023
 -3.070000000000000E-002   -1.180779224416200E-023
 -3.060000000000000E-002    9.375576357588142E-024
 -3.050000000000000E-002    4.839557407834281E-023
 -3.040000000000000E-002    1.081356057174190E-022
 -3.030000000000000E-002    1.886256057707183E-022
 -3.020000000000000E-002    2.853459128998022E-022
 -3.010000000000000E-002    3.874841992886385E-022
 -3.000000000000000E-002    4.764434429294584E-022
 -2.990000000000000E-002    5.249952451600221E-022
 -2.980000000000000E-002    4.975444081677784E-022
 -2.970000000000000E-002    3.519931628287764E-022
 -2.960000000000000E-002    4.364237485449162E-023
 -2.950000000000000E-002   -4.685774674213987E-022
 -2.940000000000000E-002   -1.213510032908854E-021
 -2.930000000000000E-002   -2.197136288249002E-021
 -2.920000000000000E-002   -3.390686006940164E-021
 -2.910000000000000E-002   -4.718799800877192E-021
 -2.900000000000000E-002   -6.049557193483249E-021
 -2.890000000000000E-002   -7.188620793482224E-021
 -2.880000000000000E-002   -7.879992412550817E-021
 -2.870000000000000E-002   -7.815855291263262E-021
 -2.860000000000000E-002   -6.657575357390603E-021
 -2.850000000000000E-002   -4.069093583494910E-021
 -2.840000000000000E-002    2.373292030673722E-022
 -2.830000000000000E-002    6.444789513950416E-021
 -2.820000000000000E-002    1.456860871620785E-020
 -2.810000000000000E-002    2.439226932190979E-020
 -2.800000000000000E-002    3.541032155929813E-020
 -2.790000000000000E-002    4.678763244387848E-020
 -2.780000000000000E-002    5.734507363146946E-020
 -2.770000000000000E-002    6.558142533851445E-020
 -2.760000000000000E-002    6.973950998601168E-020
 -2.750000000000000E-002    6.792135449769638E-020
 -2.740000000000000E-002    5.825280243300106E-020
 -2.730000000000000E-002    3.909214722108065E-020
 -2.720000000000000E-002    9.271114185573646E-021
 -2.710000000000000E-002   -3.164977661866903E-020
 -2.700000000000000E-002   -8.313509810599894E-020
 -2.690000000000000E-002   -1.434650225252997E-019
 -2.680000000000000E-002   -2.095915452129508E-019
 -2.670000000000000E-002   -2.770880769136577E-019
 -2.660000000000000E-002   -3.402152951707884E-019
 -2.650000000000000E-002   -3.921186281794553E-019
 -2.640000000000000E-002   -4.251624434087502E-019
 -2.630000000000000E-002   -4.313937630911231E-019
 -2.620000000000000E-002   -4.031169278755190E-019
 -2.610000000000000E-002   -3.335491914368112E-019
 -2.600000000000000E-002   -2.175189118559179E-019
 -2.590000000000000E-002   -5.216362073020246E-020
 -2.580000000000000E-002    1.624153882518178E-019
 -2.570000000000000E-002    4.225814222158872E-019
 -2.560000000000000E-002    7.207068374164208E-019
 -2.550000000000000E-002    1.044858525801927E-018
 -2.540000000000000E-002    1.378642806737698E-018
 -2.530000000000000E-002    1.701225653286181E-018
 -2.520000000000000E-002    1.987544669053180E-018
 -2.510000000000000E-002    2.208742638443272E-018
 -2.500000000000000E-002    2.332865019569816E-018
 -2.490000000000000E-002    2.325886821693672E-018
 -2.480000000000000E-002    2.153152185633845E-018
 -2.470000000000000E-002    1.781326368578971E-018
 -2.460000000000000E-002    1.180954128203326E-018
 -2.450000000000000E-002    3.296942039100026E-019
 -2.440000000000000E-002   -7.837548960524834E-019
 -2.430000000000000E-002   -2.155119248112274E-018
 -2.420000000000000E-002   -3.759608767634011E-018
 -2.410000000000000E-002   -5.546935767600094E-018
 -2.400000000000000E-002   -7.436829788980587E-018
 -2.390000000000000E-002   -9.315748204388738E-018
 -2.380000000000000E-002   -1.103562938415202E-017
 -2.370000000000000E-002   -1.241558782046048E-017
 -2.360000000000000E-002   -1.324744019070952E-017
 -2.350000000000000E-002   -1.330579645017671E-017
 -2.340000000000000E-002   -1.236314876404071E-017
 -2.330000000000000E-002   -1.020995560493456E-017
 -2.320000000000000E-002   -6.679137273820590E-018
 -2.310000000000000E-002   -1.673712912344876E-018
 -2.300000000000000E-002    4.804398743358011E-018
 -2.290000000000000E-002    1.262709261487745E-017
 -2.280000000000000E-002    2.151752195162661E-017
 -2.270000000000000E-002    3.103581837798594E-017
 -2.260000000000000E-002    4.057664535237449E-017
 -2.250000000000000E-002    4.938172735431384E-017
 -2.240000000000000E-002    5.656967188608417E-017
 -2.230000000000000E-002    6.118414187720538E-017
 -2.220000000000000E-002    6.225973636189978E-017
 -2.210000000000000E-002    5.890303999750372E-017
 -2.200000000000000E-002    5.038426388564904E-017
 -2.190000000000000E-002    3.623296227391461E-017
 -2.180000000000000E-002    1.632964300894152E-017
 -2.170000000000000E-002   -9.015842204746488E-018
 -2.160000000000000E-002   -3.900862092221403E-017
 -2.150000000000000E-002   -7.234459801698468E-017
 -2.140000000000000E-002   -1.072248710044270E-016
 -2.130000000000000E-002   -1.414133868278685E-016
 -2.120000000000000E-002   -1.723388617481054E-016
 -2.110000000000000E-002   -1.972383313692844E-016
 -2.100000000000000E-002   -2.133352394238747E-016
 -2.090000000000000E-002   -2.180414405872289E-016
 -2.080000000000000E-002   -2.091689290508408E-016
 -2.070000000000000E-002   -1.851353188281920E-016
 -2.060000000000000E-002   -1.451461666625842E-016
 -2.050000000000000E-002   -8.933826349981648E-017
 -2.040000000000000E-002   -1.887060077072642E-017
 -2.030000000000000E-002    6.404644373620512E-017
 -2.020000000000000E-002    1.561879572452799E-016
 -2.010000000000000E-002    2.534160111760704E-016
 -2.000000000000000E-002    3.508393042866009E-016
 -1.990000000000000E-002    4.430191647228264E-016
 -1.980000000000000E-002    5.242078372676331E-016
 -1.970000000000000E-002    5.886025961176494E-016
 -1.960000000000000E-002    6.306011459667203E-016
 -1.950000000000000E-002    6.450460500003845E-016
 -1.940000000000000E-002    6.274512110229999E-016
 -1.930000000000000E-002    5.742084681136351E-016
 -1.920000000000000E-002    4.827789639597387E-016
 -1.910000000000000E-002    3.518777798755113E-016
 -1.900000000000000E-002    1.816632912876210E-016
 -1.890000000000000E-002   -2.605846265295975E-017
 -1.880000000000000E-002   -2.676084179423306E-016
 -1.870000000000000E-002   -5.371910738495474E-016
 -1.860000000000000E-002   -8.266478052986900E-016
 -1.850000000000000E-002   -1.125235808275732E-015
 -1.840000000000000E-002   -1.419477041572201E-015
 -1.830000000000000E-002   -1.693133456388225E-015
 -1.820000000000000E-002   -1.927374494951892E-015
 -1.810000000000000E-002   -2.101204004619798E-015
 -1.800000000000000E-002   -2.192206699064765E-015
 -1.790000000000000E-002   -2.177654764963127E-015
 -1.780000000000000E-002   -2.035989141170000E-015
 -1.770000000000000E-002   -1.748649378833080E-015
 -1.760000000000000E-002   -1.302178878019006E-015
 -1.750000000000000E-002   -6.904857958914790E-016
 -1.740000000000000E-002    8.291249969546510E-017
 -1.730000000000000E-002    1.002871860747191E-015
 -1.720000000000000E-002    2.041070154318445E-015
 -1.710000000000000E-002    3.155169743351928E-015
 -1.700000000000000E-002    4.288925033916060E-015
 -1.690000000000000E-002    5.373427067517458E-015
 -1.680000000000000E-002    6.329605431872018E-015
 -1.670000000000000E-002    7.072016365355531E-015
 -1.660000000000000E-002    7.513836323756402E-015
 -1.650000000000000E-002    7.572856151529057E-015
 -1.640000000000000E-002    7.178152894979309E-015
 -1.630000000000000E-002    6.277008491150819E-015
 -1.620000000000000E-002    4.841556903113127E-015
 -1.610000000000000E-002    2.874599604922680E-015
 -1.600000000000000E-002    4.140234282383951E-016
 -1.590000000000000E-002   -2.464696681810078E-015
 -1.580000000000000E-002   -5.648330400781793E-015
 -1.570000000000000E-002   -8.988336049099510E-015
 -1.560000000000000E-002   -1.230601053493368E-014
 -1.550000000000000E-002   -1.540023696098942E-014
 -1.540000000000000E-002   -1.805751019011720E-014
 -1.530000000000000E-002   -2.006373540047779E-014
 -1.520000000000000E-002   -2.121710655374304E-014
 -1.510000000000000E-002   -2.134130493206564E-014
 -1.500000000000000E-002   -2.029814877824532E-014
 -1.490000000000000E-002   -1.799889451110588E-014
 -1.480000000000000E-002   -1.441344410349144E-014
 -1.470000000000000E-002   -9.576873849887289E-015
 -1.460000000000000E-002   -3.592878012137661E-015
 -1.450000000000000E-002    3.366054390426659E-015
 -1.440000000000000E-002    1.106169747010092E-014
 -1.430000000000000E-002    1.919616571847047E-014
 -1.420000000000000E-002    2.742063662838253E-014
 -1.410000000000000E-002    3.534628252130029E-014
 -1.400000000000000E-002    4.255691951563125E-014
 -1.390000000000000E-002    4.862298818946791E-014
 -1.380000000000000E-002    5.311653558396993E-014
 -1.370000000000000E-002    5.562704343215568E-014
 -1.360000000000000E-002    5.577805074579860E-014
 -1.350000000000000E-002    5.324466741946128E-014
 -1.340000000000000E-002    4.777203982289695E-014
 -1.330000000000000E-002    3.919485859723005E-014
 -1.320000000000000E-002    2.745772407455282E-014
 -1.310000000000000E-002    1.263593937513712E-014
 -1.300000000000000E-002   -5.044118319372361E-015
 -1.290000000000000E-002   -2.518639442706974E-014
 -1.280000000000000E-002   -4.721014785925543E-014
 -1.270000000000000E-002   -7.034082774924198E-014
 -1.260000000000000E-002   -9.360942282134413E-014
 -1.250000000000000E-002   -1.158630541723246E-013
 -1.240000000000000E-002   -1.357893313316609E-013
 -1.230000000000000E-002   -1.519566058185968E-013
 -1.220000000000000E-002   -1.628713639702184E-013
 -1.210000000000000E-002   -1.670527586801630E-013
 -1.200000000000000E-002   -1.631230101996811E-013
 -1.190000000000000E-002   -1.499104773570325E-013
 -1.180000000000000E-002   -1.265605892386321E-013
 -1.170000000000000E-002   -9.264808550277773E-014
 -1.160000000000000E-002   -4.828262051440109E-014
 -1.150000000000000E-002    5.801246652763781E-015
 -1.140000000000000E-002    6.817906775064822E-014
 -1.130000000000000E-002    1.367056909295782E-013
 -1.120000000000000E-002    2.085264663900962E-013
 -1.110000000000000E-002    2.801366692525332E-013
 -1.100000000000000E-002    3.474925421330674E-013
 -1.090000000000000E-002    4.061740494261826E-013
 -1.080000000000000E-002    4.515957007032133E-013
 -1.070000000000000E-002    4.792581105990843E-013
 -1.060000000000000E-002    4.850286396682681E-013
 -1.050000000000000E-002    4.654370185179513E-013
 -1.040000000000000E-002    4.179682484335988E-013
 -1.030000000000000E-002    3.413339992811458E-013
 -1.020000000000000E-002    2.357037103206863E-013
 -1.010000000000000E-002    1.028762410201856E-013
 -1.000000000000000E-002   -5.362353128471664E-014
 -9.899999999999999E-003   -2.285363082824045E-013
 -9.800000000000000E-003   -4.149565418783746E-013
 -9.699999999999999E-003   -6.045202978368875E-013
 -9.599999999999999E-003   -7.876907433204578E-013
 -9.500000000000000E-003   -9.541332256006514E-013
 -9.399999999999999E-003   -1.093166997012232E-012
 -9.299999999999999E-003   -1.194276069084781E-012
 -9.200000000000000E-003   -1.247657493633492E-012
 -9.099999999999999E-003   -1.244783714140658E-012
 -8.999999999999999E-003   -1.178953245154268E-012
 -8.900000000000000E-003   -1.045805092672932E-012
 -8.799999999999999E-003   -8.437707398499595E-013
 -8.699999999999999E-003   -5.744422136052820E-013
 -8.600000000000000E-003   -2.428337838011263E-013
 -8.499999999999999E-003    1.424801780221794E-013
 -8.399999999999999E-003    5.693668191105905E-013
 -8.300000000000000E-003    1.022288827500502E-012
 -8.199999999999999E-003    1.482619395213765E-012
 -8.100000000000000E-003    1.929123846612283E-012
 -8.000000000000000E-003    2.338609765543238E-012
 -7.899999999999999E-003    2.686741430710847E-012
 -7.800000000000000E-003    2.949008730092230E-012
 -7.699999999999999E-003    3.101834465823853E-012
 -7.599999999999999E-003    3.123794369809496E-012
 -7.499999999999999E-003    2.996912407353014E-012
 -7.399999999999999E-003    2.707986541940670E-012
 -7.299999999999999E-003    2.249886127122857E-012
 -7.199999999999999E-003    1.622752478509809E-012
 -7.100000000000000E-003    8.350238214542664E-013
 -6.999999999999999E-003   -9.579735787414848E-014
 -6.899999999999999E-003   -1.142723200132223E-012
 -6.800000000000000E-003   -2.269287559917078E-012
 -6.699999999999999E-003   -3.430052676744133E-012
 -6.599999999999999E-003   -4.571672918805165E-012
 -6.499999999999999E-003   -5.634546349214225E-012
 -6.399999999999999E-003   -6.555053461616559E-012
 -6.299999999999999E-003   -7.268347429461808E-012
 -6.199999999999999E-003   -7.711617934512636E-012
 -6.100000000000000E-003   -7.827710029359897E-012
 -5.999999999999999E-003   -7.568935956961834E-012
 -5.899999999999999E-003   -6.900884568079835E-012
 -5.800000000000000E-003   -5.806006645089508E-012
 -5.699999999999999E-003   -4.286731215035908E-012
 -5.599999999999999E-003   -2.367873937437338E-012
 -5.499999999999999E-003   -9.810242728637370E-014
 -5.399999999999999E-003    2.449738239698633E-012
 -5.299999999999999E-003    5.179601830100787E-012
 -5.199999999999999E-003    7.974611790505785E-012
 -5.099999999999999E-003    1.070084660056734E-011
 -4.999999999999999E-003    1.321248849534057E-011
 -4.899999999999999E-003    1.535818829343381E-011
 -4.799999999999999E-003    1.698841459009379E-011
 -4.699999999999999E-003    1.796348909526627E-011
 -4.599999999999999E-003    1.816192707054738E-011
 -4.499999999999999E-003    1.748866153924579E-011
 -4.399999999999999E-003    1.588270246826133E-011
 -4.299999999999999E-003    1.332376292412160E-011
 -4.199999999999999E-003    9.837412573651403E-012
 -4.099999999999999E-003    5.498357153445197E-012
 -3.999999999999999E-003    4.315182321079997E-013
 -3.899999999999999E-003   -5.189349691853052E-012
 -3.799999999999999E-003   -1.114562550006704E-011
 -3.699999999999999E-003   -1.718040058955470E-011
 -3.599999999999999E-003   -2.300756124809238E-011
 -3.499999999999999E-003   -2.832313740695768E-011
 -3.399999999999999E-003   -3.281854456660850E-011
 -3.299999999999999E-003   -3.619525861491959E-011
 -3.199999999999999E-003   -3.818029784435829E-011
 -3.099999999999999E-003   -3.854188558418098E-011
 -2.999999999999999E-003   -3.710451805614824E-011
 -2.899999999999999E-003   -3.376271299127481E-011
 -2.799999999999999E-003   -2.849263065431187E-011
 -2.699999999999999E-003   -2.136086831946383E-011
 -2.599999999999999E-003   -1.252971442927744E-011
 -2.499999999999999E-003   -2.258333899685050E-012
 -2.399999999999999E-003    9.100584665139188E-012
 -2.299999999999999E-003    2.110898250481840E-011
 -2.199999999999999E-003    3.325645018975956E-011
 -2.099999999999999E-003    4.497796910713955E-011
 -1.999999999999999E-003    5.567600491094783E-011
 -1.899999999999999E-003    6.474629478487339E-011
 -1.799999999999999E-003    7.160647331653750E-011
 -1.699999999999999E-003    7.572640488425516E-011
 -1.599999999999999E-003    7.665893946696497E-011
 -1.499999999999999E-003    7.406956770907243E-011
 -1.399999999999999E-003    6.776345282441063E-011
 -1.299999999999999E-003    5.770814182780872E-011
 -1.199999999999999E-003    4.405040986251847E-011
 -1.099999999999999E-003    2.712578146505757E-011
 -9.999999999999989E-004    7.459456843020383E-012
 -8.999999999999990E-004   -1.424224264286691E-011
 -7.999999999999990E-004   -3.711048093472027E-011
 -6.999999999999989E-004   -6.014257266188591E-011
 -5.999999999999990E-004   -8.224024561855025E-011
 -4.999999999999989E-004   -1.022564560941322E-010
 -3.999999999999989E-004   -1.190490738969730E-010
 -2.999999999999989E-004   -1.315393696262913E-010
 -1.999999999999989E-004   -1.387725768632480E-010
 -9.999999999999892E-005   -1.399774418181297E-010
  1.084202172485504E-018   -1.346216056585737E-010
  1.000000000000011E-004   -1.224593579491018E-010
  2.000000000000011E-004   -1.035684227633593E-010
  3.000000000000011E-004   -7.837294401568818E-011
  4.000000000000011E-004   -4.764998044276610E-011
  5.000000000000011E-004   -1.251776794751296E-011
  6.000000000000011E-004    2.559516357650485E-011
  7.000000000000011E-004    6.500013023695239E-011
  8.000000000000011E-004    1.038164962447120E-010
  9.000000000000012E-004    1.400558357157864E-010
  1.000000000000001E-003    1.717187194119086E-010
  1.100000000000001E-003    1.968998701681933E-010
  1.200000000000001E-003    2.138967209035771E-010
  1.300000000000001E-003    2.213155190365848E-010
  1.400000000000001E-003    2.181691275138604E-010
  1.500000000000001E-003    2.039604709249001E-010
  1.600000000000001E-003    1.787457892447877E-010
  1.700000000000001E-003    1.431729260018225E-010
  1.800000000000001E-003    9.849031250655968E-011
  1.900000000000001E-003    4.652406284142330E-011
  2.000000000000001E-003   -1.037807441558764E-011
  2.100000000000001E-003   -6.943549221184016E-011
  2.200000000000001E-003   -1.275538900662353E-010
  2.300000000000001E-003   -1.814708747627030E-010
  2.400000000000001E-003   -2.279220962147329E-010
  2.500000000000001E-003   -2.638207351603422E-010
  2.600000000000001E-003   -2.864417352748017E-010
  2.700000000000001E-003   -2.936014059139172E-010
  2.800000000000001E-003   -2.838226249804160E-010
  2.900000000000001E-003   -2.564754836307253E-010
  3.000000000000001E-003   -2.118843565756102E-010
  3.100000000000001E-003   -1.513927689961448E-010
  3.200000000000001E-003   -7.737914418777800E-011
  3.300000000000001E-003    6.781204140814347E-012
  3.400000000000001E-003    9.681118522163219E-011
  3.500000000000001E-003    1.876834953322375E-010
  3.600000000000001E-003    2.738266243969908E-010
  3.700000000000001E-003    3.493794152737316E-010
  3.800000000000001E-003    4.084856166186572E-010
  3.900000000000001E-003    4.456177716545373E-010
  4.000000000000001E-003    4.559166097863783E-010
  4.100000000000001E-003    4.355304823870144E-010
  4.200000000000001E-003    3.819380469341287E-010
  4.300000000000001E-003    2.942363622724787E-010
  4.400000000000001E-003    1.733767201909519E-010
  4.500000000000001E-003    2.233081695464115E-011
  4.600000000000002E-003   -1.538271696104046E-010
  4.700000000000001E-003   -3.479368534060816E-010
  4.800000000000001E-003   -5.508742520687315E-010
  4.900000000000002E-003   -7.517872911464904E-010
  5.000000000000001E-003   -9.384443758552980E-010
  5.100000000000001E-003   -1.097691048247222E-009
  5.200000000000001E-003   -1.216004857723771E-009
  5.300000000000002E-003   -1.280132139490995E-009
  5.400000000000001E-003   -1.277785369514244E-009
  5.500000000000001E-003   -1.198374963944113E-009
  5.600000000000002E-003   -1.033744134798052E-009
  5.700000000000001E-003   -7.788736193395686E-010
  5.800000000000001E-003   -4.325204374211000E-010
  5.900000000000002E-003    2.244999595016561E-012
  6.000000000000001E-003    5.176393972747123E-010
  6.100000000000001E-003    1.100934547850182E-009
  6.200000000000002E-003    1.734421152453596E-009
  6.300000000000002E-003    2.395588887522368E-009
  6.400000000000001E-003    3.057534842857866E-009
  6.500000000000001E-003    3.689604961718327E-009
  6.600000000000002E-003    4.258262858505128E-009
  6.700000000000001E-003    4.728169003097750E-009
  6.800000000000001E-003    5.063445741560637E-009
  6.900000000000002E-003    5.229092522758149E-009
  7.000000000000001E-003    5.192505785514942E-009
  7.100000000000001E-003    4.925054017788783E-009
  7.200000000000002E-003    4.403650685001596E-009
  7.300000000000002E-003    3.612266141264265E-009
  7.400000000000001E-003    2.543314295633096E-009
  7.500000000000001E-003    1.198858758097728E-009
  7.600000000000002E-003   -4.084234504213554E-010
  7.700000000000001E-003   -2.254566327191111E-009
  7.800000000000001E-003   -4.303975825280300E-009
  7.900000000000001E-003   -6.509458495736685E-009
  8.000000000000002E-003   -8.812642194725533E-009
  8.100000000000001E-003   -1.114480052268969E-008
  8.200000000000001E-003   -1.342808472875031E-008
  8.300000000000002E-003   -1.557714480768723E-008
  8.400000000000001E-003   -1.750112673287298E-008
  8.500000000000002E-003   -1.910599581137624E-008
  8.600000000000002E-003   -2.029715898605512E-008
  8.700000000000001E-003   -2.098231500302239E-008
  8.800000000000002E-003   -2.107448522105768E-008
  8.900000000000002E-003   -2.049515013244295E-008
  9.000000000000001E-003   -1.917741649128825E-008
  9.100000000000002E-003   -1.706915381838140E-008
  9.200000000000002E-003   -1.413600549571327E-008
  9.300000000000001E-003   -1.036422179118587E-008
  9.400000000000002E-003   -5.763229102891432E-009
  9.500000000000001E-003   -3.678704437312455E-010
  9.600000000000001E-003    5.759731141477862E-009
  9.700000000000002E-003    1.252875571821528E-008
  9.800000000000001E-003    1.981873664311675E-008
  9.900000000000001E-003    2.747913331841518E-008
  1.000000000000000E-002    3.532942540064458E-008
  1.010000000000000E-002    4.315973811673037E-008
  1.020000000000000E-002    5.073200843596738E-008
  1.030000000000000E-002    5.778164632686234E-008
  1.040000000000000E-002    6.401969135525880E-008
  1.050000000000000E-002    6.913536844114671E-008
  1.060000000000000E-002    7.279905977720457E-008
  1.070000000000000E-002    7.466556487945986E-008
  1.080000000000000E-002    7.437760825060683E-008
  1.090000000000000E-002    7.156950305590818E-008
  1.100000000000000E-002    6.587091240306277E-008
  1.110000000000000E-002    5.691061140368766E-008
  1.120000000000000E-002    4.432015714930870E-008
  1.130000000000000E-002    2.773742758391480E-008
  1.140000000000000E-002    6.809924788954156E-009
  1.150000000000000E-002   -1.880220492308089E-008
  1.160000000000000E-002   -4.942352285172851E-008
  1.170000000000000E-002   -8.536103674464033E-008
  1.180000000000000E-002   -1.269023325919839E-007
  1.190000000000000E-002   -1.743143675825013E-007
  1.200000000000000E-002   -2.278425026526667E-007
  1.210000000000000E-002   -2.877103530788520E-007
  1.220000000000000E-002   -3.541199853589653E-007
  1.230000000000000E-002   -4.272528650239388E-007
  1.240000000000000E-002   -5.072712316567128E-007
  1.250000000000000E-002   -5.943201558012868E-007
  1.260000000000000E-002   -6.885301383000869E-007
  1.270000000000000E-002   -7.900202283180233E-007
  1.280000000000000E-002   -8.989018899419504E-007
  1.290000000000000E-002   -1.015283183344957E-006
  1.300000000000000E-002   -1.139273190242955E-006
  1.310000000000000E-002   -1.270987605076955E-006
  1.320000000000000E-002   -1.410553981767761E-006
  1.330000000000000E-002   -1.558117709046142E-006
  1.340000000000000E-002   -1.713847579616006E-006
  1.350000000000000E-002   -1.877942425385828E-006
  1.360000000000000E-002   -2.050637156415388E-006
  1.370000000000000E-002   -2.232208321119841E-006
  1.380000000000000E-002   -2.422980975191942E-006
  1.390000000000000E-002   -2.623333470398183E-006
  1.400000000000000E-002   -2.833702799796309E-006
  1.410000000000000E-002   -3.054590326629308E-006
  1.420000000000000E-002   -3.286564868777882E-006
  1.430000000000000E-002   -3.530267424833613E-006
  1.440000000000000E-002   -3.786414360327615E-006
  1.450000000000000E-002   -4.055799286162235E-006
  1.460000000000000E-002   -4.339296886822329E-006
  1.470000000000000E-002   -4.637862571142121E-006
  1.480000000000000E-002   -4.952535180822276E-006
  1.490000000000000E-002   -5.284437555777051E-006
  1.500000000000000E-002   -5.634775989249705E-006
  1.510000000000000E-002   -6.004841389860767E-006
  1.520000000000000E-002   -6.396008524807868E-006
  1.530000000000000E-002   -6.809736296562623E-006
  1.540000000000000E-002   -7.247567395761118E-006
  1.550000000000000E-002   -7.711127511058329E-006
  1.560000000000000E-002   -8.202126058623487E-006
  1.570000000000000E-002   -8.722354926229278E-006
  1.580000000000000E-002   -9.273689475359072E-006
  1.590000000000000E-002   -9.858088030829845E-006
  1.600000000000000E-002   -1.047759204013980E-005
  1.610000000000000E-002   -1.113432682725330E-005
  1.620000000000000E-002   -1.183050408423473E-005
  1.630000000000000E-002   -1.256842119592828E-005
  1.640000000000000E-002   -1.335046307870486E-005
  1.650000000000000E-002   -1.417910347346574E-005
  1.660000000000000E-002   -1.505690932994597E-005
  1.670000000000000E-002   -1.598654273622951E-005
  1.680000000000000E-002   -1.697076193134764E-005
  1.690000000000000E-002   -1.801242758576469E-005
  1.700000000000000E-002   -1.911451035185402E-005
  1.710000000000000E-002   -2.028008934964868E-005
  1.720000000000000E-002   -2.151236190670757E-005
  1.730000000000000E-002   -2.281465096519410E-005
  1.740000000000000E-002   -2.419041077754688E-005
  1.750000000000000E-002   -2.564323523793112E-005
  1.760000000000000E-002   -2.717686865331284E-005
  1.770000000000000E-002   -2.879521173291275E-005
  1.780000000000000E-002   -3.050233685159101E-005
  1.790000000000000E-002   -3.230249410830077E-005
  1.800000000000000E-002   -3.420012558564162E-005
  1.810000000000000E-002   -3.619988193003589E-005
  1.820000000000000E-002   -3.830663157489262E-005
  1.830000000000000E-002   -4.052547104637496E-005
  1.840000000000000E-002   -4.286174345694626E-005
  1.850000000000000E-002   -4.532105734799106E-005
  1.860000000000000E-002   -4.790929169461022E-005
  1.870000000000000E-002   -5.063261899891886E-005