 -4.000000000000000E-002    0.000000000000000E+000
 -3.990000000000000E-002    0.000000000000000E+000
 -3.980000000000000E-002    0.000000000000000E+000
 -3.970000000000000E-002    0.000000000000000E+000
 -3.960000000000000E-002    0.000000000000000E+000
 -3.950000000000000E-002    0.000000000000000E+000
 -3.940000000000000E-002    0.000000000000000E+000
 -3.930000000000000E-002    0.000000000000000E+000
 -3.920000000000000E-002    1.869313941135125E-029
 -3.910000000000000E-002    2.944158628238086E-028
 -3.900000000000000E-002    2.483580043109505E-027
 -3.890000000000000E-002    1.489138018608593E-026
 -3.880000000000000E-002    7.103068925333942E-026
 -3.870000000000000E-002    2.859688377616741E-025
 -3.860000000000000E-002    1.006925380427954E-024
 -3.850000000000000E-002    3.173632953627738E-024
 -3.840000000000000E-002    9.098485247093888E-024
 -3.830000000000000E-002    2.400394831417133E-023
 -3.820000000000000E-002    5.878660589449953E-023
 -3.810000000000000E-002    1.345406255284508E-022
 -3.800000000000000E-002    2.892342324849785E-022
 -3.790000000000000E-002    5.863921290273123E-022
 -3.780000000000000E-002    1.124454560725844E-021
 -3.770000000000000E-002    2.043441928518858E-021
 -3.760000000000000E-002    3.522572661710997E-021
 -3.750000000000000E-002    5.758765579540567E-021
 -3.740000000000000E-002    8.912195320170679E-021
 -3.730000000000000E-002    1.300252875158280E-020
 -3.720000000000000E-002    1.774012357947512E-020
 -3.710000000000000E-002    2.228271020993471E-020
 -3.700000000000000E-002    2.492255100412096E-020
 -3.690000000000000E-002    2.273360606976504E-020
 -3.680000000000000E-002    1.124331214168623E-020
 -3.670000000000000E-002   -1.576320671015390E-020
 -3.660000000000000E-002   -6.615326938858005E-020
 -3.650000000000000E-002   -1.488811740205253E-019
 -3.640000000000000E-002   -2.727429174991720E-019
 -3.630000000000000E-002   -4.442737117615906E-019
 -3.620000000000000E-002   -6.646954515363078E-019
 -3.610000000000000E-002   -9.259764244293421E-019
 -3.600000000000000E-002   -1.206296085617347E-018
 -3.590000000000000E-002   -1.465501431096681E-018
 -3.580000000000000E-002   -1.641462507988441E-018
 -3.570000000000000E-002   -1.648535914347187E-018
 -3.560000000000000E-002   -1.379541763525807E-018
 -3.550000000000000E-002   -7.126668215329433E-019
 -3.540000000000000E-002    4.755675762699258E-019
 -3.530000000000000E-002    2.290763350225026E-018
 -3.520000000000000E-002    4.795029679702673E-018
 -3.510000000000000E-002    7.977155909740311E-018
 -3.500000000000000E-002    1.172200688558333E-017
 -3.490000000000000E-002    1.578415825242152E-017
 -3.480000000000000E-002    1.977206465840816E-017
 -3.470000000000000E-002    2.314959981626043E-017
 -3.460000000000000E-002    2.526132812578803E-017
 -3.450000000000000E-002    2.538591395322077E-017
 -3.440000000000000E-002    2.281857415139845E-017
 -3.430000000000000E-002    1.697841818966468E-017
 -3.420000000000000E-002    7.530330459860513E-018
 -3.410000000000000E-002   -5.495577777363797E-018
 -3.400000000000000E-002   -2.160968887628373E-017
 -3.390000000000000E-002   -3.982032756613633E-017
 -3.380000000000000E-002   -5.866948970762832E-017
 -3.370000000000000E-002   -7.636841379985402E-017
 -3.360000000000000E-002   -9.104363857362740E-017
 -3.350000000000000E-002   -1.010868746093430E-016
 -3.340000000000000E-002   -1.055796183013583E-016
 -3.330000000000000E-002   -1.047375480514767E-016
 -3.320000000000000E-002   -1.002948036410192E-016
 -3.310000000000000E-002   -9.572726821348071E-017
 -3.300000000000000E-002   -9.620495082911131E-017
 -3.290000000000000E-002   -1.081688952367520E-016
 -3.280000000000000E-002   -1.384552504037288E-016
 -3.270000000000000E-002   -1.929384230473722E-016
 -3.260000000000000E-002   -2.747389536988579E-016
 -3.250000000000000E-002   -3.821323390865682E-016
 -3.240000000000000E-002   -5.063973360529699E-016
 -3.230000000000000E-002   -6.299393391930468E-016
 -3.220000000000000E-002   -7.251065949495297E-016
 -3.210000000000000E-002   -7.541528458847078E-016
 -3.200000000000000E-002   -6.707887413985520E-016
 -3.190000000000000E-002   -4.236734299940986E-016
 -3.180000000000000E-002    3.797037897028860E-017
 -3.170000000000000E-002    7.566812776456714E-016
 -3.160000000000000E-002    1.757403883938860E-015
 -3.150000000000000E-002    3.037189588667199E-015
 -3.140000000000000E-002    4.555046745471955E-015
 -3.130000000000000E-002    6.223341350003904E-015
 -3.120000000000000E-002    7.902362778026285E-015
 -3.110000000000000E-002    9.399704651033207E-015
 -3.100000000000000E-002    1.047597150101479E-014
 -3.090000000000000E-002    1.085790471262050E-014
 -3.080000000000000E-002    1.025939900737782E-014
 -3.070000000000000E-002    8.410031318125329E-015
 -3.060000000000000E-002    5.089693192261051E-015
 -3.050000000000000E-002    1.668713914887659E-016
 -3.040000000000000E-002   -6.362929775331413E-015
 -3.030000000000000E-002   -1.434290830348512E-014
 -3.020000000000000E-002   -2.342963490946971E-014
 -3.010000000000000E-002   -3.308144015775041E-014
 -3.000000000000000E-002   -4.256480425670303E-014
 -2.990000000000000E-002   -5.098183115364346E-014
 -2.980000000000000E-002   -5.732016159614561E-014
 -2.970000000000000E-002   -6.052456310936814E-014
 -2.960000000000000E-002   -5.958687070837857E-014
 -2.950000000000000E-002   -5.364839365638343E-014
 -2.940000000000000E-002   -4.210677485465953E-014
 -2.930000000000000E-002   -2.471725289881138E-014
 -2.920000000000000E-002   -1.677610882844632E-015
 -2.910000000000000E-002    2.631393558076470E-014
 -2.900000000000000E-002    5.803740809538268E-014
 -2.890000000000000E-002    9.177313679907620E-014
 -2.880000000000000E-002    1.253707723814013E-013
 -2.870000000000000E-002    1.563643214925285E-013
 -2.860000000000000E-002    1.821276597164099E-013
 -2.850000000000000E-002    2.000604397546140E-013
 -2.840000000000000E-002    2.077903926911169E-013
 -2.830000000000000E-002    2.033752635809435E-013
 -2.820000000000000E-002    1.854864005915405E-013
 -2.810000000000000E-002    1.535569103076254E-013
 -2.800000000000000E-002    1.078795277399650E-013
 -2.790000000000000E-002    4.964399639090788E-014
 -2.780000000000000E-002   -1.909070398092999E-014
 -2.770000000000000E-002   -9.548740220505116E-014
 -2.760000000000000E-002   -1.760769183932093E-013
 -2.750000000000000E-002   -2.569453729127599E-013
 -2.740000000000000E-002   -3.339446792295123E-013
 -2.730000000000000E-002   -4.029064117787166E-013
 -2.720000000000000E-002   -4.598401924726205E-013
 -2.710000000000000E-002   -5.011003714159526E-013
 -2.700000000000000E-002   -5.235115291154648E-013
 -2.690000000000000E-002   -5.244498717319648E-013
 -2.680000000000000E-002   -5.018861938793095E-013
 -2.670000000000000E-002   -4.544031062865646E-013
 -2.660000000000000E-002   -3.812053857628576E-013
 -2.650000000000000E-002   -2.821452054827241E-013
 -2.640000000000000E-002   -1.577824974063002E-013
 -2.630000000000000E-002   -9.496275070995013E-015
 -2.620000000000000E-002    1.603473736501409E-013
 -2.610000000000000E-002    3.481771467839048E-013
 -2.600000000000000E-002    5.489696400177765E-013
 -2.590000000000000E-002    7.560101850216017E-013
 -2.580000000000000E-002    9.607107671880161E-013
 -2.570000000000000E-002    1.152542586031032E-012
 -2.560000000000000E-002    1.319144637588345E-012
 -2.550000000000000E-002    1.446658583833083E-012
 -2.540000000000000E-002    1.520334094371979E-012
 -2.530000000000000E-002    1.525414571571753E-012
 -2.520000000000000E-002    1.448291194200332E-012
 -2.510000000000000E-002    1.277870644245649E-012
 -2.500000000000000E-002    1.007068291828866E-012
 -2.490000000000000E-002    6.343014167057110E-013
 -2.480000000000000E-002    1.648315872322144E-013
 -2.470000000000000E-002   -3.882117988168795E-013
 -2.460000000000000E-002   -1.003292878582092E-012
 -2.450000000000000E-002   -1.650565674149697E-012
 -2.440000000000000E-002   -2.292713209943617E-012
 -2.430000000000000E-002   -2.886588023968178E-012
 -2.420000000000000E-002   -3.385636910314263E-012
 -2.410000000000000E-002   -3.743015536329775E-012
 -2.400000000000000E-002   -3.915216057315900E-012
 -2.390000000000000E-002   -3.865958401893711E-012
 -2.380000000000000E-002   -3.570028748028957E-012
 -2.370000000000000E-002   -3.016718456832045E-012
 -2.360000000000000E-002   -2.212504167768288E-012
 -2.350000000000000E-002   -1.182638637994686E-012
 -2.340000000000000E-002    2.861600785536658E-014
 -2.330000000000000E-002    1.359288521300958E-012
 -2.320000000000000E-002    2.732574953161068E-012
 -2.310000000000000E-002    4.061212272044953E-012
 -2.300000000000000E-002    5.253098334851840E-012
 -2.290000000000000E-002    6.217802439645935E-012
 -2.280000000000000E-002    6.873460469966751E-012
 -2.270000000000000E-002    7.153507057384032E-012
 -2.260000000000000E-002    7.012649756186689E-012
 -2.250000000000000E-002    6.431524122313242E-012
 -2.240000000000000E-002    5.419550105076336E-012
 -2.230000000000000E-002    4.015652683009967E-012
 -2.220000000000000E-002    2.286688510948252E-012
 -2.210000000000000E-002    3.236239475736947E-013
 -2.200000000000000E-002   -1.764281208454299E-012
 -2.190000000000000E-002   -3.856809955480750E-012
 -2.180000000000000E-002   -5.831044780623491E-012
 -2.170000000000000E-002   -7.569804635035905E-012
 -2.160000000000000E-002   -8.969512880525778E-012
 -2.150000000000000E-002   -9.946791402895899E-012
 -2.140000000000000E-002   -1.044318991636524E-011
 -2.130000000000000E-002   -1.042766901048534E-011
 -2.120000000000000E-002   -9.896699431268857E-012
 -2.110000000000000E-002   -8.872082692518632E-012
 -2.100000000000000E-002   -7.396918187367474E-012
 -2.090000000000000E-002   -5.530301556395367E-012
 -2.080000000000000E-002   -3.341532302400781E-012
 -2.070000000000000E-002   -9.046682040446157E-013
 -2.060000000000000E-002    1.705793642062463E-012
 -2.050000000000000E-002    4.417485353135583E-012
 -2.040000000000000E-002    7.160586318625364E-012
 -2.030000000000000E-002    9.866086786611054E-012
 -2.020000000000000E-002    1.246217103917698E-011
 -2.010000000000000E-002    1.486942090096053E-011
 -2.000000000000000E-002    1.699582642689495E-011
 -1.990000000000000E-002    1.873277610330478E-011
 -1.980000000000000E-002    1.995322410516243E-011
 -1.970000000000000E-002    2.051324623673681E-011
 -1.960000000000000E-002    2.025771945208743E-011
 -1.950000000000000E-002    1.903065028447942E-011
 -1.940000000000000E-002    1.668986703348753E-011
 -1.930000000000000E-002    1.312536078410337E-011
 -1.920000000000000E-002    8.279799233242615E-012
 -1.910000000000000E-002    2.169242485141700E-012
 -1.900000000000000E-002   -5.098326735508066E-012
 -1.890000000000000E-002   -1.330924086837857E-011
 -1.880000000000000E-002   -2.213758242208627E-011
 -1.870000000000000E-002   -3.114793742337055E-011
 -1.860000000000000E-002   -3.980881718103076E-011
 -1.850000000000000E-002   -4.751730779442132E-011
 -1.840000000000000E-002   -5.363427308049891E-011
 -1.830000000000000E-002   -5.752843686845209E-011
 -1.820000000000000E-002   -5.862643870394215E-011
 -1.810000000000000E-002   -5.646522686957730E-011
 -1.800000000000000E-002   -5.074227789023631E-011
 -1.790000000000000E-002   -4.135903940326746E-011
 -1.780000000000000E-002   -2.845319591680500E-011
 -1.770000000000000E-002   -1.241590524032863E-011
 -1.760000000000000E-002    6.108799033758970E-012
 -1.750000000000000E-002    2.624374838884315E-011
 -1.740000000000000E-002    4.691742427491560E-011
 -1.730000000000000E-002    6.691983875761151E-011
 -1.720000000000000E-002    8.497205204864790E-011
 -1.710000000000000E-002    9.980490403103014E-011
 -1.700000000000000E-002    1.102410564571494E-010
 -1.690000000000000E-002    1.152746191586117E-010
 -1.680000000000000E-002    1.141426693690992E-010
 -1.670000000000000E-002    1.063834334688316E-010
 -1.660000000000000E-002    9.187749465419862E-011
 -1.650000000000000E-002    7.086961728479246E-011
 -1.640000000000000E-002    4.397056021444689E-011
 -1.630000000000000E-002    1.213983636651042E-011
 -1.620000000000000E-002   -2.334815175795921E-011
 -1.610000000000000E-002   -6.095117922519420E-011
 -1.600000000000000E-002   -9.891552806888637E-011
 -1.590000000000000E-002   -1.353378785817797E-010
 -1.580000000000000E-002   -1.682292354987724E-010
 -1.570000000000000E-002   -1.955787609304893E-010
 -1.560000000000000E-002   -2.154169448531485E-010
 -1.550000000000000E-002   -2.258780907332984E-010
 -1.540000000000000E-002   -2.252641932473458E-010
 -1.530000000000000E-002   -2.121126443819272E-010
 -1.520000000000000E-002   -1.852702642144232E-010
 -1.510000000000000E-002   -1.439762713462951E-010
 -1.500000000000000E-002   -8.795402764250209E-011
 -1.490000000000000E-002   -1.751130239646330E-011
 -1.480000000000000E-002    6.635567748913417E-011
 -1.470000000000000E-002    1.618605324757609E-010
 -1.460000000000000E-002    2.663376935657274E-010
 -1.450000000000000E-002    3.761771521807793E-010
 -1.440000000000000E-002    4.867968239625874E-010
 -1.430000000000000E-002    5.926660127592921E-010
 -1.420000000000000E-002    6.873924413295194E-010
 -1.410000000000000E-002    7.638830160506435E-010
 -1.400000000000000E-002    8.145835147007777E-010
 -1.390000000000000E-002    8.317985711291307E-010
 -1.380000000000000E-002    8.080846252480852E-010
 -1.370000000000000E-002    7.367047681416712E-010
 -1.360000000000000E-002    6.121252919441756E-010
 -1.350000000000000E-002    4.305290750040183E-010
 -1.340000000000000E-002    1.903168383461637E-010
 -1.330000000000000E-002   -1.074364290710903E-010
 -1.320000000000000E-002   -4.586023552775898E-010
 -1.310000000000000E-002   -8.557285165828930E-010
 -1.300000000000000E-002   -1.287903112342515E-009
 -1.290000000000000E-002   -1.740776920217586E-009
 -1.280000000000000E-002   -2.196754359814500E-009
 -1.270000000000000E-002   -2.635361559537746E-009
 -1.260000000000000E-002   -3.033784520177049E-009
 -1.250000000000000E-002   -3.367569660860719E-009
 -1.240000000000000E-002   -3.611462493058136E-009
 -1.230000000000000E-002   -3.740361348496590E-009
 -1.220000000000000E-002   -3.730356695359122E-009
 -1.210000000000000E-002   -3.559821043275042E-009
 -1.200000000000000E-002   -3.210517883128634E-009
 -1.190000000000000E-002   -2.668693471003012E-009
 -1.180000000000000E-002   -1.926123382300415E-009
 -1.170000000000000E-002   -9.810800845477865E-010
 -1.160000000000000E-002    1.608061683306752E-010
 -1.150000000000000E-002    1.485820209099394E-009
 -1.140000000000000E-002    2.971599236943428E-009
 -1.130000000000000E-002    4.586759847319773E-009
 -1.120000000000000E-002    6.290749848175849E-009
 -1.110000000000000E-002    8.033958148627560E-009
 -1.100000000000000E-002    9.758114962075285E-009
 -1.090000000000000E-002    1.139702339183721E-008
 -1.080000000000000E-002    1.287765647684438E-008
 -1.070000000000000E-002    1.412165620595526E-008
 -1.060000000000000E-002    1.504725333565712E-008
 -1.050000000000000E-002    1.557162873541483E-008
 -1.040000000000000E-002    1.561371008271042E-008
 -1.030000000000000E-002    1.509739047196910E-008
 -1.020000000000000E-002    1.395512034874039E-008
 -1.010000000000000E-002    1.213180061631119E-008
 -1.000000000000000E-002    9.588902888955193E-009
 -9.899999999999999E-003    6.308683428424768E-009
 -9.800000000000000E-003    2.298358082579271E-009
 -9.699999999999999E-003   -2.405894653830819E-009
 -9.599999999999999E-003   -7.735291051098197E-009
 -9.500000000000000E-003   -1.358529004923251E-008
 -9.399999999999999E-003   -1.981308039409465E-008
 -9.299999999999999E-003   -2.623587786965482E-008
 -9.200000000000000E-003   -3.263008884923539E-008
 -9.099999999999999E-003   -3.873142991080737E-008
 -8.999999999999999E-003   -4.423605215859831E-008
 -8.900000000000000E-003   -4.880264953196655E-008
 -8.799999999999999E-003   -5.205550005351004E-008
 -8.699999999999999E-003   -5.358835532016926E-008
 -8.600000000000000E-003   -5.296911316457423E-008
 -8.499999999999999E-003   -4.974497466819018E-008
 -8.399999999999999E-003   -4.344813398352292E-008
 -8.300000000000000E-003   -3.360166208762277E-008
 -8.199999999999999E-003   -1.972548963812306E-008
 -8.100000000000000E-003   -1.342283794181709E-009
 -8.000000000000000E-003    2.201682868595504E-008
 -7.899999999999999E-003    5.080700855849094E-008
 -7.800000000000000E-003    8.546480057328721E-008
 -7.699999999999999E-003    1.264038217486741E-007
 -7.599999999999999E-003    1.740111628462927E-007
 -7.499999999999999E-003    2.286442629341194E-007
 -7.399999999999999E-003    2.906286656312152E-007
 -7.299999999999999E-003    3.602563959718650E-007
 -7.199999999999999E-003    4.377852997689214E-007
 -7.100000000000000E-003    5.234392408631244E-007
 -6.999999999999999E-003    6.174088835698312E-007
 -6.899999999999999E-003    7.198539676671027E-007
 -6.800000000000000E-003    8.309063620495118E-007
 -6.699999999999999E-003    9.506741835583611E-007
 -6.599999999999999E-003    1.079247433340909E-006
 -6.499999999999999E-003    1.216704696804271E-006
 -6.399999999999999E-003    1.363120499165019E-006
 -6.299999999999999E-003    1.518574908026614E-006
 -6.199999999999999E-003    1.683163494383138E-006
 -6.100000000000000E-003    1.857008034202048E-006
 -5.999999999999999E-003    2.040268233212604E-006
 -5.899999999999999E-003    2.233153548989058E-006
 -5.800000000000000E-003    2.435935353182847E-006
 -5.699999999999999E-003    2.648957960668404E-006
 -5.599999999999999E-003    2.872649906082653E-006
 -5.499999999999999E-003    3.107533189124950E-006
 -5.399999999999999E-003    3.354231170157342E-006
 -5.299999999999999E-003    3.613475298561708E-006
 -5.199999999999999E-003    3.886108526581689E-006
 -5.099999999999999E-003    4.173088355820463E-006
 -4.999999999999999E-003    4.475485163677541E-006
 -4.899999999999999E-003    4.794481047639336E-006
 -4.799999999999999E-003    5.131364950308875E-006
 -4.699999999999999E-003    5.487526649537185E-006
 -4.599999999999999E-003    5.864449638955533E-006
 -4.499999999999999E-003    6.263702607596626E-006
 -4.399999999999999E-003    6.686932232799335E-006
 -4.299999999999999E-003    7.135852815080428E-006
 -4.199999999999999E-003    7.612240090015241E-006
 -4.099999999999999E-003    8.117924177035173E-006
 -3.999999999999999E-003    8.654783911451482E-006
 -3.899999999999999E-003    9.224744099538137E-006
 -3.799999999999999E-003    9.829773261757929E-006
 -3.699999999999999E-003    1.047188367335763E-005
 -3.599999999999999E-003    1.115313648227551E-005
 -3.499999999999999E-003    1.187564386972777E-005
 -3.399999999999999E-003    1.264157458472990E-005
 -3.299999999999999E-003    1.345316686216147E-005
 -3.199999999999999E-003    1.431273372346095E-005
 -3.099999999999999E-003    1.522267808348103E-005
 -2.999999999999999E-003    1.618550132942992E-005
 -2.899999999999999E-003    1.720381885872525E-005
 -2.799999999999999E-003    1.828037417862188E-005
 -2.699999999999999E-003    1.941805163966130E-005
 -2.599999999999999E-003    2.061989022364242E-005
 -2.499999999999999E-003    2.188909902739092E-005
 -2.399999999999999E-003    2.322907164631145E-005
 -2.299999999999999E-003    2.464339356453990E-005
 -2.199999999999999E-003    2.613586103939819E-005
 -2.099999999999999E-003    2.771049287511051E-005
 -1.999999999999999E-003    2.937153778334271E-005
 -1.899999999999999E-003    3.112348638265033E-005
 -1.799999999999999E-003    3.297107941682803E-005
 -1.699999999999999E-003    3.491931507251499E-005
 -1.599999999999999E-003    3.697346012098581E-005
 -1.499999999999999E-003    3.913904982274409E-005
 -1.399999999999999E-003    4.142189623826009E-005
 -1.299999999999999E-003    4.382809436038898E-005
 -1.199999999999999E-003    4.636402533105136E-005
 -1.099999999999999E-003    4.903635745455918E-005
 -9.999999999999989E-004    5.185205372702281E-005
 -8.999999999999990E-004    5.481837116098727E-005
 -7.999999999999990E-004    5.794287919325150E-005
 -6.999999999999989E-004    6.123343499436646E-005
 -5.999999999999990E-004    6.469822405618265E-005
 -4.999999999999989E-004    6.834574393636871E-005
 -3.999999999999989E-004    7.218481793574583E-005
 -2.999999999999989E-004    7.622460814403080E-005
 -1.999999999999989E-004    8.047462020367490E-005
 -9.999999999999892E-005    8.494472272383501E-005
  1.084202172485504E-018    8.964515655339206E-005
  1.000000000000011E-004    9.458654508699256E-005
  2.000000000000011E-004    9.977992862038741E-005
  3.000000000000011E-004    1.052367638075967E-004
  4.000000000000011E-004    1.109689529508527E-004
  5.000000000000011E-004    1.169888658899942E-004
  6.000000000000011E-004    1.233093821893460E-004
  7.000000000000011E-004    1.299438715708700E-004
  8.000000000000011E-004    1.369062775119853E-004
  9.000000000000012E-004    1.442110986938718E-004
  1.000000000000001E-003    1.518734469436095E-004
  1.100000000000001E-003    1.599090740097774E-004
  1.200000000000001E-003    1.683343926115113E-004
  1.300000000000001E-003    1.771665146131001E-004
  1.400000000000001E-003    1.864232800423230E-004
  1.500000000000001E-003    1.961232748660793E-004
  1.600000000000001E-003    2.062858669343445E-004
  1.700000000000001E-003    2.169312405596897E-004
  1.800000000000001E-003    2.280803804761182E-004
  1.900000000000001E-003    2.397551075026038E-004
  2.000000000000001E-003    2.519781049211159E-004
  2.100000000000001E-003    2.647729000243193E-004
  2.200000000000001E-003    2.781639045399199E-004
  2.300000000000001E-003    2.921763939154536E-004
  2.400000000000001E-003    3.068364977296046E-004
  2.500000000000001E-003    3.221711989541708E-004
  2.600000000000001E-003    3.382084363738485E-004
  2.700000000000001E-003    3.549769664861946E-004
  2.800000000000001E-003    3.725064350676894E-004
  2.900000000000001E-003    3.908274149611996E-004
  3.000000000000001E-003    4.099713644326307E-004
  3.100000000000001E-003    4.299706511674492E-004
  3.200000000000001E-003    4.508586931254250E-004
  3.300000000000001E-003    4.726697788830297E-004
  3.400000000000001E-003    4.954392865373432E-004
  3.500000000000001E-003    5.192035977111855E-004
  3.600000000000001E-003    5.440002372308557E-004
  3.700000000000001E-003    5.698678631437870E-004
  3.800000000000001E-003    5.968463089633631E-004
  3.900000000000001E-003    6.249766543335519E-004
  4.000000000000001E-003    6.543012191874675E-004
  4.100000000000001E-003    6.848637097356148E-004
  4.200000000000001E-003    7.167091566058555E-004
  4.300000000000001E-003    7.498840319724977E-004
  4.400000000000001E-003    7.844362229383588E-004
  4.500000000000001E-003    8.204150843438012E-004
  4.600000000000002E-003    8.578714395972393E-004
  4.700000000000001E-003    8.968575575859106E-004
  4.800000000000001E-003    9.374275159526914E-004
  4.900000000000002E-003    9.796365977266582E-004
  5.000000000000001E-003    1.023541862947845E-003
  5.100000000000001E-003    1.069201790044669E-003
  5.200000000000001E-003    1.116676516069457E-003
  5.300000000000002E-003    1.166027734106227E-003
  5.400000000000001E-003    1.217318659607606E-003
  5.500000000000001E-003    1.270613968830918E-003
  5.600000000000002E-003    1.325980133166981E-003
  5.700000000000001E-003    1.383485031939959E-003
  5.800000000000001E-003    1.443198089060692E-003
  5.900000000000002E-003    1.505190292147887E-003
  6.000000000000001E-003    1.569534236597405E-003
  6.100000000000001E-003    1.636303932188410E-003
  6.200000000000002E-003    1.705575119575497E-003
  6.300000000000002E-003    1.777425063313861E-003
  6.400000000000001E-003    1.851932298458681E-003
  6.500000000000001E-003    1.929177091069616E-003
  6.600000000000002E-003    2.009241238183141E-003
  6.700000000000001E-003    2.092208225196867E-003
  6.800000000000001E-003    2.178162920469144E-003
  6.900000000000002E-003    2.267191514701331E-003
  7.000000000000001E-003    2.359382372548801E-003
  7.100000000000001E-003    2.454824778771061E-003
  7.200000000000002E-003    2.553610032831061E-003
  7.300000000000002E-003    2.655830688644191E-003
  7.400000000000001E-003    2.761580793106553E-003
  7.500000000000001E-003    2.870956269249812E-003
  7.600000000000002E-003    2.984054462687867E-003
  7.700000000000001E-003    3.100974039170879E-003
  7.800000000000001E-003    3.221815279683636E-003
  7.900000000000001E-003    3.346680135846779E-003
  8.000000000000002E-003    3.475671969872637E-003
  8.100000000000001E-003    3.608895191113904E-003
  8.200000000000001E-003    3.746455793353000E-003
  8.300000000000002E-003    3.888461167172868E-003
  8.400000000000001E-003    4.035019652059732E-003
  8.500000000000002E-003    4.186241167520080E-003
  8.600000000000002E-003    4.342236413872167E-003
  8.700000000000001E-003    4.503117141604143E-003
  8.800000000000002E-003    4.668995983554573E-003
  8.900000000000002E-003    4.839986308477361E-003
  9.000000000000001E-003    5.016202437258410E-003
  9.100000000000002E-003    5.197759437624648E-003
  9.200000000000002E-003    5.384772652735014E-003
  9.300000000000001E-003    5.577357914641898E-003
  9.400000000000002E-003    5.775631113458201E-003
  9.500000000000001E-003    5.979708849602354E-003
  9.600000000000001E-003    6.189708134888033E-003
  9.700000000000002E-003    6.405744845305616E-003
  9.800000000000001E-003    6.627935645565488E-003
  9.900000000000001E-003    6.856396745432342E-003
  1.000000000000000E-002    7.091244341987166E-003
  1.010000000000000E-002    7.332594269715527E-003
  1.020000000000000E-002    7.580560920970304E-003
  1.030000000000000E-002    7.835258820901010E-003
  1.040000000000000E-002    8.096801189859093E-003
  1.050000000000000E-002    8.365301058654712E-003
  1.060000000000000E-002    8.640869931328350E-003
  1.070000000000000E-002    8.923618287543964E-003
  1.080000000000000E-002    9.213654899896860E-003
  1.090000000000000E-002    9.511086909724615E-003
  1.100000000000000E-002    9.816021114285067E-003
  1.110000000000000E-002    1.012856081466125E-002
  1.120000000000000E-002    1.044880833678211E-002
  1.130000000000000E-002    1.077686351369535E-002
  1.140000000000000E-002    1.111282368926837E-002
  1.150000000000000E-002    1.145678346603754E-002
  1.160000000000000E-002    1.180883499035615E-002
  1.170000000000000E-002    1.216906702571591E-002
  1.180000000000000E-002    1.253756517657965E-002
  1.190000000000000E-002    1.291441176150985E-002
  1.200000000000000E-002    1.329968460134344E-002
  1.210000000000000E-002    1.369345864863586E-002
  1.220000000000000E-002    1.409580333497005E-002
  1.230000000000000E-002    1.450678564702062E-002
  1.240000000000000E-002    1.492646553414703E-002
  1.250000000000000E-002    1.535490004136826E-002
  1.260000000000000E-002    1.579214035755544E-002
  1.270000000000000E-002    1.623823216629567E-002
  1.280000000000000E-002    1.669321493390369E-002
  1.290000000000000E-002    1.715712351836435E-002
  1.300000000000000E-002    1.762998555958090E-002
  1.310000000000000E-002    1.811182318354201E-002
  1.320000000000000E-002    1.860265097350300E-002
  1.330000000000000E-002    1.910247929892262E-002
  1.340000000000000E-002    1.961130850741019E-002
  1.350000000000000E-002    2.012913108898966E-002
  1.360000000000000E-002    2.065593531177920E-002
  1.370000000000000E-002    2.119169905264266E-002
  1.380000000000000E-002    2.173639388224408E-002
  1.390000000000000E-002    2.228998167349105E-002
  1.400000000000000E-002    2.285241609327959E-002
  1.410000000000000E-002    2.342364358602441E-002
  1.420000000000000E-002    2.400359727038322E-002
  1.430000000000000E-002    2.459220524079857E-002
  1.440000000000000E-002    2.518938486707626E-002
  1.450000000000000E-002    2.579504211215276E-002
  1.460000000000000E-002    2.640907365870778E-002
  1.470000000000000E-002    2.703136711257874E-002
  1.480000000000000E-002    2.766179714926355E-002
  1.490000000000000E-002    2.830022852724675E-002
  1.500000000000000E-002    2.894651527768639E-002
  1.510000000000000E-002    2.960049998032319E-002
  1.520000000000000E-002    3.026201419978528E-002
  1.530000000000000E-002    3.093087733763869E-002
  1.540000000000000E-002    3.160689456385303E-002
  1.550000000000000E-002    3.228986336186977E-002
  1.560000000000000E-002    3.297956352455839E-002
  1.570000000000000E-002    3.367576559979382E-002
  1.580000000000000E-002    3.437822965082842E-002
  1.590000000000000E-002    3.508669569067682E-002
  1.600000000000000E-002    3.580089734781193E-002
  1.610000000000000E-002    3.652055164516014E-002
  1.620000000000000E-002    3.724536541164806E-002
  1.630000000000000E-002    3.797502555863487E-002
  1.640000000000000E-002    3.870921346672596E-002
  1.650000000000000E-002    3.944759434912230E-002
  1.660000000000000E-002    4.018981539987197E-002
  1.670000000000000E-002    4.093551489285981E-002
  1.680000000000000E-002    4.168431411069910E-002
  1.690000000000000E-002    4.243582234698541E-002
  1.700000000000000E-002    4.318963413747227E-002
  1.710000000000000E-002    4.394533457593244E-002
  1.720000000000000E-002    4.470248853606698E-002
  1.730000000000000E-002    4.546065086911411E-002
  1.740000000000000E-002    4.621936058744985E-002
  1.750000000000000E-002    4.697814167368038E-002
  1.760000000000000E-002    4.773650813843578E-002
  1.770000000000000E-002    4.849396229991530E-002
  1.780000000000000E-002    4.924998526953706E-002
  1.790000000000000E-002    5.000404749949319E-002
  1.800000000000000E-002    5.075560832067214E-002
  1.810000000000000E-002    5.150411273797171E-002
  1.820000000000000E-002    5.224899266237217E-002
  1.830000000000000E-002    5.298966370548342E-002
  1.840000000000000E-002    5.372553402648880E-002
  1.850000000000000E-002    5.445599434028081E-002
  1.860000000000000E-002    5.518042641317390E-002
  1.870000000000000E-002    5.589819879638750E-002