 -4.000000000000000E-002    0.000000000000000E+000
 -3.990000000000000E-002    0.000000000000000E+000
 -3.980000000000000E-002    0.000000000000000E+000
 -3.970000000000000E-002    0.000000000000000E+000
 -3.960000000000000E-002    0.000000000000000E+000
 -3.950000000000000E-002    0.000000000000000E+000
 -3.940000000000000E-002    0.000000000000000E+000
 -3.930000000000000E-002    0.000000000000000E+000
 -3.920000000000000E-002    0.000000000000000E+000
 -3.910000000000000E-002    0.000000000000000E+000
 -3.900000000000000E-002    0.000000000000000E+000
 -3.890000000000000E-002    0.000000000000000E+000
 -3.880000000000000E-002    0.000000000000000E+000
 -3.870000000000000E-002    0.000000000000000E+000
 -3.860000000000000E-002    0.000000000000000E+000
 -3.850000000000000E-002    0.000000000000000E+000
 -3.840000000000000E-002    0.000000000000000E+000
 -3.830000000000000E-002    0.000000000000000E+000
 -3.820000000000000E-002    0.000000000000000E+000
 -3.810000000000000E-002    0.000000000000000E+000
 -3.800000000000000E-002    0.000000000000000E+000
 -3.790000000000000E-002    0.000000000000000E+000
 -3.780000000000000E-002    0.000000000000000E+000
 -3.770000000000000E-002    0.000000000000000E+000
 -3.760000000000000E-002    0.000000000000000E+000
 -3.750000000000000E-002    0.000000000000000E+000
 -3.740000000000000E-002    0.000000000000000E+000
 -3.730000000000000E-002    0.000000000000000E+000
 -3.720000000000000E-002    0.000000000000000E+000
 -3.710000000000000E-002    0.000000000000000E+000
 -3.700000000000000E-002    0.000000000000000E+000
 -3.690000000000000E-002    0.000000000000000E+000
 -3.680000000000000E-002    0.000000000000000E+000
 -3.670000000000000E-002    0.000000000000000E+000
 -3.660000000000000E-002    0.000000000000000E+000
 -3.650000000000000E-002    0.000000000000000E+000
 -3.640000000000000E-002    0.000000000000000E+000
 -3.630000000000000E-002    0.000000000000000E+000
 -3.620000000000000E-002    0.000000000000000E+000
 -3.610000000000000E-002    0.000000000000000E+000
 -3.600000000000000E-002    0.000000000000000E+000
 -3.590000000000000E-002    0.000000000000000E+000
 -3.580000000000000E-002    0.000000000000000E+000
 -3.570000000000000E-002    0.000000000000000E+000
 -3.560000000000000E-002    0.000000000000000E+000
 -3.550000000000000E-002    0.000000000000000E+000
 -3.540000000000000E-002    0.000000000000000E+000
 -3.530000000000000E-002    0.000000000000000E+000
 -3.520000000000000E-002    0.000000000000000E+000
 -3.510000000000000E-002    0.000000000000000E+000
 -3.500000000000000E-002    0.000000000000000E+000
 -3.490000000000000E-002    0.000000000000000E+000
 -3.480000000000000E-002    0.000000000000000E+000
 -3.470000000000000E-002    0.000000000000000E+000
 -3.460000000000000E-002    0.000000000000000E+000
 -3.450000000000000E-002    0.000000000000000E+000
 -3.440000000000000E-002    0.000000000000000E+000
 -3.430000000000000E-002    0.000000000000000E+000
 -3.420000000000000E-002    0.000000000000000E+000
 -3.410000000000000E-002    0.000000000000000E+000
 -3.400000000000000E-002    0.000000000000000E+000
 -3.390000000000000E-002    0.000000000000000E+000
 -3.380000000000000E-002    0.000000000000000E+000
 -3.370000000000000E-002    0.000000000000000E+000
 -3.360000000000000E-002    0.000000000000000E+000
 -3.350000000000000E-002    0.000000000000000E+000
 -3.340000000000000E-002    0.000000000000000E+000
 -3.330000000000000E-002    0.000000000000000E+000
 -3.320000000000000E-002    0.000000000000000E+000
 -3.310000000000000E-002    0.000000000000000E+000
 -3.300000000000000E-002    0.000000000000000E+000
 -3.290000000000000E-002    0.000000000000000E+000
 -3.280000000000000E-002    0.000000000000000E+000
 -3.270000000000000E-002    0.000000000000000E+000
 -3.260000000000000E-002    0.000000000000000E+000
 -3.250000000000000E-002    0.000000000000000E+000
 -3.240000000000000E-002    0.000000000000000E+000
 -3.230000000000000E-002    0.000000000000000E+000
 -3.220000000000000E-002    0.000000000000000E+000
 -3.210000000000000E-002    0.000000000000000E+000
 -3.200000000000000E-002    0.000000000000000E+000
 -3.190000000000000E-002    0.000000000000000E+000
 -3.180000000000000E-002    0.000000000000000E+000
 -3.170000000000000E-002    0.000000000000000E+000
 -3.160000000000000E-002    0.000000000000000E+000
 -3.150000000000000E-002    0.000000000000000E+000
 -3.140000000000000E-002    0.000000000000000E+000
 -3.130000000000000E-002    0.000000000000000E+000
 -3.120000000000000E-002    0.000000000000000E+000
 -3.110000000000000E-002    0.000000000000000E+000
 -3.100000000000000E-002    0.000000000000000E+000
 -3.090000000000000E-002    0.000000000000000E+000
 -3.080000000000000E-002    0.000000000000000E+000
 -3.070000000000000E-002    0.000000000000000E+000
 -3.060000000000000E-002    0.000000000000000E+000
 -3.050000000000000E-002    0.000000000000000E+000
 -3.040000000000000E-002    0.000000000000000E+000
 -3.030000000000000E-002    0.000000000000000E+000
 -3.020000000000000E-002    0.000000000000000E+000
 -3.010000000000000E-002    0.000000000000000E+000
 -3.000000000000000E-002    0.000000000000000E+000
 -2.990000000000000E-002    0.000000000000000E+000
 -2.980000000000000E-002   -1.302948326278190E-047
 -2.970000000000000E-002   -8.379068426355523E-047
 -2.960000000000000E-002   -2.241039799737041E-047
 -2.950000000000000E-002   -1.896204212351638E-047
 -2.940000000000000E-002   -7.324540398765377E-047
 -2.930000000000000E-002   -1.695044540574832E-046
 -2.920000000000000E-002   -9.302321540667183E-047
 -2.910000000000000E-002    4.703275377736404E-046
 -2.900000000000000E-002   -1.689953134125387E-047
 -2.890000000000000E-002   -2.409684709570343E-046
 -2.880000000000000E-002   -7.238426856445473E-046
 -2.870000000000000E-002   -1.782728626730629E-045
 -2.860000000000000E-002   -3.351421292442370E-045
 -2.850000000000000E-002   -5.094813652124333E-045
 -2.840000000000000E-002   -7.723701189170619E-045
 -2.830000000000000E-002   -1.039111954291064E-044
 -2.820000000000000E-002   -1.290539171932882E-044
 -2.810000000000000E-002   -1.411743449092293E-044
 -2.800000000000000E-002   -1.043410613783305E-044
 -2.790000000000000E-002    1.717667500870417E-045
 -2.780000000000000E-002    2.655337222277382E-044
 -2.770000000000000E-002    7.027781838664514E-044
 -2.760000000000000E-002    1.406633640863644E-043
 -2.750000000000000E-002    2.427669226253522E-043
 -2.740000000000000E-002    3.785656683924051E-043
 -2.730000000000000E-002    5.407235851587284E-043
 -2.720000000000000E-002    7.110467175149225E-043
 -2.710000000000000E-002    8.469015695740648E-043
 -2.700000000000000E-002    8.810975040378575E-043
 -2.690000000000000E-002    7.089665996715467E-043
 -2.680000000000000E-002    1.877447215637009E-043
 -2.670000000000000E-002   -8.620564720908283E-043
 -2.660000000000000E-002   -2.642194899199198E-042
 -2.650000000000000E-002   -5.350637709820851E-042
 -2.640000000000000E-002   -9.127486212144032E-042
 -2.630000000000000E-002   -1.398078359598319E-041
 -2.620000000000000E-002   -1.968043778319920E-041
 -2.610000000000000E-002   -2.562399021824090E-041
 -2.600000000000000E-002   -3.068764010693700E-041
 -2.590000000000000E-002   -3.306748445335067E-041
 -2.580000000000000E-002   -3.015820239360260E-041
 -2.570000000000000E-002   -1.849737547445827E-041
 -2.560000000000000E-002    6.153992626644109E-042
 -2.550000000000000E-002    4.853024159835217E-041
 -2.540000000000000E-002    1.132804627647857E-040
 -2.530000000000000E-002    2.040138702178122E-040
 -2.520000000000000E-002    3.218939574459640E-040
 -2.510000000000000E-002    4.637260128094490E-040
 -2.500000000000000E-002    6.195699256601157E-040
 -2.490000000000000E-002    7.699689994273469E-040
 -2.480000000000000E-002    8.830434776574652E-040
 -2.470000000000000E-002    9.118689074578357E-040
 -2.460000000000000E-002    7.927746925613015E-040
 -2.450000000000000E-002    4.454659613123391E-040
 -2.440000000000000E-002   -2.238688502681450E-040
 -2.430000000000000E-002   -1.315048303651969E-039
 -2.420000000000000E-002   -2.920409242530594E-039
 -2.410000000000000E-002   -5.103762857570991E-039
 -2.400000000000000E-002   -7.870537357552981E-039
 -2.390000000000000E-002   -1.112851447961723E-038
 -2.380000000000000E-002   -1.463992013666275E-038
 -2.370000000000000E-002   -1.796761820691225E-038
 -2.360000000000000E-002   -2.042105384689349E-038
 -2.350000000000000E-002   -2.101130495881616E-038
 -2.340000000000000E-002   -1.842912270484150E-038
 -2.330000000000000E-002   -1.106458782659918E-038
 -2.320000000000000E-002    2.908402969466340E-039
 -2.310000000000000E-002    2.535657666494744E-038
 -2.300000000000000E-002    5.789412304054052E-038
 -2.290000000000000E-002    1.014498804317968E-037
 -2.280000000000000E-002    1.556842952828801E-037
 -2.270000000000000E-002    2.182655124368166E-037
 -2.260000000000000E-002    2.840450102902503E-037
 -2.250000000000000E-002    3.442149883260162E-037
 -2.240000000000000E-002    3.855817763759495E-037
 -2.230000000000000E-002    3.901479281824847E-037
 -2.220000000000000E-002    3.352542860407862E-037
 -2.210000000000000E-002    1.945806002196639E-037
 -2.200000000000000E-002   -5.967431768128493E-038
 -2.190000000000000E-002   -4.531321893212844E-037
 -2.180000000000000E-002   -1.003876048741573E-036
 -2.170000000000000E-002   -1.715338437093904E-036
 -2.160000000000000E-002   -2.567643219041519E-036
 -2.150000000000000E-002   -3.507969030645853E-036
 -2.140000000000000E-002   -4.440959158306366E-036
 -2.130000000000000E-002   -5.220728944659058E-036
 -2.120000000000000E-002   -5.646552595432574E-036
 -2.110000000000000E-002   -5.464794302696860E-036
 -2.100000000000000E-002   -4.379936721242142E-036
 -2.090000000000000E-002   -2.077575218293821E-036
 -2.080000000000000E-002    1.738218352744003E-036
 -2.070000000000000E-002    7.291754195781227E-036
 -2.060000000000000E-002    1.466715330593475E-035
 -2.050000000000000E-002    2.372709451049581E-035
 -2.040000000000000E-002    3.402486771264751E-035
 -2.030000000000000E-002    4.471938601775490E-035
 -2.020000000000000E-002    5.450679554606039E-035
 -2.010000000000000E-002    6.158606965267749E-035
 -2.000000000000000E-002    6.367892029415921E-035
 -1.990000000000000E-002    5.812552519786087E-035
 -1.980000000000000E-002    4.207643295087865E-035
 -1.970000000000000E-002    1.279638749411436E-035
 -1.960000000000000E-002   -3.191287818991924E-035
 -1.950000000000000E-002   -9.317709526833702E-035
 -1.940000000000000E-002   -1.704252330007157E-034
 -1.930000000000000E-002   -2.607228787355344E-034
 -1.920000000000000E-002   -3.581338649384911E-034
 -1.910000000000000E-002   -4.532067454339680E-034
 -1.900000000000000E-002   -5.327048168851380E-034
 -1.890000000000000E-002   -5.797151668712089E-034
 -1.880000000000000E-002   -5.742775035470705E-034
 -1.870000000000000E-002   -4.946617192322133E-034
 -1.860000000000000E-002   -3.193922470455637E-034
 -1.850000000000000E-002   -3.005971720172989E-035
 -1.840000000000000E-002    3.851231113512834E-034
 -1.830000000000000E-002    9.271756637688336E-034
 -1.820000000000000E-002    1.581900807309037E-033
 -1.810000000000000E-002    2.315571123531298E-033
 -1.800000000000000E-002    3.071336724585984E-033
 -1.790000000000000E-002    3.767077062977628E-033
 -1.780000000000000E-002    4.295517288882329E-033
 -1.770000000000000E-002    4.527455146859496E-033
 -1.760000000000000E-002    4.318890081300759E-033
 -1.750000000000000E-002    3.522658030265615E-033
 -1.740000000000000E-002    2.004851975438450E-033
 -1.730000000000000E-002   -3.341670610409601E-034
 -1.720000000000000E-002   -3.534999852274010E-033
 -1.710000000000000E-002   -7.552272242357310E-033
 -1.700000000000000E-002   -1.222797527199903E-032
 -1.690000000000000E-002   -1.726838386156473E-032
 -1.680000000000000E-002   -2.222863029584024E-032
 -1.670000000000000E-002   -2.650957669538817E-032
 -1.660000000000000E-002   -2.937181326941615E-032
 -1.650000000000000E-002   -2.997129232954055E-032
 -1.640000000000000E-002   -2.742015759888524E-032
 -1.630000000000000E-002   -2.087451332608469E-032
 -1.620000000000000E-002   -9.648320844717192E-033
 -1.610000000000000E-002    6.650838349612034E-033
 -1.600000000000000E-002    2.797252680853708E-032
 -1.590000000000000E-002    5.367368053065518E-032
 -1.580000000000000E-002    8.238590138831080E-032
 -1.570000000000000E-002    1.119214333767171E-031
 -1.560000000000000E-002    1.392424598181646E-031
 -1.550000000000000E-002    1.605192699351649E-031
 -1.540000000000000E-002    1.713010319525406E-031
 -1.530000000000000E-002    1.668178598759814E-031
 -1.520000000000000E-002    1.424233384246793E-031
 -1.510000000000000E-002    9.417341549835391E-032
 -1.500000000000000E-002    1.951966629006391E-032
 -1.490000000000000E-002   -8.192591116293566E-032
 -1.480000000000000E-002   -2.076204419384563E-031
 -1.470000000000000E-002   -3.514030179722117E-031
 -1.460000000000000E-002   -5.029997176302586E-031
 -1.450000000000000E-002   -6.478436718633102E-031
 -1.440000000000000E-002   -7.673364960357519E-031
 -1.430000000000000E-002   -8.396691471348943E-031
 -1.420000000000000E-002   -8.412913686579907E-031
 -1.410000000000000E-002   -7.490736502075771E-031
 -1.400000000000000E-002   -5.431397814729027E-031
 -1.390000000000000E-002   -2.102588088731757E-031
 -1.380000000000000E-002    2.524142898470240E-031
 -1.370000000000000E-002    8.335723984897044E-031
 -1.360000000000000E-002    1.504397912308898E-030
 -1.350000000000000E-002    2.216140800055663E-030
 -1.340000000000000E-002    2.899229424416966E-030
 -1.330000000000000E-002    3.464525265162267E-030
 -1.320000000000000E-002    3.807292459844497E-030
 -1.310000000000000E-002    3.814316754452573E-030
 -1.300000000000000E-002    3.374396401337761E-030
 -1.290000000000000E-002    2.392099624317033E-030
 -1.280000000000000E-002    8.042752845292940E-031
 -1.270000000000000E-002   -1.401684897950081E-030
 -1.260000000000000E-002   -4.169379227464960E-030
 -1.250000000000000E-002   -7.356798660418836E-030
 -1.240000000000000E-002   -1.072415841423794E-029
 -1.230000000000000E-002   -1.392904792766356E-029
 -1.220000000000000E-002   -1.653192049704129E-029
 -1.210000000000000E-002   -1.801476299357216E-029
 -1.200000000000000E-002   -1.781518162277173E-029
 -1.190000000000000E-002   -1.537719627651143E-029
 -1.180000000000000E-002   -1.021845801059556E-029
 -1.170000000000000E-002   -2.011698644393423E-030
 -1.160000000000000E-002    9.324154105861447E-030
 -1.150000000000000E-002    2.353038562456843E-029
 -1.140000000000000E-002    3.992230113394338E-029
 -1.130000000000000E-002    5.732273918017153E-029
 -1.120000000000000E-002    7.402943003880447E-029
 -1.110000000000000E-002    8.783123466964656E-029
 -1.100000000000000E-002    9.608778863171170E-029
 -1.090000000000000E-002    9.588461627846846E-029
 -1.080000000000000E-002    8.427150309606504E-029
 -1.070000000000000E-002    5.858499205771491E-029
 -1.060000000000000E-002    1.684672334915988E-029
 -1.050000000000000E-002   -4.178150827263057E-029
 -1.040000000000000E-002   -1.165179948451495E-028
 -1.030000000000000E-002   -2.045016122061169E-028
 -1.020000000000000E-002   -3.004097590797258E-028
 -1.010000000000000E-002   -3.962213065368752E-028
 -1.000000000000000E-002   -4.811973911674064E-028
 -9.899999999999999E-003   -5.421530493390553E-028
 -9.800000000000000E-003   -5.640839812437288E-028
 -9.699999999999999E-003   -5.311950721519139E-028
 -9.599999999999999E-003   -4.283485506417335E-028
 -9.500000000000000E-003   -2.429102519812098E-028
 -9.399999999999999E-003    3.307661669767704E-029
 -9.299999999999999E-003    4.005175771545797E-028
 -9.200000000000000E-003    8.508822458726119E-028
 -9.099999999999999E-003    1.364055727400054E-027
 -8.999999999999999E-003    1.906726314762164E-027
 -8.900000000000000E-003    2.431643821867669E-027
 -8.799999999999999E-003    2.878096107893939E-027
 -8.699999999999999E-003    3.173926830059929E-027
 -8.600000000000000E-003    3.239362681368615E-027
 -8.499999999999999E-003    2.992802851200740E-027
 -8.399999999999999E-003    2.358579825079330E-027
 -8.300000000000000E-003    1.276495330883727E-027
 -8.199999999999999E-003   -2.873008747053485E-028
 -8.100000000000000E-003   -2.328781142201703E-027
 -8.000000000000000E-003   -4.794826351561766E-027
 -7.899999999999999E-003   -7.573531530298307E-027
 -7.800000000000000E-003   -1.048744936346470E-026
 -7.699999999999999E-003   -1.329129584069138E-026
 -7.599999999999999E-003   -1.567564532762358E-026
 -7.499999999999999E-003   -1.727799291161596E-026
 -7.399999999999999E-003   -1.770223621271202E-026
 -7.299999999999999E-003   -1.654710405013944E-026
 -7.199999999999999E-003   -1.344335398901714E-026
 -7.100000000000000E-003   -8.098663974071841E-027
 -6.999999999999999E-003   -3.480886103805353E-028
 -6.899999999999999E-003    9.793137451843340E-027
 -6.800000000000000E-003    2.207879706370030E-026
 -6.699999999999999E-003    3.598827926987822E-026
 -6.599999999999999E-003    5.069668716677191E-026
 -6.499999999999999E-003    6.506503942623477E-026
 -6.399999999999999E-003    7.765703769625971E-026
 -6.299999999999999E-003    8.678819357754672E-026
 -6.199999999999999E-003    9.061167930587881E-026
 -6.100000000000000E-003    8.724298961087528E-026
 -5.999999999999999E-003    7.492261522102976E-026
 -5.899999999999999E-003    5.221211916201011E-026
 -5.800000000000000E-003    1.821476934599947E-026
 -5.699999999999999E-003   -2.719275018013670E-026
 -5.599999999999999E-003   -8.313554745788672E-026
 -5.499999999999999E-003   -1.475449897878972E-025
 -5.399999999999999E-003   -2.170178247699222E-025
 -5.299999999999999E-003   -2.867574091504270E-025
 -5.199999999999999E-003   -3.506239955655353E-025
 -5.099999999999999E-003   -4.013189051074993E-025
 -4.999999999999999E-003   -4.307211979528215E-025
 -4.899999999999999E-003   -4.303876656988507E-025
 -4.799999999999999E-003   -3.922139947511067E-025
 -4.699999999999999E-003   -3.092415288474244E-025
 -4.599999999999999E-003   -1.765757587132687E-025
 -4.499999999999999E-003    7.635224477098028E-027
 -4.399999999999999E-003    2.412332022271032E-025
 -4.299999999999999E-003    5.171810499208642E-025
 -4.199999999999999E-003    8.228949414750988E-025
 -4.099999999999999E-003    1.139887666929372E-024
 -3.999999999999999E-003    1.443834815539213E-024
 -3.899999999999999E-003    1.705166018548566E-024
 -3.799999999999999E-003    1.890264519259152E-024
 -3.699999999999999E-003    1.963324893402664E-024
 -3.599999999999999E-003    1.888874575605436E-024
 -3.499999999999999E-003    1.634909615442080E-024
 -3.399999999999999E-003    1.176526243625563E-024
 -3.299999999999999E-003    4.998585779681039E-025
 -3.199999999999999E-003   -3.939395168733370E-025
 -3.099999999999999E-003   -1.485001460713528E-024
 -2.999999999999999E-003   -2.731734019679807E-024
 -2.899999999999999E-003   -4.068908429178497E-024
 -2.799999999999999E-003   -5.407293811982301E-024
 -2.699999999999999E-003   -6.635242466101188E-024
 -2.599999999999999E-003   -7.622566723085238E-024
 -2.499999999999999E-003   -8.226942286563099E-024
 -2.399999999999999E-003   -8.302895424331493E-024
 -2.299999999999999E-003   -7.713243820165662E-024
 -2.199999999999999E-003   -6.342607765008633E-024
 -2.099999999999999E-003   -4.112339966940807E-024
 -1.999999999999999E-003   -9.959601581495663E-025
 -1.899999999999999E-003    2.966094256895395E-024
 -1.799999999999999E-003    7.653802647419490E-024
 -1.699999999999999E-003    1.285853333736882E-023
 -1.599999999999999E-003    1.827926728430870E-023
 -1.499999999999999E-003    2.352560649033923E-023
 -1.399999999999999E-003    2.812890489672353E-023
 -1.299999999999999E-003    3.156246191391287E-023
 -1.199999999999999E-003    3.327119977198529E-023
 -1.099999999999999E-003    3.271053082839587E-023
 -9.999999999999989E-004    2.939329638137402E-023
 -8.999999999999990E-004    2.294274521662070E-023
 -7.999999999999990E-004    1.314854194042551E-023
 -6.999999999999989E-004    2.189703566014787E-026
 -5.999999999999990E-004   -1.615492748579204E-023
 -4.999999999999989E-004   -3.479001347406657E-023
 -3.999999999999989E-004   -5.495968216839457E-023
 -2.999999999999989E-004   -7.540834540503940E-023
 -1.999999999999989E-004   -9.457516990592346E-023
 -9.999999999999892E-005   -1.106512584890556E-022
  1.084202172485504E-018   -1.216694414141809E-022
  1.000000000000011E-004   -1.256264610090348E-022
  2.000000000000011E-004   -1.206347721145219E-022
  3.000000000000011E-004   -1.050981246812067E-022
  4.000000000000011E-004   -7.790195069924005E-023
  5.000000000000011E-004   -3.860644621466373E-023
  6.000000000000011E-004    1.237246990745290E-023
  7.000000000000011E-004    7.361140872232152E-023
  8.000000000000011E-004    1.425751858905332E-022
  9.000000000000012E-004    2.155782661185151E-022
  1.000000000000001E-003    2.878288476215716E-022
  1.100000000000001E-003    3.535693524394170E-022
  1.200000000000001E-003    4.063225006799540E-022
  1.300000000000001E-003    4.392452459761381E-022
  1.400000000000001E-003    4.455852393946612E-022
  1.500000000000001E-003    4.192251384000173E-022
  1.600000000000001E-003    3.552898149145106E-022
  1.700000000000001E-003    2.507820021790459E-022
  1.800000000000001E-003    1.052026655425151E-022
  1.900000000000001E-003   -7.889597891092763E-023
  2.000000000000001E-003   -2.954811549482238E-022
  2.100000000000001E-003   -5.347924615961561E-022
  2.200000000000001E-003   -7.833329813220319E-022
  2.300000000000001E-003   -1.024146914218323E-021
  2.400000000000001E-003   -1.237419815141326E-021
  2.500000000000001E-003   -1.401418847242680E-021
  2.600000000000001E-003   -1.493768375738582E-021
  2.700000000000001E-003   -1.493028026509511E-021
  2.800000000000001E-003   -1.380512438699639E-021
  2.900000000000001E-003   -1.142259129450094E-021
  3.000000000000001E-003   -7.710226698024763E-022
  3.100000000000001E-003   -2.681468348475271E-022
  3.200000000000001E-003    3.548521885581106E-022
  3.300000000000001E-003    1.075168798258807E-021
  3.400000000000001E-003    1.858232314206362E-021
  3.500000000000001E-003    2.658033006051274E-021
  3.600000000000001E-003    3.418377956533418E-021
  3.700000000000001E-003    4.075158367112751E-021
  3.800000000000001E-003    4.559647670805000E-021
  3.900000000000001E-003    4.802777407821851E-021
  4.000000000000001E-003    4.740244676451599E-021
  4.100000000000001E-003    4.318227333652576E-021
  4.200000000000001E-003    3.499382901407057E-021
  4.300000000000001E-003    2.268729523639825E-021
  4.400000000000001E-003    6.389467748468611E-022
  4.500000000000001E-003   -1.345415278734527E-021
  4.600000000000002E-003   -3.605335184122619E-021
  4.700000000000001E-003   -6.026818057109278E-021
  4.800000000000001E-003   -8.462912505046078E-021
  4.900000000000002E-003   -1.073855346504328E-020
  5.000000000000001E-003   -1.265837954208976E-020
  5.100000000000001E-003   -1.401747007812406E-020
  5.200000000000001E-003   -1.461472829256701E-020
  5.300000000000002E-003   -1.426837753300046E-020
  5.400000000000001E-003   -1.283278826152239E-020
  5.500000000000001E-003   -1.021561550912849E-020
  5.600000000000002E-003   -6.394037690282646E-021
  5.700000000000001E-003   -1.428710129281914E-021
  5.800000000000001E-003    4.525983412773726E-021
  5.900000000000002E-003    1.121678769650018E-020
  6.000000000000001E-003    1.829280789378699E-020
  6.100000000000001E-003    2.531412070798962E-020
  6.200000000000002E-003    3.176837949601154E-020
  6.300000000000002E-003    3.709556517757643E-020
  6.400000000000001E-003    4.072042653852589E-020
  6.500000000000001E-003    4.209152122395824E-020
  6.600000000000002E-003    4.072510028695853E-020
  6.700000000000001E-003    3.625142991784137E-020
  6.800000000000001E-003    2.846055863081046E-020
  6.900000000000002E-003    1.734409912416895E-020
  7.000000000000001E-003    3.129318299400255E-021
  7.100000000000001E-003   -1.369819589335445E-020
  7.200000000000002E-003   -3.238680248878089E-020
  7.300000000000002E-003   -5.192899118600298E-020
  7.400000000000001E-003   -7.109160738022012E-020
  7.500000000000001E-003   -8.846715820521493E-020
  7.600000000000002E-003   -1.025458326595817E-019
  7.700000000000001E-003   -1.118063143537101E-019
  7.800000000000001E-003   -1.148218665918598E-019
  7.900000000000001E-003   -1.103763487030764E-019
  8.000000000000002E-003   -9.758350699049994E-020
  8.100000000000001E-003   -7.600142629449369E-020
  8.200000000000001E-003   -4.573319784541823E-020
  8.300000000000002E-003   -7.504588617999535E-021
  8.400000000000001E-003    3.729042069446513E-020
  8.500000000000002E-003    8.658434876996786E-020
  8.600000000000002E-003    1.376775684276538E-019
  8.700000000000001E-003    1.873304461365413E-019
  8.800000000000002E-003    2.319073564559792E-019
  8.900000000000002E-003    2.675700099233258E-019
  9.000000000000001E-003    2.905138827548936E-019
  9.100000000000002E-003    2.972373555961696E-019
  9.200000000000002E-003    2.848295189107737E-019
  9.300000000000001E-003    2.512590041026917E-019
  9.400000000000002E-003    1.956440054119907E-019
  9.500000000000001E-003    1.184815487044414E-019
  9.600000000000001E-003    2.181454900649817E-020
  9.700000000000002E-003   -9.068426965086101E-020
  9.800000000000001E-003   -2.137289491173162E-019
  9.900000000000001E-003   -3.405506219292779E-019
  1.000000000000000E-002   -4.631483295865660E-019
  1.010000000000000E-002   -5.726601674435515E-019
  1.020000000000000E-002   -6.598453331428643E-019
  1.030000000000000E-002   -7.156596126098613E-019
  1.040000000000000E-002   -7.318973841347458E-019
  1.050000000000000E-002   -7.018649696172436E-019
  1.060000000000000E-002   -6.210434808082513E-019
  1.070000000000000E-002   -4.876941936212984E-019
  1.080000000000000E-002   -3.033572684049667E-019
  1.090000000000000E-002   -7.319584719011604E-020
  1.100000000000000E-002    1.938594612588844E-019
  1.110000000000000E-002    4.852011862606037E-019
  1.120000000000000E-002    7.848959145917979E-019
  1.130000000000000E-002    1.074306054584953E-018
  1.140000000000000E-002    1.332975175872145E-018
  1.150000000000000E-002    1.539751609739806E-018
  1.160000000000000E-002    1.674105276434463E-018
  1.170000000000000E-002    1.717573345773752E-018
  1.180000000000000E-002    1.655254638959535E-018
  1.190000000000000E-002    1.477257067741954E-018
  1.200000000000000E-002    1.179997515309550E-018
  1.210000000000000E-002    7.672457396851289E-019
  1.220000000000000E-002    2.508133703205636E-019
  1.230000000000000E-002   -3.492041631359766E-019
  1.240000000000000E-002   -1.004702644652163E-018
  1.250000000000000E-002   -1.680406589488581E-018
  1.260000000000000E-002   -2.335283193593374E-018
  1.270000000000000E-002   -2.924506636737906E-018
  1.280000000000000E-002   -3.401911988860444E-018
  1.290000000000000E-002   -3.722833060919703E-018
  1.300000000000000E-002   -3.847185826011385E-018
  1.310000000000000E-002   -3.742621170355452E-018
  1.320000000000000E-002   -3.387549705387504E-018
  1.330000000000000E-002   -2.773827312612093E-018
  1.340000000000000E-002   -1.908883839579528E-018
  1.350000000000000E-002   -8.170942426703753E-019
  1.360000000000000E-002    4.597850672702940E-019
  1.370000000000000E-002    1.863248788846787E-018
  1.380000000000000E-002    3.319825207950403E-018
  1.390000000000000E-002    4.744022895062729E-018
  1.400000000000000E-002    6.042383340802672E-018
  1.410000000000000E-002    7.118499427651043E-018
  1.420000000000000E-002    7.878790339297581E-018
  1.430000000000000E-002    8.238741111520292E-018
  1.440000000000000E-002    8.129265417975845E-018
  1.450000000000000E-002    7.502792728907368E-018
  1.460000000000000E-002    6.338673767661845E-018
  1.470000000000000E-002    4.647479749236569E-018
  1.480000000000000E-002    2.473808968462464E-018
  1.490000000000000E-002   -1.027355412585837E-019
  1.500000000000000E-002   -2.968652068567464E-018
  1.510000000000000E-002   -5.979883108378316E-018
  1.520000000000000E-002   -8.967419803884011E-018
  1.530000000000000E-002   -1.174505423747743E-017
  1.540000000000000E-002   -1.411902504169130E-017
  1.550000000000000E-002   -1.589915140413977E-017
  1.560000000000000E-002   -1.691091800841957E-017
  1.570000000000000E-002   -1.700787432473218E-017
  1.580000000000000E-002   -1.608360298273486E-017
  1.590000000000000E-002   -1.408248817974793E-017
  1.600000000000000E-002   -1.100849775023445E-017
  1.610000000000000E-002   -6.931242137636590E-018
  1.620000000000000E-002   -1.988662418461231E-018
  1.630000000000000E-002    3.614159467409752E-018
  1.640000000000000E-002    9.610382554883800E-018
  1.650000000000000E-002    1.568108470549873E-017
  1.660000000000000E-002    2.146908179828587E-017
  1.670000000000000E-002    2.659647647802211E-017
  1.680000000000000E-002    3.068524817329879E-017
  1.690000000000000E-002    3.337995708942354E-017
  1.700000000000000E-002    3.437142635159702E-017
  1.710000000000000E-002    3.342005646675193E-017
  1.720000000000000E-002    3.037736148403453E-017
  1.730000000000000E-002    2.520426073148704E-017
  1.740000000000000E-002    1.798469580365487E-017
  1.750000000000000E-002    8.933306512177439E-018
  1.760000000000000E-002   -1.603895620418156E-018
  1.770000000000000E-002   -1.315660636765396E-017
  1.780000000000000E-002   -2.514541611837923E-017
  1.790000000000000E-002   -3.690502981609947E-017
  1.800000000000000E-002   -4.771495326759144E-017
  1.810000000000000E-002   -5.683657496786911E-017
  1.820000000000000E-002   -6.355511339331285E-017
  1.830000000000000E-002   -6.722441768102841E-017
  1.840000000000000E-002   -6.731228685201942E-017
  1.850000000000000E-002   -6.344364443517108E-017
  1.860000000000000E-002   -5.543882432021252E-017
  1.870000000000000E-002   -4.334419270090904E-017