 -4.000000000000000E-002    0.000000000000000E+000
 -3.990000000000000E-002    0.000000000000000E+000
 -3.980000000000000E-002    0.000000000000000E+000
 -3.970000000000000E-002    0.000000000000000E+000
 -3.960000000000000E-002    0.000000000000000E+000
 -3.950000000000000E-002    0.000000000000000E+000
 -3.940000000000000E-002    0.000000000000000E+000
 -3.930000000000000E-002    0.000000000000000E+000
 -3.920000000000000E-002    0.000000000000000E+000
 -3.910000000000000E-002    0.000000000000000E+000
 -3.900000000000000E-002    0.000000000000000E+000
 -3.890000000000000E-002    0.000000000000000E+000
 -3.880000000000000E-002    0.000000000000000E+000
 -3.870000000000000E-002    0.000000000000000E+000
 -3.860000000000000E-002    0.000000000000000E+000
 -3.850000000000000E-002    0.000000000000000E+000
 -3.840000000000000E-002    0.000000000000000E+000
 -3.830000000000000E-002    0.000000000000000E+000
 -3.820000000000000E-002    0.000000000000000E+000
 -3.810000000000000E-002    0.000000000000000E+000
 -3.800000000000000E-002    0.000000000000000E+000
 -3.790000000000000E-002    0.000000000000000E+000
 -3.780000000000000E-002    0.000000000000000E+000
 -3.770000000000000E-002    0.000000000000000E+000
 -3.760000000000000E-002    0.000000000000000E+000
 -3.750000000000000E-002    0.000000000000000E+000
 -3.740000000000000E-002    0.000000000000000E+000
 -3.730000000000000E-002    0.000000000000000E+000
 -3.720000000000000E-002    0.000000000000000E+000
 -3.710000000000000E-002    0.000000000000000E+000
 -3.700000000000000E-002    0.000000000000000E+000
 -3.690000000000000E-002    0.000000000000000E+000
 -3.680000000000000E-002    0.000000000000000E+000
 -3.670000000000000E-002    0.000000000000000E+000
 -3.660000000000000E-002    0.000000000000000E+000
 -3.650000000000000E-002    0.000000000000000E+000
 -3.640000000000000E-002    0.000000000000000E+000
 -3.630000000000000E-002    0.000000000000000E+000
 -3.620000000000000E-002    0.000000000000000E+000
 -3.610000000000000E-002    0.000000000000000E+000
 -3.600000000000000E-002    0.000000000000000E+000
 -3.590000000000000E-002    0.000000000000000E+000
 -3.580000000000000E-002    0.000000000000000E+000
 -3.570000000000000E-002    0.000000000000000E+000
 -3.560000000000000E-002    0.000000000000000E+000
 -3.550000000000000E-002    0.000000000000000E+000
 -3.540000000000000E-002    0.000000000000000E+000
 -3.530000000000000E-002    0.000000000000000E+000
 -3.520000000000000E-002    0.000000000000000E+000
 -3.510000000000000E-002    2.138211768073757E-048
 -3.500000000000000E-002    4.717413400051555E-047
 -3.490000000000000E-002    1.393841902334729E-046
 -3.480000000000000E-002    3.139685285662483E-046
 -3.470000000000000E-002    6.696853156389133E-046
 -3.460000000000000E-002    1.368222881624354E-045
 -3.450000000000000E-002    2.667420265704683E-045
 -3.440000000000000E-002    4.897348544316395E-045
 -3.430000000000000E-002    8.676080222435620E-045
 -3.420000000000000E-002    1.420246327769920E-044
 -3.410000000000000E-002    2.255979828225295E-044
 -3.400000000000000E-002    3.312619151992710E-044
 -3.390000000000000E-002    4.252622371167499E-044
 -3.380000000000000E-002    4.562486524857676E-044
 -3.370000000000000E-002    3.105854023936844E-044
 -3.360000000000000E-002   -2.519193806380127E-044
 -3.350000000000000E-002   -1.647876145592599E-043
 -3.340000000000000E-002   -4.509528582291263E-043
 -3.330000000000000E-002   -9.784138854707567E-043
 -3.320000000000000E-002   -1.871355210255361E-042
 -3.310000000000000E-002   -3.275153672201692E-042
 -3.300000000000000E-002   -5.323269561154898E-042
 -3.290000000000000E-002   -8.071739892842667E-042
 -3.280000000000000E-002   -1.137984241533797E-041
 -3.270000000000000E-002   -1.472080612524478E-041
 -3.260000000000000E-002   -1.691300279055871E-041
 -3.250000000000000E-002   -1.577996883360278E-041
 -3.240000000000000E-002   -7.771867930780146E-042
 -3.230000000000000E-002    1.235496611311062E-041
 -3.220000000000000E-002    5.163907279065606E-041
 -3.210000000000000E-002    1.185387746229656E-040
 -3.200000000000000E-002    2.217300263641965E-040
 -3.190000000000000E-002    3.676798162390407E-040
 -3.180000000000000E-002    5.565786339011594E-040
 -3.170000000000000E-002    7.764145415273315E-040
 -3.160000000000000E-002    9.953173473741707E-040
 -3.150000000000000E-002    1.152984056369398E-039
 -3.140000000000000E-002    1.153022650631706E-039
 -3.130000000000000E-002    8.593153879156052E-040
 -3.120000000000000E-002    1.009325391250655E-040
 -3.110000000000000E-002   -1.308751513126668E-039
 -3.100000000000000E-002   -3.532814651598639E-039
 -3.090000000000000E-002   -6.647022498753401E-039
 -3.080000000000000E-002   -1.055138752814960E-038
 -3.070000000000000E-002   -1.486497080965535E-038
 -3.060000000000000E-002   -1.882425044768330E-038
 -3.050000000000000E-002   -2.122181799536156E-038
 -3.040000000000000E-002   -2.044074485559529E-038
 -3.030000000000000E-002   -1.465630540938286E-038
 -3.020000000000000E-002   -2.283762501045151E-039
 -3.010000000000000E-002    1.726174661413897E-038
 -3.000000000000000E-002    4.247234011448273E-038
 -2.990000000000000E-002    6.839127344147613E-038
 -2.980000000000000E-002    8.520992891431113E-038
 -2.970000000000000E-002    7.723893090893631E-038
 -2.960000000000000E-002    2.292199892956103E-038
 -2.950000000000000E-002   -1.031832542725803E-037
 -2.940000000000000E-002   -3.253400780152997E-037
 -2.930000000000000E-002   -6.573380086748853E-037
 -2.920000000000000E-002   -1.088097915705882E-036
 -2.910000000000000E-002   -1.562035715925361E-036
 -2.900000000000000E-002   -1.955394057594248E-036
 -2.890000000000000E-002   -2.051796801848350E-036
 -2.880000000000000E-002   -1.523050841877323E-036
 -2.870000000000000E-002    7.551401474623581E-038
 -2.860000000000000E-002    3.282547151339313E-036
 -2.850000000000000E-002    8.665767413478940E-036
 -2.840000000000000E-002    1.669859594160804E-035
 -2.830000000000000E-002    2.756479439627596E-035
 -2.820000000000000E-002    4.088482107522712E-035
 -2.810000000000000E-002    5.537137658249527E-035
 -2.800000000000000E-002    6.844269117744446E-035
 -2.790000000000000E-002    7.585072623148254E-035
 -2.780000000000000E-002    7.141584071595144E-035
 -2.770000000000000E-002    4.699635194500715E-035
 -2.760000000000000E-002   -7.145967748263307E-036
 -2.750000000000000E-002   -1.014038836869526E-034
 -2.740000000000000E-002   -2.451309004998017E-034
 -2.730000000000000E-002   -4.440624007296327E-034
 -2.720000000000000E-002   -6.968129879980861E-034
 -2.710000000000000E-002   -9.905628330249119E-034
 -2.700000000000000E-002   -1.296262527302957E-033
 -2.690000000000000E-002   -1.563961905511757E-033
 -2.680000000000000E-002   -1.719176395800368E-033
 -2.670000000000000E-002   -1.661517379666896E-033
 -2.660000000000000E-002   -1.267076147097937E-033
 -2.650000000000000E-002   -3.961857091403001E-034
 -2.640000000000000E-002    1.091876124393394E-033
 -2.630000000000000E-002    3.316024204044416E-033
 -2.620000000000000E-002    6.341840044972533E-033
 -2.610000000000000E-002    1.014197615345800E-032
 -2.600000000000000E-002    1.455062232034777E-032
 -2.590000000000000E-002    1.921604450883860E-032
 -2.580000000000000E-002    2.355733058045753E-032
 -2.570000000000000E-002    2.673365392160340E-032
 -2.560000000000000E-002    2.763627351613854E-032
 -2.550000000000000E-002    2.491485350966322E-032
 -2.540000000000000E-002    1.705004176244141E-032
 -2.530000000000000E-002    2.483267971136057E-033
 -2.520000000000000E-002   -2.018798900810223E-032
 -2.510000000000000E-002   -5.194606619371698E-032
 -2.500000000000000E-002   -9.302349035894751E-032
 -2.490000000000000E-002   -1.425208148414738E-031
 -2.480000000000000E-002   -1.979958958151533E-031
 -2.470000000000000E-002   -2.550621413078416E-031
 -2.460000000000000E-002   -3.070470633502303E-031
 -2.450000000000000E-002   -3.447775856211121E-031
 -2.440000000000000E-002   -3.565719049744448E-031
 -2.430000000000000E-002   -3.285285192267905E-031
 -2.420000000000000E-002   -2.452096530021993E-031
 -2.410000000000000E-002   -9.081436606568841E-032
 -2.400000000000000E-002    1.490761615621692E-031
 -2.390000000000000E-002    4.851268240460058E-031
 -2.380000000000000E-002    9.212438115440709E-031
 -2.370000000000000E-002    1.451004338083836E-030
 -2.360000000000000E-002    2.053687660632894E-030
 -2.350000000000000E-002    2.690207013192855E-030
 -2.340000000000000E-002    3.299397963247410E-030
 -2.330000000000000E-002    3.795298900122810E-030
 -2.320000000000000E-002    4.066234422019192E-030
 -2.310000000000000E-002    3.976678567420203E-030
 -2.300000000000000E-002    3.372971540594637E-030
 -2.290000000000000E-002    2.093964693828795E-030
 -2.280000000000000E-002   -1.248654320910753E-032
 -2.270000000000000E-002   -3.066621092995103E-030
 -2.260000000000000E-002   -7.127512619999704E-030
 -2.250000000000000E-002   -1.215840557780022E-029
 -2.240000000000000E-002   -1.798876960808065E-029
 -2.230000000000000E-002   -2.427661388971750E-029
 -2.220000000000000E-002   -3.047612611337586E-029
 -2.210000000000000E-002   -3.581720438500788E-029
 -2.200000000000000E-002   -3.930472077626261E-029
 -2.190000000000000E-002   -3.974589177992692E-029
 -2.180000000000000E-002   -3.581400129730606E-029
 -2.170000000000000E-002   -2.615513956342166E-029
 -2.160000000000000E-002   -9.541679488953171E-030
 -2.150000000000000E-002    1.492861766628857E-029
 -2.140000000000000E-002    4.759522691122059E-029
 -2.130000000000000E-002    8.797449085055514E-029
 -2.120000000000000E-002    1.345002889077560E-028
 -2.110000000000000E-002    1.842983980362623E-028
 -2.100000000000000E-002    2.330348011669903E-028
 -2.090000000000000E-002    2.748835064366633E-028
 -2.080000000000000E-002    3.026596257991500E-028
 -2.070000000000000E-002    3.081594965588487E-028
 -2.060000000000000E-002    2.827373812899282E-028
 -2.050000000000000E-002    2.181295639669814E-028
 -2.040000000000000E-002    1.075096445466609E-028
 -2.030000000000000E-002   -5.327344866695124E-029
 -2.020000000000000E-002   -2.643609805970857E-028
 -2.010000000000000E-002   -5.205766054374773E-028
 -2.000000000000000E-002   -8.103025456043037E-028
 -1.990000000000000E-002   -1.114720699454341E-027
 -1.980000000000000E-002   -1.407609969609185E-027
 -1.970000000000000E-002   -1.655881551719386E-027
 -1.960000000000000E-002   -1.820996707763321E-027
 -1.950000000000000E-002   -1.861354877506927E-027
 -1.940000000000000E-002   -1.735653964827128E-027
 -1.930000000000000E-002   -1.407115449501317E-027
 -1.920000000000000E-002   -8.483509190933485E-028
 -1.910000000000000E-002   -4.652105351117520E-029
 -1.900000000000000E-002    9.916730711658262E-028
 -1.890000000000000E-002    2.235711915127397E-027
 -1.880000000000000E-002    3.628278362482370E-027
 -1.870000000000000E-002    5.084160660028518E-027
 -1.860000000000000E-002    6.491534680851444E-027
 -1.850000000000000E-002    7.715984689772309E-027
 -1.840000000000000E-002    8.607410921983720E-027
 -1.830000000000000E-002    9.009721376485859E-027
 -1.820000000000000E-002    8.772896781675755E-027
 -1.810000000000000E-002    7.766747589979715E-027
 -1.800000000000000E-002    5.895402047430666E-027
 -1.790000000000000E-002    3.111365451509944E-027
 -1.780000000000000E-002   -5.720953721511213E-028
 -1.770000000000000E-002   -5.071513544440858E-027
 -1.760000000000000E-002   -1.022782921572305E-026
 -1.750000000000000E-002   -1.580587395968835E-026
 -1.740000000000000E-002   -2.149922748716041E-026
 -1.730000000000000E-002   -2.694045547398603E-026
 -1.720000000000000E-002   -3.171629590250060E-026
 -1.710000000000000E-002   -3.538695578424886E-026
 -1.700000000000000E-002   -3.750829517855979E-026
 -1.690000000000000E-002   -3.765555424451617E-026
 -1.680000000000000E-002   -3.544726521223528E-026
 -1.670000000000000E-002   -3.056810887899147E-026
 -1.660000000000000E-002   -2.278998481946719E-026
 -1.650000000000000E-002   -1.199087479424930E-026
 -1.640000000000000E-002    1.828292476683409E-027
 -1.630000000000000E-002    1.852809407811833E-026
 -1.620000000000000E-002    3.781559026419632E-026
 -1.610000000000000E-002    5.922881312315323E-026
 -1.600000000000000E-002    8.212017971991408E-026
 -1.590000000000000E-002    1.056390653913008E-025
 -1.580000000000000E-002    1.287145925694470E-025
 -1.570000000000000E-002    1.500412779187451E-025
 -1.560000000000000E-002    1.680713238630525E-025
 -1.550000000000000E-002    1.810189015738640E-025
 -1.540000000000000E-002    1.868824614837931E-025
 -1.530000000000000E-002    1.834916522781569E-025
 -1.520000000000000E-002    1.685850261143308E-025
 -1.510000000000000E-002    1.399232306200884E-025
 -1.500000000000000E-002    9.544017762929124E-026
 -1.490000000000000E-002    3.343180381234927E-026
 -1.480000000000000E-002   -4.722164171376287E-026
 -1.470000000000000E-002   -1.468082008546486E-025
 -1.460000000000000E-002   -2.645231400416252E-025
 -1.450000000000000E-002   -3.982094965142769E-025
 -1.440000000000000E-002   -5.441174414895617E-025
 -1.430000000000000E-002   -6.967012283462538E-025
 -1.420000000000000E-002   -8.484722983169929E-025
 -1.410000000000000E-002   -9.899270667637706E-025
 -1.400000000000000E-002   -1.109566006211267E-024
 -1.390000000000000E-002   -1.194021111446071E-024
 -1.380000000000000E-002   -1.228307563043291E-024
 -1.370000000000000E-002   -1.196218179618360E-024
 -1.360000000000000E-002   -1.080882047638527E-024
 -1.350000000000000E-002   -8.655141949100738E-025
 -1.340000000000000E-002   -5.343875451551227E-025
 -1.330000000000000E-002   -7.406328339423512E-026
 -1.320000000000000E-002    5.250848818112750E-025
 -1.310000000000000E-002    1.267023918936523E-024
 -1.300000000000000E-002    2.147883086514917E-024
 -1.290000000000000E-002    3.153467983905076E-024
 -1.280000000000000E-002    4.256539751571050E-024
 -1.270000000000000E-002    5.414008362103273E-024
 -1.260000000000000E-002    6.564269555098014E-024
 -1.250000000000000E-002    7.625017807492557E-024
 -1.240000000000000E-002    8.491976913895977E-024
 -1.230000000000000E-002    9.039077950461801E-024
 -1.220000000000000E-002    9.120696375563693E-024
 -1.210000000000000E-002    8.576586192198247E-024
 -1.200000000000000E-002    7.240095325607712E-024
 -1.190000000000000E-002    4.950157728637378E-024
 -1.180000000000000E-002    1.567294999148593E-024
 -1.170000000000000E-002   -3.006472109572500E-024
 -1.160000000000000E-002   -8.804325400210884E-024
 -1.150000000000000E-002   -1.576910297432199E-023
 -1.140000000000000E-002   -2.372720146452944E-023
 -1.130000000000000E-002   -3.236435137915902E-023
 -1.120000000000000E-002   -4.120623674421318E-023
 -1.110000000000000E-002   -4.960748130082215E-023
 -1.100000000000000E-002   -5.675281060418106E-023
 -1.090000000000000E-002   -6.167411529477784E-023
 -1.080000000000000E-002   -6.328694277371996E-023
 -1.070000000000000E-002   -6.044886194889186E-023
 -1.060000000000000E-002   -5.204096194205261E-023
 -1.050000000000000E-002   -3.707189394979773E-023
 -1.040000000000000E-002   -1.480142025569970E-023
 -1.030000000000000E-002    1.512205127930570E-023
 -1.020000000000000E-002    5.251845556580997E-023
 -1.010000000000000E-002    9.653881799529877E-023
 -1.000000000000000E-002    1.455475558544375E-022
 -9.899999999999999E-003    1.970400734286917E-022
 -9.800000000000000E-003    2.476121826460876E-022
 -9.699999999999999E-003    2.929978344296129E-022
 -9.599999999999999E-003    3.281893580507482E-022
 -9.500000000000000E-003    3.476515806441069E-022
 -9.399999999999999E-003    3.456349985933834E-022
 -9.299999999999999E-003    3.165866915867951E-022
 -9.200000000000000E-003    2.556490519667784E-022
 -9.099999999999999E-003    1.592261486194423E-022
 -8.999999999999999E-003    2.558816608931081E-023
 -8.900000000000000E-003   -1.445265009280536E-022
 -8.799999999999999E-003   -3.473600729852874E-022
 -8.699999999999999E-003   -5.756912814289636E-022
 -8.600000000000000E-003   -8.185583288122707E-022
 -8.499999999999999E-003   -1.061207892591632E-021
 -8.399999999999999E-003   -1.285326351120168E-021
 -8.300000000000000E-003   -1.469597773109465E-021
 -8.199999999999999E-003   -1.590619459930825E-021
 -8.100000000000000E-003   -1.624182908865462E-021
 -8.000000000000000E-003   -1.546904334575318E-021
 -7.899999999999999E-003   -1.338159412569393E-021
 -7.800000000000000E-003   -9.822420129489237E-022
 -7.699999999999999E-003   -4.706381145736470E-022
 -7.599999999999999E-003    1.957305187969817E-022
 -7.499999999999999E-003    1.004458343140326E-021
 -7.399999999999999E-003    1.929997546626373E-021
 -7.299999999999999E-003    2.932590793166063E-021
 -7.199999999999999E-003    3.957992223353329E-021
 -7.100000000000000E-003    4.938168832122288E-021
 -6.999999999999999E-003    5.793133986132259E-021
 -6.899999999999999E-003    6.434023283031403E-021
 -6.800000000000000E-003    6.767459281184121E-021
 -6.699999999999999E-003    6.701169812906358E-021
 -6.599999999999999E-003    6.150726757200500E-021
 -6.499999999999999E-003    5.047183680230568E-021
 -6.399999999999999E-003    3.345256720499307E-021
 -6.299999999999999E-003    1.031609876467113E-021
 -6.199999999999999E-003   -1.867316163410830E-021
 -6.100000000000000E-003   -5.278560629890002E-021
 -5.999999999999999E-003   -9.077697752755160E-021
 -5.899999999999999E-003   -1.308638722685846E-020
 -5.800000000000000E-003   -1.707315455195873E-020
 -5.699999999999999E-003   -2.075800448715751E-020
 -5.599999999999999E-003   -2.382140910714599E-020
 -5.499999999999999E-003   -2.591793887406752E-020
 -5.399999999999999E-003   -2.669462457418436E-020
 -5.299999999999999E-003   -2.581378513008116E-020
 -5.199999999999999E-003   -2.297967437827767E-020
 -5.099999999999999E-003   -1.796793433329220E-020
 -4.999999999999999E-003   -1.065638723557924E-020
 -4.899999999999999E-003   -1.055286696268112E-021
 -4.799999999999999E-003    1.066518113087915E-020
 -4.699999999999999E-003    2.415271073490627E-020
 -4.599999999999999E-003    3.885869577929541E-020
 -4.499999999999999E-003    5.403476309508376E-020
 -4.399999999999999E-003    6.874256529081538E-020
 -4.299999999999999E-003    8.187902027245094E-020
 -4.199999999999999E-003    9.221833490075806E-020
 -4.099999999999999E-003    9.847157840087821E-020
 -3.999999999999999E-003    9.936310946053532E-020
 -3.899999999999999E-003    9.372203239350891E-020
 -3.799999999999999E-003    8.058523328526452E-020
 -3.699999999999999E-003    5.930708538444672E-020
 -3.599999999999999E-003    2.966936999409008E-020
 -3.499999999999999E-003   -8.016353927477614E-021
 -3.399999999999999E-003   -5.282292169358024E-020
 -3.299999999999999E-003   -1.031474619104788E-019
 -3.199999999999999E-003   -1.566868510471163E-019
 -3.099999999999999E-003   -2.104572312070296E-019
 -2.999999999999999E-003   -2.608650702710873E-019
 -2.899999999999999E-003   -3.038348646603931E-019
 -2.799999999999999E-003   -3.349955910174417E-019
 -2.699999999999999E-003   -3.499239574039006E-019
 -2.599999999999999E-003   -3.444383148634389E-019
 -2.499999999999999E-003   -3.149322125745239E-019
 -2.399999999999999E-003   -2.587317411996748E-019
 -2.299999999999999E-003   -1.744562017751320E-019
 -2.199999999999999E-003   -6.235759037643668E-020
 -2.099999999999999E-003    7.538872635929998E-020
 -1.999999999999999E-003    2.344709932362674E-019
 -1.899999999999999E-003    4.083349816090798E-019
 -1.799999999999999E-003    5.882106819009967E-019
 -1.699999999999999E-003    7.632950236415793E-019
 -1.599999999999999E-003    9.211048733241771E-019
 -1.499999999999999E-003    1.048007631207463E-018
 -1.399999999999999E-003    1.129924065709162E-018
 -1.299999999999999E-003    1.153186550827664E-018
 -1.199999999999999E-003    1.105523207779179E-018
 -1.099999999999999E-003    9.771214158663535E-019
 -9.999999999999989E-004    7.617166443327520E-019
 -8.999999999999990E-004    4.576363147747673E-019
 -7.999999999999990E-004    6.872242718409535E-020
 -6.999999999999989E-004   -3.949488235378890E-019
 -5.999999999999990E-004   -9.166324166464578E-019
 -4.999999999999989E-004   -1.472842934781960E-018
 -3.999999999999989E-004   -2.033711893207541E-018
 -2.999999999999989E-004   -2.563823483302096E-018
 -1.999999999999989E-004   -3.023555361742227E-018
 -9.999999999999892E-005   -3.370925384442053E-018
  1.084202172485504E-018   -3.563905676319057E-018
  1.000000000000011E-004   -3.563137380139272E-018
  2.000000000000011E-004   -3.334933154124226E-018
  3.000000000000011E-004   -2.854426947160812E-018
  4.000000000000011E-004   -2.108687700314039E-018
  5.000000000000011E-004   -1.099591239532891E-018
  6.000000000000011E-004    1.537751135513687E-019
  7.000000000000011E-004    1.613413894618147E-018
  8.000000000000011E-004    3.221644918263959E-018
  9.000000000000012E-004    4.901479738813153E-018
  1.000000000000001E-003    6.558296632141564E-018
  1.100000000000001E-003    8.082938585850345E-018
  1.200000000000001E-003    9.356268660194552E-018
  1.300000000000001E-003    1.025513244967357E-017
  1.400000000000001E-003    1.065958063901535E-017
  1.500000000000001E-003    1.046109688805160E-017
  1.600000000000001E-003    9.571459724997677E-018
  1.700000000000001E-003    7.931772287146776E-018
  1.800000000000001E-003    5.521103356623572E-018
  1.900000000000001E-003    2.364112683170893E-018
  2.000000000000001E-003   -1.463006375849861E-018
  2.100000000000001E-003   -5.828930679291388E-018
  2.200000000000001E-003   -1.054657749134686E-017
  2.300000000000001E-003   -1.537597475368142E-017
  2.400000000000001E-003   -2.003100651818435E-017
  2.500000000000001E-003   -2.419024506600712E-017
  2.600000000000001E-003   -2.751181062531127E-017
  2.700000000000001E-003   -2.965195621254709E-017
  2.800000000000001E-003   -3.028674029158985E-017
  2.900000000000001E-003   -2.913590913234689E-017
  3.000000000000001E-003   -2.598774594305381E-017
  3.100000000000001E-003   -2.072343800756371E-017
  3.200000000000001E-003   -1.333930060861951E-017
  3.300000000000001E-003   -3.965065916397565E-018
  3.400000000000001E-003    7.123565838065813E-018
  3.500000000000001E-003    1.949983889780521E-017
  3.600000000000001E-003    3.258975381940458E-017
  3.700000000000001E-003    4.568595319716111E-017
  3.800000000000001E-003    5.797227585363248E-017
  3.900000000000001E-003    6.855903837786979E-017
  4.000000000000001E-003    7.652834823029974E-017
  4.100000000000001E-003    8.098802760113911E-017
  4.200000000000001E-003    8.113195775791996E-017
  4.300000000000001E-003    7.630387710269170E-017
  4.400000000000001E-003    6.606106043825952E-017
  4.500000000000001E-003    5.023374861072597E-017
  4.600000000000002E-003    2.897586591225828E-017
  4.700000000000001E-003    2.802571541952093E-018
  4.800000000000001E-003   -2.738970323160705E-017
  4.900000000000002E-003   -6.032443720215751E-017
  5.000000000000001E-003   -9.437048832907080E-017
  5.100000000000001E-003   -1.275934966776193E-016
  5.200000000000001E-003   -1.578336585911543E-016
  5.300000000000002E-003   -1.828086656150848E-016
  5.400000000000001E-003   -2.002386637683174E-016
  5.500000000000001E-003   -2.079884546123563E-016
  5.600000000000002E-003   -2.042203544502176E-016
  5.700000000000001E-003   -1.875493490745730E-016
  5.800000000000001E-003   -1.571914364770162E-016
  5.900000000000002E-003   -1.130945657547818E-016
  6.000000000000001E-003   -5.604182036359000E-017
  6.100000000000001E-003    1.228320616876654E-017
  6.200000000000002E-003    8.927821551869145E-017
  6.300000000000002E-003    1.714585342738335E-016
  6.400000000000001E-003    2.545526963299116E-016
  6.500000000000001E-003    3.336592880823747E-016
  6.600000000000002E-003    4.034635190872583E-016
  6.700000000000001E-003    4.585077693562108E-016
  6.800000000000001E-003    4.935060996853340E-016
  6.900000000000002E-003    5.036894826657119E-016
  7.000000000000001E-003    4.851644281202853E-016
  7.100000000000001E-003    4.352639826672085E-016
  7.200000000000002E-003    3.528694166997325E-016
  7.300000000000002E-003    2.386782880477152E-016
  7.400000000000001E-003    9.539607173182258E-017
  7.500000000000001E-003   -7.217035614841412E-017
  7.600000000000002E-003   -2.571357040611550E-016
  7.700000000000001E-003   -4.506881237857229E-016
  7.800000000000001E-003   -6.423789452738229E-016
  7.900000000000001E-003   -8.205468364808253E-016
  8.000000000000002E-003   -9.728702920988369E-016
  8.100000000000001E-003   -1.087028321402296E-015
  8.200000000000001E-003   -1.151444339683743E-015
  8.300000000000002E-003   -1.156076188928179E-015
  8.400000000000001E-003   -1.093211156373130E-015
  8.500000000000002E-003   -9.582173478571271E-016
  8.600000000000002E-003   -7.502005206036752E-016
  8.700000000000001E-003   -4.725145640383614E-016
  8.800000000000002E-003   -1.330763632235529E-016
  8.900000000000002E-003    2.555571615223366E-016
  9.000000000000001E-003    6.763831566883668E-016
  9.100000000000002E-003    1.108440297634673E-015
  9.200000000000002E-003    1.527592471170113E-015
  9.300000000000001E-003    1.907598576528672E-015
  9.400000000000002E-003    2.221434697468674E-015
  9.500000000000001E-003    2.442820722809306E-015
  9.600000000000001E-003    2.547877873551531E-015
  9.700000000000002E-003    2.516836913748033E-015
  9.800000000000001E-003    2.335694635523663E-015
  9.900000000000001E-003    1.997714114901612E-015
  1.000000000000000E-002    1.504658207004164E-015
  1.010000000000000E-002    8.676530757785265E-016
  1.020000000000000E-002    1.075855190058231E-016
  1.030000000000000E-002   -7.450423183945732E-016
  1.040000000000000E-002   -1.650850355765386E-015
  1.050000000000000E-002   -2.562932729916960E-015
  1.060000000000000E-002   -3.428811172521877E-015
  1.070000000000000E-002   -4.192934739243240E-015
  1.080000000000000E-002   -4.799637085404887E-015
  1.090000000000000E-002   -5.196418270433778E-015
  1.100000000000000E-002   -5.337392555768154E-015
  1.110000000000000E-002   -5.186708103465609E-015
  1.120000000000000E-002   -4.721730337897001E-015
  1.130000000000000E-002   -3.935777753951256E-015
  1.140000000000000E-002   -2.840191747475065E-015
  1.150000000000000E-002   -1.465553520798063E-015
  1.160000000000000E-002    1.381128048079036E-016
  1.170000000000000E-002    1.902270438062933E-015
  1.180000000000000E-002    3.741985153969648E-015
  1.190000000000000E-002    5.559225182583175E-015
  1.200000000000000E-002    7.247263299831545E-015
  1.210000000000000E-002    8.696033608175495E-015
  1.220000000000000E-002    9.798207165002024E-015
  1.230000000000000E-002    1.045571399700854E-014
  1.240000000000000E-002    1.058635966950267E-014
  1.250000000000000E-002    1.013015279568979E-014
  1.260000000000000E-002    9.054950230636365E-015
  1.270000000000000E-002    7.361020233686941E-015
  1.280000000000000E-002    5.084155945972770E-015
  1.290000000000000E-002    2.297014390961090E-015
  1.300000000000000E-002   -8.915514493342099E-016
  1.310000000000000E-002   -4.339327988108778E-015
  1.320000000000000E-002   -7.875763201932788E-015
  1.330000000000000E-002   -1.130910850818838E-014
  1.340000000000000E-002   -1.443541805364363E-014
  1.350000000000000E-002   -1.704910998304305E-014
  1.360000000000000E-002   -1.895456211531205E-014
  1.370000000000000E-002   -1.997820927150705E-014
  1.380000000000000E-002   -1.998046760623736E-014
  1.390000000000000E-002   -1.886677916092832E-014
  1.400000000000000E-002   -1.659708127238643E-014
  1.410000000000000E-002   -1.319300958745436E-014
  1.420000000000000E-002   -8.742210276684527E-015
  1.430000000000000E-002   -3.399276448393178E-015
  1.440000000000000E-002    2.617049690501297E-015
  1.450000000000000E-002    9.030578242804041E-015
  1.460000000000000E-002    1.551822299248779E-014
  1.470000000000000E-002    2.172416098397139E-014
  1.480000000000000E-002    2.727704000688749E-014
  1.490000000000000E-002    3.180962587906761E-014
  1.500000000000000E-002    3.497985898734260E-014
  1.510000000000000E-002    3.649233775004640E-014
  1.520000000000000E-002    3.611897446377253E-014
  1.530000000000000E-002    3.371762403454789E-014
  1.540000000000000E-002    2.924743341841876E-014
  1.550000000000000E-002    2.277975968707197E-014
  1.560000000000000E-002    1.450365943295802E-014
  1.570000000000000E-002    4.725188346420158E-015
  1.580000000000000E-002   -6.139953645836469E-015
  1.590000000000000E-002   -1.758062102407850E-014
  1.600000000000000E-002   -2.901096239972759E-014
  1.610000000000000E-002   -3.979710952299749E-014
  1.620000000000000E-002   -4.928880428639590E-014
  1.630000000000000E-002   -5.685448097599639E-014
  1.640000000000000E-002   -6.191819570740767E-014
  1.650000000000000E-002   -6.399645472406118E-014
  1.660000000000000E-002   -6.273273139938035E-014
  1.670000000000000E-002   -5.792764083451882E-014
  1.680000000000000E-002   -4.956266354210252E-014
  1.690000000000000E-002   -3.781555360587444E-014
  1.700000000000000E-002   -2.306590173086907E-014
  1.710000000000000E-002   -5.889790499709965E-015
  1.720000000000000E-002    1.295704239254585E-014
  1.730000000000000E-002    3.256747358967145E-014
  1.740000000000000E-002    5.192188982996647E-014
  1.750000000000000E-002    6.993647260641092E-014
  1.760000000000000E-002    8.551869947584460E-014
  1.770000000000000E-002    9.762754986075230E-014
  1.780000000000000E-002    1.053353284797433E-013
  1.790000000000000E-002    1.078877504885411E-013
  1.800000000000000E-002    1.047587644288689E-013
  1.810000000000000E-002    9.569660768019329E-014
  1.820000000000000E-002    8.075787841029118E-014
  1.830000000000000E-002    6.032689027311528E-014
  1.840000000000000E-002    3.511806697006551E-014
  1.850000000000000E-002    6.160135101405321E-015
  1.860000000000000E-002   -2.523831709838654E-014
  1.870000000000000E-002   -5.754123686536870E-014