 -4.000000000000000E-002    0.000000000000000E+000
 -3.990000000000000E-002    0.000000000000000E+000
 -3.980000000000000E-002    0.000000000000000E+000
 -3.970000000000000E-002    0.000000000000000E+000
 -3.960000000000000E-002    0.000000000000000E+000
 -3.950000000000000E-002    0.000000000000000E+000
 -3.940000000000000E-002    0.000000000000000E+000
 -3.930000000000000E-002    0.000000000000000E+000
 -3.920000000000000E-002    0.000000000000000E+000
 -3.910000000000000E-002    0.000000000000000E+000
 -3.900000000000000E-002    0.000000000000000E+000
 -3.890000000000000E-002   -1.052538514668247E-037
 -3.880000000000000E-002   -2.175924331144426E-036
 -3.870000000000000E-002   -2.314882306765479E-035
 -3.860000000000000E-002   -1.685233112670139E-034
 -3.850000000000000E-002   -9.416755490235543E-034
 -3.840000000000000E-002   -4.293444732640108E-033
 -3.830000000000000E-002   -1.657021919869826E-032
 -3.820000000000000E-002   -5.539125719969122E-032
 -3.810000000000000E-002   -1.625572785903785E-031
 -3.800000000000000E-002   -4.209727399400122E-031
 -3.790000000000000E-002   -9.569979443706102E-031
 -3.780000000000000E-002   -1.864089332446270E-030
 -3.770000000000000E-002   -2.880877919710044E-030
 -3.760000000000000E-002   -2.456498361687488E-030
 -3.750000000000000E-002    4.508349925505564E-030
 -3.740000000000000E-002    3.147668295350976E-029
 -3.730000000000000E-002    1.095532492245303E-028
 -3.720000000000000E-002    3.038168284901718E-028
 -3.710000000000000E-002    7.396431430861502E-028
 -3.700000000000000E-002    1.641302080780738E-027
 -3.690000000000000E-002    3.382440943365323E-027
 -3.680000000000000E-002    6.542006829510002E-027
 -3.670000000000000E-002    1.194819481996869E-026
 -3.660000000000000E-002    2.067594884732903E-026
 -3.650000000000000E-002    3.394024490046652E-026
 -3.640000000000000E-002    5.280001618789082E-026
 -3.630000000000000E-002    7.756173017415189E-026
 -3.620000000000000E-002    1.067578698474251E-025
 -3.610000000000000E-002    1.355899484189654E-025
 -3.600000000000000E-002    1.537894963254429E-025
 -3.590000000000000E-002    1.429872919639592E-025
 -3.580000000000000E-002    7.391221614074942E-026
 -3.570000000000000E-002   -9.592347654825179E-026
 -3.560000000000000E-002   -4.229692163459005E-025
 -3.550000000000000E-002   -9.752577143434404E-025
 -3.540000000000000E-002   -1.824932077775861E-024
 -3.530000000000000E-002   -3.033493844977093E-024
 -3.520000000000000E-002   -4.627775963653650E-024
 -3.510000000000000E-002   -6.565474981377417E-024
 -3.500000000000000E-002   -8.690772980914459E-024
 -3.490000000000000E-002   -1.068328087232176E-023
 -3.480000000000000E-002   -1.200727976649440E-023
 -3.470000000000000E-002   -1.187272017378420E-023
 -3.460000000000000E-002   -9.224132118013955E-024
 -3.450000000000000E-002   -2.777507019563742E-024
 -3.440000000000000E-002    8.873065529442345E-024
 -3.430000000000000E-002    2.705916374542698E-023
 -3.420000000000000E-002    5.273991564921915E-023
 -3.410000000000000E-002    8.610383455450379E-023
 -3.400000000000000E-002    1.260941274680468E-022
 -3.390000000000000E-002    1.699091092111363E-022
 -3.380000000000000E-002    2.125615114940933E-022
 -3.370000000000000E-002    2.466113829199400E-022
 -3.360000000000000E-002    2.622106357404367E-022
 -3.350000000000000E-002    2.476030973590326E-022
 -3.340000000000000E-002    1.902035389324317E-022
 -3.330000000000000E-002    7.832287364375899E-023
 -3.320000000000000E-002   -9.648940550464388E-023
 -3.310000000000000E-002   -3.366515264035245E-022
 -3.300000000000000E-002   -6.356368743115456E-022
 -3.290000000000000E-002   -9.754529713496226E-022
 -3.280000000000000E-002   -1.325176635270253E-021
 -3.270000000000000E-002   -1.641302722782976E-021
 -3.260000000000000E-002   -1.870641843705224E-021
 -3.250000000000000E-002   -1.956324617535494E-021
 -3.240000000000000E-002   -1.847090759745361E-021
 -3.230000000000000E-002   -1.509462891276288E-021
 -3.220000000000000E-002   -9.416274393816323E-022
 -3.210000000000000E-002   -1.869608963497507E-022
 -3.200000000000000E-002    6.557438828834971E-022
 -3.190000000000000E-002    1.429003539564516E-021
 -3.180000000000000E-002    1.924278995183584E-021
 -3.170000000000000E-002    1.904172675252715E-021
 -3.160000000000000E-002    1.141684775094585E-021
 -3.150000000000000E-002   -5.230867614918567E-022
 -3.140000000000000E-002   -3.111540698207084E-021
 -3.130000000000000E-002   -6.427190203531093E-021
 -3.120000000000000E-002   -9.979438367638061E-021
 -3.110000000000000E-002   -1.292607206703233E-020
 -3.100000000000000E-002   -1.405345297808512E-020
 -3.090000000000000E-002   -1.181501599895668E-020
 -3.080000000000000E-002   -4.447455298975687E-021
 -3.070000000000000E-002    9.820967597095978E-021
 -3.060000000000000E-002    3.246482515610966E-020
 -3.050000000000000E-002    6.426711826736324E-020
 -3.040000000000000E-002    1.048621371291165E-019
 -3.030000000000000E-002    1.522614134843768E-019
 -3.020000000000000E-002    2.024290568364976E-019
 -3.010000000000000E-002    2.489895651551272E-019
 -3.000000000000000E-002    2.831623783036297E-019
 -2.990000000000000E-002    2.940181973662228E-019
 -2.980000000000000E-002    2.691383896672891E-019
 -2.970000000000000E-002    1.957307177749566E-019
 -2.960000000000000E-002    6.220798347282226E-020
 -2.950000000000000E-002   -1.398251731447926E-019
 -2.940000000000000E-002   -4.133040553918545E-019
 -2.930000000000000E-002   -7.533598789252777E-019
 -2.920000000000000E-002   -1.145176899060084E-018
 -2.910000000000000E-002   -1.562384952147309E-018
 -2.900000000000000E-002   -1.966350817070317E-018
 -2.890000000000000E-002   -2.306719786288679E-018
 -2.880000000000000E-002   -2.523503111931668E-018
 -2.870000000000000E-002   -2.550892128063721E-018
 -2.860000000000000E-002   -2.322823557196477E-018
 -2.850000000000000E-002   -1.780111638890841E-018
 -2.840000000000000E-002   -8.787388971336454E-019
 -2.830000000000000E-002    4.013413733180360E-019
 -2.820000000000000E-002    2.047735603868654E-018
 -2.810000000000000E-002    4.008473286034211E-018
 -2.800000000000000E-002    6.187263162414576E-018
 -2.790000000000000E-002    8.442152654219696E-018
 -2.780000000000000E-002    1.058842809586231E-017
 -2.770000000000000E-002    1.240628540890800E-017
 -2.760000000000000E-002    1.365340395340124E-017
 -2.750000000000000E-002    1.408202957215846E-017
 -2.740000000000000E-002    1.345969703947314E-017
 -2.730000000000000E-002    1.159215342125894E-017
 -2.720000000000000E-002    8.346710472225965E-018
 -2.710000000000000E-002    3.673917886065040E-018
 -2.700000000000000E-002   -2.374556532593513E-018
 -2.690000000000000E-002   -9.633809118790113E-018
 -2.680000000000000E-002   -1.782090576535824E-017
 -2.670000000000000E-002   -2.653838400064707E-017
 -2.660000000000000E-002   -3.528627324499896E-017
 -2.650000000000000E-002   -4.348205745268534E-017
 -2.640000000000000E-002   -5.048728303244403E-017
 -2.630000000000000E-002   -5.563897650192362E-017
 -2.620000000000000E-002   -5.828366205361210E-017
 -2.610000000000000E-002   -5.781184249649907E-017
 -2.600000000000000E-002   -5.369116139193344E-017
 -2.590000000000000E-002   -4.549717635424376E-017
 -2.580000000000000E-002   -3.294145176793030E-017
 -2.570000000000000E-002   -1.589769729883744E-017
 -2.560000000000000E-002    5.572619983175659E-018
 -2.550000000000000E-002    3.119331444635744E-017
 -2.540000000000000E-002    6.044357738071841E-017
 -2.530000000000000E-002    9.252432119323165E-017
 -2.520000000000000E-002    1.263216113604511E-016
 -2.510000000000000E-002    1.603704983080477E-016
 -2.500000000000000E-002    1.928250788175753E-016
 -2.490000000000000E-002    2.214437086133446E-016
 -2.480000000000000E-002    2.436006353191627E-016
 -2.470000000000000E-002    2.563369952870002E-016
 -2.460000000000000E-002    2.564636929631430E-016
 -2.450000000000000E-002    2.407274723664063E-016
 -2.440000000000000E-002    2.060460929897271E-016
 -2.430000000000000E-002    1.498128782003580E-016
 -2.420000000000000E-002    7.026079394568718E-017
 -2.410000000000000E-002   -3.313320748984737E-017
 -2.400000000000000E-002   -1.592346364659980E-016
 -2.390000000000000E-002   -3.048701280698166E-016
 -2.380000000000000E-002   -4.645274515782335E-016
 -2.370000000000000E-002   -6.301913666456111E-016
 -2.360000000000000E-002   -7.913683008458905E-016
 -2.350000000000000E-002   -9.353460829506423E-016
 -2.340000000000000E-002   -1.047721949634697E-015
 -2.330000000000000E-002   -1.113210454059964E-015
 -2.320000000000000E-002   -1.116716766421752E-015
 -2.310000000000000E-002   -1.044631251079649E-015
 -2.300000000000000E-002   -8.862705483340498E-016
 -2.290000000000000E-002   -6.353569801437333E-016
 -2.280000000000000E-002   -2.914093377432560E-016
 -2.270000000000000E-002    1.391006995180322E-016
 -2.260000000000000E-002    6.419750789680932E-016
 -2.250000000000000E-002    1.195032180317622E-015
 -2.240000000000000E-002    1.768476611609653E-015
 -2.230000000000000E-002    2.325963053824528E-015
 -2.220000000000000E-002    2.826362422762947E-015
 -2.210000000000000E-002    3.226182163831413E-015
 -2.200000000000000E-002    3.482517415909912E-015
 -2.190000000000000E-002    3.556353326841823E-015
 -2.180000000000000E-002    3.415976368426692E-015
 -2.170000000000000E-002    3.040223276678054E-015
 -2.160000000000000E-002    2.421275858367577E-015
 -2.150000000000000E-002    1.566722619174667E-015
 -2.140000000000000E-002    5.006523264571724E-016
 -2.130000000000000E-002   -7.363963193380088E-016
 -2.120000000000000E-002   -2.088711508148820E-015
 -2.110000000000000E-002   -3.487887443237650E-015
 -2.100000000000000E-002   -4.856384863914259E-015
 -2.090000000000000E-002   -6.111931995390331E-015
 -2.080000000000000E-002   -7.172451751674818E-015
 -2.070000000000000E-002   -7.961140366640577E-015
 -2.060000000000000E-002   -8.411290876699903E-015
 -2.050000000000000E-002   -8.470487553688489E-015
 -2.040000000000000E-002   -8.103842741809932E-015
 -2.030000000000000E-002   -7.296052770946255E-015
 -2.020000000000000E-002   -6.052168805263970E-015
 -2.010000000000000E-002   -4.397122550347185E-015
 -2.000000000000000E-002   -2.374170745245503E-015
 -1.990000000000000E-002   -4.255447936772212E-017
 -1.980000000000000E-002    2.525263545049384E-015
 -1.970000000000000E-002    5.246378960169030E-015
 -1.960000000000000E-002    8.029873489810002E-015
 -1.950000000000000E-002    1.077860297598590E-014
 -1.940000000000000E-002    1.339021465390856E-014
 -1.930000000000000E-002    1.575742072624309E-014
 -1.920000000000000E-002    1.776777629978152E-014
 -1.910000000000000E-002    1.930341519707968E-014
 -1.900000000000000E-002    2.024132111926165E-014
 -1.890000000000000E-002    2.045481775442288E-014
 -1.880000000000000E-002    1.981698097100202E-014
 -1.870000000000000E-002    1.820652979255372E-014
 -1.860000000000000E-002    1.551654529543670E-014
 -1.850000000000000E-002    1.166603711482375E-014
 -1.840000000000000E-002    6.613955466658167E-015
 -1.830000000000000E-002    3.747920145506762E-016
 -1.820000000000000E-002   -6.965559078508891E-015
 -1.810000000000000E-002   -1.523538306820715E-014
 -1.800000000000000E-002   -2.416618337360342E-014
 -1.790000000000000E-002   -3.338723536371114E-014
 -1.780000000000000E-002   -4.242771912550847E-014
 -1.770000000000000E-002   -5.072795251333534E-014
 -1.760000000000000E-002   -5.766084972560731E-014
 -1.750000000000000E-002   -6.256374033157284E-014
 -1.740000000000000E-002   -6.477979511616708E-014
 -1.730000000000000E-002   -6.370715031958824E-014
 -1.720000000000000E-002   -5.885289334369120E-014
 -1.710000000000000E-002   -4.988791382016820E-014
 -1.700000000000000E-002   -3.669817686973112E-014
 -1.690000000000000E-002   -1.942741145437180E-014
 -1.680000000000000E-002    1.493561473457454E-015
 -1.670000000000000E-002    2.533528604040994E-014
 -1.660000000000000E-002    5.107898558403024E-014
 -1.650000000000000E-002    7.744886635456933E-014
 -1.640000000000000E-002    1.029671823138830E-013
 -1.630000000000000E-002    1.260302553304665E-013
 -1.620000000000000E-002    1.450017188048823E-013
 -1.610000000000000E-002    1.583167317153551E-013
 -1.600000000000000E-002    1.645906662414085E-013
 -1.590000000000000E-002    1.627234739799027E-013
 -1.580000000000000E-002    1.519919305367949E-013
 -1.570000000000000E-002    1.321216822512900E-013
 -1.560000000000000E-002    1.033326891332930E-013
 -1.550000000000000E-002    6.635355571556865E-014
 -1.540000000000000E-002    2.240279624991712E-014
 -1.530000000000000E-002   -2.686224429339534E-014
 -1.520000000000000E-002   -7.942502404924688E-014
 -1.510000000000000E-002   -1.330117646378300E-013
 -1.500000000000000E-002   -1.852074307671655E-013
 -1.490000000000000E-002   -2.335761312731337E-013
 -1.480000000000000E-002   -2.757763678943396E-013
 -1.470000000000000E-002   -3.096620938467282E-013
 -1.460000000000000E-002   -3.333625941073559E-013
 -1.450000000000000E-002   -3.453369109188123E-013
 -1.440000000000000E-002   -3.444023397184146E-013
 -1.430000000000000E-002   -3.297389829644264E-013
 -1.420000000000000E-002   -3.008772050790896E-013
 -1.410000000000000E-002   -2.576763835833698E-013
 -1.400000000000000E-002   -2.003053707500066E-013
 -1.390000000000000E-002   -1.292355872839416E-013
 -1.380000000000000E-002   -4.525555786606743E-014
 -1.370000000000000E-002    5.048676712089532E-014
 -1.360000000000000E-002    1.564122304098725E-013
 -1.350000000000000E-002    2.704134058104465E-013
 -1.340000000000000E-002    3.897415675825357E-013
 -1.330000000000000E-002    5.108946986786027E-013
 -1.320000000000000E-002    6.295254772657780E-013
 -1.310000000000000E-002    7.403949364448409E-013
 -1.300000000000000E-002    8.373949658634460E-013
 -1.290000000000000E-002    9.136624280591927E-013
 -1.280000000000000E-002    9.618019649706856E-013
 -1.270000000000000E-002    9.742262286173850E-013
 -1.260000000000000E-002    9.436115774744663E-013
 -1.250000000000000E-002    8.634542573755634E-013
 -1.240000000000000E-002    7.286994660913353E-013
 -1.230000000000000E-002    5.364030469783152E-013
 -1.220000000000000E-002    2.863740452178567E-013
 -1.210000000000000E-002   -1.825948152017763E-014
 -1.200000000000000E-002   -3.706226486489556E-013
 -1.190000000000000E-002   -7.598625823531583E-013
 -1.180000000000000E-002   -1.171162082104746E-012
 -1.170000000000000E-002   -1.586036168153333E-012
 -1.160000000000000E-002   -1.982926382859052E-012
 -1.150000000000000E-002   -2.338090220755464E-012
 -1.140000000000000E-002   -2.626749719944809E-012
 -1.130000000000000E-002   -2.824455385175141E-012
 -1.120000000000000E-002   -2.908582201884298E-012
 -1.110000000000000E-002   -2.859869237770326E-012
 -1.100000000000000E-002   -2.663902736141261E-012
 -1.090000000000000E-002   -2.312436881326832E-012
 -1.080000000000000E-002   -1.804455772403984E-012
 -1.070000000000000E-002   -1.146891031563193E-012
 -1.060000000000000E-002   -3.549376990330553E-013
 -1.050000000000000E-002    5.480717671476630E-013
 -1.040000000000000E-002    1.531233981067224E-012
 -1.030000000000000E-002    2.557059527241746E-012
 -1.020000000000000E-002    3.582822689648524E-012
 -1.010000000000000E-002    4.562196148444220E-012
 -1.000000000000000E-002    5.447085729578601E-012
 -9.899999999999999E-003    6.189563817965460E-012
 -9.800000000000000E-003    6.743814607501779E-012
 -9.699999999999999E-003    7.068001518917355E-012
 -9.599999999999999E-003    7.126003049845393E-012
 -9.500000000000000E-003    6.888975313046127E-012
 -9.399999999999999E-003    6.336717690786608E-012
 -9.299999999999999E-003    5.458853691169617E-012
 -9.200000000000000E-003    4.255835700663675E-012
 -9.099999999999999E-003    2.739799465942323E-012
 -8.999999999999999E-003    9.352710531293714E-013
 -8.900000000000000E-003   -1.120260575666450E-012
 -8.799999999999999E-003   -3.375951875071408E-012
 -8.699999999999999E-003   -5.767456803912996E-012
 -8.600000000000000E-003   -8.217103020094130E-012
 -8.499999999999999E-003   -1.063453805260776E-011
 -8.399999999999999E-003   -1.291798394404500E-011
 -8.300000000000000E-003   -1.495625620700900E-011
 -8.199999999999999E-003   -1.663166358990155E-011
 -8.100000000000000E-003   -1.782390998672256E-011
 -8.000000000000000E-003   -1.841500780552597E-011
 -7.899999999999999E-003   -1.829516513059730E-011
 -7.800000000000000E-003   -1.736947291136498E-011
 -7.699999999999999E-003   -1.556514725028862E-011
 -7.599999999999999E-003   -1.283895581687168E-011
 -7.499999999999999E-003   -9.184339566967355E-012
 -7.399999999999999E-003   -4.637734689819537E-012
 -7.299999999999999E-003    7.165029503540892E-013
 -7.199999999999999E-003    6.743141890680535E-012
 -7.100000000000000E-003    1.325555357013343E-011
 -6.999999999999999E-003    2.001807019608743E-011
 -6.899999999999999E-003    2.675146583446740E-011
 -6.800000000000000E-003    3.314158456402184E-011
 -6.699999999999999E-003    3.885103106349478E-011
 -6.599999999999999E-003    4.353351020654796E-011
 -6.499999999999999E-003    4.685026481063504E-011
 -6.399999999999999E-003    4.848780714492627E-011
 -6.299999999999999E-003    4.817608290996076E-011
 -6.199999999999999E-003    4.570603808656476E-011
 -6.100000000000000E-003    4.094556710454015E-011
 -5.999999999999999E-003    3.385290902150864E-011
 -5.899999999999999E-003    2.448657599641089E-011
 -5.800000000000000E-003    1.301119763914334E-011
 -5.699999999999999E-003   -3.012099194370420E-013
 -5.599999999999999E-003   -1.507479849576720E-011
 -5.499999999999999E-003   -3.083819143342240E-011
 -5.399999999999999E-003   -4.703723772646195E-011
 -5.299999999999999E-003   -6.305177161481939E-011
 -5.199999999999999E-003   -7.821568978862406E-011
 -5.099999999999999E-003   -9.183957437821275E-011
 -4.999999999999999E-003   -1.032350274709384E-010
 -4.899999999999999E-003   -1.117398526518638E-010
 -4.799999999999999E-003   -1.167433317933632E-010
 -4.699999999999999E-003   -1.177108450216197E-010
 -4.599999999999999E-003   -1.142071868175483E-010
 -4.499999999999999E-003   -1.059181116462581E-010
 -4.399999999999999E-003   -9.266952932467703E-011
 -4.299999999999999E-003   -7.444404300890813E-011
 -4.199999999999999E-003   -5.139440878572992E-011
 -4.099999999999999E-003   -2.385335382564253E-011
 -3.999999999999999E-003    7.660397181167688E-012
 -3.899999999999999E-003    4.244075392916805E-011
 -3.799999999999999E-003    7.959789201238213E-011
 -3.699999999999999E-003    1.180675707334207E-010
 -3.599999999999999E-003    1.566267537506532E-010
 -3.499999999999999E-003    1.939159239825620E-010
 -3.399999999999999E-003    2.284685851914556E-010
 -3.299999999999999E-003    2.587480213163870E-010
 -3.199999999999999E-003    2.831910360164403E-010
 -3.099999999999999E-003    3.002581928615619E-010
 -2.999999999999999E-003    3.084895655697136E-010
 -2.899999999999999E-003    3.065644416887355E-010
 -2.799999999999999E-003    2.933631999690030E-010
 -2.699999999999999E-003    2.680292486653253E-010
 -2.599999999999999E-003    2.300283054124881E-010
 -2.499999999999999E-003    1.792026268665875E-010
 -2.399999999999999E-003    1.158174485387828E-010
 -2.299999999999999E-003    4.059710119174000E-011
 -2.199999999999999E-003   -4.525116072842739E-011
 -2.099999999999999E-003   -1.400278374220936E-010
 -1.999999999999999E-003   -2.415468683776609E-010
 -1.899999999999999E-003   -3.471576627987081E-010
 -1.799999999999999E-003   -4.537832259253335E-010
 -1.699999999999999E-003   -5.579737352765483E-010
 -1.599999999999999E-003   -6.559745720154453E-010
 -1.499999999999999E-003   -7.438073364531288E-010
 -1.399999999999999E-003   -8.173621730519432E-010
 -1.299999999999999E-003   -8.724994943013576E-010
 -1.199999999999999E-003   -9.051590889900306E-010
 -1.099999999999999E-003   -9.114752758391708E-010
 -9.999999999999989E-004   -8.878961209883999E-010
 -8.999999999999990E-004   -8.313063165916899E-010
 -7.999999999999990E-004   -7.391514534080828E-010
 -6.999999999999989E-004   -6.095643060782659E-010
 -5.999999999999990E-004   -4.414908898505446E-010
 -4.999999999999989E-004   -2.348159816250161E-010
 -3.999999999999989E-004    9.513249805729993E-012
 -2.999999999999989E-004    2.893686533834550E-010
 -1.999999999999989E-004    6.013290789574672E-010
 -9.999999999999892E-005    9.405805843928927E-010
  1.084202172485504E-018    1.300832997316573E-009
  1.000000000000011E-004    1.674259263079501E-009
  2.000000000000011E-004    2.051465787911956E-009
  3.000000000000011E-004    2.421501163049418E-009
  4.000000000000011E-004    2.771912705791057E-009
  5.000000000000011E-004    3.088859004295470E-009
  6.000000000000011E-004    3.357287306699641E-009
  7.000000000000011E-004    3.561183857456225E-009
  8.000000000000011E-004    3.683900068934221E-009
  9.000000000000012E-004    3.708560829094907E-009
  1.000000000000001E-003    3.618552797226600E-009
  1.100000000000001E-003    3.398090393023806E-009
  1.200000000000001E-003    3.032851300656926E-009
  1.300000000000001E-003    2.510670912148645E-009
  1.400000000000001E-003    1.822278095156620E-009
  1.500000000000001E-003    9.620542163126300E-010
  1.600000000000001E-003   -7.120884920963963E-011
  1.700000000000001E-003   -1.273581913528206E-009
  1.800000000000001E-003   -2.635326143792989E-009
  1.900000000000001E-003   -4.140314496489440E-009
  2.000000000000001E-003   -5.765572462669103E-009
  2.100000000000001E-003   -7.480975066950954E-009
  2.200000000000001E-003   -9.249127350233960E-009
  2.300000000000001E-003   -1.102545991321479E-008
  2.400000000000001E-003   -1.275856043253230E-008
  2.500000000000001E-003   -1.439076580949787E-008
  2.600000000000001E-003   -1.585902627208188E-008
  2.700000000000001E-003   -1.709605124417717E-008
  2.800000000000001E-003   -1.803174021287728E-008
  2.900000000000001E-003   -1.859489096801704E-008
  3.000000000000001E-003   -1.871517177273685E-008
  3.100000000000001E-003   -1.832533633289965E-008
  3.200000000000001E-003   -1.736364986325095E-008
  3.300000000000001E-003   -1.577649030355157E-008
  3.400000000000001E-003   -1.352107493114091E-008
  3.500000000000001E-003   -1.056825906241347E-008
  3.600000000000001E-003   -6.905347634166702E-009
  3.700000000000001E-003   -2.538844903662067E-009
  3.800000000000001E-003    2.502910721166400E-009
  3.900000000000001E-003    8.167332042503324E-009
  4.000000000000001E-003    1.437542738833017E-008
  4.100000000000001E-003    2.102000685901134E-008
  4.200000000000001E-003    2.796431887822331E-008
  4.300000000000001E-003    3.504115403223245E-008
  4.400000000000001E-003    4.205250036043375E-008
  4.500000000000001E-003    4.876979827706511E-008
  4.600000000000002E-003    5.493477850969417E-008
  4.700000000000001E-003    6.026095938747792E-008
  4.800000000000001E-003    6.443576433425307E-008
  4.900000000000002E-003    6.712323322446390E-008
  5.000000000000001E-003    6.796727901092100E-008
  5.100000000000001E-003    6.659548456605759E-008
  5.200000000000001E-003    6.262326471423774E-008
  5.300000000000002E-003    5.565836100917474E-008
  5.400000000000001E-003    4.530560543876749E-008
  5.500000000000001E-003    3.117165342696348E-008
  5.600000000000002E-003    1.286980717092271E-008
  5.700000000000001E-003   -9.975488028152664E-009
  5.800000000000001E-003   -3.772433597301393E-008
  5.900000000000002E-003   -7.071755275312976E-008
  6.000000000000001E-003   -1.092733420597684E-007
  6.100000000000001E-003   -1.536848501903365E-007
  6.200000000000002E-003   -2.042180908389071E-007
  6.300000000000002E-003   -2.611110796834508E-007
  6.400000000000001E-003   -3.245735978820060E-007
  6.500000000000001E-003   -3.947879120165890E-007
  6.600000000000002E-003   -4.719105585261473E-007
  6.700000000000001E-003   -5.560747948427737E-007
  6.800000000000001E-003   -6.473941688933371E-007
  6.900000000000002E-003   -7.459666097284809E-007
  7.000000000000001E-003   -8.518797841005766E-007
  7.100000000000001E-003   -9.652162883828251E-007
  7.200000000000002E-003   -1.086060118646855E-006
  7.300000000000002E-003   -1.214503494953261E-006
  7.400000000000001E-003   -1.350653396225567E-006
  7.500000000000001E-003   -1.494638813793013E-006
  7.600000000000002E-003   -1.646618111426838E-006
  7.700000000000001E-003   -1.806785655807645E-006
  7.800000000000001E-003   -1.975379055111185E-006
  7.900000000000001E-003   -2.152684860564239E-006
  8.000000000000002E-003   -2.339045489330787E-006
  8.100000000000001E-003   -2.534863298576683E-006
  8.200000000000001E-003   -2.740606232138704E-006
  8.300000000000002E-003   -2.956811462417587E-006
  8.400000000000001E-003   -3.184087620842764E-006
  8.500000000000002E-003   -3.423118722350778E-006
  8.600000000000002E-003   -3.674664298572848E-006
  8.700000000000001E-003   -3.939561278737435E-006
  8.800000000000002E-003   -4.218723240050095E-006
  8.900000000000002E-003   -4.513140647278868E-006
  9.000000000000001E-003   -4.823880274836879E-006
  9.100000000000002E-003   -5.152082809809453E-006
  9.200000000000002E-003   -5.498963394875779E-006
  9.300000000000001E-003   -5.865809006018898E-006
  9.400000000000002E-003   -6.253978368310748E-006
  9.500000000000001E-003   -6.664900364138984E-006
  9.600000000000001E-003   -7.100073704490095E-006
  9.700000000000002E-003   -7.561066369663001E-006
  9.800000000000001E-003   -8.049517484200377E-006
  9.900000000000001E-003   -8.567138408156129E-006
  1.000000000000000E-002   -9.115712930307549E-006
  1.010000000000000E-002   -9.697100481921282E-006
  1.020000000000000E-002   -1.031323922900502E-005
  1.030000000000000E-002   -1.096614922055039E-005
  1.040000000000000E-002   -1.165793685332301E-005
  1.050000000000000E-002   -1.239079807479265E-005
  1.060000000000000E-002   -1.316702217976297E-005
  1.070000000000000E-002   -1.398899893697070E-005
  1.080000000000000E-002   -1.485922074720005E-005
  1.090000000000000E-002   -1.578029005930555E-005
  1.100000000000000E-002   -1.675492164149562E-005
  1.110000000000000E-002   -1.778594909006819E-005
  1.120000000000000E-002   -1.887633054471807E-005
  1.130000000000000E-002   -2.002915403794932E-005
  1.140000000000000E-002   -2.124764005181676E-005
  1.150000000000000E-002   -2.253514908200045E-005
  1.160000000000000E-002   -2.389519025995073E-005
  1.170000000000000E-002   -2.533142052942492E-005
  1.180000000000000E-002   -2.684766141585614E-005
  1.190000000000000E-002   -2.844789965737199E-005
  1.200000000000000E-002   -3.013629487999099E-005
  1.210000000000000E-002   -3.191718934259621E-005
  1.220000000000000E-002   -3.379511924555677E-005
  1.230000000000000E-002   -3.577482164053157E-005
  1.240000000000000E-002   -3.786124413306416E-005
  1.250000000000000E-002   -4.005955956158818E-005
  1.260000000000000E-002   -4.237517482073448E-005
  1.270000000000000E-002   -4.481374616890728E-005
  1.280000000000000E-002   -4.738118008554821E-005
  1.290000000000000E-002   -5.008367347478800E-005
  1.300000000000000E-002   -5.292769322412910E-005
  1.310000000000000E-002   -5.592001719114080E-005
  1.320000000000000E-002   -5.906773014654084E-005
  1.330000000000000E-002   -6.237825356850053E-005
  1.340000000000000E-002   -6.585934931737766E-005
  1.350000000000000E-002   -6.951913897789599E-005
  1.360000000000000E-002   -7.336611782428322E-005
  1.370000000000000E-002   -7.740916953061504E-005
  1.380000000000000E-002   -8.165757531433733E-005
  1.390000000000000E-002   -8.612103500597274E-005
  1.400000000000000E-002   -9.080967632405486E-005
  1.410000000000000E-002   -9.573406385573602E-005
  1.420000000000000E-002   -1.009052122715904E-004
  1.430000000000000E-002   -1.063346076361977E-004
  1.440000000000000E-002   -1.120342101509356E-004
  1.450000000000000E-002   -1.180164500204930E-004
  1.460000000000000E-002   -1.242942586997476E-004
  1.470000000000000E-002   -1.308810631106198E-004
  1.480000000000000E-002   -1.377907965399805E-004
  1.490000000000000E-002   -1.450379202658412E-004
  1.500000000000000E-002   -1.526374170906452E-004
  1.510000000000000E-002   -1.606048088169086E-004
  1.520000000000000E-002   -1.689561532979480E-004
  1.530000000000000E-002   -1.777080792853608E-004
  1.540000000000000E-002   -1.868777909124127E-004
  1.550000000000000E-002   -1.964830623014832E-004
  1.560000000000000E-002   -2.065422845504822E-004
  1.570000000000000E-002   -2.170744608786180E-004
  1.580000000000000E-002   -2.280992547173167E-004
  1.590000000000000E-002   -2.396369839370297E-004
  1.600000000000000E-002   -2.517086538137797E-004
  1.610000000000000E-002   -2.643359851407039E-004
  1.620000000000000E-002   -2.775414412285809E-004
  1.630000000000000E-002   -2.913482866103592E-004
  1.640000000000000E-002   -3.057805437127437E-004
  1.650000000000000E-002   -3.208631013447967E-004
  1.660000000000000E-002   -3.366216768273367E-004
  1.670000000000000E-002   -3.530828933397621E-004
  1.680000000000000E-002   -3.702742656596796E-004
  1.690000000000000E-002   -3.882242921596153E-004
  1.700000000000000E-002   -4.069624239382128E-004
  1.710000000000000E-002   -4.265190929150449E-004
  1.720000000000000E-002   -4.469257639395631E-004
  1.730000000000000E-002   -4.682149300393664E-004
  1.740000000000000E-002   -4.904201308423106E-004
  1.750000000000000E-002   -5.135759797764509E-004
  1.760000000000000E-002   -5.377181441368049E-004
  1.770000000000000E-002   -5.628834357225359E-004
  1.780000000000000E-002   -5.891097900008670E-004
  1.790000000000000E-002   -6.164362024788537E-004
  1.800000000000000E-002   -6.449028036153337E-004
  1.810000000000000E-002   -6.745508920166339E-004
  1.820000000000000E-002   -7.054229331959884E-004
  1.830000000000000E-002   -7.375625199681648E-004
  1.840000000000000E-002   -7.710143675638724E-004
  1.850000000000000E-002   -8.058244184092738E-004
  1.860000000000000E-002   -8.420397694452877E-004
  1.870000000000000E-002   -8.797086814293479E-004