 -4.000000000000000E-002    0.000000000000000E+000
 -3.990000000000000E-002    0.000000000000000E+000
 -3.980000000000000E-002    0.000000000000000E+000
 -3.970000000000000E-002    0.000000000000000E+000
 -3.960000000000000E-002   -5.172276131873530E-019
 -3.950000000000000E-002   -4.234631943573199E-017
 -3.940000000000000E-002   -3.325241198954935E-016
 -3.930000000000000E-002   -1.438533718209251E-015
 -3.920000000000000E-002   -4.397685690673249E-015
 -3.910000000000000E-002   -1.043701796452905E-014
 -3.900000000000000E-002   -1.992238969057024E-014
 -3.890000000000000E-002   -3.025481368719277E-014
 -3.880000000000000E-002   -3.277737886396683E-014
 -3.870000000000000E-002   -9.342850773288708E-015
 -3.860000000000000E-002    7.008884742407632E-014
 -3.850000000000000E-002    2.468228546040060E-013
 -3.840000000000000E-002    5.675264835716858E-013
 -3.830000000000000E-002    1.071249074351329E-012
 -3.820000000000000E-002    1.768897495557425E-012
 -3.810000000000000E-002    2.616922590614194E-012
 -3.800000000000000E-002    3.489788017015376E-012
 -3.790000000000000E-002    4.158612887461855E-012
 -3.780000000000000E-002    4.285348370184169E-012
 -3.770000000000000E-002    3.442064979742725E-012
 -3.760000000000000E-002    1.162642205514958E-012
 -3.750000000000000E-002   -2.971037267575646E-012
 -3.740000000000000E-002   -9.213952947962088E-012
 -3.730000000000000E-002   -1.752867778899683E-011
 -3.720000000000000E-002   -2.746560327916033E-011
 -3.710000000000000E-002   -3.808264643713102E-011
 -3.700000000000000E-002   -4.793581557185756E-011
 -3.690000000000000E-002   -5.516667572423589E-011
 -3.680000000000000E-002   -5.770010793362370E-011
 -3.670000000000000E-002   -5.354627057624929E-011
 -3.660000000000000E-002   -4.117712688854931E-011
 -3.650000000000000E-002   -1.992420945673202E-011
 -3.640000000000000E-002    9.674473715075546E-012
 -3.630000000000000E-002    4.565894347214420E-011
 -3.620000000000000E-002    8.463783385770801E-011
 -3.610000000000000E-002    1.220373088393221E-010
 -3.600000000000000E-002    1.526222794837558E-010
 -3.590000000000000E-002    1.712544532009260E-010
 -3.580000000000000E-002    1.737982366522609E-010
 -3.570000000000000E-002    1.580380573618073E-010
 -3.560000000000000E-002    1.244399560060038E-010
 -3.550000000000000E-002    7.658475622184736E-011
 -3.540000000000000E-002    2.112705935811933E-011
 -3.530000000000000E-002   -3.280734428171947E-011
 -3.520000000000000E-002   -7.478672218355058E-011
 -3.510000000000000E-002   -9.470153273238478E-011
 -3.500000000000000E-002   -8.465465951327075E-011
 -3.490000000000000E-002   -4.083218210407249E-011
 -3.480000000000000E-002    3.497103531453384E-011
 -3.470000000000000E-002    1.344892154413728E-010
 -3.460000000000000E-002    2.430421901909225E-010
 -3.450000000000000E-002    3.406476264881313E-010
 -3.440000000000000E-002    4.041706931853148E-010
 -3.430000000000000E-002    4.103179365199092E-010
 -3.420000000000000E-002    3.391213346248223E-010
 -3.410000000000000E-002    1.774364582732232E-010
 -3.400000000000000E-002   -7.807600744042640E-011
 -3.390000000000000E-002   -4.189881683245425E-010
 -3.380000000000000E-002   -8.245536146389989E-010
 -3.370000000000000E-002   -1.262770359637434E-009
 -3.360000000000000E-002   -1.693028649092498E-009
 -3.350000000000000E-002   -2.070068345115143E-009
 -3.340000000000000E-002   -2.348756741401037E-009
 -3.330000000000000E-002   -2.489049761162928E-009
 -3.320000000000000E-002   -2.460452869896412E-009
 -3.310000000000000E-002   -2.245360241126362E-009
 -3.300000000000000E-002   -1.840819587690182E-009
 -3.290000000000000E-002   -1.258520819799082E-009
 -3.280000000000000E-002   -5.230926742121017E-010
 -3.270000000000000E-002    3.309295600381840E-010
 -3.260000000000000E-002    1.262887236844986E-009
 -3.250000000000000E-002    2.229844144993192E-009
 -3.240000000000000E-002    3.189824713812100E-009
 -3.230000000000000E-002    4.103919797300059E-009
 -3.220000000000000E-002    4.936991858162120E-009
 -3.210000000000000E-002    5.657024845633043E-009
 -3.200000000000000E-002    6.233480750315420E-009
 -3.190000000000000E-002    6.635290635517692E-009
 -3.180000000000000E-002    6.829240978013629E-009
 -3.170000000000000E-002    6.779516191420446E-009
 -3.160000000000000E-002    6.448991492039288E-009
 -3.150000000000000E-002    5.802562832127502E-009
 -3.140000000000000E-002    4.812405715077822E-009
 -3.130000000000000E-002    3.464639360021695E-009
 -3.120000000000000E-002    1.766507377317459E-009
 -3.110000000000000E-002   -2.470553359923100E-010
 -3.100000000000000E-002   -2.508657745965647E-009
 -3.090000000000000E-002   -4.916562293995411E-009
 -3.080000000000000E-002   -7.336410252749267E-009
 -3.070000000000000E-002   -9.606876606696682E-009
 -3.060000000000000E-002   -1.154904341861927E-008
 -3.050000000000000E-002   -1.297880272519846E-008
 -3.040000000000000E-002   -1.372120722456687E-008
 -3.030000000000000E-002   -1.362548880599147E-008
 -3.020000000000000E-002   -1.257942766715756E-008
 -3.010000000000000E-002   -1.052195702422610E-008
 -3.000000000000000E-002   -7.453222891156321E-009
 -2.990000000000000E-002   -3.441740484681015E-009
 -2.980000000000000E-002    1.371282042061439E-009
 -2.970000000000000E-002    6.770023251177879E-009
 -2.960000000000000E-002    1.246392625222141E-008
 -2.950000000000000E-002    1.808872152574472E-008
 -2.940000000000000E-002    2.320813167739873E-008
 -2.930000000000000E-002    2.731605288846413E-008
 -2.920000000000000E-002    2.983937517360923E-008
 -2.910000000000000E-002    3.014190922180343E-008
 -2.900000000000000E-002    2.753010500241311E-008
 -2.890000000000000E-002    2.126126168672025E-008
 -2.880000000000000E-002    1.055476129188846E-008
 -2.870000000000000E-002   -5.393504239378119E-009
 -2.860000000000000E-002   -2.739382138046823E-008
 -2.850000000000000E-002   -5.624328966038105E-008
 -2.840000000000000E-002   -9.270563844052182E-008
 -2.830000000000000E-002   -1.374918174604361E-007
 -2.820000000000000E-002   -1.912428668519830E-007
 -2.810000000000000E-002   -2.545164731042754E-007
 -2.800000000000000E-002   -3.277780378443004E-007
 -2.790000000000000E-002   -4.113965149559791E-007
 -2.780000000000000E-002   -5.056447041497840E-007
 -2.770000000000000E-002   -6.107031225011689E-007
 -2.760000000000000E-002   -7.266658717025445E-007
 -2.750000000000000E-002   -8.535474621478625E-007
 -2.740000000000000E-002   -9.912894880296539E-007
 -2.730000000000000E-002   -1.139766363936424E-006
 -2.720000000000000E-002   -1.298790654097505E-006
 -2.710000000000000E-002   -1.468118895864978E-006
 -2.700000000000000E-002   -1.647459451735314E-006
 -2.690000000000000E-002   -1.836483986831549E-006
 -2.680000000000000E-002   -2.034845570701981E-006
 -2.670000000000000E-002   -2.242203738977326E-006
 -2.660000000000000E-002   -2.458257329883618E-006
 -2.650000000000000E-002   -2.682784998342848E-006
 -2.640000000000000E-002   -2.915690709842286E-006
 -2.630000000000000E-002   -3.157052559851037E-006
 -2.620000000000000E-002   -3.407167961360546E-006
 -2.610000000000000E-002   -3.666593856315064E-006
 -2.600000000000000E-002   -3.936176710295755E-006
 -2.590000000000000E-002   -4.217066628863771E-006
 -2.580000000000000E-002   -4.510717420301545E-006
 -2.570000000000000E-002   -4.818866904233650E-006
 -2.560000000000000E-002   -5.143503583816047E-006
 -2.550000000000000E-002   -5.486815903788818E-006
 -2.540000000000000E-002   -5.851135854562879E-006
 -2.530000000000000E-002   -6.238873482597194E-006
 -2.520000000000000E-002   -6.652453633747186E-006
 -2.510000000000000E-002   -7.094255926879311E-006
 -2.500000000000000E-002   -7.566562820661233E-006
 -2.490000000000000E-002   -8.071519193123455E-006
 -2.480000000000000E-002   -8.611106358941773E-006
 -2.470000000000000E-002   -9.187126726828174E-006
 -2.460000000000000E-002   -9.801205885696927E-006
 -2.450000000000000E-002   -1.045480568598988E-005
 -2.440000000000000E-002   -1.114924972406083E-005
 -2.430000000000000E-002   -1.188576004476506E-005
 -2.420000000000000E-002   -1.266550340558460E-005
 -2.410000000000000E-002   -1.348964594964605E-005
 -2.400000000000000E-002   -1.435941539016969E-005
 -2.390000000000000E-002   -1.527616327366173E-005
 -2.380000000000000E-002   -1.624143995725028E-005
 -2.370000000000000E-002   -1.725705287149818E-005
 -2.360000000000000E-002   -1.832513580723919E-005
 -2.350000000000000E-002   -1.944819974744625E-005
 -2.340000000000000E-002   -2.062917035999130E-005
 -2.330000000000000E-002   -2.187141645478776E-005
 -2.320000000000000E-002   -2.317875210931041E-005
 -2.310000000000000E-002   -2.455541796731838E-005
 -2.300000000000000E-002   -2.600605477399917E-005
 -2.290000000000000E-002   -2.753563949657256E-005
 -2.280000000000000E-002   -2.914943015262783E-005
 -2.270000000000000E-002   -3.085289267578405E-005
 -2.260000000000000E-002   -3.265162743503122E-005
 -2.250000000000000E-002   -3.455130921768068E-005
 -2.240000000000000E-002   -3.655763665304366E-005
 -2.230000000000000E-002   -3.867629641337755E-005
 -2.220000000000000E-002   -4.091294799510427E-005
 -2.210000000000000E-002   -4.327323918405943E-005
 -2.200000000000000E-002   -4.576282953480665E-005
 -2.190000000000000E-002   -4.838743637957964E-005
 -2.180000000000000E-002   -5.115288993264952E-005
 -2.170000000000000E-002   -5.406519306135651E-005
 -2.160000000000000E-002   -5.713059337608831E-005
 -2.150000000000000E-002   -6.035564180064197E-005
 -2.140000000000000E-002   -6.374725082995110E-005
 -2.130000000000000E-002   -6.731274545847457E-005
 -2.120000000000000E-002   -7.105989512984332E-005
 -2.110000000000000E-002   -7.499695665999513E-005
 -2.100000000000000E-002   -7.913266750404691E-005
 -2.090000000000000E-002   -8.347628877669982E-005
 -2.080000000000000E-002   -8.803759120916689E-005
 -2.070000000000000E-002   -9.282686316795844E-005
 -2.060000000000000E-002   -9.785490545581420E-005
 -2.050000000000000E-002   -1.031330274376512E-004
 -2.040000000000000E-002   -1.086730346912091E-004
 -2.030000000000000E-002   -1.144872278670283E-004
 -2.020000000000000E-002   -1.205883792511869E-004
 -2.010000000000000E-002   -1.269897574238486E-004
 -2.000000000000000E-002   -1.337050818586442E-004
 -1.990000000000000E-002   -1.407485648871747E-004
 -1.980000000000000E-002   -1.481348783595716E-004
 -1.970000000000000E-002   -1.558792058114101E-004
 -1.960000000000000E-002   -1.639971960124446E-004
 -1.950000000000000E-002   -1.725050514653847E-004
 -1.940000000000000E-002   -1.814195149126850E-004
 -1.930000000000000E-002   -1.907578963838084E-004
 -1.920000000000000E-002   -2.005381040456894E-004
 -1.910000000000000E-002   -2.107786960820410E-004
 -1.900000000000000E-002   -2.214988654907874E-004
 -1.890000000000000E-002   -2.327185192521555E-004
 -1.880000000000000E-002   -2.444582357215836E-004
 -1.870000000000000E-002   -2.567393427141311E-004
 -1.860000000000000E-002   -2.695839192353886E-004
 -1.850000000000000E-002   -2.830148244169168E-004
 -1.840000000000000E-002   -2.970556810382938E-004
 -1.830000000000000E-002   -3.117309747057039E-004
 -1.820000000000000E-002   -3.270660128882968E-004
 -1.810000000000000E-002   -3.430869847172159E-004
 -1.800000000000000E-002   -3.598209932362347E-004
 -1.790000000000000E-002   -3.772960515413251E-004
 -1.780000000000000E-002   -3.955411688762087E-004
 -1.770000000000000E-002   -4.145863391024226E-004
 -1.760000000000000E-002   -4.344624971357790E-004
 -1.750000000000000E-002   -4.552016169035992E-004
 -1.740000000000000E-002   -4.768366528808337E-004
 -1.730000000000000E-002   -4.994015535321801E-004
 -1.720000000000000E-002   -5.229312875296187E-004
 -1.710000000000000E-002   -5.474618065329828E-004
 -1.700000000000000E-002   -5.730299818774174E-004
 -1.690000000000000E-002   -5.996736640580772E-004
 -1.680000000000000E-002   -6.274316828028751E-004
 -1.670000000000000E-002   -6.563438005995972E-004
 -1.660000000000000E-002   -6.864507957667921E-004
 -1.650000000000000E-002   -7.177944343673162E-004
 -1.640000000000000E-002   -7.504175674356732E-004
 -1.630000000000000E-002   -7.843640258358130E-004
 -1.620000000000000E-002   -8.196787435440147E-004
 -1.610000000000000E-002   -8.564078703805487E-004
 -1.600000000000000E-002   -8.945986305999020E-004
 -1.590000000000000E-002   -9.342995267486823E-004
 -1.580000000000000E-002   -9.755603302912822E-004
 -1.570000000000000E-002   -1.018432000732197E-003
 -1.560000000000000E-002   -1.062966900349737E-003
 -1.550000000000000E-002   -1.109218646183376E-003
 -1.540000000000000E-002   -1.157242246948821E-003
 -1.530000000000000E-002   -1.207093863228251E-003
 -1.520000000000000E-002   -1.258830987587895E-003
 -1.510000000000000E-002   -1.312512270406927E-003
 -1.500000000000000E-002   -1.368197460883024E-003
 -1.490000000000000E-002   -1.425947525467445E-003
 -1.480000000000000E-002   -1.485824366746770E-003
 -1.470000000000000E-002   -1.547890865610199E-003
 -1.460000000000000E-002   -1.612211044793927E-003
 -1.450000000000000E-002   -1.678849624215772E-003
 -1.440000000000000E-002   -1.747872485658468E-003
 -1.430000000000000E-002   -1.819346352226857E-003
 -1.420000000000000E-002   -1.893338967453620E-003
 -1.410000000000000E-002   -1.969919090856677E-003
 -1.400000000000000E-002   -2.049156481278842E-003
 -1.390000000000000E-002   -2.131122049951160E-003
 -1.380000000000000E-002   -2.215887651885748E-003
 -1.370000000000000E-002   -2.303526334879612E-003
 -1.360000000000000E-002   -2.394112152637453E-003
 -1.350000000000000E-002   -2.487719913265342E-003
 -1.340000000000000E-002   -2.584425320660274E-003
 -1.330000000000000E-002   -2.684304940267568E-003
 -1.320000000000000E-002   -2.787435876192985E-003
 -1.310000000000000E-002   -2.893895920460679E-003
 -1.300000000000000E-002   -3.003763570730014E-003
 -1.290000000000000E-002   -3.117117453650910E-003
 -1.280000000000000E-002   -3.234037005222869E-003
 -1.270000000000000E-002   -3.354601505065535E-003
 -1.260000000000000E-002   -3.478891077624611E-003
 -1.250000000000000E-002   -3.606985765288195E-003
 -1.240000000000000E-002   -3.738965973109247E-003
 -1.230000000000000E-002   -3.874912214155528E-003
 -1.220000000000000E-002   -4.014905281668831E-003
 -1.210000000000000E-002   -4.159025276137614E-003
 -1.200000000000000E-002   -4.307352259081326E-003
 -1.190000000000000E-002   -4.459965868170220E-003
 -1.180000000000000E-002   -4.616945917995497E-003
 -1.170000000000000E-002   -4.778370071694963E-003
 -1.160000000000000E-002   -4.944315826232301E-003
 -1.150000000000000E-002   -5.114859705901136E-003
 -1.140000000000000E-002   -5.290076901043452E-003
 -1.130000000000000E-002   -5.470041326252352E-003
 -1.120000000000000E-002   -5.654825659474930E-003
 -1.110000000000000E-002   -5.844501049119342E-003
 -1.100000000000000E-002   -6.039136915538913E-003
 -1.090000000000000E-002   -6.238801241333580E-003
 -1.080000000000000E-002   -6.443560416803637E-003
 -1.070000000000000E-002   -6.653478574013796E-003
 -1.060000000000000E-002   -6.868617267283635E-003
 -1.050000000000000E-002   -7.089036877845887E-003
 -1.040000000000000E-002   -7.314794917497345E-003
 -1.030000000000000E-002   -7.545945862414928E-003
 -1.020000000000000E-002   -7.782541617557135E-003
 -1.010000000000000E-002   -8.024631323288046E-003
 -1.000000000000000E-002   -8.272259963822750E-003
 -9.899999999999999E-003   -8.525469219666636E-003
 -9.800000000000000E-003   -8.784297102840826E-003
 -9.699999999999999E-003   -9.048778332996124E-003
 -9.599999999999999E-003   -9.318943158483816E-003
 -9.500000000000000E-003   -9.594816809272905E-003
 -9.399999999999999E-003   -9.876420313804368E-003
 -9.299999999999999E-003   -1.016377046486163E-002
 -9.200000000000000E-003   -1.045687866371958E-002
 -9.099999999999999E-003   -1.075575001579012E-002
 -8.999999999999999E-003   -1.106038377721860E-002
 -8.900000000000000E-003   -1.137077523616842E-002
 -8.799999999999999E-003   -1.168691227191646E-002
 -8.699999999999999E-003   -1.200877625482067E-002
 -8.600000000000000E-003   -1.233634155727800E-002
 -8.499999999999999E-003   -1.266957549156714E-002
 -8.399999999999999E-003   -1.300843915484192E-002
 -8.300000000000000E-003   -1.335288609796370E-002
 -8.199999999999999E-003   -1.370286185842228E-002
 -8.100000000000000E-003   -1.405830349708405E-002
 -8.000000000000000E-003   -1.441914118878416E-002
 -7.899999999999999E-003   -1.478529657543541E-002
 -7.800000000000000E-003   -1.515668259007964E-002
 -7.699999999999999E-003   -1.553320257621287E-002
 -7.599999999999999E-003   -1.591475054457910E-002
 -7.499999999999999E-003   -1.630121204354668E-002
 -7.399999999999999E-003   -1.669246197877402E-002
 -7.299999999999999E-003   -1.708836555789027E-002
 -7.199999999999999E-003   -1.748877885635206E-002
 -7.100000000000000E-003   -1.789354427670032E-002
 -6.999999999999999E-003   -1.830249405003931E-002
 -6.899999999999999E-003   -1.871545047487886E-002
 -6.800000000000000E-003   -1.913222553763841E-002
 -6.699999999999999E-003   -1.955261699321217E-002
 -6.599999999999999E-003   -1.997641280605053E-002
 -6.499999999999999E-003   -2.040338881847217E-002
 -6.399999999999999E-003   -2.083330839105110E-002
 -6.299999999999999E-003   -2.126592266656863E-002
 -6.199999999999999E-003   -2.170097059870647E-002
 -6.100000000000000E-003   -2.213817648606203E-002
 -5.999999999999999E-003   -2.257725227702667E-002
 -5.899999999999999E-003   -2.301789532032155E-002
 -5.800000000000000E-003   -2.345979254790286E-002
 -5.699999999999999E-003   -2.390261451972767E-002
 -5.599999999999999E-003   -2.434601716087262E-002
 -5.499999999999999E-003   -2.478964604850597E-002
 -5.399999999999999E-003   -2.523312892146092E-002
 -5.299999999999999E-003   -2.567608121423438E-002
 -5.199999999999999E-003   -2.611810349312066E-002
 -5.099999999999999E-003   -2.655878205811714E-002
 -4.999999999999999E-003   -2.699768786706465E-002
 -4.899999999999999E-003   -2.743437792175085E-002
 -4.799999999999999E-003   -2.786839616685556E-002
 -4.699999999999999E-003   -2.829926835429922E-002
 -4.599999999999999E-003   -2.872651014280752E-002
 -4.499999999999999E-003   -2.914961816968891E-002
 -4.399999999999999E-003   -2.956807723620185E-002
 -4.299999999999999E-003   -2.998135764099087E-002
 -4.199999999999999E-003   -3.038891239614123E-002
 -4.099999999999999E-003   -3.079018347578608E-002
 -3.999999999999999E-003   -3.118459558590325E-002
 -3.899999999999999E-003   -3.157156031166422E-002
 -3.799999999999999E-003   -3.195047554474104E-002
 -3.699999999999999E-003   -3.232072657485276E-002
 -3.599999999999999E-003   -3.268168149939284E-002
 -3.499999999999999E-003   -3.303269729980255E-002
 -3.399999999999999E-003   -3.337311743665842E-002
 -3.299999999999999E-003   -3.370227074568419E-002
 -3.199999999999999E-003   -3.401947660218032E-002
 -3.099999999999999E-003   -3.432403597537752E-002
 -2.999999999999999E-003   -3.461524393815574E-002
 -2.899999999999999E-003   -3.489238322649917E-002
 -2.799999999999999E-003   -3.515472012762664E-002
 -2.699999999999999E-003   -3.540151344827161E-002
 -2.599999999999999E-003   -3.563201388867007E-002
 -2.499999999999999E-003   -3.584545669825020E-002
 -2.399999999999999E-003   -3.604107223742328E-002
 -2.299999999999999E-003   -3.621807795478212E-002
 -2.199999999999999E-003   -3.637568664882447E-002
 -2.099999999999999E-003   -3.651309797193705E-002
 -1.999999999999999E-003   -3.662950984867772E-002
 -1.899999999999999E-003   -3.672410692258805E-002
 -1.799999999999999E-003   -3.679607378636723E-002
 -1.699999999999999E-003   -3.684458594891099E-002
 -1.599999999999999E-003   -3.686881490205217E-002
 -1.499999999999999E-003   -3.686793107021366E-002
 -1.399999999999999E-003   -3.684109763738681E-002
 -1.299999999999999E-003   -3.678747879795097E-002
 -1.199999999999999E-003   -3.670623184675861E-002
 -1.099999999999999E-003   -3.659651940202932E-002
 -9.999999999999989E-004   -3.645750208855167E-002
 -8.999999999999990E-004   -3.628834134246967E-002
 -7.999999999999990E-004   -3.608820016379651E-002
 -6.999999999999989E-004   -3.585624683602413E-002
 -5.999999999999990E-004   -3.559165187650962E-002
 -4.999999999999989E-004   -3.529358836691615E-002
 -3.999999999999989E-004   -3.496123766486144E-002
 -2.999999999999989E-004   -3.459378987671886E-002
 -1.999999999999989E-004   -3.419044015887319E-002
 -9.999999999999892E-005   -3.375039436058039E-002
  1.084202172485504E-018   -3.327286924707935E-002
  1.000000000000011E-004   -3.275709246952786E-002
  2.000000000000011E-004   -3.220230274768428E-002
  3.000000000000011E-004   -3.160775399827799E-002
  4.000000000000011E-004   -3.097271343445472E-002
  5.000000000000011E-004   -3.029646533287543E-002
  6.000000000000011E-004   -2.957831071022131E-002
  7.000000000000011E-004   -2.881757038652925E-002
  8.000000000000011E-004   -2.801358230861258E-002
  9.000000000000012E-004   -2.716570508608837E-002
  1.000000000000001E-003   -2.627332116868728E-002
  1.100000000000001E-003   -2.533583372188913E-002
  1.200000000000001E-003   -2.435267168978122E-002
  1.300000000000001E-003   -2.332328698994660E-002
  1.400000000000001E-003   -2.224716410485650E-002
  1.500000000000001E-003   -2.112380985339950E-002
  1.600000000000001E-003   -1.995276444311143E-002
  1.700000000000001E-003   -1.873359595316808E-002
  1.800000000000001E-003   -1.746590542136845E-002
  1.900000000000001E-003   -1.614932735209799E-002
  2.000000000000001E-003   -1.478352925519324E-002
  2.100000000000001E-003   -1.336821624195518E-002
  2.200000000000001E-003   -1.190312834868320E-002
  2.300000000000001E-003   -1.038804403206564E-002
  2.400000000000001E-003   -8.822780879760357E-003
  2.500000000000001E-003   -7.207194694238126E-003
  2.600000000000001E-003   -5.541184559517813E-003
  2.700000000000001E-003   -3.824690088000959E-003
  2.800000000000001E-003   -2.057694431030621E-003
  2.900000000000001E-003   -2.402256859677569E-004
  3.000000000000001E-003    1.627643782116559E-003
  3.100000000000001E-003    3.545794268179706E-003
  3.200000000000001E-003    5.514058037884440E-003
  3.300000000000001E-003    7.532220754919278E-003
  3.400000000000001E-003    9.600019958446237E-003
  3.500000000000001E-003    1.171714189449298E-002
  3.600000000000001E-003    1.388322177228740E-002
  3.700000000000001E-003    1.609784360741135E-002
  3.800000000000001E-003    1.836054153716550E-002
  3.900000000000001E-003    2.067079507307241E-002
  4.000000000000001E-003    2.302803220102150E-002
  4.100000000000001E-003    2.543162475039589E-002
  4.200000000000001E-003    2.788089373279572E-002
  4.300000000000001E-003    3.037510699361194E-002
  4.400000000000001E-003    3.291347057794469E-002
  4.500000000000001E-003    3.549514318082261E-002
  4.600000000000002E-003    3.811922237013527E-002
  4.700000000000001E-003    4.078475353612026E-002
  4.800000000000001E-003    4.349072134058622E-002
  4.900000000000002E-003    4.623605844566907E-002
  5.000000000000001E-003    4.901963787818768E-002
  5.100000000000001E-003    5.184028036500103E-002
  5.200000000000001E-003    5.469674957850253E-002
  5.300000000000002E-003    5.758775238758139E-002
  5.400000000000001E-003    6.051193355387295E-002
  5.500000000000001E-003    6.346789196997658E-002
  5.600000000000002E-003    6.645416686604182E-002
  5.700000000000001E-003    6.946924632707124E-002
  5.800000000000001E-003    7.251156339421708E-002
  5.900000000000002E-003    7.557949920256397E-002
  6.000000000000001E-003    7.867138316879138E-002
  6.100000000000001E-003    8.178548062478808E-002
  6.200000000000002E-003    8.492002655196344E-002
  6.300000000000002E-003    8.807319051833826E-002
  6.400000000000001E-003    9.124310328140242E-002
  6.500000000000001E-003    9.442783608463112E-002
  6.600000000000002E-003    9.762541979218581E-002
  6.700000000000001E-003    0.100833841066248     
  6.800000000000001E-003    0.104051037994227     
  6.900000000000002E-003    0.107274905094497     
  7.000000000000001E-003    0.110503300053594     
  7.100000000000001E-003    0.113734032581229     
  7.200000000000002E-003    0.116964889186798     
  7.300000000000002E-003    0.120193589935522     
  7.400000000000001E-003    0.123417845759695     
  7.500000000000001E-003    0.126635329155185     
  7.600000000000002E-003    0.129843673273135     
  7.700000000000001E-003    0.133040483894890     
  7.800000000000001E-003    0.136223345801266     
  7.900000000000001E-003    0.139389808038763     
  8.000000000000002E-003    0.142537394295252     
  8.100000000000001E-003    0.145663616909528     
  8.200000000000001E-003    0.148765967830576     
  8.300000000000002E-003    0.151841905233510     
  8.400000000000001E-003    0.154888881073164     
  8.500000000000002E-003    0.157904343659716     
  8.600000000000002E-003    0.160885728711997     
  8.700000000000001E-003    0.163830451121338     
  8.800000000000002E-003    0.166735929905009     
  8.900000000000002E-003    0.169599580379005     
  9.000000000000001E-003    0.172418808102481     
  9.100000000000002E-003    0.175191024289766     
  9.200000000000002E-003    0.177913663398626     
  9.300000000000001E-003    0.180584132575842     
  9.400000000000002E-003    0.183199881920366     
  9.500000000000001E-003    0.185758343084924     
  9.600000000000001E-003    0.188256988502158     
  9.700000000000002E-003    0.190693295154680     
  9.800000000000001E-003    0.193064765158466     
  9.900000000000001E-003    0.195368926414987     
  1.000000000000000E-002    0.197603316446197     
  1.010000000000000E-002    0.199765530147505     
  1.020000000000000E-002    0.201853157765186     
  1.030000000000000E-002    0.203863855900537     
  1.040000000000000E-002    0.205795300156339     
  1.050000000000000E-002    0.207645212033226     
  1.060000000000000E-002    0.209411357958765     
  1.070000000000000E-002    0.211091535124775     
  1.080000000000000E-002    0.212683602364346     
  1.090000000000000E-002    0.214185451464662     
  1.100000000000000E-002    0.215595049715894     
  1.110000000000000E-002    0.216910401528051     
  1.120000000000000E-002    0.218129570431692     
  1.130000000000000E-002    0.219250697313589     
  1.140000000000000E-002    0.220271965683211     
  1.150000000000000E-002    0.221191630330525     
  1.160000000000000E-002    0.222008021999117     
  1.170000000000000E-002    0.222719517027346     
  1.180000000000000E-002    0.223324588210526     
  1.190000000000000E-002    0.223821777553981     
  1.200000000000000E-002    0.224209687113736     
  1.210000000000000E-002    0.224487008656203     
  1.220000000000000E-002    0.224652508775419     
  1.230000000000000E-002    0.224705039562689     
  1.240000000000000E-002    0.224643531710673     
  1.250000000000000E-002    0.224466992029087     
  1.260000000000000E-002    0.224174545753172     
  1.270000000000000E-002    0.223765377586952     
  1.280000000000000E-002    0.223238773482302     
  1.290000000000000E-002    0.222594098825101     
  1.300000000000000E-002    0.221830820518301     
  1.310000000000000E-002    0.220948504682317     
  1.320000000000000E-002    0.219946782587819     
  1.330000000000000E-002    0.218825424240602     
  1.340000000000000E-002    0.217584253990566     
  1.350000000000000E-002    0.216223224528632     
  1.360000000000000E-002    0.214742359565852     
  1.370000000000000E-002    0.213141801073688     
  1.380000000000000E-002    0.211421778844536     
  1.390000000000000E-002    0.209582618513171     
  1.400000000000000E-002    0.207624752826541     
  1.410000000000000E-002    0.205548698944285     
  1.420000000000000E-002    0.203355095890393     
  1.430000000000000E-002    0.201044662075966     
  1.440000000000000E-002    0.198618239087478     
  1.450000000000000E-002    0.196076743532370     
  1.460000000000000E-002    0.193421188900474     
  1.470000000000000E-002    0.190652701539429     
  1.480000000000000E-002    0.187772505671328     
  1.490000000000000E-002    0.184781910617467     
  1.500000000000000E-002    0.181682313107930     
  1.510000000000000E-002    0.178475223445650     
  1.520000000000000E-002    0.175162225293377     
  1.530000000000000E-002    0.171745011543453     
  1.540000000000000E-002    0.168225366656705     
  1.550000000000000E-002    0.164605139326794     
  1.560000000000000E-002    0.160886299998001     
  1.570000000000000E-002    0.157070873602018     
  1.580000000000000E-002    0.153160998630860     
  1.590000000000000E-002    0.149158873705624     
  1.600000000000000E-002    0.145066773987617     
  1.610000000000000E-002    0.140887076420605     
  1.620000000000000E-002    0.136622222200562     
  1.630000000000000E-002    0.132274721713188     
  1.640000000000000E-002    0.127847157327045     
  1.650000000000000E-002    0.123342192795758     
  1.660000000000000E-002    0.118762551211845     
  1.670000000000000E-002    0.114111021150177     
  1.680000000000000E-002    0.109390458601166     
  1.690000000000000E-002    0.104603769199793     
  1.700000000000000E-002    9.975392078385897E-002
  1.710000000000000E-002    9.484394429405307E-002
  1.720000000000000E-002    8.987691096316153E-002
  1.730000000000000E-002    8.485594672152713E-002
  1.740000000000000E-002    7.978422404779478E-002
  1.750000000000000E-002    7.466495181867205E-002
  1.760000000000000E-002    6.950138308732016E-002
  1.770000000000000E-002    6.429680807247855E-002
  1.780000000000000E-002    5.905454573150870E-002
  1.790000000000000E-002    5.377795060907715E-002
  1.800000000000000E-002    4.847039757134981E-002
  1.810000000000000E-002    4.313529659419447E-002
  1.820000000000000E-002    3.777606973521967E-002
  1.830000000000000E-002    3.239615747712714E-002
  1.840000000000000E-002    2.699901734531083E-002
  1.850000000000000E-002    2.158811630658893E-002
  1.860000000000000E-002    1.616693041839577E-002
  1.870000000000000E-002    1.073894061271036E-002