 -4.000000000000000E-002    0.000000000000000E+000
 -3.990000000000000E-002    0.000000000000000E+000
 -3.980000000000000E-002    0.000000000000000E+000
 -3.970000000000000E-002    0.000000000000000E+000
 -3.960000000000000E-002    0.000000000000000E+000
 -3.950000000000000E-002    0.000000000000000E+000
 -3.940000000000000E-002    0.000000000000000E+000
 -3.930000000000000E-002    0.000000000000000E+000
 -3.920000000000000E-002   -2.622044117352495E-026
 -3.910000000000000E-002   -3.776377278765882E-025
 -3.900000000000000E-002   -2.839591918056780E-024
 -3.890000000000000E-002   -1.478810389726881E-023
 -3.880000000000000E-002   -5.968958620829130E-023
 -3.870000000000000E-002   -1.980272990133205E-022
 -3.860000000000000E-002   -5.587077963863317E-022
 -3.850000000000000E-002   -1.367133544833767E-021
 -3.840000000000000E-002   -2.926975517705210E-021
 -3.830000000000000E-002   -5.467433896078112E-021
 -3.820000000000000E-002   -8.717211567692077E-021
 -3.810000000000000E-002   -1.104023355678195E-020
 -3.800000000000000E-002   -8.018107359175272E-021
 -3.790000000000000E-002    9.442373371784037E-021
 -3.780000000000000E-002    5.700131598276443E-020
 -3.770000000000000E-002    1.576872648130272E-019
 -3.760000000000000E-002    3.397688015367889E-019
 -3.750000000000000E-002    6.292025500360047E-019
 -3.740000000000000E-002    1.033998675228229E-018
 -3.730000000000000E-002    1.518689854401805E-018
 -3.720000000000000E-002    1.969475800033358E-018
 -3.710000000000000E-002    2.154863832729587E-018
 -3.700000000000000E-002    1.692594796109776E-018
 -3.690000000000000E-002    4.042248221774889E-020
 -3.680000000000000E-002   -3.465903133502175E-018
 -3.670000000000000E-002   -9.502015896489204E-018
 -3.660000000000000E-002   -1.855100937047782E-017
 -3.650000000000000E-002   -3.060005088523210E-017
 -3.640000000000000E-002   -4.475711341518636E-017
 -3.630000000000000E-002   -5.884324161475165E-017
 -3.620000000000000E-002   -6.905695975984481E-017
 -3.610000000000000E-002   -6.984506052333855E-017
 -3.600000000000000E-002   -5.413588678032993E-017
 -3.590000000000000E-002   -1.408319824870400E-017
 -3.580000000000000E-002    5.758111082141583E-017
 -3.570000000000000E-002    1.655858523295290E-016
 -3.560000000000000E-002    3.096948052951713E-016
 -3.550000000000000E-002    4.821326345203042E-016
 -3.540000000000000E-002    6.653496471277914E-016
 -3.530000000000000E-002    8.307399566940134E-016
 -3.520000000000000E-002    9.389671250885061E-016
 -3.510000000000000E-002    9.424611205792272E-016
 -3.500000000000000E-002    7.904100004370519E-016
 -3.490000000000000E-002    4.361830436917042E-016
 -3.480000000000000E-002   -1.533653914611713E-016
 -3.470000000000000E-002   -9.877723220167446E-016
 -3.460000000000000E-002   -2.043514145341771E-015
 -3.450000000000000E-002   -3.256949811851739E-015
 -3.440000000000000E-002   -4.521327380099997E-015
 -3.430000000000000E-002   -5.689133642159966E-015
 -3.420000000000000E-002   -6.580365548102906E-015
 -3.410000000000000E-002   -6.996402658779953E-015
 -3.400000000000000E-002   -6.738241689503731E-015
 -3.390000000000000E-002   -5.627135551034643E-015
 -3.380000000000000E-002   -3.525376085665861E-015
 -3.370000000000000E-002   -3.552151062100814E-016
 -3.360000000000000E-002    3.885284124077951E-015
 -3.350000000000000E-002    9.109486000471634E-015
 -3.340000000000000E-002    1.513132194702298E-014
 -3.330000000000000E-002    2.165435508267493E-014
 -3.320000000000000E-002    2.825896398284962E-014
 -3.310000000000000E-002    3.438730046912558E-014
 -3.300000000000000E-002    3.932850742936748E-014
 -3.290000000000000E-002    4.221064127455725E-014
 -3.280000000000000E-002    4.200989509420233E-014
 -3.270000000000000E-002    3.759099573825241E-014
 -3.260000000000000E-002    2.779351964907965E-014
 -3.250000000000000E-002    1.157590429085533E-014
 -3.240000000000000E-002   -1.177869435974862E-014
 -3.230000000000000E-002   -4.240300624991249E-014
 -3.220000000000000E-002   -7.955728658983327E-014
 -3.210000000000000E-002   -1.213540717730738E-013
 -3.200000000000000E-002   -1.645536063733003E-013
 -3.190000000000000E-002   -2.044966176068667E-013
 -3.180000000000000E-002   -2.352397281238096E-013
 -3.170000000000000E-002   -2.499439106040035E-013
 -3.160000000000000E-002   -2.415370292659761E-013
 -3.150000000000000E-002   -2.036288132438223E-013
 -3.140000000000000E-002   -1.316061389588595E-013
 -3.130000000000000E-002   -2.378538012704960E-014
 -3.120000000000000E-002    1.175433831261830E-013
 -3.110000000000000E-002    2.853680200828637E-013
 -3.100000000000000E-002    4.676845226982610E-013
 -3.090000000000000E-002    6.478504833696619E-013
 -3.080000000000000E-002    8.056367538167276E-013
 -3.070000000000000E-002    9.189564012837087E-013
 -3.060000000000000E-002    9.661431540309123E-013
 -3.050000000000000E-002    9.285479312946065E-013
 -3.040000000000000E-002    7.931437716785063E-013
 -3.030000000000000E-002    5.547934308893898E-013
 -3.020000000000000E-002    2.178496421947050E-013
 -3.010000000000000E-002   -2.031680208206283E-013
 -3.000000000000000E-002   -6.839546810283507E-013
 -2.990000000000000E-002   -1.191844169961995E-012
 -2.980000000000000E-002   -1.688105054381349E-012
 -2.970000000000000E-002   -2.130812627867391E-012
 -2.960000000000000E-002   -2.477930418174730E-012
 -2.950000000000000E-002   -2.690236026589376E-012
 -2.940000000000000E-002   -2.733810134894794E-012
 -2.930000000000000E-002   -2.581951209634077E-012
 -2.920000000000000E-002   -2.216557190694175E-012
 -2.910000000000000E-002   -1.629187280202487E-012
 -2.900000000000000E-002   -8.221223261349479E-013
 -2.890000000000000E-002    1.902428864029908E-013
 -2.880000000000000E-002    1.379459685025024E-012
 -2.870000000000000E-002    2.700560424118927E-012
 -2.860000000000000E-002    4.089417094715407E-012
 -2.850000000000000E-002    5.460629433683090E-012
 -2.840000000000000E-002    6.706942661526960E-012
 -2.830000000000000E-002    7.701340318460041E-012
 -2.820000000000000E-002    8.302879148316251E-012
 -2.810000000000000E-002    8.366966958664330E-012
 -2.800000000000000E-002    7.760153754185071E-012
 -2.790000000000000E-002    6.378662828316034E-012
 -2.780000000000000E-002    4.168949704765236E-012
 -2.770000000000000E-002    1.147711014999623E-012
 -2.760000000000000E-002   -2.581849117869823E-012
 -2.750000000000000E-002   -6.820868917440098E-012
 -2.740000000000000E-002   -1.127582164254346E-011
 -2.730000000000000E-002   -1.557172854182398E-011
 -2.720000000000000E-002   -1.927821781187279E-011
 -2.710000000000000E-002   -2.194723415899943E-011
 -2.700000000000000E-002   -2.315929577962634E-011
 -2.690000000000000E-002   -2.257348715755242E-011
 -2.680000000000000E-002   -1.997521742273827E-011
 -2.670000000000000E-002   -1.531536189017443E-011
 -2.660000000000000E-002   -8.734930692564034E-012
 -2.650000000000000E-002   -5.709133511316945E-013
 -2.640000000000000E-002    8.658854674194899E-012
 -2.630000000000000E-002    1.829121004937773E-011
 -2.620000000000000E-002    2.757026825615946E-011
 -2.610000000000000E-002    3.571141870390721E-011
 -2.600000000000000E-002    4.196949269515591E-011
 -2.590000000000000E-002    4.570345830903904E-011
 -2.580000000000000E-002    4.643070806558035E-011
 -2.570000000000000E-002    4.386583996926799E-011
 -2.560000000000000E-002    3.794141253518609E-011
 -2.550000000000000E-002    2.881094922436113E-011
 -2.540000000000000E-002    1.683703593412743E-011
 -2.530000000000000E-002    2.569089037308581E-012
 -2.520000000000000E-002   -1.328413203769949E-011
 -2.510000000000000E-002   -2.988288727214145E-011
 -2.500000000000000E-002   -4.628324459264877E-011
 -2.490000000000000E-002   -6.146254964842311E-011
 -2.480000000000000E-002   -7.434656188534344E-011
 -2.470000000000000E-002   -8.384337990616144E-011
 -2.460000000000000E-002   -8.889012260803463E-011
 -2.450000000000000E-002   -8.851740281831785E-011
 -2.440000000000000E-002   -8.193379227204932E-011
 -2.430000000000000E-002   -6.862799345244693E-011
 -2.420000000000000E-002   -4.848089145235632E-011
 -2.410000000000000E-002   -2.187440640027746E-011
 -2.400000000000000E-002    1.022052510335365E-011
 -2.390000000000000E-002    4.619616301157572E-011
 -2.380000000000000E-002    8.381896273925910E-011
 -2.370000000000000E-002    1.203131312273723E-010
 -2.360000000000000E-002    1.525228197319080E-010
 -2.350000000000000E-002    1.771487541301788E-010
 -2.340000000000000E-002    1.910437694057625E-010
 -2.330000000000000E-002    1.915410999366720E-010
 -2.320000000000000E-002    1.767809689615266E-010
 -2.310000000000000E-002    1.459969907578552E-010
 -2.300000000000000E-002    9.972452488561085E-011
 -2.290000000000000E-002    3.989926115649449E-011
 -2.280000000000000E-002   -3.017441027002305E-011
 -2.270000000000000E-002   -1.059917661982521E-010
 -2.260000000000000E-002   -1.821431948664949E-010
 -2.250000000000000E-002   -2.527118836874640E-010
 -2.240000000000000E-002   -3.117368783017719E-010
 -2.230000000000000E-002   -3.536971380080573E-010
 -2.220000000000000E-002   -3.739704517636011E-010
 -2.210000000000000E-002   -3.692252045707122E-010
 -2.200000000000000E-002   -3.377125498502258E-010
 -2.190000000000000E-002   -2.794384512880695E-010
 -2.180000000000000E-002   -1.962098313452867E-010
 -2.170000000000000E-002   -9.156097238622739E-011
 -2.160000000000000E-002    2.942306939563372E-011
 -2.150000000000000E-002    1.603642434253586E-010
 -2.140000000000000E-002    2.939072314442349E-010
 -2.130000000000000E-002    4.220734296690950E-010
 -2.120000000000000E-002    5.366388902180508E-010
 -2.110000000000000E-002    6.295285098525566E-010
 -2.100000000000000E-002    6.932234900418667E-010
 -2.090000000000000E-002    7.211807466365695E-010
 -2.080000000000000E-002    7.082601558654204E-010
 -2.070000000000000E-002    6.511489539970215E-010
 -2.060000000000000E-002    5.487624016781441E-010
 -2.050000000000000E-002    4.025873588359184E-010
 -2.040000000000000E-002    2.169283257876101E-010
 -2.030000000000000E-002   -9.923038859151982E-013
 -2.020000000000000E-002   -2.411250415530827E-010
 -2.010000000000000E-002   -4.909108425524990E-010
 -2.000000000000000E-002   -7.358435809997553E-010
 -1.990000000000000E-002   -9.602698787631416E-010
 -1.980000000000000E-002   -1.148390989724668E-009
 -1.970000000000000E-002   -1.285401598822367E-009
 -1.960000000000000E-002   -1.358675933768417E-009
 -1.950000000000000E-002   -1.358895835965165E-009
 -1.940000000000000E-002   -1.281008749033148E-009
 -1.930000000000000E-002   -1.124913116282839E-009
 -1.920000000000000E-002   -8.957894206474571E-010
 -1.910000000000000E-002   -6.040243800637295E-010
 -1.900000000000000E-002   -2.647181411714252E-010
 -1.890000000000000E-002    1.031979794394004E-010
 -1.880000000000000E-002    4.781653177333573E-010
 -1.870000000000000E-002    8.374264422669059E-010
 -1.860000000000000E-002    1.158560278618810E-009
 -1.850000000000000E-002    1.420999971891523E-009
 -1.840000000000000E-002    1.607415513148185E-009
 -1.830000000000000E-002    1.704861054525169E-009
 -1.820000000000000E-002    1.705610105957935E-009
 -1.810000000000000E-002    1.607635797907542E-009
 -1.800000000000000E-002    1.414717007821185E-009
 -1.790000000000000E-002    1.136181661363555E-009
 -1.780000000000000E-002    7.863150446007807E-010
 -1.770000000000000E-002    3.834758319840060E-010
 -1.760000000000000E-002   -5.102929316563206E-011
 -1.750000000000000E-002   -4.942597594820853E-010
 -1.740000000000000E-002   -9.230877883678545E-010
 -1.730000000000000E-002   -1.315715367767760E-009
 -1.720000000000000E-002   -1.653191948958139E-009
 -1.710000000000000E-002   -1.920851855075754E-009
 -1.700000000000000E-002   -2.109566692259329E-009
 -1.690000000000000E-002   -2.216698497802443E-009
 -1.680000000000000E-002   -2.246614921814015E-009
 -1.670000000000000E-002   -2.210623604360872E-009
 -1.660000000000000E-002   -2.126184608877092E-009
 -1.650000000000000E-002   -2.015286194222965E-009
 -1.640000000000000E-002   -1.901896860124123E-009
 -1.630000000000000E-002   -1.808480109753531E-009
 -1.620000000000000E-002   -1.751624877561879E-009
 -1.610000000000000E-002   -1.736932628843001E-009
 -1.600000000000000E-002   -1.753399489968519E-009
 -1.590000000000000E-002   -1.767606953844621E-009
 -1.580000000000000E-002   -1.718115253870865E-009
 -1.570000000000000E-002   -1.510489704085291E-009
 -1.560000000000000E-002   -1.013406670982485E-009
 -1.550000000000000E-002   -5.625745932813023E-011
 -1.540000000000000E-002    1.571389878111963E-009
 -1.530000000000000E-002    4.118232328107801E-009
 -1.520000000000000E-002    7.867436340871995E-009
 -1.510000000000000E-002    1.313066606055420E-008
 -1.500000000000000E-002    2.024010524601254E-008
 -1.490000000000000E-002    2.953885645921059E-008
 -1.480000000000000E-002    4.137017709404359E-008
 -1.470000000000000E-002    5.606619929881754E-008
 -1.460000000000000E-002    7.393677194530391E-008
 -1.450000000000000E-002    9.525905823865616E-008
 -1.440000000000000E-002    1.202686987143154E-007
 -1.430000000000000E-002    1.491528447666669E-007
 -1.420000000000000E-002    1.820457690340638E-007
 -1.410000000000000E-002    2.190271403741190E-007
 -1.400000000000000E-002    2.601230891098943E-007
 -1.390000000000000E-002    3.053101145533275E-007
 -1.380000000000000E-002    3.545213984160916E-007
 -1.370000000000000E-002    4.076552981462031E-007
 -1.360000000000000E-002    4.645853047662988E-007
 -1.350000000000000E-002    5.251713130706155E-007
 -1.340000000000000E-002    5.892712244564779E-007
 -1.330000000000000E-002    6.567524868154311E-007
 -1.320000000000000E-002    7.275033088969088E-007
 -1.310000000000000E-002    8.014427785636525E-007
 -1.300000000000000E-002    8.785300240129435E-007
 -1.290000000000000E-002    9.587721179622248E-007
 -1.280000000000000E-002    1.042230423989458E-006
 -1.270000000000000E-002    1.129025674509597E-006
 -1.260000000000000E-002    1.219341902837587E-006
 -1.250000000000000E-002    1.313429117470823E-006
 -1.240000000000000E-002    1.411604771195729E-006
 -1.230000000000000E-002    1.514254111976002E-006
 -1.220000000000000E-002    1.621829837736208E-006
 -1.210000000000000E-002    1.734850012223547E-006
 -1.200000000000000E-002    1.853895178003171E-006
 -1.190000000000000E-002    1.979604510303371E-006
 -1.180000000000000E-002    2.112670069332328E-006
 -1.170000000000000E-002    2.253830151570592E-006
 -1.160000000000000E-002    2.403860613340744E-006
 -1.150000000000000E-002    2.563566465324865E-006
 -1.140000000000000E-002    2.733770648040017E-006
 -1.130000000000000E-002    2.915304268076976E-006
 -1.120000000000000E-002    3.108994680809478E-006
 -1.110000000000000E-002    3.315656510126609E-006
 -1.100000000000000E-002    3.536081399246679E-006
 -1.090000000000000E-002    3.771031697118262E-006
 -1.080000000000000E-002    4.021235216708689E-006
 -1.070000000000000E-002    4.287384597241237E-006
 -1.060000000000000E-002    4.570139809234745E-006
 -1.050000000000000E-002    4.870133641762992E-006
 -1.040000000000000E-002    5.187983294890410E-006
 -1.030000000000000E-002    5.524304913009446E-006
 -1.020000000000000E-002    5.879732023623517E-006
 -1.010000000000000E-002    6.254936159675081E-006
 -1.000000000000000E-002    6.650648795029090E-006
 -9.899999999999999E-003    7.067685643608804E-006
 -9.800000000000000E-003    7.506966301650491E-006
 -9.699999999999999E-003    7.969537047811463E-006
 -9.599999999999999E-003    8.456583495049033E-006
 -9.500000000000000E-003    8.969442221593325E-006
 -9.399999999999999E-003    9.509604835343769E-006
 -9.299999999999999E-003    1.007871758407660E-005
 -9.200000000000000E-003    1.067857299638877E-005
 -9.099999999999999E-003    1.131109611292631E-005
 -8.999999999999999E-003    1.197832820905236E-005
 -8.900000000000000E-003    1.268240698323168E-005
 -8.799999999999999E-003    1.342554383092303E-005
 -8.699999999999999E-003    1.421000602611769E-005
 -8.600000000000000E-003    1.503809937319184E-005
 -8.499999999999999E-003    1.591215817156111E-005
 -8.399999999999999E-003    1.683453608706367E-005
 -8.300000000000000E-003    1.780761159073743E-005
 -8.199999999999999E-003    1.883379254584418E-005
 -8.100000000000000E-003    1.991553493840583E-005
 -8.000000000000000E-003    2.105535650420207E-005
 -7.899999999999999E-003    2.225586638184958E-005
 -7.800000000000000E-003    2.351978495138064E-005
 -7.699999999999999E-003    2.484996797203335E-005
 -7.599999999999999E-003    2.624943298351359E-005
 -7.499999999999999E-003    2.772137100013503E-005
 -7.399999999999999E-003    2.926916258255375E-005
 -7.299999999999999E-003    3.089638651805560E-005
 -7.199999999999999E-003    3.260682089147467E-005
 -7.100000000000000E-003    3.440443867763767E-005
 -6.999999999999999E-003    3.629340893524216E-005
 -6.899999999999999E-003    3.827808801497529E-005
 -6.800000000000000E-003    4.036300448839207E-005
 -6.699999999999999E-003    4.255286793704043E-005
 -6.599999999999999E-003    4.485255612231279E-005
 -6.499999999999999E-003    4.726711618895257E-005
 -6.399999999999999E-003    4.980177463152028E-005
 -6.299999999999999E-003    5.246194130157564E-005
 -6.199999999999999E-003    5.525322300798633E-005
 -6.100000000000000E-003    5.818143514054486E-005
 -5.999999999999999E-003    6.125262181351210E-005
 -5.899999999999999E-003    6.447306495361661E-005
 -5.800000000000000E-003    6.784929756089152E-005
 -5.699999999999999E-003    7.138812096009510E-005
 -5.599999999999999E-003    7.509661289475321E-005
 -5.499999999999999E-003    7.898213663504811E-005
 -5.399999999999999E-003    8.305233365455482E-005
 -5.299999999999999E-003    8.731513631790843E-005
 -5.199999999999999E-003    9.177876160854018E-005
 -5.099999999999999E-003    9.645172062091814E-005
 -4.999999999999999E-003    1.013428083760439E-004
 -4.899999999999999E-003    1.064611054539725E-004
 -4.799999999999999E-003    1.118160036341864E-004
 -4.699999999999999E-003    1.174171817496152E-004
 -4.599999999999999E-003    1.232746389734634E-004
 -4.499999999999999E-003    1.293986937590600E-004
 -4.399999999999999E-003    1.358000142741207E-004
 -4.299999999999999E-003    1.424896393669219E-004
 -4.199999999999999E-003    1.494789911531471E-004
 -4.099999999999999E-003    1.567798829668249E-004
 -3.999999999999999E-003    1.644045461667678E-004
 -3.899999999999999E-003    1.723656723946042E-004
 -3.799999999999999E-003    1.806763646237249E-004
 -3.699999999999999E-003    1.893502260777053E-004
 -3.599999999999999E-003    1.984012829999020E-004
 -3.499999999999999E-003    2.078440262816692E-004
 -3.399999999999999E-003    2.176934303572505E-004
 -3.299999999999999E-003    2.279648805450431E-004
 -3.199999999999999E-003    2.386742400422831E-004
 -3.099999999999999E-003    2.498377755205167E-004
 -2.999999999999999E-003    2.614722349976074E-004
 -2.899999999999999E-003    2.735947769848577E-004
 -2.799999999999999E-003    2.862229804325523E-004
 -2.699999999999999E-003    2.993748733457954E-004
 -2.599999999999999E-003    3.130689748112543E-004
 -2.499999999999999E-003    3.273242357970093E-004
 -2.399999999999999E-003    3.421601233926160E-004
 -2.299999999999999E-003    3.575966156848564E-004
 -2.199999999999999E-003    3.736542424778543E-004
 -2.099999999999999E-003    3.903541291882073E-004
 -1.999999999999999E-003    4.077179403167905E-004
 -1.899999999999999E-003    4.257679872353548E-004
 -1.799999999999999E-003    4.445272073591107E-004
 -1.699999999999999E-003    4.640192104099710E-004
 -1.599999999999999E-003    4.842682393104287E-004
 -1.499999999999999E-003    5.052991635277383E-004
 -1.399999999999999E-003    5.271374928193307E-004
 -1.299999999999999E-003    5.498094056049662E-004
 -1.199999999999999E-003    5.733416857785862E-004
 -1.099999999999999E-003    5.977617167528311E-004
 -9.999999999999989E-004    6.230974964081983E-004
 -8.999999999999990E-004    6.493776088166949E-004
 -7.999999999999990E-004    6.766311186807834E-004
 -6.999999999999989E-004    7.048876844659996E-004
 -5.999999999999990E-004    7.341774909569169E-004
 -4.999999999999989E-004    7.645311274500769E-004
 -3.999999999999989E-004    7.959798224654168E-004
 -2.999999999999989E-004    8.285552301812942E-004
 -1.999999999999989E-004    8.622895572877515E-004
 -9.999999999999892E-005    8.972154973569345E-004
  1.084202172485504E-018    9.333661930101102E-004
  1.000000000000011E-004    9.707754685559236E-004
  2.000000000000011E-004    1.009477533880755E-003
  3.000000000000011E-004    1.049507197260196E-003
  4.000000000000011E-004    1.090899901877598E-003
  5.000000000000011E-004    1.133691495644163E-003
  6.000000000000011E-004    1.177918484539559E-003
  7.000000000000011E-004    1.223617870309820E-003
  8.000000000000011E-004    1.270827334429727E-003
  9.000000000000012E-004    1.319585008438958E-003
  1.000000000000001E-003    1.369929680085891E-003
  1.100000000000001E-003    1.421900470946097E-003
  1.200000000000001E-003    1.475537017268112E-003
  1.300000000000001E-003    1.530879546739385E-003
  1.400000000000001E-003    1.587968557854671E-003
  1.500000000000001E-003    1.646844896490734E-003
  1.600000000000001E-003    1.707549984429102E-003
  1.700000000000001E-003    1.770125273144922E-003
  1.800000000000001E-003    1.834612503357101E-003
  1.900000000000001E-003    1.901053744280560E-003
  2.000000000000001E-003    1.969491033744229E-003
  2.100000000000001E-003    2.039966422713235E-003
  2.200000000000001E-003    2.112522305081689E-003
  2.300000000000001E-003    2.187200676094880E-003
  2.400000000000001E-003    2.264043734117435E-003
  2.500000000000001E-003    2.343093373381336E-003
  2.600000000000001E-003    2.424391391663542E-003
  2.700000000000001E-003    2.507979545649260E-003
  2.800000000000001E-003    2.593899160504788E-003
  2.900000000000001E-003    2.682191819190429E-003
  3.000000000000001E-003    2.772898406106220E-003
  3.100000000000001E-003    2.866059747356187E-003
  3.200000000000001E-003    2.961716456822126E-003
  3.300000000000001E-003    3.059908427484639E-003
  3.400000000000001E-003    3.160675739068118E-003
  3.500000000000001E-003    3.264057891288049E-003
  3.600000000000001E-003    3.370093901010302E-003
  3.700000000000001E-003    3.478822138320992E-003
  3.800000000000001E-003    3.590280324193547E-003
  3.900000000000001E-003    3.704505817886985E-003
  4.000000000000001E-003    3.821534820611932E-003
  4.100000000000001E-003    3.941402949269091E-003
  4.200000000000001E-003    4.064144989122913E-003
  4.300000000000001E-003    4.189793982623890E-003
  4.400000000000001E-003    4.318382712765367E-003
  4.500000000000001E-003    4.449941962645491E-003
  4.600000000000002E-003    4.584501722806786E-003
  4.700000000000001E-003    4.722090171509229E-003
  4.800000000000001E-003    4.862734155955811E-003
  4.900000000000002E-003    5.006458573112835E-003
  5.000000000000001E-003    5.153287320801664E-003
  5.100000000000001E-003    5.303241959508214E-003
  5.200000000000001E-003    5.456342422863341E-003
  5.300000000000002E-003    5.612606132042983E-003
  5.400000000000001E-003    5.772049355944877E-003
  5.500000000000001E-003    5.934685578908110E-003
  5.600000000000002E-003    6.100526646542024E-003
  5.700000000000001E-003    6.269581991595008E-003
  5.800000000000001E-003    6.441858603048337E-003
  5.900000000000002E-003    6.617360727282234E-003
  6.000000000000001E-003    6.796090696131206E-003
  6.100000000000001E-003    6.978048335992705E-003
  6.200000000000002E-003    7.163230251918886E-003
  6.300000000000002E-003    7.351630252170053E-003
  6.400000000000001E-003    7.543239946708974E-003
  6.500000000000001E-003    7.738047349520152E-003
  6.600000000000002E-003    7.936037433577936E-003
  6.700000000000001E-003    8.137192362499646E-003
  6.800000000000001E-003    8.341490597556881E-003
  6.900000000000002E-003    8.548906566006593E-003
  7.000000000000001E-003    8.759412573843463E-003
  7.100000000000001E-003    8.972975805692299E-003
  7.200000000000002E-003    9.189561471663492E-003
  7.300000000000002E-003    9.409129542742017E-003
  7.400000000000001E-003    9.631636714096663E-003
  7.500000000000001E-003    9.857035089377488E-003
  7.600000000000002E-003    1.008527342855708E-002
  7.700000000000001E-003    1.031629611975756E-002
  7.800000000000001E-003    1.055004290598860E-002
  7.900000000000001E-003    1.078644902854896E-002
  8.000000000000002E-003    1.102544623906482E-002
  8.100000000000001E-003    1.126696075409224E-002
  8.200000000000001E-003    1.151091479597390E-002
  8.300000000000002E-003    1.175722524845755E-002
  8.400000000000001E-003    1.200580518557050E-002
  8.500000000000002E-003    1.225656258597844E-002
  8.600000000000002E-003    1.250940055521866E-002
  8.700000000000001E-003    1.276421724509877E-002
  8.800000000000002E-003    1.302090531545949E-002
  8.900000000000002E-003    1.327935373957538E-002
  9.000000000000001E-003    1.353944563602899E-002
  9.100000000000002E-003    1.380105845987036E-002
  9.200000000000002E-003    1.406406526517016E-002
  9.300000000000001E-003    1.432833440373991E-002
  9.400000000000002E-003    1.459372831186649E-002
  9.500000000000001E-003    1.486010491585461E-002
  9.600000000000001E-003    1.512731594090730E-002
  9.700000000000002E-003    1.539520833008852E-002
  9.800000000000001E-003    1.566362397444259E-002
  9.900000000000001E-003    1.593239841288979E-002
  1.000000000000000E-002    1.620136453271505E-002
  1.010000000000000E-002    1.647034796616788E-002
  1.020000000000000E-002    1.673916812260778E-002
  1.030000000000000E-002    1.700764109812013E-002
  1.040000000000000E-002    1.727557707120058E-002
  1.050000000000000E-002    1.754278210288719E-002
  1.060000000000000E-002    1.780905432515503E-002
  1.070000000000000E-002    1.807418784664181E-002
  1.080000000000000E-002    1.833797415973653E-002
  1.090000000000000E-002    1.860019709267986E-002
  1.100000000000000E-002    1.886063800153252E-002
  1.110000000000000E-002    1.911907186122800E-002
  1.120000000000000E-002    1.937526717415620E-002
  1.130000000000000E-002    1.962899301975259E-002
  1.140000000000000E-002    1.988000882685653E-002
  1.150000000000000E-002    2.012807251386822E-002
  1.160000000000000E-002    2.037293829933175E-002
  1.170000000000000E-002    2.061435566710609E-002
  1.180000000000000E-002    2.085207038121942E-002
  1.190000000000000E-002    2.108582335923535E-002
  1.200000000000000E-002    2.131535302770208E-002
  1.210000000000000E-002    2.154039513524876E-002
  1.220000000000000E-002    2.176068031026357E-002
  1.230000000000000E-002    2.197593656096596E-002
  1.240000000000000E-002    2.218588846013225E-002
  1.250000000000000E-002    2.239025926498985E-002
  1.260000000000000E-002    2.258877010521063E-002
  1.270000000000000E-002    2.278113736857653E-002
  1.280000000000000E-002    2.296707598666817E-002
  1.290000000000000E-002    2.314630088435632E-002
  1.300000000000000E-002    2.331852412283417E-002
  1.310000000000000E-002    2.348345503014027E-002
  1.320000000000000E-002    2.364080321309416E-002
  1.330000000000000E-002    2.379027731790757E-002
  1.340000000000000E-002    2.393158605163618E-002
  1.350000000000000E-002    2.406443610731700E-002
  1.360000000000000E-002    2.418853601545341E-002
  1.370000000000000E-002    2.430359186123261E-002
  1.380000000000000E-002    2.440931325772114E-002
  1.390000000000000E-002    2.450541292804504E-002
  1.400000000000000E-002    2.459159913954890E-002
  1.410000000000000E-002    2.466758554252512E-002
  1.420000000000000E-002    2.473308697158870E-002
  1.430000000000000E-002    2.478782094773547E-002
  1.440000000000000E-002    2.483150787214538E-002
  1.450000000000000E-002    2.486387000936476E-002
  1.460000000000000E-002    2.488463356837976E-002
  1.470000000000000E-002    2.489352861020508E-002
  1.480000000000000E-002    2.489028705759996E-002
  1.490000000000000E-002    2.487464771791802E-002
  1.500000000000000E-002    2.484635214617164E-002
  1.510000000000000E-002    2.480514621208246E-002
  1.520000000000000E-002    2.475078264131521E-002
  1.530000000000000E-002    2.468301990334325E-002
  1.540000000000000E-002    2.460162077911885E-002
  1.550000000000000E-002    2.450635548980461E-002
  1.560000000000000E-002    2.439700196039097E-002
  1.570000000000000E-002    2.427334255249987E-002
  1.580000000000000E-002    2.413516826528052E-002
  1.590000000000000E-002    2.398228001595742E-002
  1.600000000000000E-002    2.381448535950574E-002
  1.610000000000000E-002    2.363159916831494E-002
  1.620000000000000E-002    2.343344779764766E-002
  1.630000000000000E-002    2.321986718675236E-002
  1.640000000000000E-002    2.299070358395028E-002
  1.650000000000000E-002    2.274581023430531E-002
  1.660000000000000E-002    2.248505397249894E-002
  1.670000000000000E-002    2.220831325928863E-002
  1.680000000000000E-002    2.191547262310439E-002
  1.690000000000000E-002    2.160643570207393E-002
  1.700000000000000E-002    2.128111071637375E-002
  1.710000000000000E-002    2.093942307629569E-002
  1.720000000000000E-002    2.058130599175553E-002
  1.730000000000000E-002    2.020670916798107E-002
  1.740000000000000E-002    1.981559493438819E-002
  1.750000000000000E-002    1.940793495785672E-002
  1.760000000000000E-002    1.898371700531035E-002
  1.770000000000000E-002    1.854294114147832E-002
  1.780000000000000E-002    1.808562266598419E-002
  1.790000000000000E-002    1.761179162288842E-002
  1.800000000000000E-002    1.712148993906464E-002
  1.810000000000000E-002    1.661477369990702E-002
  1.820000000000000E-002    1.609171737843938E-002
  1.830000000000000E-002    1.555240771591950E-002
  1.840000000000000E-002    1.499694756792333E-002
  1.850000000000000E-002    1.442545444419342E-002
  1.860000000000000E-002    1.383806178334192E-002
  1.870000000000000E-002    1.323491870753516E-002