 -4.000000000000000E-002    0.000000000000000E+000
 -3.990000000000000E-002    0.000000000000000E+000
 -3.980000000000000E-002    0.000000000000000E+000
 -3.970000000000000E-002    0.000000000000000E+000
 -3.960000000000000E-002    0.000000000000000E+000
 -3.950000000000000E-002    0.000000000000000E+000
 -3.940000000000000E-002    0.000000000000000E+000
 -3.930000000000000E-002    0.000000000000000E+000
 -3.920000000000000E-002    0.000000000000000E+000
 -3.910000000000000E-002   -1.252280239479856E-029
 -3.900000000000000E-002   -1.150560906058778E-028
 -3.890000000000000E-002   -1.769584686577851E-028
 -3.880000000000000E-002    3.911676463715972E-027
 -3.870000000000000E-002    4.157002835226345E-026
 -3.860000000000000E-002    2.501887031189047E-025
 -3.850000000000000E-002    1.124039960792627E-024
 -3.840000000000000E-002    4.127855437834220E-024
 -3.830000000000000E-002    1.296090694654140E-023
 -3.820000000000000E-002    3.572358652859681E-023
 -3.810000000000000E-002    8.786413638191274E-023
 -3.800000000000000E-002    1.947651030034637E-022
 -3.790000000000000E-002    3.908946464350751E-022
 -3.780000000000000E-002    7.095986220135977E-022
 -3.770000000000000E-002    1.154481901223476E-021
 -3.760000000000000E-002    1.641569577057826E-021
 -3.750000000000000E-002    1.903904608495232E-021
 -3.740000000000000E-002    1.360703815110445E-021
 -3.730000000000000E-002   -1.024704034668319E-021
 -3.720000000000000E-002   -6.838657406350064E-021
 -3.710000000000000E-002   -1.815803699936685E-020
 -3.700000000000000E-002   -3.718965149291344E-020
 -3.690000000000000E-002   -6.543721191474132E-020
 -3.680000000000000E-002   -1.022532962880422E-019
 -3.670000000000000E-002   -1.427450927580725E-019
 -3.660000000000000E-002   -1.752228861796160E-019
 -3.650000000000000E-002   -1.787130025151099E-019
 -3.640000000000000E-002   -1.214684163581277E-019
 -3.630000000000000E-002    3.818672354223294E-020
 -3.620000000000000E-002    3.470893336587677E-019
 -3.610000000000000E-002    8.470390185921958E-019
 -3.600000000000000E-002    1.558271166921068E-018
 -3.590000000000000E-002    2.456981801712242E-018
 -3.580000000000000E-002    3.449249789541686E-018
 -3.570000000000000E-002    4.346176566386634E-018
 -3.560000000000000E-002    4.847622420829761E-018
 -3.550000000000000E-002    4.543896246941674E-018
 -3.540000000000000E-002    2.945314984008926E-018
 -3.530000000000000E-002   -4.521600269844071E-019
 -3.520000000000000E-002   -6.061594650202942E-018
 -3.510000000000000E-002   -1.406407463714831E-017
 -3.500000000000000E-002   -2.424607848768799E-017
 -3.490000000000000E-002   -3.584031666007697E-017
 -3.480000000000000E-002   -4.740485796438571E-017
 -3.470000000000000E-002   -5.678105422485267E-017
 -3.460000000000000E-002   -6.116965210333886E-017
 -3.450000000000000E-002   -5.735459575767543E-017
 -3.440000000000000E-002   -4.208499282672661E-017
 -3.430000000000000E-002   -1.259888184483073E-017
 -3.420000000000000E-002    3.275786904282769E-017
 -3.410000000000000E-002    9.389258364157661E-017
 -3.400000000000000E-002    1.684013194334783E-016
 -3.390000000000000E-002    2.511783522841448E-016
 -3.380000000000000E-002    3.342856951627073E-016
 -3.370000000000000E-002    4.071380397000328E-016
 -3.360000000000000E-002    4.570159674478898E-016
 -3.350000000000000E-002    4.698765963998803E-016
 -3.340000000000000E-002    4.313985512828668E-016
 -3.330000000000000E-002    3.281894113134916E-016
 -3.320000000000000E-002    1.491057686738169E-016
 -3.310000000000000E-002   -1.133150439227845E-016
 -3.300000000000000E-002   -4.612503327388460E-016
 -3.290000000000000E-002   -8.897066269952259E-016
 -3.280000000000000E-002   -1.384247078737479E-015
 -3.270000000000000E-002   -1.918312671709703E-015
 -3.260000000000000E-002   -2.450310111933722E-015
 -3.250000000000000E-002   -2.920936548532507E-015
 -3.240000000000000E-002   -3.251572392655552E-015
 -3.230000000000000E-002   -3.344924145242165E-015
 -3.220000000000000E-002   -3.089323807264745E-015
 -3.210000000000000E-002   -2.368061213676665E-015
 -3.200000000000000E-002   -1.074721798970946E-015
 -3.190000000000000E-002    8.653501522758682E-016
 -3.180000000000000E-002    3.468633676403947E-015
 -3.170000000000000E-002    6.664834930885711E-015
 -3.160000000000000E-002    1.027056635963410E-014
 -3.150000000000000E-002    1.397114657058266E-014
 -3.140000000000000E-002    1.731708367780835E-014
 -3.130000000000000E-002    1.974140887958935E-014
 -3.120000000000000E-002    2.060231080076724E-014
 -3.110000000000000E-002    1.925231097411998E-014
 -3.100000000000000E-002    1.513084941922299E-014
 -3.090000000000000E-002    7.872049366538501E-015
 -3.080000000000000E-002   -2.585530272104516E-015
 -3.070000000000000E-002   -1.590416842155919E-014
 -3.060000000000000E-002   -3.128594077257809E-014
 -3.050000000000000E-002   -4.746276711869979E-014
 -3.040000000000000E-002   -6.275024417116245E-014
 -3.030000000000000E-002   -7.517014299035173E-014
 -3.020000000000000E-002   -8.263631934855473E-014
 -3.010000000000000E-002   -8.318790136300172E-014
 -3.000000000000000E-002   -7.524382284167901E-014
 -2.990000000000000E-002   -5.784627107628508E-014
 -2.980000000000000E-002   -3.085888788994377E-014
 -2.970000000000000E-002    4.910243961040933E-015
 -2.960000000000000E-002    4.768092550717435E-014
 -2.950000000000000E-002    9.477447437419950E-014
 -2.940000000000000E-002    1.427787090888386E-013
 -2.930000000000000E-002    1.877800663703845E-013
 -2.920000000000000E-002    2.256291747244333E-013
 -2.910000000000000E-002    2.522045534023095E-013
 -2.900000000000000E-002    2.636462266053052E-013
 -2.890000000000000E-002    2.565464165982221E-013
 -2.880000000000000E-002    2.281047273557468E-013
 -2.870000000000000E-002    1.762755770423638E-013
 -2.860000000000000E-002    9.994978416800020E-014
 -2.850000000000000E-002   -7.857806591470124E-016
 -2.840000000000000E-002   -1.242808580910447E-013
 -2.830000000000000E-002   -2.668491080357826E-013
 -2.820000000000000E-002   -4.222382479029578E-013
 -2.810000000000000E-002   -5.811437949920985E-013
 -2.800000000000000E-002   -7.309149476577075E-013
 -2.790000000000000E-002   -8.556298090781636E-013
 -2.780000000000000E-002   -9.367146949054041E-013
 -2.770000000000000E-002   -9.542390580967805E-013
 -2.760000000000000E-002   -8.889302106446871E-013
 -2.750000000000000E-002   -7.248285842638876E-013
 -2.740000000000000E-002   -4.523574574862604E-013
 -2.730000000000000E-002   -7.143782598874799E-014
 -2.720000000000000E-002    4.058339290075104E-013
 -2.710000000000000E-002    9.534807191731094E-013
 -2.700000000000000E-002    1.531417180840186E-012
 -2.690000000000000E-002    2.087078327727165E-012
 -2.680000000000000E-002    2.559068787018970E-012
 -2.670000000000000E-002    2.882709549966364E-012
 -2.660000000000000E-002    2.997046202918501E-012
 -2.650000000000000E-002    2.852586859910967E-012
 -2.640000000000000E-002    2.418819608119743E-012
 -2.630000000000000E-002    1.690461815467418E-012
 -2.620000000000000E-002    6.914571264394612E-013
 -2.610000000000000E-002   -5.240438911948018E-013
 -2.600000000000000E-002   -1.874114239329336E-012
 -2.590000000000000E-002   -3.254829193386265E-012
 -2.580000000000000E-002   -4.548850507523785E-012
 -2.570000000000000E-002   -5.635850558490279E-012
 -2.560000000000000E-002   -6.403536308836431E-012
 -2.550000000000000E-002   -6.757947635590389E-012
 -2.540000000000000E-002   -6.631842654458401E-012
 -2.530000000000000E-002   -5.990324214802579E-012
 -2.520000000000000E-002   -4.833353553714383E-012
 -2.510000000000000E-002   -3.195324323653679E-012
 -2.500000000000000E-002   -1.142353632871365E-012
 -2.490000000000000E-002    1.231747229559529E-012
 -2.480000000000000E-002    3.809795272892484E-012
 -2.470000000000000E-002    6.455038843565354E-012
 -2.460000000000000E-002    9.014084483013795E-012
 -2.450000000000000E-002    1.131921311296535E-011
 -2.440000000000000E-002    1.319097056351602E-011
 -2.430000000000000E-002    1.444241885948996E-011
 -2.420000000000000E-002    1.488659772704361E-011
 -2.410000000000000E-002    1.434852214287625E-011
 -2.400000000000000E-002    1.268235434657879E-011
 -2.390000000000000E-002    9.793300989563667E-012
 -2.380000000000000E-002    5.662469803775851E-012
 -2.370000000000000E-002    3.715989562048893E-013
 -2.360000000000000E-002   -5.876496046700099E-012
 -2.350000000000000E-002   -1.274641705238535E-011
 -2.340000000000000E-002   -1.977203680654239E-011
 -2.330000000000000E-002   -2.637504288424491E-011
 -2.320000000000000E-002   -3.190160160528614E-011
 -2.310000000000000E-002   -3.567609286255873E-011
 -2.300000000000000E-002   -3.706809628374405E-011
 -2.290000000000000E-002   -3.556623992277698E-011
 -2.280000000000000E-002   -3.085059668203587E-011
 -2.270000000000000E-002   -2.285433808181745E-011
 -2.260000000000000E-002   -1.180574348088039E-011
 -2.250000000000000E-002    1.756656651374205E-012
 -2.240000000000000E-002    1.700015568790978E-011
 -2.230000000000000E-002    3.284584260349502E-011
 -2.220000000000000E-002    4.804516097779398E-011
 -2.210000000000000E-002    6.127811698915578E-011
 -2.200000000000000E-002    7.126344228148559E-011
 -2.190000000000000E-002    7.686960329235217E-011
 -2.180000000000000E-002    7.721562577682261E-011
 -2.170000000000000E-002    7.175243800196087E-011
 -2.160000000000000E-002    6.031816720689975E-011
 -2.150000000000000E-002    4.316438733697267E-011
 -2.140000000000000E-002    2.095376349983279E-011
 -2.130000000000000E-002   -5.267449504995285E-012
 -2.120000000000000E-002   -3.411696762755537E-011
 -2.110000000000000E-002   -6.393845466339376E-011
 -2.100000000000000E-002   -9.287338337058518E-011
 -2.090000000000000E-002   -1.189400868039906E-010
 -2.080000000000000E-002   -1.401197166386421E-010
 -2.070000000000000E-002   -1.544507689618031E-010
 -2.060000000000000E-002   -1.601349125818419E-010
 -2.050000000000000E-002   -1.556560902242734E-010
 -2.040000000000000E-002   -1.399125719670546E-010
 -2.030000000000000E-002   -1.123574649448821E-010
 -2.020000000000000E-002   -7.313834745644369E-011
 -2.010000000000000E-002   -2.322132462382826E-011
 -2.000000000000000E-002    3.551912378404935E-011
 -1.990000000000000E-002    1.002650843155675E-010
 -1.980000000000000E-002    1.672945365003852E-010
 -1.970000000000000E-002    2.321100083760148E-010
 -1.960000000000000E-002    2.896636271984805E-010
 -1.950000000000000E-002    3.346749850862504E-010
 -1.940000000000000E-002    3.620264861807001E-010
 -1.930000000000000E-002    3.672085582874724E-010
 -1.920000000000000E-002    3.467777695809810E-010
 -1.910000000000000E-002    2.987840745215352E-010
 -1.900000000000000E-002    2.231222931555833E-010
 -1.890000000000000E-002    1.217659096533318E-010
 -1.880000000000000E-002   -1.149542154099009E-012
 -1.870000000000000E-002   -1.394135844198999E-010
 -1.860000000000000E-002   -2.850030659745759E-010
 -1.850000000000000E-002   -4.285080217010334E-010
 -1.840000000000000E-002   -5.596942606823837E-010
 -1.830000000000000E-002   -6.681642170187344E-010
 -1.820000000000000E-002   -7.440689560050822E-010
 -1.810000000000000E-002   -7.788215400744230E-010
 -1.800000000000000E-002   -7.657628763089465E-010
 -1.790000000000000E-002   -7.007368564842974E-010
 -1.780000000000000E-002   -5.825387921799555E-010
 -1.770000000000000E-002   -4.132109595394456E-010
 -1.760000000000000E-002   -1.981677959611758E-010
 -1.750000000000000E-002    5.385861742693496E-011
 -1.740000000000000E-002    3.310549169486498E-010
 -1.730000000000000E-002    6.189419664079743E-010
 -1.720000000000000E-002    9.009615349090925E-010
 -1.710000000000000E-002    1.159221713836947E-009
 -1.700000000000000E-002    1.375382247247235E-009
 -1.690000000000000E-002    1.531653961458365E-009
 -1.680000000000000E-002    1.611876682102394E-009
 -1.670000000000000E-002    1.602628717852877E-009
 -1.660000000000000E-002    1.494311278059272E-009
 -1.650000000000000E-002    1.282138974680678E-009
 -1.640000000000000E-002    9.669637798768519E-010
 -1.630000000000000E-002    5.558551554292112E-010
 -1.620000000000000E-002    6.236676738705274E-011
 -1.610000000000000E-002   -4.935694724208970E-010
 -1.600000000000000E-002   -1.086160831624960E-009
 -1.590000000000000E-002   -1.684695476762863E-009
 -1.580000000000000E-002   -2.254892988372654E-009
 -1.570000000000000E-002   -2.760613104120830E-009
 -1.560000000000000E-002   -3.165846228248634E-009
 -1.550000000000000E-002   -3.436879284139652E-009
 -1.540000000000000E-002   -3.544513260714398E-009
 -1.530000000000000E-002   -3.466198614953116E-009
 -1.520000000000000E-002   -3.187950203507237E-009
 -1.510000000000000E-002   -2.705916226543143E-009
 -1.500000000000000E-002   -2.027487420836051E-009
 -1.490000000000000E-002   -1.171860172501262E-009
 -1.480000000000000E-002   -1.699913766740630E-010
 -1.470000000000000E-002    9.360825237698837E-010
 -1.460000000000000E-002    2.094561907814012E-009
 -1.450000000000000E-002    3.245800850073519E-009
 -1.440000000000000E-002    4.324763517934414E-009
 -1.430000000000000E-002    5.263935062458824E-009
 -1.420000000000000E-002    5.996576710484566E-009
 -1.410000000000000E-002    6.460198328668865E-009
 -1.400000000000000E-002    6.600110405642330E-009
 -1.390000000000000E-002    6.372908485404705E-009
 -1.380000000000000E-002    5.749742979453160E-009
 -1.370000000000000E-002    4.719224760172073E-009
 -1.360000000000000E-002    3.289840795180553E-009
 -1.350000000000000E-002    1.491762684448837E-009
 -1.340000000000000E-002   -6.220356651717119E-010
 -1.330000000000000E-002   -2.975409376654263E-009
 -1.320000000000000E-002   -5.469432693918964E-009
 -1.310000000000000E-002   -7.983532807620498E-009
 -1.300000000000000E-002   -1.037729378918990E-008
 -1.290000000000000E-002   -1.249283897670124E-008
 -1.280000000000000E-002   -1.415765598949225E-008
 -1.270000000000000E-002   -1.518771652661467E-008
 -1.260000000000000E-002   -1.539073537069419E-008
 -1.250000000000000E-002   -1.456939721222957E-008
 -1.240000000000000E-002   -1.252442930888838E-008
 -1.230000000000000E-002   -9.057389381328429E-009
 -1.220000000000000E-002   -3.973101208218324E-009
 -1.210000000000000E-002    2.918312076015997E-009
 -1.200000000000000E-002    1.179976868951972E-008
 -1.190000000000000E-002    2.284593526190100E-008
 -1.180000000000000E-002    3.622218583817873E-008
 -1.170000000000000E-002    5.208372872885675E-008
 -1.160000000000000E-002    7.057480660977034E-008
 -1.150000000000000E-002    9.182787071042773E-008
 -1.140000000000000E-002    1.159626253784620E-007
 -1.130000000000000E-002    1.430849424202201E-007
 -1.120000000000000E-002    1.732856929252080E-007
 -1.110000000000000E-002    2.066395004996755E-007
 -1.100000000000000E-002    2.432036712841894E-007
 -1.090000000000000E-002    2.830173517063539E-007
 -1.080000000000000E-002    3.261013247849072E-007
 -1.070000000000000E-002    3.724585305898334E-007
 -1.060000000000000E-002    4.220757046886627E-007
 -1.050000000000000E-002    4.749263145928162E-007
 -1.040000000000000E-002    5.309747323798328E-007
 -1.030000000000000E-002    5.901821429567924E-007
 -1.020000000000000E-002    6.525135050162866E-007
 -1.010000000000000E-002    7.179459233111332E-007
 -1.000000000000000E-002    7.864776631099893E-007
 -9.899999999999999E-003    8.581377475573233E-007
 -9.800000000000000E-003    9.329949727961978E-007
 -9.699999999999999E-003    1.011166449094759E-006
 -9.599999999999999E-003    1.092824748756619E-006
 -9.500000000000000E-003    1.178203022905309E-006
 -9.399999999999999E-003    1.267598038835518E-006
 -9.299999999999999E-003    1.361370320475464E-006
 -9.200000000000000E-003    1.459941943633478E-006
 -9.099999999999999E-003    1.563791941180118E-006
 -8.999999999999999E-003    1.673449421784001E-006
 -8.900000000000000E-003    1.789485252336197E-006
 -8.799999999999999E-003    1.912502336652698E-006
 -8.699999999999999E-003    2.043126287697827E-006
 -8.600000000000000E-003    2.181996169839780E-006
 -8.499999999999999E-003    2.329756503265875E-006
 -8.399999999999999E-003    2.487050651509296E-006
 -8.300000000000000E-003    2.654516314692131E-006
 -8.199999999999999E-003    2.832783864053722E-006
 -8.100000000000000E-003    3.022475875217108E-006
 -8.000000000000000E-003    3.224209654653541E-006
 -7.899999999999999E-003    3.438600515269743E-006
 -7.800000000000000E-003    3.666268276225460E-006
 -7.699999999999999E-003    3.907842666453744E-006
 -7.599999999999999E-003    4.163971111542608E-006
 -7.499999999999999E-003    4.435325443320578E-006
 -7.399999999999999E-003    4.722608899714991E-006
 -7.299999999999999E-003    5.026563642096289E-006
 -7.199999999999999E-003    5.347976776031827E-006
 -7.100000000000000E-003    5.687685927487872E-006
 -6.999999999999999E-003    6.046584687971675E-006
 -6.899999999999999E-003    6.425627713316081E-006
 -6.800000000000000E-003    6.825835696832517E-006
 -6.699999999999999E-003    7.248298480971654E-006
 -6.599999999999999E-003    7.694180019922127E-006
 -6.499999999999999E-003    8.164721023890512E-006
 -6.399999999999999E-003    8.661243560751371E-006
 -6.299999999999999E-003    9.185150185328108E-006
 -6.199999999999999E-003    9.737930790083504E-006
 -6.100000000000000E-003    1.032115898519245E-005
 -5.999999999999999E-003    1.093649569546838E-005
 -5.899999999999999E-003    1.158568699229779E-005
 -5.800000000000000E-003    1.227056361640304E-005
 -5.699999999999999E-003    1.299303722348158E-005
 -5.599999999999999E-003    1.375509864176743E-005
 -5.499999999999999E-003    1.455881640845742E-005
 -5.399999999999999E-003    1.540632982590300E-005
 -5.299999999999999E-003    1.629984971776077E-005
 -5.199999999999999E-003    1.724165616974508E-005
 -5.099999999999999E-003    1.823409753200157E-005
 -4.999999999999999E-003    1.927959628885708E-005
 -4.899999999999999E-003    2.038064995101534E-005
 -4.799999999999999E-003    2.153984217583867E-005
 -4.699999999999999E-003    2.275985250176727E-005
 -4.599999999999999E-003    2.404346919355763E-005
 -4.499999999999999E-003    2.539360483769815E-005
 -4.399999999999999E-003    2.681331647622801E-005
 -4.299999999999999E-003    2.830581726539683E-005
 -4.199999999999999E-003    2.987450904181100E-005
 -4.099999999999999E-003    3.152297653657226E-005
 -3.999999999999999E-003    3.325501908449732E-005
 -3.899999999999999E-003    3.507465582499290E-005
 -3.799999999999999E-003    3.698612400345657E-005
 -3.699999999999999E-003    3.899388588979448E-005
 -3.599999999999999E-003    4.110262314722964E-005
 -3.499999999999999E-003    4.331721915362661E-005
 -3.399999999999999E-003    4.564276104266548E-005
 -3.299999999999999E-003    4.808451472804934E-005
 -3.199999999999999E-003    5.064790534393474E-005
 -3.099999999999999E-003    5.333852017028762E-005
 -2.999999999999999E-003    5.616208540196336E-005
 -2.899999999999999E-003    5.912445461294020E-005
 -2.799999999999999E-003    6.223163060099988E-005
 -2.699999999999999E-003    6.548976094025767E-005
 -2.599999999999999E-003    6.890515146811818E-005
 -2.499999999999999E-003    7.248428588473156E-005
 -2.399999999999999E-003    7.623385266221797E-005
 -2.299999999999999E-003    8.016077843225807E-005
 -2.199999999999999E-003    8.427225912903416E-005
 -2.099999999999999E-003    8.857579259604724E-005
 -1.999999999999999E-003    9.307919365577063E-005
 -1.899999999999999E-003    9.779064436910916E-005
 -1.799999999999999E-003    1.027186979291564E-004
 -1.699999999999999E-003    1.078722869559240E-004
 -1.599999999999999E-003    1.132607565536962E-004
 -1.499999999999999E-003    1.188938624103238E-004
 -1.399999999999999E-003    1.247817518795683E-004
 -1.299999999999999E-003    1.309349757281735E-004
 -1.199999999999999E-003    1.373644675221900E-004
 -1.099999999999999E-003    1.440815538812797E-004
 -9.999999999999989E-004    1.510979345556350E-004
 -8.999999999999990E-004    1.584256592732939E-004
 -7.999999999999990E-004    1.660771740573134E-004
 -6.999999999999989E-004    1.740652549327538E-004
 -5.999999999999990E-004    1.824030449430154E-004
 -4.999999999999989E-004    1.911040386882689E-004
 -3.999999999999989E-004    2.001821069112288E-004
 -2.999999999999989E-004    2.096514926514614E-004
 -1.999999999999989E-004    2.195268029285402E-004
 -9.999999999999892E-005    2.298230620617956E-004
  1.084202172485504E-018    2.405556799375927E-004
  1.000000000000011E-004    2.517404716511503E-004
  2.000000000000011E-004    2.633936801500280E-004
  3.000000000000011E-004    2.755319905178600E-004
  4.000000000000011E-004    2.881725231334215E-004
  5.000000000000011E-004    3.013328769113257E-004
  6.000000000000011E-004    3.150311209892546E-004
  7.000000000000011E-004    3.292858117280461E-004
  8.000000000000011E-004    3.441160255228846E-004
  9.000000000000012E-004    3.595413566724664E-004
  1.000000000000001E-003    3.755819816497548E-004
  1.100000000000001E-003    3.922586009859411E-004
  1.200000000000001E-003    4.095925278578202E-004
  1.300000000000001E-003    4.276056605049994E-004
  1.400000000000001E-003    4.463204928078172E-004
  1.500000000000001E-003    4.657601800804290E-004
  1.600000000000001E-003    4.859484667784265E-004
  1.700000000000001E-003    5.069097249949269E-004
  1.800000000000001E-003    5.286689766751792E-004
  1.900000000000001E-003    5.512517734279162E-004
  2.000000000000001E-003    5.746843330979659E-004
  2.100000000000001E-003    5.989934232004157E-004
  2.200000000000001E-003    6.242063973805594E-004
  2.300000000000001E-003    6.503510681531257E-004
  2.400000000000001E-003    6.774558446856581E-004
  2.500000000000001E-003    7.055496192125507E-004
  2.600000000000001E-003    7.346617312876200E-004
  2.700000000000001E-003    7.648220718973835E-004
  2.800000000000001E-003    7.960609789419098E-004
  2.900000000000001E-003    8.284092662022157E-004
  3.000000000000001E-003    8.618982120200765E-004
  3.100000000000001E-003    8.965594880136133E-004
  3.200000000000001E-003    9.324253766389669E-004
  3.300000000000001E-003    9.695285986358016E-004
  3.400000000000001E-003    1.007902248813249E-003
  3.500000000000001E-003    1.047579966191061E-003
  3.600000000000001E-003    1.088595904327481E-003
  3.700000000000001E-003    1.130984720694508E-003
  3.800000000000001E-003    1.174781547865980E-003
  3.900000000000001E-003    1.220022018224163E-003
  4.000000000000001E-003    1.266742349452567E-003
  4.100000000000001E-003    1.314979148555214E-003
  4.200000000000001E-003    1.364769514503998E-003
  4.300000000000001E-003    1.416151151023102E-003
  4.400000000000001E-003    1.469162090969387E-003
  4.500000000000001E-003    1.523840769082975E-003
  4.600000000000002E-003    1.580226086340556E-003
  4.700000000000001E-003    1.638357358503112E-003
  4.800000000000001E-003    1.698274078477183E-003
  4.900000000000002E-003    1.760016085616715E-003
  5.000000000000001E-003    1.823623481356956E-003
  5.100000000000001E-003    1.889136415057197E-003
  5.200000000000001E-003    1.956595018457893E-003
  5.300000000000002E-003    2.026039688253749E-003
  5.400000000000001E-003    2.097510625122382E-003
  5.500000000000001E-003    2.171048157523055E-003
  5.600000000000002E-003    2.246692141097974E-003
  5.700000000000001E-003    2.324482520434565E-003
  5.800000000000001E-003    2.404459062534836E-003
  5.900000000000002E-003    2.486660932836492E-003
  6.000000000000001E-003    2.571127464192072E-003
  6.100000000000001E-003    2.657897683086072E-003
  6.200000000000002E-003    2.747009999469591E-003
  6.300000000000002E-003    2.838502870105927E-003
  6.400000000000001E-003    2.932414191197670E-003
  6.500000000000001E-003    3.028781609487555E-003
  6.600000000000002E-003    3.127642703160257E-003
  6.700000000000001E-003    3.229034301796743E-003
  6.800000000000001E-003    3.332992695427649E-003
  6.900000000000002E-003    3.439553960163359E-003
  7.000000000000001E-003    3.548753499073771E-003
  7.100000000000001E-003    3.660625928130242E-003
  7.200000000000002E-003    3.775205213731088E-003
  7.300000000000002E-003    3.892524257078969E-003
  7.400000000000001E-003    4.012615187568999E-003
  7.500000000000001E-003    4.135508588621571E-003
  7.600000000000002E-003    4.261233946580302E-003
  7.700000000000001E-003    4.389819550105736E-003
  7.800000000000001E-003    4.521292065289532E-003
  7.900000000000001E-003    4.655676858376173E-003
  8.000000000000002E-003    4.792997109434130E-003
  8.100000000000001E-003    4.933274510237619E-003
  8.200000000000001E-003    5.076529137357657E-003
  8.300000000000002E-003    5.222779008127963E-003
  8.400000000000001E-003    5.372039971153281E-003
  8.500000000000002E-003    5.524327014799560E-003
  8.600000000000002E-003    5.679651976336528E-003
  8.700000000000001E-003    5.838025484968786E-003
  8.800000000000002E-003    5.999455719297204E-003
  8.900000000000002E-003    6.163948995557663E-003
  9.000000000000001E-003    6.331509729363147E-003
  9.100000000000002E-003    6.502139552627816E-003
  9.200000000000002E-003    6.675838124709400E-003
  9.300000000000001E-003    6.852602462113911E-003
  9.400000000000002E-003    7.032427605440828E-003
  9.500000000000001E-003    7.215305732312643E-003
  9.600000000000001E-003    7.401226028008606E-003
  9.700000000000002E-003    7.590174602727911E-003
  9.800000000000001E-003    7.782134617337878E-003
  9.900000000000001E-003    7.977086635233938E-003
  1.000000000000000E-002    8.175006769887807E-003
  1.010000000000000E-002    8.375868439213814E-003
  1.020000000000000E-002    8.579641412299749E-003
  1.030000000000000E-002    8.786291313478049E-003
  1.040000000000000E-002    8.995780103169974E-003
  1.050000000000000E-002    9.208066837324950E-003
  1.060000000000000E-002    9.423105404842379E-003
  1.070000000000000E-002    9.640847006015849E-003
  1.080000000000000E-002    9.861237230529007E-003
  1.090000000000000E-002    1.008421870108162E-002
  1.100000000000000E-002    1.030972950029376E-002
  1.110000000000000E-002    1.053770291742741E-002
  1.120000000000000E-002    1.076806988371740E-002
  1.130000000000000E-002    1.100075522133036E-002
  1.140000000000000E-002    1.123568027113096E-002
  1.150000000000000E-002    1.147276132671328E-002
  1.160000000000000E-002    1.171191135886514E-002
  1.170000000000000E-002    1.195303781699557E-002
  1.180000000000000E-002    1.219604389708544E-002
  1.190000000000000E-002    1.244082858237429E-002
  1.200000000000000E-002    1.268728553837993E-002
  1.210000000000000E-002    1.293530461810823E-002
  1.220000000000000E-002    1.318477044573164E-002
  1.230000000000000E-002    1.343556263054868E-002
  1.240000000000000E-002    1.368755641594284E-002
  1.250000000000000E-002    1.394062103863881E-002
  1.260000000000000E-002    1.419462259095389E-002
  1.270000000000000E-002    1.444942040892428E-002
  1.280000000000000E-002    1.470486993642885E-002
  1.290000000000000E-002    1.496082043350941E-002
  1.300000000000000E-002    1.521711829812547E-002
  1.310000000000000E-002    1.547360247887145E-002
  1.320000000000000E-002    1.573010961569392E-002
  1.330000000000000E-002    1.598646815740853E-002
  1.340000000000000E-002    1.624250361166906E-002
  1.350000000000000E-002    1.649803709822156E-002
  1.360000000000000E-002    1.675288446333226E-002
  1.370000000000000E-002    1.700685626558779E-002
  1.380000000000000E-002    1.725975896018084E-002
  1.390000000000000E-002    1.751139334689363E-002
  1.400000000000000E-002    1.776155705435572E-002
  1.410000000000000E-002    1.801004094291557E-002
  1.420000000000000E-002    1.825663354443407E-002
  1.430000000000000E-002    1.850111866066018E-002
  1.440000000000000E-002    1.874327633154712E-002
  1.450000000000000E-002    1.898288007943091E-002
  1.460000000000000E-002    1.921970191921080E-002
  1.470000000000000E-002    1.945350987165718E-002
  1.480000000000000E-002    1.968406543912058E-002
  1.490000000000000E-002    1.991112898983079E-002
  1.500000000000000E-002    2.013445728872566E-002
  1.510000000000000E-002    2.035380271466612E-002
  1.520000000000000E-002    2.056891621673734E-002
  1.530000000000000E-002    2.077954262029549E-002
  1.540000000000000E-002    2.098542632333653E-002
  1.550000000000000E-002    2.118630768226218E-002
  1.560000000000000E-002    2.138192637947663E-002
  1.570000000000000E-002    2.157201715689476E-002
  1.580000000000000E-002    2.175631480474082E-002
  1.590000000000000E-002    2.193455096335556E-002
  1.600000000000000E-002    2.210645690599022E-002
  1.610000000000000E-002    2.227176264099966E-002
  1.620000000000000E-002    2.243019514660889E-002
  1.630000000000000E-002    2.258148317491910E-002
  1.640000000000000E-002    2.272535296180535E-002
  1.650000000000000E-002    2.286153168113811E-002
  1.660000000000000E-002    2.298974595536198E-002
  1.670000000000000E-002    2.310972263690591E-002
  1.680000000000000E-002    2.322118996171807E-002
  1.690000000000000E-002    2.332387615810437E-002
  1.700000000000000E-002    2.341750824612566E-002
  1.710000000000000E-002    2.350181803927969E-002
  1.720000000000000E-002    2.357653855914845E-002
  1.730000000000000E-002    2.364140146506377E-002
  1.740000000000000E-002    2.369614400144244E-002
  1.750000000000000E-002    2.374050395800990E-002
  1.760000000000000E-002    2.377422199901849E-002
  1.770000000000000E-002    2.379704297875225E-002
  1.780000000000000E-002    2.380871568593269E-002
  1.790000000000000E-002    2.380899087384293E-002
  1.800000000000000E-002    2.379762555267907E-002
  1.810000000000000E-002    2.377437704692325E-002
  1.820000000000000E-002    2.373901325975640E-002
  1.830000000000000E-002    2.369130277007786E-002
  1.840000000000000E-002    2.363102303755955E-002
  1.850000000000000E-002    2.355795697462380E-002
  1.860000000000000E-002    2.347189194560330E-002
  1.870000000000000E-002    2.337262516620268E-002