 -4.000000000000000E-002    0.000000000000000E+000
 -3.990000000000000E-002    0.000000000000000E+000
 -3.980000000000000E-002    0.000000000000000E+000
 -3.970000000000000E-002    0.000000000000000E+000
 -3.960000000000000E-002    0.000000000000000E+000
 -3.950000000000000E-002    0.000000000000000E+000
 -3.940000000000000E-002    0.000000000000000E+000
 -3.930000000000000E-002    0.000000000000000E+000
 -3.920000000000000E-002    0.000000000000000E+000
 -3.910000000000000E-002    0.000000000000000E+000
 -3.900000000000000E-002    0.000000000000000E+000
 -3.890000000000000E-002    0.000000000000000E+000
 -3.880000000000000E-002    0.000000000000000E+000
 -3.870000000000000E-002    3.578558022221077E-039
 -3.860000000000000E-002    8.790793113042936E-038
 -3.850000000000000E-002    1.105233334631097E-036
 -3.840000000000000E-002    9.463510116901808E-036
 -3.830000000000000E-002    6.195826856778294E-035
 -3.820000000000000E-002    3.301543825949305E-034
 -3.810000000000000E-002    1.488211139730040E-033
 -3.800000000000000E-002    5.822404524105966E-033
 -3.790000000000000E-002    2.012566307037451E-032
 -3.780000000000000E-002    6.222504507453461E-032
 -3.770000000000000E-002    1.734905802677223E-031
 -3.760000000000000E-002    4.380866117952254E-031
 -3.750000000000000E-002    1.002014911153991E-030
 -3.740000000000000E-002    2.064091116133839E-030
 -3.730000000000000E-002    3.767567754407801E-030
 -3.720000000000000E-002    5.848268639208088E-030
 -3.710000000000000E-002    6.799863260249132E-030
 -3.700000000000000E-002    2.240678963497186E-030
 -3.690000000000000E-002   -1.778774523219351E-029
 -3.680000000000000E-002   -7.250353336856991E-029
 -3.670000000000000E-002   -1.940222551521043E-028
 -3.660000000000000E-002   -4.281089757420287E-028
 -3.650000000000000E-002   -8.263747764222717E-028
 -3.640000000000000E-002   -1.420719016807167E-027
 -3.630000000000000E-002   -2.167783496603803E-027
 -3.620000000000000E-002   -2.851149903453368E-027
 -3.610000000000000E-002   -2.936006811121653E-027
 -3.600000000000000E-002   -1.390210339122721E-027
 -3.590000000000000E-002    3.478052157294320E-027
 -3.580000000000000E-002    1.406062364839994E-026
 -3.570000000000000E-002    3.319385357614650E-026
 -3.560000000000000E-002    6.336924841676823E-026
 -3.550000000000000E-002    1.051469340368180E-025
 -3.540000000000000E-002    1.545729887069628E-025
 -3.530000000000000E-002    1.996174622421936E-025
 -3.520000000000000E-002    2.160723252865295E-025
 -3.510000000000000E-002    1.639992394035866E-025
 -3.500000000000000E-002   -1.335647397316854E-026
 -3.490000000000000E-002   -3.854273479556065E-025
 -3.480000000000000E-002   -1.021648509937817E-024
 -3.470000000000000E-002   -1.967098066958853E-024
 -3.460000000000000E-002   -3.204698055023557E-024
 -3.450000000000000E-002   -4.605297688399456E-024
 -3.440000000000000E-002   -5.871926466077766E-024
 -3.430000000000000E-002   -6.491093555931164E-024
 -3.420000000000000E-002   -5.711239696077001E-024
 -3.410000000000000E-002   -2.574509121554857E-024
 -3.400000000000000E-002    3.969638221831426E-024
 -3.390000000000000E-002    1.484478958614560E-023
 -3.380000000000000E-002    3.051138889670579E-023
 -3.370000000000000E-002    5.052788203624893E-023
 -3.360000000000000E-002    7.305739234801234E-023
 -3.350000000000000E-002    9.440834440927553E-023
 -3.340000000000000E-002    1.087361045631051E-022
 -3.330000000000000E-002    1.080596272011157E-022
 -3.320000000000000E-002    8.275090703420283E-023
 -3.310000000000000E-002    2.262613410990245E-023
 -3.300000000000000E-002   -8.129926112003422E-023
 -3.290000000000000E-002   -2.344304203383053E-022
 -3.280000000000000E-002   -4.357505929532092E-022
 -3.270000000000000E-002   -6.748054830922059E-022
 -3.260000000000000E-002   -9.289098891938477E-022
 -3.250000000000000E-002   -1.161039503700331E-021
 -3.240000000000000E-002   -1.318892171197766E-021
 -3.230000000000000E-002   -1.335593595529273E-021
 -3.220000000000000E-002   -1.132512624366871E-021
 -3.210000000000000E-002   -6.246875441239191E-022
 -3.200000000000000E-002    2.705228720711696E-022
 -3.190000000000000E-002    1.620768014303796E-021
 -3.180000000000000E-002    3.461053637510642E-021
 -3.170000000000000E-002    5.770185388456783E-021
 -3.160000000000000E-002    8.440903788438019E-021
 -3.150000000000000E-002    1.124465761475238E-020
 -3.140000000000000E-002    1.379443025383109E-020
 -3.130000000000000E-002    1.551273526392958E-020
 -3.120000000000000E-002    1.561655199990237E-020
 -3.110000000000000E-002    1.313578372054960E-020
 -3.100000000000000E-002    6.985330525804884E-021
 -3.090000000000000E-002   -3.888937136809388E-021
 -3.080000000000000E-002   -2.027542588549808E-020
 -3.070000000000000E-002   -4.237152301862868E-020
 -3.060000000000000E-002   -6.938783566370381E-020
 -3.050000000000000E-002   -9.913186034957462E-020
 -3.040000000000000E-002   -1.276552492174732E-019
 -3.030000000000000E-002   -1.490810502863159E-019
 -3.020000000000000E-002   -1.557480998620053E-019
 -3.010000000000000E-002   -1.388077660385091E-019
 -3.000000000000000E-002   -8.937306090167035E-020
 -2.990000000000000E-002   -2.439842148282642E-022
 -2.980000000000000E-002    1.318844972798866E-019
 -2.970000000000000E-002    3.039746471296143E-019
 -2.960000000000000E-002    5.043612521715736E-019
 -2.950000000000000E-002    7.111703170542175E-019
 -2.940000000000000E-002    8.920557254709640E-019
 -2.930000000000000E-002    1.005837042887202E-018
 -2.920000000000000E-002    1.006450569822178E-018
 -2.910000000000000E-002    8.493027386547673E-019
 -2.900000000000000E-002    4.996536695319180E-019
 -2.890000000000000E-002   -5.788008294214499E-020
 -2.880000000000000E-002   -8.101473664035310E-019
 -2.870000000000000E-002   -1.708447844394369E-018
 -2.860000000000000E-002   -2.665656956395433E-018
 -2.850000000000000E-002   -3.559225779920599E-018
 -2.840000000000000E-002   -4.241117901676239E-018
 -2.830000000000000E-002   -4.554656472866440E-018
 -2.820000000000000E-002   -4.356878642702361E-018
 -2.810000000000000E-002   -3.543555161436967E-018
 -2.800000000000000E-002   -2.072842207646939E-018
 -2.790000000000000E-002    1.707449241134396E-020
 -2.780000000000000E-002    2.600708056071313E-018
 -2.770000000000000E-002    5.471424468287346E-018
 -2.760000000000000E-002    8.361751750359180E-018
 -2.750000000000000E-002    1.097556745107744E-017
 -2.740000000000000E-002    1.302672931707646E-017
 -2.730000000000000E-002    1.427618250807467E-017
 -2.720000000000000E-002    1.455847568205065E-017
 -2.710000000000000E-002    1.378963677105821E-017
 -2.700000000000000E-002    1.195184168043394E-017
 -2.690000000000000E-002    9.056058233511205E-018
 -2.680000000000000E-002    5.091026710745811E-018
 -2.670000000000000E-002   -2.593480061980200E-020
 -2.660000000000000E-002   -6.475688740846791E-018
 -2.650000000000000E-002   -1.451987332698725E-017
 -2.640000000000000E-002   -2.442223797887420E-017
 -2.630000000000000E-002   -3.630268200670463E-017
 -2.620000000000000E-002   -4.993481364625159E-017
 -2.610000000000000E-002   -6.451829518648585E-017
 -2.600000000000000E-002   -7.847717290069183E-017
 -2.590000000000000E-002   -8.934996018224451E-017
 -2.580000000000000E-002   -9.384083828097757E-017
 -2.570000000000000E-002   -8.808970235602077E-017
 -2.560000000000000E-002   -6.818964845354651E-017
 -2.550000000000000E-002   -3.093479227726747E-017
 -2.540000000000000E-002    2.527513224156719E-017
 -2.530000000000000E-002    9.950532132477689E-017
 -2.520000000000000E-002    1.875112292110671E-016
 -2.510000000000000E-002    2.813214676090739E-016
 -2.500000000000000E-002    3.693687606662036E-016
 -2.490000000000000E-002    4.373039331082979E-016
 -2.480000000000000E-002    4.695297983754310E-016
 -2.470000000000000E-002    4.513617677719902E-016
 -2.460000000000000E-002    3.715781642194675E-016
 -2.450000000000000E-002    2.249936125858338E-016
 -2.440000000000000E-002    1.460286843017678E-017
 -2.430000000000000E-002   -2.471719861149223E-016
 -2.420000000000000E-002   -5.385225126400768E-016
 -2.410000000000000E-002   -8.298056827519339E-016
 -2.400000000000000E-002   -1.086583514129667E-015
 -2.390000000000000E-002   -1.273840884471788E-015
 -2.380000000000000E-002   -1.360796918981763E-015
 -2.370000000000000E-002   -1.325523354949528E-015
 -2.360000000000000E-002   -1.158510501206810E-015
 -2.350000000000000E-002   -8.644179172770086E-016
 -2.340000000000000E-002   -4.615249443754444E-016
 -2.330000000000000E-002    2.117612087659337E-017
 -2.320000000000000E-002    5.487867393464007E-016
 -2.310000000000000E-002    1.086255394858668E-015
 -2.300000000000000E-002    1.603761950001238E-015
 -2.290000000000000E-002    2.080301061399925E-015
 -2.280000000000000E-002    2.504241062917623E-015
 -2.270000000000000E-002    2.870188956837572E-015
 -2.260000000000000E-002    3.172334472761853E-015
 -2.250000000000000E-002    3.395446291938635E-015
 -2.240000000000000E-002    3.505646838678195E-015
 -2.230000000000000E-002    3.443767574270499E-015
 -2.220000000000000E-002    3.124252978160299E-015
 -2.210000000000000E-002    2.442085958775106E-015
 -2.200000000000000E-002    1.288990390841405E-015
 -2.190000000000000E-002   -4.216591917308259E-016
 -2.180000000000000E-002   -2.723982302047310E-015
 -2.170000000000000E-002   -5.567688842596556E-015
 -2.160000000000000E-002   -8.791667880596515E-015
 -2.150000000000000E-002   -1.211024416436133E-014
 -2.140000000000000E-002   -1.511860471881716E-014
 -2.130000000000000E-002   -1.732169611909215E-014
 -2.120000000000000E-002   -1.818736553419857E-014
 -2.110000000000000E-002   -1.722004393357117E-014
 -2.100000000000000E-002   -1.404659418520959E-014
 -2.090000000000000E-002   -8.501957983356636E-015
 -2.080000000000000E-002   -6.998465096444722E-016
 -2.070000000000000E-002    8.926302511297939E-015
 -2.060000000000000E-002    1.962414946186585E-014
 -2.050000000000000E-002    3.037162494152582E-014
 -2.040000000000000E-002    3.997352618911021E-014
 -2.030000000000000E-002    4.719616628779127E-014
 -2.020000000000000E-002    5.092284225780390E-014
 -2.010000000000000E-002    5.030728906114490E-014
 -2.000000000000000E-002    4.490025600118102E-014
 -1.990000000000000E-002    3.472687451141609E-014
 -1.980000000000000E-002    2.029953345312836E-014
 -1.970000000000000E-002    2.561852346104155E-015
 -1.960000000000000E-002   -1.722794865230700E-014
 -1.950000000000000E-002   -3.765355338341898E-014
 -1.940000000000000E-002   -5.730709089606483E-014
 -1.930000000000000E-002   -7.493203209599379E-014
 -1.920000000000000E-002   -8.951214244693352E-014
 -1.910000000000000E-002   -1.002867095506080E-013
 -1.900000000000000E-002   -1.066888605229346E-013
 -1.890000000000000E-002   -1.082234363186766E-013
 -1.880000000000000E-002   -1.043198383495674E-013
 -1.870000000000000E-002   -9.420882984250672E-014
 -1.860000000000000E-002   -7.687657335789337E-014
 -1.850000000000000E-002   -5.114169479237341E-014
 -1.840000000000000E-002   -1.588067060745996E-014
 -1.830000000000000E-002    2.960355727139409E-014
 -1.820000000000000E-002    8.511157323271257E-014
 -1.810000000000000E-002    1.490533688266138E-013
 -1.800000000000000E-002    2.180343152226084E-013
 -1.790000000000000E-002    2.866363144126546E-013
 -1.780000000000000E-002    3.474989292557004E-013
 -1.770000000000000E-002    3.917715756479010E-013
 -1.760000000000000E-002    4.099539643147719E-013
 -1.750000000000000E-002    3.930736551203358E-013
 -1.740000000000000E-002    3.340789700633592E-013
 -1.730000000000000E-002    2.292643777117545E-013
 -1.720000000000000E-002    7.950728313509966E-014
 -1.710000000000000E-002   -1.089094890624614E-013
 -1.700000000000000E-002   -3.240819920294796E-013
 -1.690000000000000E-002   -5.489964628631077E-013
 -1.680000000000000E-002   -7.627883875135043E-013
 -1.670000000000000E-002   -9.426546124900281E-013
 -1.660000000000000E-002   -1.066213653797565E-012
 -1.650000000000000E-002   -1.114024466517037E-012
 -1.640000000000000E-002   -1.071930562215147E-012
 -1.630000000000000E-002   -9.329063731341793E-013
 -1.620000000000000E-002   -6.981499018674874E-013
 -1.610000000000000E-002   -3.772758589599146E-013
 -1.600000000000000E-002    1.239395732882421E-014
 -1.590000000000000E-002    4.473038129312751E-013
 -1.580000000000000E-002    8.996422078195692E-013
 -1.570000000000000E-002    1.339498025444592E-012
 -1.560000000000000E-002    1.736864307383644E-012
 -1.550000000000000E-002    2.063228235681687E-012
 -1.540000000000000E-002    2.292613989762708E-012
 -1.530000000000000E-002    2.402107244279118E-012
 -1.520000000000000E-002    2.372055034456365E-012
 -1.510000000000000E-002    2.186259464869237E-012
 -1.500000000000000E-002    1.832534748556112E-012
 -1.490000000000000E-002    1.303951016491412E-012
 -1.480000000000000E-002    6.009414270165569E-013
 -1.470000000000000E-002   -2.657834449772575E-013
 -1.460000000000000E-002   -1.271854393255880E-012
 -1.450000000000000E-002   -2.376001012449610E-012
 -1.440000000000000E-002   -3.517766412206348E-012
 -1.430000000000000E-002   -4.617069105757630E-012
 -1.420000000000000E-002   -5.576418078091557E-012
 -1.410000000000000E-002   -6.286315794783112E-012
 -1.400000000000000E-002   -6.633955898769725E-012
 -1.390000000000000E-002   -6.514780296113653E-012
 -1.380000000000000E-002   -5.845900250276083E-012
 -1.370000000000000E-002   -4.579884767985441E-012
 -1.360000000000000E-002   -2.717094007446540E-012
 -1.350000000000000E-002   -3.146481476799165E-013
 -1.340000000000000E-002    2.509678313360700E-012
 -1.330000000000000E-002    5.579851236601000E-012
 -1.320000000000000E-002    8.670760245897388E-012
 -1.310000000000000E-002    1.152382487657805E-011
 -1.300000000000000E-002    1.386778985889957E-011
 -1.290000000000000E-002    1.544272833020114E-011
 -1.280000000000000E-002    1.602477689285185E-011
 -1.270000000000000E-002    1.544896445826744E-011
 -1.260000000000000E-002    1.362770360642386E-011
 -1.250000000000000E-002    1.056305717930388E-011
 -1.240000000000000E-002    6.351680858608801E-012
 -1.230000000000000E-002    1.182242506997448E-012
 -1.220000000000000E-002   -4.674023975853040E-012
 -1.210000000000000E-002   -1.087830078358142E-011
 -1.200000000000000E-002   -1.704302332297956E-011
 -1.190000000000000E-002   -2.275284823425935E-011
 -1.180000000000000E-002   -2.758635789232606E-011
 -1.170000000000000E-002   -3.113761003443753E-011
 -1.160000000000000E-002   -3.303725424118448E-011
 -1.150000000000000E-002   -3.297342305496127E-011
 -1.140000000000000E-002   -3.071285077345614E-011
 -1.130000000000000E-002   -2.612253149976995E-011
 -1.120000000000000E-002   -1.919167219788883E-011
 -1.110000000000000E-002   -1.005281016186390E-011
 -1.100000000000000E-002    1.000048991453971E-012
 -1.090000000000000E-002    1.349949025326184E-011
 -1.080000000000000E-002    2.680277219564178E-011
 -1.070000000000000E-002    4.010390650690245E-011
 -1.060000000000000E-002    5.246303285117469E-011
 -1.050000000000000E-002    6.285494928132537E-011
 -1.040000000000000E-002    7.023649833492687E-011
 -1.030000000000000E-002    7.362983974741339E-011
 -1.020000000000000E-002    7.221587357678340E-011
 -1.010000000000000E-002    6.542959119696613E-011
 -1.000000000000000E-002    5.304739229376250E-011
 -9.899999999999999E-003    3.525581225678385E-011
 -9.800000000000000E-003    1.269172624028754E-011
 -9.699999999999999E-003   -1.355374990500618E-011
 -9.599999999999999E-003   -4.197220421979001E-011
 -9.500000000000000E-003   -7.071615645669261E-011
 -9.399999999999999E-003   -9.771454264499221E-011
 -9.299999999999999E-003   -1.208172643927597E-010
 -9.200000000000000E-003   -1.379572618399148E-010
 -9.099999999999999E-003   -1.473163296675361E-010
 -8.999999999999999E-003   -1.474806072245844E-010
 -8.900000000000000E-003   -1.375722797351490E-010
 -8.799999999999999E-003   -1.173467383110249E-010
 -8.699999999999999E-003   -8.724770505481462E-011
 -8.600000000000000E-003   -4.841651178769820E-011
 -8.499999999999999E-003   -2.655789100714680E-012
 -8.399999999999999E-003    4.764928448417831E-011
 -8.300000000000000E-003    9.964632881382499E-011
 -8.199999999999999E-003    1.501608533827952E-010
 -8.100000000000000E-003    1.958635623617485E-010
 -8.000000000000000E-003    2.334526151739943E-010
 -7.899999999999999E-003    2.598441156229293E-010
 -7.800000000000000E-003    2.723640801106329E-010
 -7.699999999999999E-003    2.689353724713147E-010
 -7.599999999999999E-003    2.482515153405216E-010
 -7.499999999999999E-003    2.099286686435748E-010
 -7.399999999999999E-003    1.546245994793281E-010
 -7.299999999999999E-003    8.411249790466976E-011
 -7.199999999999999E-003    1.296899155317362E-012
 -7.100000000000000E-003   -8.984015744327056E-011
 -6.999999999999999E-003   -1.843716414040310E-010
 -6.899999999999999E-003   -2.766407094583726E-010
 -6.800000000000000E-003   -3.605555776268203E-010
 -6.699999999999999E-003   -4.299530416107861E-010
 -6.599999999999999E-003   -4.790110867267827E-010
 -6.499999999999999E-003   -5.026831990303468E-010
 -6.399999999999999E-003   -4.971209970718547E-010
 -6.299999999999999E-003   -4.600489184891678E-010
 -6.199999999999999E-003   -3.910553063472116E-010
 -6.100000000000000E-003   -2.917692797817331E-010
 -5.999999999999999E-003   -1.659003380944656E-010
 -5.899999999999999E-003   -1.912941901967816E-011
 -5.800000000000000E-003    1.411469652897535E-010
 -5.699999999999999E-003    3.062052672356432E-010
 -5.599999999999999E-003    4.664896825051498E-010
 -5.499999999999999E-003    6.121778676009927E-010
 -5.399999999999999E-003    7.337767186235532E-010
 -5.299999999999999E-003    8.227064391752596E-010
 -5.199999999999999E-003    8.718330700498036E-010
 -5.099999999999999E-003    8.759166940090993E-010
 -4.999999999999999E-003    8.319509822250578E-010
 -4.899999999999999E-003    7.393780383947198E-010
 -4.799999999999999E-003    6.001744506035912E-010
 -4.699999999999999E-003    4.188095326068196E-010
 -4.599999999999999E-003    2.020856317013391E-010
 -4.499999999999999E-003   -4.112726377207448E-011
 -4.399999999999999E-003   -3.002484707189235E-010
 -4.299999999999999E-003   -5.634197971108552E-010
 -4.199999999999999E-003   -8.180009858310993E-010
 -4.099999999999999E-003   -1.051112147911205E-009
 -3.999999999999999E-003   -1.250208724931720E-009
 -3.899999999999999E-003   -1.403670580127359E-009
 -3.799999999999999E-003   -1.501384827503390E-009
 -3.699999999999999E-003   -1.535298413773767E-009
 -3.599999999999999E-003   -1.499910945635342E-009
 -3.499999999999999E-003   -1.392678541542095E-009
 -3.399999999999999E-003   -1.214298549605181E-009
 -3.299999999999999E-003   -9.688470075106505E-010
 -3.199999999999999E-003   -6.637505820856121E-010
 -3.099999999999999E-003   -3.095820902618527E-010
 -2.999999999999999E-003    8.031662425036643E-011
 -2.899999999999999E-003    4.903676028768302E-010
 -2.799999999999999E-003    9.034152452139640E-010
 -2.699999999999999E-003    1.301468111511484E-009
 -2.599999999999999E-003    1.666475906634110E-009
 -2.499999999999999E-003    1.981088895473074E-009
 -2.399999999999999E-003    2.229353752207046E-009
 -2.299999999999999E-003    2.397303792223038E-009
 -2.199999999999999E-003    2.473418515194755E-009
 -2.099999999999999E-003    2.448940677481270E-009
 -1.999999999999999E-003    2.318056023585176E-009
 -1.899999999999999E-003    2.077956683016557E-009
 -1.799999999999999E-003    1.728821398861486E-009
 -1.699999999999999E-003    1.273755079020444E-009
 -1.599999999999999E-003    7.187317823407034E-010
 -1.499999999999999E-003    7.258553056552849E-011
 -1.399999999999999E-003   -6.529138424004217E-010
 -1.299999999999999E-003   -1.442871168985284E-009
 -1.199999999999999E-003   -2.278944287868275E-009
 -1.099999999999999E-003   -3.138883679029313E-009
 -9.999999999999989E-004   -3.995939378311652E-009
 -8.999999999999990E-004   -4.818143750480189E-009
 -7.999999999999990E-004   -5.567492467386835E-009
 -6.999999999999989E-004   -6.199052742274433E-009
 -5.999999999999990E-004   -6.660019457805762E-009
 -4.999999999999989E-004   -6.888766539897493E-009
 -3.999999999999989E-004   -6.813924664059838E-009
 -2.999999999999989E-004   -6.353540223708678E-009
 -1.999999999999989E-004   -5.414369924334041E-009
 -9.999999999999892E-005   -3.891376838124391E-009
  1.084202172485504E-018   -1.667502247850871E-009
  1.000000000000011E-004    1.386206639055589E-009
  2.000000000000011E-004    5.410033766502114E-009
  3.000000000000011E-004    1.055451873218467E-008
  4.000000000000011E-004    1.697882821088002E-008
  5.000000000000011E-004    2.484849403071656E-008
  6.000000000000011E-004    3.433257936854289E-008
  7.000000000000011E-004    4.560026829229609E-008
  8.000000000000011E-004    5.881697440207694E-008
  9.000000000000012E-004    7.414013185892258E-008
  1.000000000000001E-003    9.171482499521818E-008
  1.100000000000001E-003    1.116695276731123E-007
  1.200000000000001E-003    1.341121252820395E-007
  1.300000000000001E-003    1.591266077254254E-007
  1.400000000000001E-003    1.867706329506466E-007
  1.500000000000001E-003    2.170741832732272E-007
  1.600000000000001E-003    2.500396363443359E-007
  1.700000000000001E-003    2.856432627600281E-007
  1.800000000000001E-003    3.238383175910879E-007
  1.900000000000001E-003    3.645597090869472E-007
  2.000000000000001E-003    4.077301256370517E-007
  2.100000000000001E-003    4.532674123232835E-007
  2.200000000000001E-003    5.010930092640027E-007
  2.300000000000001E-003    5.511409487292948E-007
  2.400000000000001E-003    6.033673284620197E-007
  2.500000000000001E-003    6.577594958597981E-007
  2.600000000000001E-003    7.143446433902487E-007
  2.700000000000001E-003    7.731973836158755E-007
  2.800000000000001E-003    8.344459518756211E-007
  2.900000000000001E-003    8.982766003726457E-007
  3.000000000000001E-003    9.649358433319130E-007
  3.100000000000001E-003    1.034730744428533E-006
  3.200000000000001E-003    1.108026521045183E-006
  3.300000000000001E-003    1.185242390506064E-006
  3.400000000000001E-003    1.266844803410967E-006
  3.500000000000001E-003    1.353339227939904E-006
  3.600000000000001E-003    1.445260525429068E-006
  3.700000000000001E-003    1.543162258003263E-006
  3.800000000000001E-003    1.647605533563268E-006
  3.900000000000001E-003    1.759148329548000E-006
  4.000000000000001E-003    1.878335506094362E-006
  4.100000000000001E-003    2.005690269192251E-006
  4.200000000000001E-003    2.141707650478731E-006
  4.300000000000001E-003    2.286850786347550E-006
  4.400000000000001E-003    2.441549029047777E-006
  4.500000000000001E-003    2.606200190708972E-006
  4.600000000000002E-003    2.781174605623447E-006
  4.700000000000001E-003    2.966823226979847E-006
  4.800000000000001E-003    3.163487120708324E-006
  4.900000000000002E-003    3.371510100812589E-006
  5.000000000000001E-003    3.591251548201088E-006
  5.100000000000001E-003    3.823102110223330E-006
  5.200000000000001E-003    4.067496906688631E-006
  5.300000000000002E-003    4.324930596403464E-006
  5.400000000000001E-003    4.595968626681734E-006
  5.500000000000001E-003    4.881259507096377E-006
  5.600000000000002E-003    5.181541658534896E-006
  5.700000000000001E-003    5.497650722170280E-006
  5.800000000000001E-003    5.830519766667524E-006
  5.900000000000002E-003    6.181180702427565E-006
  6.000000000000001E-003    6.550760517739237E-006
  6.100000000000001E-003    6.940474950716179E-006
  6.200000000000002E-003    7.351621097887188E-006
  6.300000000000002E-003    7.785567599514828E-006
  6.400000000000001E-003    8.243742890562386E-006
  6.500000000000001E-003    8.727625217769646E-006
  6.600000000000002E-003    9.238731493811067E-006
  6.700000000000001E-003    9.778606841659587E-006
  6.800000000000001E-003    1.034881879118576E-005
  6.900000000000002E-003    1.095094785135597E-005
  7.000000000000001E-003    1.158658726297733E-005
  7.100000000000001E-003    1.225734289360953E-005
  7.200000000000002E-003    1.296483331550163E-005
  7.300000000000002E-003    1.371070021308686E-005
  7.400000000000001E-003    1.449661789550088E-005
  7.500000000000001E-003    1.532430370227899E-005
  7.600000000000002E-003    1.619553754852954E-005
  7.700000000000001E-003    1.711217539297366E-005
  7.800000000000001E-003    1.807616974057021E-005
  7.900000000000001E-003    1.908958591915566E-005
  8.000000000000002E-003    2.015462227613982E-005
  8.100000000000001E-003    2.127362367543227E-005
  8.200000000000001E-003    2.244909438410638E-005
  8.300000000000002E-003    2.368370996855759E-005
  8.400000000000001E-003    2.498032174509807E-005
  8.500000000000002E-003    2.634195922053124E-005
  8.600000000000002E-003    2.777182353370457E-005
  8.700000000000001E-003    2.927329527026365E-005
  8.800000000000002E-003    3.084991184032540E-005
  8.900000000000002E-003    3.250536670365950E-005
  9.000000000000001E-003    3.424349204144680E-005
  9.100000000000002E-003    3.606824845606223E-005
  9.200000000000002E-003    3.798372249860138E-005
  9.300000000000001E-003    3.999410928121098E-005
  9.400000000000002E-003    4.210371367745193E-005
  9.500000000000001E-003    4.431694273195350E-005
  9.600000000000001E-003    4.663831361629063E-005
  9.700000000000002E-003    4.907245488891692E-005
  9.800000000000001E-003    5.162411955756596E-005
  9.900000000000001E-003    5.429819988612144E-005
  1.000000000000000E-002    5.709973300830469E-005
  1.010000000000000E-002    6.003393596314630E-005
  1.020000000000000E-002    6.310620506429134E-005
  1.030000000000000E-002    6.632215050950585E-005
  1.040000000000000E-002    6.968760724168361E-005
  1.050000000000000E-002    7.320865295403576E-005
  1.060000000000000E-002    7.689161818110997E-005
  1.070000000000000E-002    8.074311336963361E-005
  1.080000000000000E-002    8.477002280759264E-005
  1.090000000000000E-002    8.897951493029386E-005
  1.100000000000000E-002    9.337905547230211E-005
  1.110000000000000E-002    9.797639828012253E-005
  1.120000000000000E-002    1.027795927504982E-004
  1.130000000000000E-002    1.077969688297321E-004
  1.140000000000000E-002    1.130371370356860E-004
  1.150000000000000E-002    1.185089946665243E-004
  1.160000000000000E-002    1.242217175209124E-004
  1.170000000000000E-002    1.301847220088011E-004
  1.180000000000000E-002    1.364077229443650E-004
  1.190000000000000E-002    1.429006785698729E-004
  1.200000000000000E-002    1.496738221118181E-004
  1.210000000000000E-002    1.567376513137947E-004
  1.220000000000000E-002    1.641029463451344E-004
  1.230000000000000E-002    1.717807698095382E-004
  1.240000000000000E-002    1.797824589843336E-004
  1.250000000000000E-002    1.881196872321771E-004
  1.260000000000000E-002    1.968044321543454E-004
  1.270000000000000E-002    2.058490125990111E-004
  1.280000000000000E-002    2.152661080130930E-004
  1.290000000000000E-002    2.250687569973698E-004
  1.300000000000000E-002    2.352703880131030E-004
  1.310000000000000E-002    2.458848185642405E-004
  1.320000000000000E-002    2.569262910678923E-004
  1.330000000000000E-002    2.684094370041776E-004
  1.340000000000000E-002    2.803493688554402E-004
  1.350000000000000E-002    2.927615895625400E-004
  1.360000000000000E-002    3.056620519449416E-004
  1.370000000000000E-002    3.190671182870258E-004
  1.380000000000000E-002    3.329935803983921E-004
  1.390000000000000E-002    3.474586606562921E-004
  1.400000000000000E-002    3.624799870757617E-004
  1.410000000000000E-002    3.780755956108906E-004
  1.420000000000000E-002    3.942638678407400E-004
  1.430000000000000E-002    4.110636173184605E-004
  1.440000000000000E-002    4.284939778462966E-004
  1.450000000000000E-002    4.465744851664473E-004
  1.460000000000000E-002    4.653250171945798E-004
  1.470000000000000E-002    4.847657825450858E-004
  1.480000000000000E-002    5.049173875248925E-004
  1.490000000000000E-002    5.258007999579108E-004
  1.500000000000000E-002    5.474372482941101E-004
  1.510000000000000E-002    5.698484446628873E-004
  1.520000000000000E-002    5.930565058594964E-004
  1.530000000000000E-002    6.170838576402136E-004
  1.540000000000000E-002    6.419534289283735E-004
  1.550000000000000E-002    6.676884737230878E-004
  1.560000000000000E-002    6.943127481541956E-004
  1.570000000000000E-002    7.218504592324384E-004
  1.580000000000000E-002    7.503262466330229E-004
  1.590000000000000E-002    7.797651307879189E-004
  1.600000000000000E-002    8.101926223699298E-004
  1.610000000000000E-002    8.416346161394228E-004
  1.620000000000000E-002    8.741173812303450E-004
  1.630000000000000E-002    9.076676255438062E-004
  1.640000000000000E-002    9.423123348959212E-004
  1.650000000000000E-002    9.780788798708815E-004
  1.660000000000000E-002    1.014994860381271E-003
  1.670000000000000E-002    1.053088125864243E-003
  1.680000000000000E-002    1.092386921253769E-003
  1.690000000000000E-002    1.132919551493204E-003
  1.700000000000000E-002    1.174714446533726E-003
  1.710000000000000E-002    1.217800379772779E-003
  1.720000000000000E-002    1.262206262082782E-003
  1.730000000000000E-002    1.307960885462504E-003
  1.740000000000000E-002    1.355093354775596E-003
  1.750000000000000E-002    1.403632838563891E-003
  1.760000000000000E-002    1.453608605617071E-003
  1.770000000000000E-002    1.505049839692586E-003
  1.780000000000000E-002    1.557985793472551E-003
  1.790000000000000E-002    1.612445700094003E-003
  1.800000000000000E-002    1.668458887394528E-003
  1.810000000000000E-002    1.726054665636727E-003
  1.820000000000000E-002    1.785262001623974E-003
  1.830000000000000E-002    1.846109937672845E-003
  1.840000000000000E-002    1.908627418401696E-003
  1.850000000000000E-002    1.972843210796878E-003
  1.860000000000000E-002    2.038785892938063E-003
  1.870000000000000E-002    2.106483789218135E-003