 -4.000000000000000E-002    0.000000000000000E+000
 -3.990000000000000E-002    0.000000000000000E+000
 -3.980000000000000E-002    0.000000000000000E+000
 -3.970000000000000E-002    0.000000000000000E+000
 -3.960000000000000E-002    0.000000000000000E+000
 -3.950000000000000E-002    8.943228943645832E-022
 -3.940000000000000E-002    3.259271732302945E-022
 -3.930000000000000E-002   -4.819489283209927E-020
 -3.920000000000000E-002   -3.924543515518962E-019
 -3.910000000000000E-002   -1.886174122557682E-018
 -3.900000000000000E-002   -6.780499926141153E-018
 -3.890000000000000E-002   -1.993909571071682E-017
 -3.880000000000000E-002   -5.024285925515200E-017
 -3.870000000000000E-002   -1.115084451806989E-016
 -3.860000000000000E-002   -2.217272413322131E-016
 -3.850000000000000E-002   -3.990453460854690E-016
 -3.840000000000000E-002   -6.529455509335119E-016
 -3.830000000000000E-002   -9.698534163270194E-016
 -3.820000000000000E-002   -1.294046178036075E-015
 -3.810000000000000E-002   -1.507215885621448E-015
 -3.800000000000000E-002   -1.412893469835206E-015
 -3.790000000000000E-002   -7.343980029868098E-016
 -3.780000000000000E-002    8.640086828312982E-016
 -3.770000000000000E-002    3.724552255948058E-015
 -3.760000000000000E-002    8.108427483247668E-015
 -3.750000000000000E-002    1.407779605406735E-014
 -3.740000000000000E-002    2.136215874636985E-014
 -3.730000000000000E-002    2.923494280353251E-014
 -3.720000000000000E-002    3.643503158063649E-014
 -3.710000000000000E-002    4.117143550802480E-014
 -3.700000000000000E-002    4.124493620970883E-014
 -3.690000000000000E-002    3.430616090693234E-014
 -3.680000000000000E-002    1.824586021713316E-014
 -3.670000000000000E-002   -8.317756523829115E-015
 -3.660000000000000E-002   -4.552233534143769E-014
 -3.650000000000000E-002   -9.181104868936555E-014
 -3.640000000000000E-002   -1.436593970984144E-013
 -3.630000000000000E-002   -1.955856787987864E-013
 -3.620000000000000E-002   -2.405235097111025E-013
 -3.610000000000000E-002   -2.705829858410764E-013
 -3.600000000000000E-002   -2.781555534976596E-013
 -3.590000000000000E-002   -2.572387812583912E-013
 -3.580000000000000E-002   -2.047828085127918E-013
 -3.570000000000000E-002   -1.218088710915401E-013
 -3.560000000000000E-002   -1.403713761136759E-014
 -3.550000000000000E-002    1.082047617684330E-013
 -3.540000000000000E-002    2.309325478025900E-013
 -3.530000000000000E-002    3.383232448226181E-013
 -3.520000000000000E-002    4.152445253463799E-013
 -3.510000000000000E-002    4.501744526022520E-013
 -3.500000000000000E-002    4.380508878061711E-013
 -3.490000000000000E-002    3.825089575545765E-013
 -3.480000000000000E-002    2.969688906461126E-013
 -3.470000000000000E-002    2.041374273938602E-013
 -3.460000000000000E-002    1.336828784938351E-013
 -3.450000000000000E-002    1.181192048050268E-013
 -3.440000000000000E-002    1.872482082368682E-013
 -3.430000000000000E-002    3.618185030570029E-013
 -3.420000000000000E-002    6.473020542825576E-013
 -3.410000000000000E-002    1.028829360872618E-012
 -3.400000000000000E-002    1.468306840809119E-012
 -3.390000000000000E-002    1.904565611096857E-012
 -3.380000000000000E-002    2.257055010182225E-012
 -3.370000000000000E-002    2.433148321970443E-012
 -3.360000000000000E-002    2.338600514934701E-012
 -3.350000000000000E-002    1.890203435667272E-012
 -3.340000000000000E-002    1.029247591610569E-012
 -3.330000000000000E-002   -2.658579088314673E-013
 -3.320000000000000E-002   -1.969541430480060E-012
 -3.310000000000000E-002   -4.003171042702201E-012
 -3.300000000000000E-002   -6.234517503411286E-012
 -3.290000000000000E-002   -8.483255138316027E-012
 -3.280000000000000E-002   -1.053251764291052E-011
 -3.270000000000000E-002   -1.214585806629147E-011
 -3.260000000000000E-002   -1.308829804510334E-011
 -3.250000000000000E-002   -1.314965947836609E-011
 -3.240000000000000E-002   -1.216797527953424E-011
 -3.230000000000000E-002   -1.005068662569029E-011
 -3.220000000000000E-002   -6.791351804427426E-012
 -3.210000000000000E-002   -2.479915881931536E-012
 -3.200000000000000E-002    2.694959021955272E-012
 -3.190000000000000E-002    8.452394541729889E-012
 -3.180000000000000E-002    1.443476545049882E-011
 -3.170000000000000E-002    2.023153231570927E-011
 -3.160000000000000E-002    2.540995360248783E-011
 -3.150000000000000E-002    2.955049062351416E-011
 -3.140000000000000E-002    3.228403310910828E-011
 -3.130000000000000E-002    3.332750815858295E-011
 -3.120000000000000E-002    3.251422034328262E-011
 -3.110000000000000E-002    2.981538547759614E-011
 -3.100000000000000E-002    2.534959229329280E-011
 -3.090000000000000E-002    1.937799758514734E-011
 -3.080000000000000E-002    1.228415825925181E-011
 -3.070000000000000E-002    4.539132371617457E-012
 -3.060000000000000E-002   -3.345795138898166E-012
 -3.050000000000000E-002   -1.087447945188868E-011
 -3.040000000000000E-002   -1.762366485412171E-011
 -3.030000000000000E-002   -2.329605582562121E-011
 -3.020000000000000E-002   -2.776161569406438E-011
 -3.010000000000000E-002   -3.108014835367344E-011
 -3.000000000000000E-002   -3.350022684389900E-011
 -2.990000000000000E-002   -3.543134692517902E-011
 -2.980000000000000E-002   -3.738999943105385E-011
 -2.970000000000000E-002   -3.992326640611132E-011
 -2.960000000000000E-002   -4.351736597794920E-011
 -2.950000000000000E-002   -4.850126881155820E-011
 -2.940000000000000E-002   -5.495744458389010E-011
 -2.930000000000000E-002   -6.265215775100135E-011
 -2.920000000000000E-002   -7.099681696742345E-011
 -2.910000000000000E-002   -7.904893598580134E-011
 -2.900000000000000E-002   -8.555750528308311E-011
 -2.890000000000000E-002   -8.905224059551698E-011
 -2.880000000000000E-002   -8.797133436561611E-011
 -2.870000000000000E-002   -8.081683643990709E-011
 -2.860000000000000E-002   -6.632332918134314E-011
 -2.850000000000000E-002   -4.362295937347602E-011
 -2.840000000000000E-002   -1.238945076436266E-011
 -2.830000000000000E-002    2.705445468519643E-011
 -2.820000000000000E-002    7.367835174679387E-011
 -2.810000000000000E-002    1.257412611526597E-010
 -2.800000000000000E-002    1.808456748440661E-010
 -2.790000000000000E-002    2.360437090197477E-010
 -2.780000000000000E-002    2.879852234339797E-010
 -2.770000000000000E-002    3.330940752771786E-010
 -2.760000000000000E-002    3.677563548140296E-010
 -2.750000000000000E-002    3.885054103082032E-010
 -2.740000000000000E-002    3.921902212379349E-010
 -2.730000000000000E-002    3.761187458425181E-010
 -2.720000000000000E-002    3.381728365766839E-010
 -2.710000000000000E-002    2.768979262882968E-010
 -2.700000000000000E-002    1.915756407160157E-010
 -2.690000000000000E-002    8.229194616083737E-011
 -2.680000000000000E-002   -4.998477328397151E-011
 -2.670000000000000E-002   -2.033026735504408E-010
 -2.660000000000000E-002   -3.745921394259363E-010
 -2.650000000000000E-002   -5.594967983869208E-010
 -2.640000000000000E-002   -7.521759150530029E-010
 -2.630000000000000E-002   -9.450960288016935E-010
 -2.620000000000000E-002   -1.128840661636009E-009
 -2.610000000000000E-002   -1.291976927710982E-009
 -2.600000000000000E-002   -1.421024799625660E-009
 -2.590000000000000E-002   -1.500579116111774E-009
 -2.580000000000000E-002   -1.513631244703080E-009
 -2.570000000000000E-002   -1.442130640735098E-009
 -2.560000000000000E-002   -1.267812535772675E-009
 -2.550000000000000E-002   -9.732972117091027E-010
 -2.540000000000000E-002   -5.434441355915971E-010
 -2.530000000000000E-002    3.308523089454409E-011
 -2.520000000000000E-002    7.621286864900065E-010
 -2.510000000000000E-002    1.642287896854186E-009
 -2.500000000000000E-002    2.663279272910609E-009
 -2.490000000000000E-002    3.804508851491799E-009
 -2.480000000000000E-002    5.034016575965751E-009
 -2.470000000000000E-002    6.307935109624239E-009
 -2.460000000000000E-002    7.570593304638992E-009
 -2.450000000000000E-002    8.755375040131285E-009
 -2.440000000000000E-002    9.786410229404194E-009
 -2.430000000000000E-002    1.058113594458938E-008
 -2.420000000000000E-002    1.105372169001367E-008
 -2.410000000000000E-002    1.111930228948586E-008
 -2.400000000000000E-002    1.069891464576407E-008
 -2.390000000000000E-002    9.724982411935965E-009
 -2.380000000000000E-002    8.147151928693374E-009
 -2.370000000000000E-002    5.938244314825806E-009
 -2.360000000000000E-002    3.100057130004352E-009
 -2.350000000000000E-002   -3.312656691721167E-010
 -2.340000000000000E-002   -4.280598688596902E-009
 -2.330000000000000E-002   -8.630200542961684E-009
 -2.320000000000000E-002   -1.321734008747324E-008
 -2.310000000000000E-002   -1.783341967789333E-008
 -2.300000000000000E-002   -2.222472927595268E-008
 -2.290000000000000E-002   -2.609491784249233E-008
 -2.280000000000000E-002   -2.910918519534553E-008
 -2.270000000000000E-002   -3.090008005205756E-008
 -2.260000000000000E-002   -3.107471255890269E-008
 -2.250000000000000E-002   -2.922305956800970E-008
 -2.240000000000000E-002   -2.492695731138805E-008
 -2.230000000000000E-002   -1.776939557106682E-008
 -2.220000000000000E-002   -7.343598213837424E-009
 -2.210000000000000E-002    6.738718502422472E-009
 -2.200000000000000E-002    2.484009492888771E-008
 -2.190000000000000E-002    4.729177365903434E-008
 -2.180000000000000E-002    7.438998007098037E-008
 -2.170000000000000E-002    1.063940476746859E-007
 -2.160000000000000E-002    1.435267334993921E-007
 -2.150000000000000E-002    1.859762901781435E-007
 -2.140000000000000E-002    2.339001650454300E-007
 -2.130000000000000E-002    2.874300588760200E-007
 -2.120000000000000E-002    3.466776421137747E-007
 -2.110000000000000E-002    4.117406943072513E-007
 -2.100000000000000E-002    4.827094058455059E-007
 -2.090000000000000E-002    5.596719976873134E-007
 -2.080000000000000E-002    6.427200210443491E-007
 -2.070000000000000E-002    7.319525551229554E-007
 -2.060000000000000E-002    8.274800435890831E-007
 -2.050000000000000E-002    9.294275065469032E-007
 -2.040000000000000E-002    1.037937314316101E-006
 -2.030000000000000E-002    1.153172137207944E-006
 -2.020000000000000E-002    1.275318120657863E-006
 -2.010000000000000E-002    1.404589020948862E-006
 -2.000000000000000E-002    1.541230472757519E-006
 -1.990000000000000E-002    1.685526210766792E-006
 -1.980000000000000E-002    1.837804359028633E-006
 -1.970000000000000E-002    1.998444661453351E-006
 -1.960000000000000E-002    2.167885406601235E-006
 -1.950000000000000E-002    2.346631221492795E-006
 -1.940000000000000E-002    2.535258471993265E-006
 -1.930000000000000E-002    2.734420283033320E-006
 -1.920000000000000E-002    2.944849137904235E-006
 -1.910000000000000E-002    3.167356966544478E-006
 -1.900000000000000E-002    3.402833008237433E-006
 -1.890000000000000E-002    3.652238520711444E-006
 -1.880000000000000E-002    3.916599552992749E-006
 -1.870000000000000E-002    4.196997558160687E-006
 -1.860000000000000E-002    4.494559239209811E-006
 -1.850000000000000E-002    4.810446001252951E-006
 -1.840000000000000E-002    5.145844120788343E-006
 -1.830000000000000E-002    5.501956362444706E-006
 -1.820000000000000E-002    5.879997052994362E-006
 -1.810000000000000E-002    6.281190308598292E-006
 -1.800000000000000E-002    6.706770552276689E-006
 -1.790000000000000E-002    7.157990318710654E-006
 -1.780000000000000E-002    7.636127165552564E-006
 -1.770000000000000E-002    8.142499344361908E-006
 -1.760000000000000E-002    8.678480216161763E-006
 -1.750000000000000E-002    9.245514744972839E-006
 -1.740000000000000E-002    9.845138277073841E-006
 -1.730000000000000E-002    1.047899362471183E-005
 -1.720000000000000E-002    1.114884603372989E-005
 -1.710000000000000E-002    1.185659577196379E-005
 -1.700000000000000E-002    1.260428977055530E-005
 -1.690000000000000E-002    1.339412534630162E-005
 -1.680000000000000E-002    1.422845294640939E-005
 -1.670000000000000E-002    1.510977571505909E-005
 -1.660000000000000E-002    1.604074673297658E-005
 -1.650000000000000E-002    1.702416322426395E-005
 -1.640000000000000E-002    1.806295793626651E-005
 -1.630000000000000E-002    1.916019735344984E-005
 -1.620000000000000E-002    2.031907086617619E-005
 -1.610000000000000E-002    2.154288937223702E-005
 -1.600000000000000E-002    2.283508770514662E-005
 -1.590000000000000E-002    2.419922352581208E-005
 -1.580000000000000E-002    2.563898013901918E-005
 -1.570000000000000E-002    2.715818049098780E-005
 -1.560000000000000E-002    2.876079703429038E-005
 -1.550000000000000E-002    3.045096399531795E-005
 -1.540000000000000E-002    3.223298893176861E-005
 -1.530000000000000E-002    3.411137995071373E-005
 -1.520000000000000E-002    3.609084948543181E-005
 -1.510000000000000E-002    3.817633712847950E-005
 -1.500000000000000E-002    4.037302278788615E-005
 -1.490000000000000E-002    4.268634019016044E-005
 -1.480000000000000E-002    4.512198282730389E-005
 -1.470000000000000E-002    4.768591420678748E-005
 -1.460000000000000E-002    5.038438046843218E-005
 -1.450000000000000E-002    5.322391568714234E-005
 -1.440000000000000E-002    5.621134077978852E-005
 -1.430000000000000E-002    5.935377632385837E-005
 -1.420000000000000E-002    6.265864815935152E-005
 -1.410000000000000E-002    6.613368506855905E-005
 -1.400000000000000E-002    6.978694756265922E-005
 -1.390000000000000E-002    7.362682192250506E-005
 -1.380000000000000E-002    7.766204459782325E-005
 -1.370000000000000E-002    8.190170168817820E-005
 -1.360000000000000E-002    8.635525717281250E-005
 -1.350000000000000E-002    9.103257147754631E-005
 -1.340000000000000E-002    9.594391333726836E-005
 -1.330000000000000E-002    1.010999799394210E-004
 -1.320000000000000E-002    1.065118955978148E-004
 -1.310000000000000E-002    1.121912583552382E-004
 -1.300000000000000E-002    1.181501148848585E-004
 -1.290000000000000E-002    1.244010168200153E-004
 -1.280000000000000E-002    1.309569791132502E-004
 -1.270000000000000E-002    1.378315298018170E-004
 -1.260000000000000E-002    1.450386881591841E-004
 -1.250000000000000E-002    1.525929865078859E-004
 -1.240000000000000E-002    1.605095037774129E-004
 -1.230000000000000E-002    1.688038297765161E-004
 -1.220000000000000E-002    1.774921151319657E-004
 -1.210000000000000E-002    1.865910751733154E-004
 -1.200000000000000E-002    1.961180212567117E-004
 -1.190000000000000E-002    2.060908607645426E-004
 -1.180000000000000E-002    2.165281350830011E-004
 -1.170000000000000E-002    2.274490552694410E-004
 -1.160000000000000E-002    2.388735185853487E-004
 -1.150000000000000E-002    2.508221660113402E-004
 -1.140000000000000E-002    2.633163569621827E-004
 -1.130000000000000E-002    2.763782267458783E-004
 -1.120000000000000E-002    2.900307244553239E-004
 -1.110000000000000E-002    3.042975999776894E-004
 -1.100000000000000E-002    3.192034660424058E-004
 -1.090000000000000E-002    3.347737775710665E-004
 -1.080000000000000E-002    3.510348663928991E-004
 -1.070000000000000E-002    3.680139631474831E-004
 -1.060000000000000E-002    3.857391418459954E-004
 -1.050000000000000E-002    4.042394142179717E-004
 -1.040000000000000E-002    4.235446376899977E-004
 -1.030000000000000E-002    4.436855875630122E-004
 -1.020000000000000E-002    4.646939641850391E-004
 -1.010000000000000E-002    4.866023182653843E-004
 -1.000000000000000E-002    5.094442044475452E-004
 -9.899999999999999E-003    5.332540790617494E-004
 -9.800000000000000E-003    5.580672544767514E-004
 -9.699999999999999E-003    5.839201088027210E-004
 -9.599999999999999E-003    6.108499861796806E-004
 -9.500000000000000E-003    6.388952776679699E-004
 -9.399999999999999E-003    6.680954476428691E-004
 -9.299999999999999E-003    6.984909461938448E-004
 -9.200000000000000E-003    7.301234798293338E-004
 -9.099999999999999E-003    7.630358777627425E-004
 -8.999999999999999E-003    7.972721110672110E-004
 -8.900000000000000E-003    8.328774606056314E-004
 -8.799999999999999E-003    8.698983876996432E-004
 -8.699999999999999E-003    9.083826072743427E-004
 -8.600000000000000E-003    9.483791537347006E-004
 -8.499999999999999E-003    9.899384048820496E-004
 -8.399999999999999E-003    1.033111902084430E-003
 -8.300000000000000E-003    1.077952534920154E-003
 -8.199999999999999E-003    1.124514405698325E-003
 -8.100000000000000E-003    1.172853028551350E-003
 -8.000000000000000E-003    1.223025025547239E-003
 -7.899999999999999E-003    1.275088413243198E-003
 -7.800000000000000E-003    1.329102254479732E-003
 -7.699999999999999E-003    1.385127030294382E-003
 -7.599999999999999E-003    1.443224412778862E-003
 -7.499999999999999E-003    1.503457110117630E-003
 -7.399999999999999E-003    1.565889145593246E-003
 -7.299999999999999E-003    1.630585782533630E-003
 -7.199999999999999E-003    1.697613462118511E-003
 -7.100000000000000E-003    1.767039694066094E-003
 -6.999999999999999E-003    1.838933286860360E-003
 -6.899999999999999E-003    1.913364290496215E-003
 -6.800000000000000E-003    1.990403742287267E-003
 -6.699999999999999E-003    2.070124140695678E-003
 -6.599999999999999E-003    2.152598850253110E-003
 -6.499999999999999E-003    2.237902747648775E-003
 -6.399999999999999E-003    2.326111596038826E-003
 -6.299999999999999E-003    2.417302588214233E-003
 -6.199999999999999E-003    2.511553731396000E-003
 -6.100000000000000E-003    2.608944328068133E-003
 -5.999999999999999E-003    2.709554515019110E-003
 -5.899999999999999E-003    2.813465643654174E-003
 -5.800000000000000E-003    2.920759980348913E-003
 -5.699999999999999E-003    3.031520616703030E-003
 -5.599999999999999E-003    3.145831668785876E-003
 -5.499999999999999E-003    3.263777995917257E-003
 -5.399999999999999E-003    3.385445376920655E-003
 -5.299999999999999E-003    3.510920057573524E-003
 -5.199999999999999E-003    3.640289154952547E-003
 -5.099999999999999E-003    3.773640427210417E-003
 -4.999999999999999E-003    3.911062223029815E-003
 -4.899999999999999E-003    4.052643123980242E-003
 -4.799999999999999E-003    4.198472210501908E-003
 -4.699999999999999E-003    4.348638926919004E-003
 -4.599999999999999E-003    4.503233051577158E-003
 -4.499999999999999E-003    4.662344532640940E-003
 -4.399999999999999E-003    4.826063195431911E-003
 -4.299999999999999E-003    4.994478990676095E-003
 -4.199999999999999E-003    5.167681541698374E-003
 -4.099999999999999E-003    5.345760178375581E-003
 -3.999999999999999E-003    5.528804070802586E-003
 -3.899999999999999E-003    5.716901807716166E-003
 -3.799999999999999E-003    5.910141193174483E-003
 -3.699999999999999E-003    6.108609831920516E-003
 -3.599999999999999E-003    6.312394383746396E-003
 -3.499999999999999E-003    6.521581249972144E-003
 -3.399999999999999E-003    6.736254556289526E-003
 -3.299999999999999E-003    6.956497876859572E-003
 -3.199999999999999E-003    7.182394123249022E-003
 -3.099999999999999E-003    7.414024557930875E-003
 -2.999999999999999E-003    7.651468389682108E-003
 -2.899999999999999E-003    7.894804235951687E-003
 -2.799999999999999E-003    8.144107678182610E-003
 -2.699999999999999E-003    8.399453456483054E-003
 -2.599999999999999E-003    8.660913449619462E-003
 -2.499999999999999E-003    8.928557364478387E-003
 -2.399999999999999E-003    9.202452417776447E-003
 -2.299999999999999E-003    9.482663806293505E-003
 -2.199999999999999E-003    9.769253372188084E-003
 -2.099999999999999E-003    1.006227939081009E-002
 -1.999999999999999E-003    1.036179692599537E-002
 -1.899999999999999E-003    1.066785803739035E-002
 -1.799999999999999E-003    1.098051159821599E-002
 -1.699999999999999E-003    1.129980252966301E-002
 -1.599999999999999E-003    1.162577027545775E-002
 -1.499999999999999E-003    1.195845177777993E-002
 -1.399999999999999E-003    1.229787790689102E-002
 -1.299999999999999E-003    1.264407662119768E-002
 -1.199999999999999E-003    1.299706986691472E-002
 -1.099999999999999E-003    1.335687537699051E-002
 -9.999999999999989E-004    1.372350495550858E-002
 -8.999999999999990E-004    1.409696562154200E-002
 -7.999999999999990E-004    1.447725939862705E-002
 -6.999999999999989E-004    1.486438066634077E-002
 -5.999999999999990E-004    1.525831978813496E-002
 -4.999999999999989E-004    1.565906088473647E-002
 -3.999999999999989E-004    1.606657972125088E-002
 -2.999999999999989E-004    1.648084756697309E-002
 -1.999999999999989E-004    1.690182652891000E-002
 -9.999999999999892E-005    1.732947389234463E-002
  1.084202172485504E-018    1.776373908445885E-002
  1.000000000000011E-004    1.820456356825002E-002
  2.000000000000011E-004    1.865187927513708E-002
  3.000000000000011E-004    1.910561378243200E-002
  4.000000000000011E-004    1.956568264531058E-002
  5.000000000000011E-004    2.003199771625088E-002
  6.000000000000011E-004    2.050445681990179E-002
  7.000000000000011E-004    2.098295297486850E-002
  8.000000000000011E-004    2.146736563115939E-002
  9.000000000000012E-004    2.195757019284485E-002
  1.000000000000001E-003    2.245342862105916E-002
  1.100000000000001E-003    2.295479411767540E-002
  1.200000000000001E-003    2.346151050972785E-002
  1.300000000000001E-003    2.397340900831661E-002
  1.400000000000001E-003    2.449031430896240E-002
  1.500000000000001E-003    2.501203757137884E-002
  1.600000000000001E-003    2.553837950474989E-002
  1.700000000000001E-003    2.606913045431653E-002
  1.800000000000001E-003    2.660407082226035E-002
  1.900000000000001E-003    2.714296932379490E-002
  2.000000000000001E-003    2.768558439869404E-002
  2.100000000000001E-003    2.823166158526005E-002
  2.200000000000001E-003    2.878093487285486E-002
  2.300000000000001E-003    2.933312969821239E-002
  2.400000000000001E-003    2.988795662497777E-002
  2.500000000000001E-003    3.044511545392350E-002
  2.600000000000001E-003    3.100429490098234E-002
  2.700000000000001E-003    3.156517130840182E-002
  2.800000000000001E-003    3.212740761512273E-002
  2.900000000000001E-003    3.269065604566149E-002
  3.000000000000001E-003    3.325455595629723E-002
  3.100000000000001E-003    3.381873526355776E-002
  3.200000000000001E-003    3.438280827089680E-002
  3.300000000000001E-003    3.494637828563015E-002
  3.400000000000001E-003    3.550903191981902E-002
  3.500000000000001E-003    3.607035033964313E-002
  3.600000000000001E-003    3.662990231341729E-002
  3.700000000000001E-003    3.718723761853899E-002
  3.800000000000001E-003    3.774189748004157E-002
  3.900000000000001E-003    3.829341393516041E-002
  4.000000000000001E-003    3.884130475210772E-002
  4.100000000000001E-003    3.938507489871783E-002
  4.200000000000001E-003    3.992422202522761E-002
  4.300000000000001E-003    4.045822667049007E-002
  4.400000000000001E-003    4.098656039305409E-002
  4.500000000000001E-003    4.150868545378975E-002
  4.600000000000002E-003    4.202405214430346E-002
  4.700000000000001E-003    4.253209952130095E-002
  4.800000000000001E-003    4.303225857703388E-002
  4.900000000000002E-003    4.352394667944192E-002
  5.000000000000001E-003    4.400657159055546E-002
  5.100000000000001E-003    4.447953102351417E-002
  5.200000000000001E-003    4.494221543786210E-002
  5.300000000000002E-003    4.539400734884507E-002
  5.400000000000001E-003    4.583427608463062E-002
  5.500000000000001E-003    4.626238532667829E-002
  5.600000000000002E-003    4.667768928243589E-002
  5.700000000000001E-003    4.707953528085396E-002
  5.800000000000001E-003    4.746726597450753E-002
  5.900000000000002E-003    4.784021172808801E-002
  6.000000000000001E-003    4.819770535687602E-002
  6.100000000000001E-003    4.853906387318351E-002
  6.200000000000002E-003    4.886360734461651E-002
  6.300000000000002E-003    4.917064057913045E-002
  6.400000000000001E-003    4.945947489137482E-002
  6.500000000000001E-003    4.972941097365430E-002
  6.600000000000002E-003    4.997975021113205E-002
  6.700000000000001E-003    5.020978949397623E-002
  6.800000000000001E-003    5.041882639982749E-002
  6.900000000000002E-003    5.060615138173609E-002
  7.000000000000001E-003    5.077106068427078E-002
  7.100000000000001E-003    5.091284652061924E-002
  7.200000000000002E-003    5.103080194771257E-002
  7.300000000000002E-003    5.112422364240754E-002
  7.400000000000001E-003    5.119240964695292E-002
  7.500000000000001E-003    5.123465825510108E-002
  7.600000000000002E-003    5.125026951190399E-002
  7.700000000000001E-003    5.123855211238518E-002
  7.800000000000001E-003    5.119881718493628E-002
  7.900000000000001E-003    5.113037878086586E-002
  8.000000000000002E-003    5.103255779772111E-002
  8.100000000000001E-003    5.090468823828082E-002
  8.200000000000001E-003    5.074610625515734E-002
  8.300000000000002E-003    5.055615810783347E-002
  8.400000000000001E-003    5.033420014311326E-002
  8.500000000000002E-003    5.007959778477926E-002
  8.600000000000002E-003    4.979172755861547E-002
  8.700000000000001E-003    4.946997463425598E-002
  8.800000000000002E-003    4.911374218268474E-002
  8.900000000000002E-003    4.872244546004388E-002
  9.000000000000001E-003    4.829551294343842E-002
  9.100000000000002E-003    4.783238475105829E-002
  9.200000000000002E-003    4.733252306092746E-002
  9.300000000000001E-003    4.679540419683071E-002
  9.400000000000002E-003    4.622051772634632E-002
  9.500000000000001E-003    4.560737587818707E-002
  9.600000000000001E-003    4.495550928921960E-002
  9.700000000000002E-003    4.426446649878295E-002
  9.800000000000001E-003    4.353381849129755E-002
  9.900000000000001E-003    4.276315701756280E-002
  1.000000000000000E-002    4.195209783936574E-002
  1.010000000000000E-002    4.110027726072354E-002
  1.020000000000000E-002    4.020735258920085E-002
  1.030000000000000E-002    3.927301264833837E-002
  1.040000000000000E-002    3.829696687227403E-002
  1.050000000000000E-002    3.727894895484144E-002
  1.060000000000000E-002    3.621872414960144E-002
  1.070000000000000E-002    3.511608125141839E-002
  1.080000000000000E-002    3.397083899478612E-002
  1.090000000000000E-002    3.278284111994369E-002
  1.100000000000000E-002    3.155196301248847E-002
  1.110000000000000E-002    3.027811097896962E-002
  1.120000000000000E-002    2.896122140022011E-002
  1.130000000000000E-002    2.760126249866569E-002
  1.140000000000000E-002    2.619823267263737E-002
  1.150000000000000E-002    2.475216045994190E-002
  1.160000000000000E-002    2.326311102180643E-002
  1.170000000000000E-002    2.173118021965344E-002
  1.180000000000000E-002    2.015649695430900E-002
  1.190000000000000E-002    1.853922438436095E-002
  1.200000000000000E-002    1.687956067174794E-002
  1.210000000000000E-002    1.517773674771972E-002
  1.220000000000000E-002    1.343401896205078E-002
  1.230000000000000E-002    1.164870972755735E-002
  1.240000000000000E-002    9.822146490047305E-003
  1.250000000000000E-002    7.954701601965096E-003
  1.260000000000000E-002    6.046784935821785E-003
  1.270000000000000E-002    4.098839962483837E-003
  1.280000000000000E-002    2.111349502835650E-003
  1.290000000000000E-002    8.483185319459966E-005
  1.300000000000000E-002   -1.980160162399144E-003
  1.310000000000000E-002   -4.083033319794081E-003
  1.320000000000000E-002   -6.223162497465132E-003
  1.330000000000000E-002   -8.399881814120897E-003
  1.340000000000000E-002   -1.061249323884276E-002
  1.350000000000000E-002   -1.286026030014901E-002
  1.360000000000000E-002   -1.514241022825236E-002
  1.370000000000000E-002   -1.745813659089609E-002
  1.380000000000000E-002   -1.980659508238551E-002
  1.390000000000000E-002   -2.218690850858505E-002
  1.400000000000000E-002   -2.459816368352409E-002
  1.410000000000000E-002   -2.703941234096269E-002
  1.420000000000000E-002   -2.950967496152192E-002
  1.430000000000000E-002   -3.200793339476575E-002
  1.440000000000000E-002   -3.453313921564371E-002
  1.450000000000000E-002   -3.708421241616796E-002
  1.460000000000000E-002   -3.966003638280369E-002
  1.470000000000000E-002   -4.225946878500830E-002
  1.480000000000000E-002   -4.488132913892149E-002
  1.490000000000000E-002   -4.752441164379016E-002
  1.500000000000000E-002   -5.018748067517886E-002
  1.510000000000000E-002   -5.286927111277926E-002
  1.520000000000000E-002   -5.556848742638438E-002
  1.530000000000000E-002   -5.828380886605324E-002
  1.540000000000000E-002   -6.101388825654655E-002
  1.550000000000000E-002   -6.375735117315273E-002
  1.560000000000000E-002   -6.651280102633920E-002
  1.570000000000000E-002   -6.927881643525335E-002
  1.580000000000000E-002   -7.205395128445835E-002
  1.590000000000000E-002   -7.483673907096673E-002
  1.600000000000000E-002   -7.762569051153792E-002
  1.610000000000000E-002   -8.041929620344274E-002
  1.620000000000000E-002   -8.321603653426900E-002
  1.630000000000000E-002   -8.601436080136318E-002
  1.640000000000000E-002   -8.881270993775785E-002
  1.650000000000000E-002   -9.160950800615844E-002
  1.660000000000000E-002   -9.440316196386729E-002
  1.670000000000000E-002   -9.719206710613898E-002
  1.680000000000000E-002   -9.997460212152486E-002
  1.690000000000000E-002   -0.102749144567215     
  1.700000000000000E-002   -0.105514056229368     
  1.710000000000000E-002   -0.108267692028921     
  1.720000000000000E-002   -0.111008397023039     
  1.730000000000000E-002   -0.113734521661578     
  1.740000000000000E-002   -0.116444389473025     
  1.750000000000000E-002   -0.119136345484874     
  1.760000000000000E-002   -0.121808714334191     
  1.770000000000000E-002   -0.124459831681591     
  1.780000000000000E-002   -0.127088036624218     
  1.790000000000000E-002   -0.129691656178402     
  1.800000000000000E-002   -0.132269034476415     
  1.810000000000000E-002   -0.134818514926510     
  1.820000000000000E-002   -0.137338445505872     
  1.830000000000000E-002   -0.139827185348894     
  1.840000000000000E-002   -0.142283097947400     
  1.850000000000000E-002   -0.144704554139559     
  1.860000000000000E-002   -0.147089952071030     
  1.870000000000000E-002   -0.149437681887199     