 -4.000000000000000E-002    0.000000000000000E+000
 -3.990000000000000E-002    0.000000000000000E+000
 -3.980000000000000E-002    0.000000000000000E+000
 -3.970000000000000E-002    0.000000000000000E+000
 -3.960000000000000E-002    0.000000000000000E+000
 -3.950000000000000E-002    0.000000000000000E+000
 -3.940000000000000E-002    0.000000000000000E+000
 -3.930000000000000E-002    0.000000000000000E+000
 -3.920000000000000E-002    0.000000000000000E+000
 -3.910000000000000E-002    0.000000000000000E+000
 -3.900000000000000E-002    0.000000000000000E+000
 -3.890000000000000E-002    0.000000000000000E+000
 -3.880000000000000E-002    0.000000000000000E+000
 -3.870000000000000E-002    0.000000000000000E+000
 -3.860000000000000E-002    0.000000000000000E+000
 -3.850000000000000E-002    0.000000000000000E+000
 -3.840000000000000E-002    0.000000000000000E+000
 -3.830000000000000E-002    0.000000000000000E+000
 -3.820000000000000E-002    0.000000000000000E+000
 -3.810000000000000E-002    0.000000000000000E+000
 -3.800000000000000E-002    0.000000000000000E+000
 -3.790000000000000E-002    0.000000000000000E+000
 -3.780000000000000E-002    0.000000000000000E+000
 -3.770000000000000E-002    0.000000000000000E+000
 -3.760000000000000E-002    0.000000000000000E+000
 -3.750000000000000E-002    0.000000000000000E+000
 -3.740000000000000E-002    0.000000000000000E+000
 -3.730000000000000E-002    0.000000000000000E+000
 -3.720000000000000E-002    0.000000000000000E+000
 -3.710000000000000E-002    0.000000000000000E+000
 -3.700000000000000E-002    0.000000000000000E+000
 -3.690000000000000E-002    0.000000000000000E+000
 -3.680000000000000E-002    0.000000000000000E+000
 -3.670000000000000E-002    0.000000000000000E+000
 -3.660000000000000E-002    0.000000000000000E+000
 -3.650000000000000E-002    0.000000000000000E+000
 -3.640000000000000E-002    0.000000000000000E+000
 -3.630000000000000E-002    0.000000000000000E+000
 -3.620000000000000E-002    0.000000000000000E+000
 -3.610000000000000E-002    0.000000000000000E+000
 -3.600000000000000E-002    0.000000000000000E+000
 -3.590000000000000E-002    0.000000000000000E+000
 -3.580000000000000E-002    0.000000000000000E+000
 -3.570000000000000E-002    0.000000000000000E+000
 -3.560000000000000E-002    0.000000000000000E+000
 -3.550000000000000E-002    0.000000000000000E+000
 -3.540000000000000E-002    0.000000000000000E+000
 -3.530000000000000E-002    0.000000000000000E+000
 -3.520000000000000E-002    0.000000000000000E+000
 -3.510000000000000E-002    0.000000000000000E+000
 -3.500000000000000E-002    0.000000000000000E+000
 -3.490000000000000E-002    0.000000000000000E+000
 -3.480000000000000E-002    0.000000000000000E+000
 -3.470000000000000E-002    0.000000000000000E+000
 -3.460000000000000E-002    0.000000000000000E+000
 -3.450000000000000E-002    0.000000000000000E+000
 -3.440000000000000E-002    0.000000000000000E+000
 -3.430000000000000E-002    0.000000000000000E+000
 -3.420000000000000E-002    0.000000000000000E+000
 -3.410000000000000E-002    0.000000000000000E+000
 -3.400000000000000E-002    0.000000000000000E+000
 -3.390000000000000E-002    0.000000000000000E+000
 -3.380000000000000E-002    0.000000000000000E+000
 -3.370000000000000E-002    0.000000000000000E+000
 -3.360000000000000E-002    0.000000000000000E+000
 -3.350000000000000E-002    0.000000000000000E+000
 -3.340000000000000E-002    0.000000000000000E+000
 -3.330000000000000E-002    0.000000000000000E+000
 -3.320000000000000E-002    0.000000000000000E+000
 -3.310000000000000E-002    0.000000000000000E+000
 -3.300000000000000E-002    0.000000000000000E+000
 -3.290000000000000E-002    0.000000000000000E+000
 -3.280000000000000E-002    0.000000000000000E+000
 -3.270000000000000E-002    0.000000000000000E+000
 -3.260000000000000E-002    0.000000000000000E+000
 -3.250000000000000E-002    0.000000000000000E+000
 -3.240000000000000E-002    0.000000000000000E+000
 -3.230000000000000E-002    0.000000000000000E+000
 -3.220000000000000E-002    0.000000000000000E+000
 -3.210000000000000E-002    0.000000000000000E+000
 -3.200000000000000E-002    0.000000000000000E+000
 -3.190000000000000E-002    0.000000000000000E+000
 -3.180000000000000E-002    0.000000000000000E+000
 -3.170000000000000E-002    0.000000000000000E+000
 -3.160000000000000E-002    0.000000000000000E+000
 -3.150000000000000E-002    0.000000000000000E+000
 -3.140000000000000E-002    0.000000000000000E+000
 -3.130000000000000E-002    0.000000000000000E+000
 -3.120000000000000E-002    0.000000000000000E+000
 -3.110000000000000E-002    0.000000000000000E+000
 -3.100000000000000E-002    0.000000000000000E+000
 -3.090000000000000E-002    0.000000000000000E+000
 -3.080000000000000E-002    0.000000000000000E+000
 -3.070000000000000E-002    0.000000000000000E+000
 -3.060000000000000E-002    0.000000000000000E+000
 -3.050000000000000E-002    0.000000000000000E+000
 -3.040000000000000E-002    0.000000000000000E+000
 -3.030000000000000E-002    0.000000000000000E+000
 -3.020000000000000E-002    0.000000000000000E+000
 -3.010000000000000E-002    0.000000000000000E+000
 -3.000000000000000E-002    0.000000000000000E+000
 -2.990000000000000E-002    0.000000000000000E+000
 -2.980000000000000E-002    0.000000000000000E+000
 -2.970000000000000E-002    0.000000000000000E+000
 -2.960000000000000E-002    0.000000000000000E+000
 -2.950000000000000E-002    0.000000000000000E+000
 -2.940000000000000E-002    0.000000000000000E+000
 -2.930000000000000E-002    0.000000000000000E+000
 -2.920000000000000E-002    0.000000000000000E+000
 -2.910000000000000E-002    0.000000000000000E+000
 -2.900000000000000E-002    0.000000000000000E+000
 -2.890000000000000E-002    0.000000000000000E+000
 -2.880000000000000E-002    0.000000000000000E+000
 -2.870000000000000E-002    0.000000000000000E+000
 -2.860000000000000E-002    0.000000000000000E+000
 -2.850000000000000E-002    0.000000000000000E+000
 -2.840000000000000E-002    0.000000000000000E+000
 -2.830000000000000E-002    0.000000000000000E+000
 -2.820000000000000E-002    0.000000000000000E+000
 -2.810000000000000E-002    0.000000000000000E+000
 -2.800000000000000E-002    0.000000000000000E+000
 -2.790000000000000E-002    0.000000000000000E+000
 -2.780000000000000E-002    0.000000000000000E+000
 -2.770000000000000E-002    0.000000000000000E+000
 -2.760000000000000E-002    0.000000000000000E+000
 -2.750000000000000E-002    0.000000000000000E+000
 -2.740000000000000E-002    6.414635304221270E-048
 -2.730000000000000E-002    1.282927060844254E-047
 -2.720000000000000E-002    3.868802447966698E-047
 -2.710000000000000E-002    5.813214304667016E-047
 -2.700000000000000E-002    5.171750774244889E-047
 -2.690000000000000E-002    3.888823713400635E-047
 -2.680000000000000E-002   -1.706292990922858E-046
 -2.670000000000000E-002   -4.575228842779119E-046
 -2.660000000000000E-002   -8.282071537270932E-046
 -2.650000000000000E-002   -1.492199643666122E-045
 -2.640000000000000E-002   -2.298114960915376E-045
 -2.630000000000000E-002   -3.106996557594997E-045
 -2.620000000000000E-002   -3.709687802280862E-045
 -2.610000000000000E-002   -2.197790148682861E-045
 -2.600000000000000E-002    5.854583899502898E-046
 -2.590000000000000E-002    5.601338697330245E-045
 -2.580000000000000E-002    1.435931888132341E-044
 -2.570000000000000E-002    2.762967155514276E-044
 -2.560000000000000E-002    4.407672515238343E-044
 -2.550000000000000E-002    6.330019569267353E-044
 -2.540000000000000E-002    8.289759105881149E-044
 -2.530000000000000E-002    9.510114920730870E-044
 -2.520000000000000E-002    8.903121985066845E-044
 -2.510000000000000E-002    5.097397550612782E-044
 -2.500000000000000E-002   -3.554839993903959E-044
 -2.490000000000000E-002   -1.893006107393864E-043
 -2.480000000000000E-002   -4.240104797916448E-043
 -2.470000000000000E-002   -7.427966027625772E-043
 -2.460000000000000E-002   -1.125310191317353E-042
 -2.450000000000000E-002   -1.516164824385763E-042
 -2.440000000000000E-002   -1.810988113081993E-042
 -2.430000000000000E-002   -1.846343452770223E-042
 -2.420000000000000E-002   -1.398088787504978E-042
 -2.410000000000000E-002   -1.945620082795528E-043
 -2.400000000000000E-002    2.044524376473308E-042
 -2.390000000000000E-002    5.539729195122891E-042
 -2.380000000000000E-002    1.034144472024068E-041
 -2.370000000000000E-002    1.618861196225820E-041
 -2.360000000000000E-002    2.234256830753724E-041
 -2.350000000000000E-002    2.742320026153517E-041
 -2.340000000000000E-002    2.930245432041728E-041
 -2.330000000000000E-002    2.510616135045675E-041
 -2.320000000000000E-002    1.142410792205800E-041
 -2.310000000000000E-002   -1.520430902522781E-041
 -2.300000000000000E-002   -5.744521462236504E-041
 -2.290000000000000E-002   -1.159485692962670E-040
 -2.280000000000000E-002   -1.878001498466333E-040
 -2.270000000000000E-002   -2.648207218912775E-040
 -2.260000000000000E-002   -3.320346539280785E-040
 -2.250000000000000E-002   -3.667980378317415E-040
 -2.240000000000000E-002   -3.392084929738743E-040
 -2.230000000000000E-002   -2.145162096544065E-040
 -2.220000000000000E-002    4.180503588783396E-041
 -2.210000000000000E-002    4.559004716501945E-040
 -2.200000000000000E-002    1.034337952418846E-039
 -2.190000000000000E-002    1.750670198544995E-039
 -2.180000000000000E-002    2.531533760856418E-039
 -2.170000000000000E-002    3.245164919529554E-039
 -2.160000000000000E-002    3.696315386155822E-039
 -2.150000000000000E-002    3.632253045074405E-039
 -2.140000000000000E-002    2.764643327104236E-039
 -2.130000000000000E-002    8.111189752999727E-040
 -2.120000000000000E-002   -2.441940177988895E-039
 -2.110000000000000E-002   -7.057732750768969E-039
 -2.100000000000000E-002   -1.285596402633813E-038
 -2.090000000000000E-002   -1.932203306953085E-038
 -2.080000000000000E-002   -2.553827432904674E-038
 -2.070000000000000E-002   -3.016191715730902E-038
 -2.060000000000000E-002   -3.147631540509371E-038
 -2.050000000000000E-002   -2.753933407495902E-038
 -2.040000000000000E-002   -1.644395779749711E-038
 -2.030000000000000E-002    3.309290846016862E-039
 -2.020000000000000E-002    3.235044162455717E-038
 -2.010000000000000E-002    6.993709599240459E-038
 -2.000000000000000E-002    1.134856274309339E-037
 -1.990000000000000E-002    1.582341513844900E-037
 -1.980000000000000E-002    1.971466022209756E-037
 -1.970000000000000E-002    2.211626975226615E-037
 -1.960000000000000E-002    2.198729646792357E-037
 -1.950000000000000E-002    1.826508220138219E-037
 -1.940000000000000E-002    1.002068621532307E-037
 -1.930000000000000E-002   -3.354693069918475E-038
 -1.920000000000000E-002   -2.195113092589785E-037
 -1.910000000000000E-002   -4.515397129419781E-037
 -1.900000000000000E-002   -7.149780867613125E-037
 -1.890000000000000E-002   -9.858627183524768E-037
 -1.880000000000000E-002   -1.230972605118263E-036
 -1.870000000000000E-002   -1.408837995112720E-036
 -1.860000000000000E-002   -1.471699949528833E-036
 -1.850000000000000E-002   -1.368333994331629E-036
 -1.840000000000000E-002   -1.047634064880003E-036
 -1.830000000000000E-002   -4.629248857514094E-037
 -1.820000000000000E-002    4.228482351471700E-037
 -1.810000000000000E-002    1.630657770353716E-036
 -1.800000000000000E-002    3.157025494195948E-036
 -1.790000000000000E-002    4.963009352749408E-036
 -1.780000000000000E-002    6.960004458003079E-036
 -1.770000000000000E-002    8.992491029028371E-036
 -1.760000000000000E-002    1.081911948364200E-035
 -1.750000000000000E-002    1.209538825176401E-035
 -1.740000000000000E-002    1.236348462124199E-035
 -1.730000000000000E-002    1.105723805036810E-035
 -1.720000000000000E-002    7.531950638029673E-036
 -1.710000000000000E-002    1.129357917546293E-036
 -1.700000000000000E-002   -8.713798968435222E-036
 -1.690000000000000E-002   -2.230988135777525E-035
 -1.680000000000000E-002   -3.952168274956293E-035
 -1.670000000000000E-002   -5.953704067787176E-035
 -1.660000000000000E-002   -8.064667656529710E-035
 -1.650000000000000E-002   -1.000694978783088E-034
 -1.640000000000000E-002   -1.138816330585689E-034
 -1.630000000000000E-002   -1.171117351041847E-034
 -1.620000000000000E-002   -1.040622429202384E-034
 -1.610000000000000E-002   -6.890159290576774E-035
 -1.600000000000000E-002   -6.543911946151922E-036
 -1.590000000000000E-002    8.620825626373198E-035
 -1.580000000000000E-002    2.093339214933253E-034
 -1.570000000000000E-002    3.582071345569567E-034
 -1.560000000000000E-002    5.223372942210267E-034
 -1.550000000000000E-002    6.844603058178400E-034
 -1.540000000000000E-002    8.202270477797034E-034
 -1.530000000000000E-002    8.987333183561178E-034
 -1.520000000000000E-002    8.841083075229544E-034
 -1.510000000000000E-002    7.383258944326413E-034
 -1.500000000000000E-002    4.253315815686798E-034
 -1.490000000000000E-002   -8.351221396264243E-035
 -1.480000000000000E-002   -8.027633831278663E-034
 -1.470000000000000E-002   -1.725252468891519E-033
 -1.460000000000000E-002   -2.813850967612056E-033
 -1.450000000000000E-002   -3.993293143709865E-033
 -1.440000000000000E-002   -5.143015522263737E-033
 -1.430000000000000E-002   -6.092414415784524E-033
 -1.420000000000000E-002   -6.620448808906288E-033
 -1.410000000000000E-002   -6.462075441142623E-033
 -1.400000000000000E-002   -5.324461400793127E-033
 -1.390000000000000E-002   -2.916061326989234E-033
 -1.380000000000000E-002    1.008806494364139E-033
 -1.370000000000000E-002    6.588613459484620E-033
 -1.360000000000000E-002    1.377780085115557E-032
 -1.350000000000000E-002    2.225970707468461E-032
 -1.340000000000000E-002    3.135965716075148E-032
 -1.330000000000000E-002    3.997466677986002E-032
 -1.320000000000000E-002    4.654212193615295E-032
 -1.310000000000000E-002    4.907426510734477E-032
 -1.300000000000000E-002    4.528647195548842E-032
 -1.290000000000000E-002    3.284321961064208E-032
 -1.280000000000000E-002    9.734465031290902E-033
 -1.270000000000000E-002   -2.522420959976701E-032
 -1.260000000000000E-002   -7.180174330106290E-032
 -1.250000000000000E-002   -1.277397011124709E-031
 -1.240000000000000E-002   -1.882216025150433E-031
 -1.230000000000000E-002   -2.455579437579621E-031
 -1.220000000000000E-002   -2.892400843798386E-031
 -1.210000000000000E-002   -3.065129631307731E-031
 -1.200000000000000E-002   -2.835833395738335E-031
 -1.190000000000000E-002   -2.075107106084274E-031
 -1.180000000000000E-002   -6.872164138739548E-032
 -1.170000000000000E-002    1.360488857364665E-031
 -1.160000000000000E-002    4.007390727530357E-031
 -1.150000000000000E-002    7.073612276190243E-031
 -1.140000000000000E-002    1.024427583362062E-030
 -1.130000000000000E-002    1.307045357921791E-030
 -1.120000000000000E-002    1.499260703786913E-030
 -1.110000000000000E-002    1.539040775125041E-030
 -1.100000000000000E-002    1.365961176668338E-030
 -1.090000000000000E-002    9.312252500750937E-031
 -1.080000000000000E-002    2.091296020830224E-031
 -1.070000000000000E-002   -7.914283922241001E-031
 -1.060000000000000E-002   -2.017236213318679E-030
 -1.050000000000000E-002   -3.364923442906939E-030
 -1.040000000000000E-002   -4.681031232818372E-030
 -1.030000000000000E-002   -5.769641274275287E-030
 -1.020000000000000E-002   -6.408450925026730E-030
 -1.010000000000000E-002   -6.373075398900150E-030
 -1.000000000000000E-002   -5.468034191908663E-030
 -9.899999999999999E-003   -3.561501254306261E-030
 -9.800000000000000E-003   -6.196891988349902E-031
 -9.699999999999999E-003    3.264057370451077E-030
 -9.599999999999999E-003    7.850560670863551E-030
 -9.500000000000000E-003    1.275102514628221E-029
 -9.399999999999999E-003    1.744133831525562E-029
 -9.299999999999999E-003    2.129562199849709E-029
 -9.200000000000000E-003    2.363780558299716E-029
 -9.099999999999999E-003    2.380760049477443E-029
 -8.999999999999999E-003    2.123526277478386E-029
 -8.900000000000000E-003    1.551834413656010E-029
 -8.799999999999999E-003    6.493486603612952E-030
 -8.699999999999999E-003   -5.702792662342129E-030
 -8.600000000000000E-003   -2.058870945471745E-029
 -8.499999999999999E-003   -3.730969353465677E-029
 -8.399999999999999E-003   -5.462980806543982E-029
 -8.300000000000000E-003   -7.094298665194794E-029
 -8.199999999999999E-003   -8.430654680204860E-029
 -8.100000000000000E-003   -9.250285294425136E-029
 -8.000000000000000E-003   -9.313965171430865E-029
 -7.899999999999999E-003   -8.380415675802323E-029
 -7.800000000000000E-003   -6.228834459440958E-029
 -7.699999999999999E-003   -2.690066859481372E-029
 -7.599999999999999E-003    2.312991442149692E-029
 -7.499999999999999E-003    8.716952237866081E-029
 -7.399999999999999E-003    1.626529818754381E-028
 -7.299999999999999E-003    2.445870244387165E-028
 -7.199999999999999E-003    3.251889802998407E-028
 -7.100000000000000E-003    3.937958513536070E-028
 -6.999999999999999E-003    4.371923031868935E-028
 -6.899999999999999E-003    4.404947685216151E-028
 -6.800000000000000E-003    3.886848478820357E-028
 -6.699999999999999E-003    2.688026077082754E-028
 -6.599999999999999E-003    7.269324084662042E-029
 -6.499999999999999E-003   -1.999438893736682E-028
 -6.399999999999999E-003   -5.386049236515685E-028
 -6.299999999999999E-003   -9.196629218178908E-028
 -6.199999999999999E-003   -1.305293717244166E-027
 -6.100000000000000E-003   -1.644255043538350E-027
 -5.999999999999999E-003   -1.875014402715904E-027
 -5.899999999999999E-003   -1.931482671625853E-027
 -5.800000000000000E-003   -1.751255768153470E-027
 -5.699999999999999E-003   -1.285821568110718E-027
 -5.599999999999999E-003   -5.117090214738870E-028
 -5.499999999999999E-003    5.588799864576018E-028
 -5.399999999999999E-003    1.869731625100716E-027
 -5.299999999999999E-003    3.316441813255482E-027
 -5.199999999999999E-003    4.748082056448469E-027
 -5.099999999999999E-003    5.975887604581528E-027
 -4.999999999999999E-003    6.789335124372127E-027
 -4.899999999999999E-003    6.978930847634906E-027
 -4.799999999999999E-003    6.363890525238643E-027
 -4.699999999999999E-003    4.821802751866130E-027
 -4.599999999999999E-003    2.316555906641229E-027
 -4.499999999999999E-003   -1.079560501086440E-027
 -4.399999999999999E-003   -5.173470669234528E-027
 -4.299999999999999E-003   -9.651684951263221E-027
 -4.199999999999999E-003   -1.409507089272692E-026
 -4.099999999999999E-003   -1.800784245439092E-026
 -3.999999999999999E-003   -2.085866338981814E-026
 -3.899999999999999E-003   -2.213002290537310E-026
 -3.799999999999999E-003   -2.137087504187824E-026
 -3.699999999999999E-003   -1.824717096470279E-026
 -3.599999999999999E-003   -1.258547424610276E-026
 -3.499999999999999E-003   -4.406288514490170E-027
 -3.399999999999999E-003    6.054287823756604E-027
 -3.299999999999999E-003    1.833392082338400E-026
 -3.199999999999999E-003    3.174222229563367E-026
 -3.099999999999999E-003    4.536519619877823E-026
 -2.999999999999999E-003    5.807456246947495E-026
 -2.899999999999999E-003    6.854337326025750E-026
 -2.799999999999999E-003    7.527350025980296E-026
 -2.699999999999999E-003    7.664506307297221E-026
 -2.599999999999999E-003    7.100154065768044E-026
 -2.499999999999999E-003    5.678548555702335E-026
 -2.399999999999999E-003    3.273684930250290E-026
 -2.299999999999999E-003   -1.842183302442103E-027
 -2.199999999999999E-003   -4.676547477698837E-026
 -2.099999999999999E-003   -1.006124571215580E-025
 -1.999999999999999E-003   -1.603975878809426E-025
 -1.899999999999999E-003   -2.213281275699905E-025
 -1.799999999999999E-003   -2.767326523302939E-025
 -1.699999999999999E-003   -3.182454477501871E-025
 -1.599999999999999E-003   -3.363201252345416E-025
 -1.499999999999999E-003   -3.211155009844039E-025
 -1.399999999999999E-003   -2.637476772886870E-025
 -1.299999999999999E-003   -1.578389387812122E-025
 -1.199999999999999E-003   -1.221137051074502E-027
 -1.099999999999999E-003    2.024186086021018E-025
 -9.999999999999989E-004    4.422177191179054E-025
 -8.999999999999990E-004    6.994378539781673E-025
 -7.999999999999990E-004    9.476657191822495E-025
 -6.999999999999989E-004    1.154133532073937E-024
 -5.999999999999990E-004    1.282265994721637E-024
 -4.999999999999989E-004    1.295405439635915E-024
 -3.999999999999989E-004    1.161483486360810E-024
 -2.999999999999989E-004    8.582191845916611E-025
 -1.999999999999989E-004    3.782597609802701E-025
 -9.999999999999892E-005   -2.664318190587659E-025
  1.084202172485504E-018   -1.041667790124689E-024
  1.000000000000011E-004   -1.890265260857523E-024
  2.000000000000011E-004   -2.733903250411391E-024
  3.000000000000011E-004   -3.477832740046100E-024
  4.000000000000011E-004   -4.018338944977777E-024
  5.000000000000011E-004   -4.252497380559672E-024
  6.000000000000011E-004   -4.089435905692766E-024
  7.000000000000011E-004   -3.462055291822832E-024
  8.000000000000011E-004   -2.338011509476331E-024
  9.000000000000012E-004   -7.287643615910825E-025
  1.000000000000001E-003    1.304377329048176E-024
  1.100000000000001E-003    3.648015953931443E-024
  1.200000000000001E-003    6.138706355135343E-024
  1.300000000000001E-003    8.569382175628116E-024
  1.400000000000001E-003    1.069996281840913E-023
  1.500000000000001E-003    1.227169107899926E-023
  1.600000000000001E-003    1.302463767508756E-023
  1.700000000000001E-003    1.271777240537524E-023
  1.800000000000001E-003    1.115104481629780E-023
  1.900000000000001E-003    8.188916557536657E-024
  2.000000000000001E-003    3.784680158495573E-024
  2.100000000000001E-003   -1.995421216984364E-024
  2.200000000000001E-003   -8.949813854781811E-024
  2.300000000000001E-003   -1.672329468085244E-023
  2.400000000000001E-003   -2.479611740075377E-023
  2.500000000000001E-003   -3.248461736998099E-023
  2.600000000000001E-003   -3.895815820275337E-023
  2.700000000000001E-003   -4.327708550402042E-023
  2.800000000000001E-003   -4.445546421625879E-023
  2.900000000000001E-003   -4.155025723694339E-023
  3.000000000000001E-003   -3.377531661643308E-023
  3.100000000000001E-003   -2.063427891224627E-023
  3.200000000000001E-003   -2.061444111277034E-024
  3.300000000000001E-003    2.144522451477922E-023
  3.400000000000001E-003    4.871896938918634E-023
  3.500000000000001E-003    7.786931455524182E-023
  3.600000000000001E-003    1.062993083862904E-022
  3.700000000000001E-003    1.308132676027629E-022
  3.800000000000001E-003    1.478258604737016E-022
  3.900000000000001E-003    1.536726085938920E-022
  4.000000000000001E-003    1.450082980988463E-022
  4.100000000000001E-003    1.192649589809691E-022
  4.200000000000001E-003    7.512677636251612E-023
  4.300000000000001E-003    1.296785237346733E-023
  4.400000000000001E-003   -6.480812219891266E-023
  4.500000000000001E-003   -1.535870385303096E-022
  4.600000000000002E-003   -2.465755398917996E-022
  4.700000000000001E-003   -3.350813348907349E-022
  4.800000000000001E-003   -4.090569314474841E-022
  4.900000000000002E-003   -4.578928278289192E-022
  5.000000000000001E-003   -4.714157606418631E-022
  5.100000000000001E-003   -4.410182530316541E-022
  5.200000000000001E-003   -3.608214939678252E-022
  5.300000000000002E-003   -2.287572877360228E-022
  5.400000000000001E-003   -4.744903883112148E-023
  5.500000000000001E-003    1.752216248145499E-022
  5.600000000000002E-003    4.259582445032940E-022
  5.700000000000001E-003    6.863707030850571E-022
  5.800000000000001E-003    9.338062575981283E-022
  5.900000000000002E-003    1.142683428463636E-021
  6.000000000000001E-003    1.286281026857239E-021
  6.100000000000001E-003    1.338898292179787E-021
  6.200000000000002E-003    1.278266659623138E-021
  6.300000000000002E-003    1.088068030006365E-021
  6.400000000000001E-003    7.603903712304041E-022
  6.500000000000001E-003    2.979330855176380E-022
  6.600000000000002E-003   -2.842378120692936E-022
  6.700000000000001E-003   -9.575944896392723E-022
  6.800000000000001E-003   -1.679924700246386E-021
  6.900000000000002E-003   -2.396184128914608E-021
  7.000000000000001E-003   -3.040600783340211E-021
  7.100000000000001E-003   -3.540156693714355E-021
  7.200000000000002E-003   -3.819493902964947E-021
  7.300000000000002E-003   -3.807169520717798E-021
  7.400000000000001E-003   -3.443034518110737E-021
  7.500000000000001E-003   -2.686329125427492E-021
  7.600000000000002E-003   -1.523885998048578E-021
  7.700000000000001E-003    2.235301708859473E-023
  7.800000000000001E-003    1.889458380223794E-021
  7.900000000000001E-003    3.970305470768092E-021
  8.000000000000002E-003    6.114051249162342E-021
  8.100000000000001E-003    8.131159635509016E-021
  8.200000000000001E-003    9.803538698065375E-021
  8.300000000000002E-003    1.089991331478040E-020
  8.400000000000001E-003    1.119598817093448E-020
  8.500000000000002E-003    1.049831031944180E-020
  8.600000000000002E-003    8.670077802992518E-021
  8.700000000000001E-003    5.656550888667327E-021
  8.800000000000002E-003    1.507264899365502E-021
  8.900000000000002E-003   -3.607939601093207E-021
  9.000000000000001E-003   -9.391980364192887E-021
  9.100000000000002E-003   -1.542514271396542E-020
  9.200000000000002E-003   -2.118289888287965E-020
  9.300000000000001E-003   -2.606748580956755E-020
  9.400000000000002E-003   -2.945245960487058E-020
  9.500000000000001E-003   -3.073796839241913E-020
  9.600000000000001E-003   -2.941304830156649E-020
  9.700000000000002E-003   -2.512000256263196E-020
  9.800000000000001E-003   -1.771495314359851E-020
  9.900000000000001E-003   -7.318235329650316E-021
  1.000000000000000E-002    5.651679887876574E-021
  1.010000000000000E-002    2.046634396605435E-020
  1.020000000000000E-002    3.610193712925180E-020
  1.030000000000000E-002    5.128293227669094E-020
  1.040000000000000E-002    6.455522256449777E-020
  1.050000000000000E-002    7.438667235747902E-020
  1.060000000000000E-002    7.929045308186180E-020
  1.070000000000000E-002    7.796410343791369E-020
  1.080000000000000E-002    6.943488551408882E-020
  1.090000000000000E-002    5.320029930936844E-020
  1.100000000000000E-002    2.935125162922966E-020
  1.110000000000000E-002   -1.335064620642276E-021
  1.120000000000000E-002   -3.734531962863078E-020
  1.130000000000000E-002   -7.643456387758000E-020
  1.140000000000000E-002   -1.156940909742850E-019
  1.150000000000000E-002   -1.516882074261217E-019
  1.160000000000000E-002   -1.806607169575598E-019
  1.170000000000000E-002   -1.988063879493459E-019
  1.180000000000000E-002   -2.025961011730447E-019
  1.190000000000000E-002   -1.891375994378851E-019
  1.200000000000000E-002   -1.565468734612748E-019
  1.210000000000000E-002   -1.042991414762819E-019
  1.220000000000000E-002   -3.352393675696571E-020
  1.230000000000000E-002    5.279342475457411E-020
  1.240000000000000E-002    1.497405882630768E-019
  1.250000000000000E-002    2.505689756983973E-019
  1.260000000000000E-002    3.469695169405997E-019
  1.270000000000000E-002    4.295427327658845E-019
  1.280000000000000E-002    4.884561465285144E-019
  1.290000000000000E-002    5.142620507215583E-019
  1.300000000000000E-002    4.988283029494746E-019
  1.310000000000000E-002    4.363148697121163E-019
  1.320000000000000E-002    3.241120424716749E-019
  1.330000000000000E-002    1.636449768890849E-019
  1.340000000000000E-002   -3.905479020316636E-020
  1.350000000000000E-002   -2.731050788632016E-019
  1.360000000000000E-002   -5.229347694854221E-019
  1.370000000000000E-002   -7.689042777418172E-019
  1.380000000000000E-002   -9.884036529089428E-019
  1.390000000000000E-002   -1.157404076324198E-018
  1.400000000000000E-002   -1.252393412772813E-018
  1.410000000000000E-002   -1.252579196315096E-018
  1.420000000000000E-002   -1.142200506109146E-018
  1.430000000000000E-002   -9.127560613418026E-019
  1.440000000000000E-002   -5.649347621154616E-019
  1.450000000000000E-002   -1.100299278489185E-019
  1.460000000000000E-002    4.293680222317267E-019
  1.470000000000000E-002    1.019571237756766E-018
  1.480000000000000E-002    1.617004357996480E-018
  1.490000000000000E-002    2.170471610263368E-018
  1.500000000000000E-002    2.624443265347483E-018
  1.510000000000000E-002    2.923229664024051E-018
  1.520000000000000E-002    3.015816276080808E-018
  1.530000000000000E-002    2.861042895977249E-018
  1.540000000000000E-002    2.432733674783101E-018
  1.550000000000000E-002    1.724327085324040E-018
  1.560000000000000E-002    7.525342758776026E-019
  1.570000000000000E-002   -4.404417512204426E-019
  1.580000000000000E-002   -1.786538961114101E-018
  1.590000000000000E-002   -3.193643622571680E-018
  1.600000000000000E-002   -4.549758488656347E-018
  1.610000000000000E-002   -5.729544047936231E-018
  1.620000000000000E-002   -6.603047210398755E-018
  1.630000000000000E-002   -7.046209370928886E-018
  1.640000000000000E-002   -6.952527390814653E-018
  1.650000000000000E-002   -6.245042275544673E-018
  1.660000000000000E-002   -4.887665475903707E-018
  1.670000000000000E-002   -2.894750818407219E-018
  1.680000000000000E-002   -3.378010637004764E-019
  1.690000000000000E-002    2.651730886263835E-018
  1.700000000000000E-002    5.884409596079133E-018
  1.710000000000000E-002    9.120136218388455E-018
  1.720000000000000E-002    1.208101809713318E-017
  1.730000000000000E-002    1.446952630438477E-017
  1.740000000000000E-002    1.599118669472231E-017
  1.750000000000000E-002    1.638051308783362E-017
  1.760000000000000E-002    1.542842190568447E-017
  1.770000000000000E-002    1.300896058397191E-017
  1.780000000000000E-002    9.102918247480060E-018
  1.790000000000000E-002    3.815783771974245E-018
  1.800000000000000E-002   -2.612348206776024E-018
  1.810000000000000E-002   -9.806998790793548E-018
  1.820000000000000E-002   -1.727114176757543E-017
  1.830000000000000E-002   -2.440935248467710E-017
  1.840000000000000E-002   -3.056401821826907E-017
  1.850000000000000E-002   -3.506225871860980E-017
  1.860000000000000E-002   -3.727111626563228E-017
  1.870000000000000E-002   -3.665747997455482E-017