 -4.000000000000000E-002    0.000000000000000E+000
 -3.990000000000000E-002    0.000000000000000E+000
 -3.980000000000000E-002    0.000000000000000E+000
 -3.970000000000000E-002    0.000000000000000E+000
 -3.960000000000000E-002    0.000000000000000E+000
 -3.950000000000000E-002    0.000000000000000E+000
 -3.940000000000000E-002    0.000000000000000E+000
 -3.930000000000000E-002    0.000000000000000E+000
 -3.920000000000000E-002    0.000000000000000E+000
 -3.910000000000000E-002    0.000000000000000E+000
 -3.900000000000000E-002    0.000000000000000E+000
 -3.890000000000000E-002    0.000000000000000E+000
 -3.880000000000000E-002    0.000000000000000E+000
 -3.870000000000000E-002    0.000000000000000E+000
 -3.860000000000000E-002    0.000000000000000E+000
 -3.850000000000000E-002    0.000000000000000E+000
 -3.840000000000000E-002    0.000000000000000E+000
 -3.830000000000000E-002    0.000000000000000E+000
 -3.820000000000000E-002    0.000000000000000E+000
 -3.810000000000000E-002    0.000000000000000E+000
 -3.800000000000000E-002    0.000000000000000E+000
 -3.790000000000000E-002    0.000000000000000E+000
 -3.780000000000000E-002    0.000000000000000E+000
 -3.770000000000000E-002    0.000000000000000E+000
 -3.760000000000000E-002    0.000000000000000E+000
 -3.750000000000000E-002    0.000000000000000E+000
 -3.740000000000000E-002    0.000000000000000E+000
 -3.730000000000000E-002    0.000000000000000E+000
 -3.720000000000000E-002    0.000000000000000E+000
 -3.710000000000000E-002    0.000000000000000E+000
 -3.700000000000000E-002    0.000000000000000E+000
 -3.690000000000000E-002    0.000000000000000E+000
 -3.680000000000000E-002    0.000000000000000E+000
 -3.670000000000000E-002    0.000000000000000E+000
 -3.660000000000000E-002    0.000000000000000E+000
 -3.650000000000000E-002    0.000000000000000E+000
 -3.640000000000000E-002    0.000000000000000E+000
 -3.630000000000000E-002    0.000000000000000E+000
 -3.620000000000000E-002    0.000000000000000E+000
 -3.610000000000000E-002    0.000000000000000E+000
 -3.600000000000000E-002    0.000000000000000E+000
 -3.590000000000000E-002    0.000000000000000E+000
 -3.580000000000000E-002    0.000000000000000E+000
 -3.570000000000000E-002    0.000000000000000E+000
 -3.560000000000000E-002    0.000000000000000E+000
 -3.550000000000000E-002    0.000000000000000E+000
 -3.540000000000000E-002    0.000000000000000E+000
 -3.530000000000000E-002    0.000000000000000E+000
 -3.520000000000000E-002    0.000000000000000E+000
 -3.510000000000000E-002    0.000000000000000E+000
 -3.500000000000000E-002    0.000000000000000E+000
 -3.490000000000000E-002    0.000000000000000E+000
 -3.480000000000000E-002    0.000000000000000E+000
 -3.470000000000000E-002    0.000000000000000E+000
 -3.460000000000000E-002    0.000000000000000E+000
 -3.450000000000000E-002    0.000000000000000E+000
 -3.440000000000000E-002    0.000000000000000E+000
 -3.430000000000000E-002    0.000000000000000E+000
 -3.420000000000000E-002    0.000000000000000E+000
 -3.410000000000000E-002    0.000000000000000E+000
 -3.400000000000000E-002    0.000000000000000E+000
 -3.390000000000000E-002    0.000000000000000E+000
 -3.380000000000000E-002    0.000000000000000E+000
 -3.370000000000000E-002    0.000000000000000E+000
 -3.360000000000000E-002    0.000000000000000E+000
 -3.350000000000000E-002    0.000000000000000E+000
 -3.340000000000000E-002    0.000000000000000E+000
 -3.330000000000000E-002    0.000000000000000E+000
 -3.320000000000000E-002    0.000000000000000E+000
 -3.310000000000000E-002    0.000000000000000E+000
 -3.300000000000000E-002    0.000000000000000E+000
 -3.290000000000000E-002    0.000000000000000E+000
 -3.280000000000000E-002    0.000000000000000E+000
 -3.270000000000000E-002    0.000000000000000E+000
 -3.260000000000000E-002    0.000000000000000E+000
 -3.250000000000000E-002    0.000000000000000E+000
 -3.240000000000000E-002    0.000000000000000E+000
 -3.230000000000000E-002    0.000000000000000E+000
 -3.220000000000000E-002    0.000000000000000E+000
 -3.210000000000000E-002    0.000000000000000E+000
 -3.200000000000000E-002    0.000000000000000E+000
 -3.190000000000000E-002    0.000000000000000E+000
 -3.180000000000000E-002    0.000000000000000E+000
 -3.170000000000000E-002    0.000000000000000E+000
 -3.160000000000000E-002    0.000000000000000E+000
 -3.150000000000000E-002    0.000000000000000E+000
 -3.140000000000000E-002    0.000000000000000E+000
 -3.130000000000000E-002    0.000000000000000E+000
 -3.120000000000000E-002    0.000000000000000E+000
 -3.110000000000000E-002    0.000000000000000E+000
 -3.100000000000000E-002    0.000000000000000E+000
 -3.090000000000000E-002    0.000000000000000E+000
 -3.080000000000000E-002    0.000000000000000E+000
 -3.070000000000000E-002    0.000000000000000E+000
 -3.060000000000000E-002    0.000000000000000E+000
 -3.050000000000000E-002    0.000000000000000E+000
 -3.040000000000000E-002    0.000000000000000E+000
 -3.030000000000000E-002    0.000000000000000E+000
 -3.020000000000000E-002    0.000000000000000E+000
 -3.010000000000000E-002    0.000000000000000E+000
 -3.000000000000000E-002    0.000000000000000E+000
 -2.990000000000000E-002    0.000000000000000E+000
 -2.980000000000000E-002    0.000000000000000E+000
 -2.970000000000000E-002    0.000000000000000E+000
 -2.960000000000000E-002    0.000000000000000E+000
 -2.950000000000000E-002    0.000000000000000E+000
 -2.940000000000000E-002    0.000000000000000E+000
 -2.930000000000000E-002    0.000000000000000E+000
 -2.920000000000000E-002    0.000000000000000E+000
 -2.910000000000000E-002    0.000000000000000E+000
 -2.900000000000000E-002    0.000000000000000E+000
 -2.890000000000000E-002    0.000000000000000E+000
 -2.880000000000000E-002    0.000000000000000E+000
 -2.870000000000000E-002    0.000000000000000E+000
 -2.860000000000000E-002    0.000000000000000E+000
 -2.850000000000000E-002    0.000000000000000E+000
 -2.840000000000000E-002    0.000000000000000E+000
 -2.830000000000000E-002    0.000000000000000E+000
 -2.820000000000000E-002    0.000000000000000E+000
 -2.810000000000000E-002    0.000000000000000E+000
 -2.800000000000000E-002    0.000000000000000E+000
 -2.790000000000000E-002    0.000000000000000E+000
 -2.780000000000000E-002    0.000000000000000E+000
 -2.770000000000000E-002    0.000000000000000E+000
 -2.760000000000000E-002    0.000000000000000E+000
 -2.750000000000000E-002    0.000000000000000E+000
 -2.740000000000000E-002    0.000000000000000E+000
 -2.730000000000000E-002    0.000000000000000E+000
 -2.720000000000000E-002    0.000000000000000E+000
 -2.710000000000000E-002    0.000000000000000E+000
 -2.700000000000000E-002    0.000000000000000E+000
 -2.690000000000000E-002    0.000000000000000E+000
 -2.680000000000000E-002    0.000000000000000E+000
 -2.670000000000000E-002    0.000000000000000E+000
 -2.660000000000000E-002    0.000000000000000E+000
 -2.650000000000000E-002    0.000000000000000E+000
 -2.640000000000000E-002    0.000000000000000E+000
 -2.630000000000000E-002    0.000000000000000E+000
 -2.620000000000000E-002    0.000000000000000E+000
 -2.610000000000000E-002    0.000000000000000E+000
 -2.600000000000000E-002    0.000000000000000E+000
 -2.590000000000000E-002    0.000000000000000E+000
 -2.580000000000000E-002    0.000000000000000E+000
 -2.570000000000000E-002    0.000000000000000E+000
 -2.560000000000000E-002    0.000000000000000E+000
 -2.550000000000000E-002    0.000000000000000E+000
 -2.540000000000000E-002    0.000000000000000E+000
 -2.530000000000000E-002    0.000000000000000E+000
 -2.520000000000000E-002    0.000000000000000E+000
 -2.510000000000000E-002    0.000000000000000E+000
 -2.500000000000000E-002    0.000000000000000E+000
 -2.490000000000000E-002    0.000000000000000E+000
 -2.480000000000000E-002    0.000000000000000E+000
 -2.470000000000000E-002    0.000000000000000E+000
 -2.460000000000000E-002    0.000000000000000E+000
 -2.450000000000000E-002    0.000000000000000E+000
 -2.440000000000000E-002    0.000000000000000E+000
 -2.430000000000000E-002    0.000000000000000E+000
 -2.420000000000000E-002    0.000000000000000E+000
 -2.410000000000000E-002    0.000000000000000E+000
 -2.400000000000000E-002    0.000000000000000E+000
 -2.390000000000000E-002    0.000000000000000E+000
 -2.380000000000000E-002    0.000000000000000E+000
 -2.370000000000000E-002    0.000000000000000E+000
 -2.360000000000000E-002    0.000000000000000E+000
 -2.350000000000000E-002    0.000000000000000E+000
 -2.340000000000000E-002    0.000000000000000E+000
 -2.330000000000000E-002    0.000000000000000E+000
 -2.320000000000000E-002   -2.138211768073757E-048
 -2.310000000000000E-002   -1.282927060844254E-047
 -2.300000000000000E-002   -8.053023758246615E-047
 -2.290000000000000E-002   -1.568507891802313E-046
 -2.280000000000000E-002   -2.396527136336641E-046
 -2.270000000000000E-002   -3.439034933192809E-046
 -2.260000000000000E-002   -3.890728906546156E-046
 -2.250000000000000E-002   -3.793705916243693E-046
 -2.240000000000000E-002   -2.762420468517677E-046
 -2.230000000000000E-002    3.345214118098023E-047
 -2.220000000000000E-002    7.091537447233007E-046
 -2.210000000000000E-002    1.526792567134851E-045
 -2.200000000000000E-002    2.581945891411991E-045
 -2.190000000000000E-002    3.698103688664569E-045
 -2.180000000000000E-002    4.799813517487980E-045
 -2.170000000000000E-002    5.586736970541777E-045
 -2.160000000000000E-002    5.259771713281741E-045
 -2.150000000000000E-002    4.700241062470590E-045
 -2.140000000000000E-002    2.153255680112122E-045
 -2.130000000000000E-002   -3.233099304137973E-045
 -2.120000000000000E-002   -1.092794620671525E-044
 -2.110000000000000E-002   -2.174861114050057E-044
 -2.100000000000000E-002   -3.448433921459479E-044
 -2.090000000000000E-002   -4.886019705938870E-044
 -2.080000000000000E-002   -6.139880804608823E-044
 -2.070000000000000E-002   -6.891375834267427E-044
 -2.060000000000000E-002   -6.634069316639978E-044
 -2.050000000000000E-002   -4.662078346958280E-044
 -2.040000000000000E-002   -4.847566275438781E-045
 -2.030000000000000E-002    6.419691215053948E-044
 -2.020000000000000E-002    1.619152276406051E-043
 -2.010000000000000E-002    2.839952298822759E-043
 -2.000000000000000E-002    4.215585788289618E-043
 -1.990000000000000E-002    5.531280497595333E-043
 -1.980000000000000E-002    6.496627320646267E-043
 -1.970000000000000E-002    6.736528950720672E-043
 -1.960000000000000E-002    5.797253999932097E-043
 -1.950000000000000E-002    3.210398257069703E-043
 -1.940000000000000E-002   -1.412933709711617E-043
 -1.930000000000000E-002   -8.289100430752033E-043
 -1.920000000000000E-002   -1.730820456255648E-042
 -1.910000000000000E-002   -2.792522942626935E-042
 -1.900000000000000E-002   -3.904263167616789E-042
 -1.890000000000000E-002   -4.895035288773938E-042
 -1.880000000000000E-002   -5.533783910749607E-042
 -1.870000000000000E-002   -5.541662618449617E-042
 -1.860000000000000E-002   -4.616511947359707E-042
 -1.850000000000000E-002   -2.472068119740770E-042
 -1.840000000000000E-002    1.110875839793238E-042
 -1.830000000000000E-002    6.226475112786646E-042
 -1.820000000000000E-002    1.277867404241344E-041
 -1.810000000000000E-002    2.042273032756740E-041
 -1.800000000000000E-002    2.851696888281796E-041
 -1.790000000000000E-002    3.609370136456543E-041
 -1.780000000000000E-002    4.186156070790969E-041
 -1.770000000000000E-002    4.424309819118879E-041
 -1.760000000000000E-002    4.144256425796219E-041
 -1.750000000000000E-002    3.156885772609042E-041
 -1.740000000000000E-002    1.279505962712181E-041
 -1.730000000000000E-002   -1.642626476722114E-041
 -1.720000000000000E-002   -5.708406382732727E-041
 -1.710000000000000E-002   -1.092569808484314E-040
 -1.700000000000000E-002   -1.716709196095745E-040
 -1.690000000000000E-002   -2.411544017571124E-040
 -1.680000000000000E-002   -3.120120406415518E-040
 -1.670000000000000E-002   -3.753485457455745E-040
 -1.660000000000000E-002   -4.184534830599615E-040
 -1.650000000000000E-002   -4.244118792228359E-040
 -1.640000000000000E-002   -3.721855116693804E-040
 -1.630000000000000E-002   -2.375193495485827E-040
 -1.620000000000000E-002    4.964439222709451E-042
 -1.610000000000000E-002    3.780899167119122E-040
 -1.600000000000000E-002    8.965838792467585E-040
 -1.590000000000000E-002    1.559601676702226E-039
 -1.580000000000000E-002    2.341595259996156E-039
 -1.570000000000000E-002    3.182329097222133E-039
 -1.560000000000000E-002    3.977440816108790E-039
 -1.550000000000000E-002    4.571643238760686E-039
 -1.540000000000000E-002    4.757289799201628E-039
 -1.530000000000000E-002    4.281456821840081E-039
 -1.520000000000000E-002    2.864806833923212E-039
 -1.510000000000000E-002    2.350514763888543E-040
 -1.500000000000000E-002   -3.823285806979213E-039
 -1.490000000000000E-002   -9.403048324007966E-039
 -1.480000000000000E-002   -1.639555899778526E-038
 -1.470000000000000E-002   -2.440525003035104E-038
 -1.460000000000000E-002   -3.266851746083103E-038
 -1.450000000000000E-002   -3.999187808274216E-038
 -1.440000000000000E-002   -4.472863475906192E-038
 -1.430000000000000E-002   -4.481634740508971E-038
 -1.420000000000000E-002   -3.789870853871442E-038
 -1.410000000000000E-002   -2.155382158520529E-038
 -1.400000000000000E-002    6.354654531718052E-039
 -1.390000000000000E-002    4.719793350217352E-038
 -1.380000000000000E-002    1.009855240908604E-037
 -1.370000000000000E-002    1.656871590082124E-037
 -1.360000000000000E-002    2.365400464602636E-037
 -1.350000000000000E-002    3.054448980080819E-037
 -1.340000000000000E-002    3.605943133063614E-037
 -1.330000000000000E-002    3.865138475092274E-037
 -1.320000000000000E-002    3.647226520209415E-037
 -1.310000000000000E-002    2.752244234258715E-037
 -1.300000000000000E-002    9.900776037724239E-038
 -1.290000000000000E-002   -1.783471356745352E-037
 -1.280000000000000E-002   -5.620030758870983E-037
 -1.270000000000000E-002   -1.042405751200183E-036
 -1.260000000000000E-002   -1.589573979022722E-036
 -1.250000000000000E-002   -2.148016379551392E-036
 -1.240000000000000E-002   -2.633489255921716E-036
 -1.230000000000000E-002   -2.933095506369350E-036
 -1.220000000000000E-002   -2.910368842325474E-036
 -1.210000000000000E-002   -2.416899459362391E-036
 -1.200000000000000E-002   -1.311622996390886E-036
 -1.190000000000000E-002    5.119640857295887E-037
 -1.180000000000000E-002    3.091716709121462E-036
 -1.170000000000000E-002    6.358689769069118E-036
 -1.160000000000000E-002    1.009978205653465E-035
 -1.150000000000000E-002    1.392811426164102E-035
 -1.140000000000000E-002    1.726982860921869E-035
 -1.130000000000000E-002    1.937691083406161E-035
 -1.120000000000000E-002    1.937520114185758E-035
 -1.110000000000000E-002    1.635445173086176E-035
 -1.100000000000000E-002    9.502769583660094E-036
 -1.090000000000000E-002   -1.719019387501238E-036
 -1.080000000000000E-002   -1.737636676606593E-035
 -1.070000000000000E-002   -3.685656617729662E-035
 -1.060000000000000E-002   -5.869388803475917E-035
 -1.050000000000000E-002   -8.046505811475163E-035
 -1.040000000000000E-002   -9.879943527458561E-035
 -1.030000000000000E-002   -1.095456454434677E-034
 -1.020000000000000E-002   -1.081255610033440E-034
 -1.010000000000000E-002   -9.008679898006488E-035
 -1.000000000000000E-002   -5.183625876383280E-035
 -9.899999999999999E-003    8.498056476696887E-036
 -9.800000000000000E-003    9.016814376054936E-035
 -9.699999999999999E-003    1.889971754291656E-034
 -9.599999999999999E-003    2.968147786079849E-034
 -9.500000000000000E-003    4.013009418919295E-034
 -9.399999999999999E-003    4.863912035574538E-034
 -9.299999999999999E-003    5.333566095016609E-034
 -9.200000000000000E-003    5.226044305784746E-034
 -9.099999999999999E-003    4.361534948700073E-034
 -8.999999999999999E-003    2.606283871983039E-034
 -8.900000000000000E-003   -9.497574897749268E-036
 -8.799999999999999E-003   -3.687836452678637E-034
 -8.699999999999999E-003   -7.982753570079692E-034
 -8.600000000000000E-003   -1.264009695958082E-033
 -8.499999999999999E-003   -1.717024661083654E-033
 -8.399999999999999E-003   -2.095239780454542E-033
 -8.300000000000000E-003   -2.327426868628076E-033
 -8.199999999999999E-003   -2.339296403894378E-033
 -8.100000000000000E-003   -2.061500557641620E-033
 -8.000000000000000E-003   -1.439119163282270E-033
 -7.899999999999999E-003   -4.419782634852144E-034
 -7.800000000000000E-003    9.250408752713730E-034
 -7.699999999999999E-003    2.612688005303209E-033
 -7.599999999999999E-003    4.520122451456768E-033
 -7.499999999999999E-003    6.490947252673488E-033
 -7.399999999999999E-003    8.313710451036590E-033
 -7.299999999999999E-003    9.728087809876757E-033
 -7.199999999999999E-003    1.043793897481383E-032
 -7.100000000000000E-003    1.013228005434479E-032
 -6.999999999999999E-003    8.514933586541218E-033
 -6.899999999999999E-003    5.343025599727018E-033
 -6.800000000000000E-003    4.735615365520705E-034
 -6.699999999999999E-003   -6.084097634749047E-033
 -6.599999999999999E-003   -1.411394380347316E-032
 -6.499999999999999E-003   -2.314354590062166E-032
 -6.399999999999999E-003   -3.240759936724747E-032
 -6.299999999999999E-003   -4.083573455740819E-032
 -6.199999999999999E-003   -4.707685702541833E-032
 -6.100000000000000E-003   -4.957210213744918E-032
 -5.999999999999999E-003   -4.668600358558468E-032
 -5.899999999999999E-003   -3.690024394991402E-032
 -5.800000000000000E-003   -1.906596862274814E-032
 -5.699999999999999E-003    7.300555553216608E-033
 -5.599999999999999E-003    4.170732727323287E-032
 -5.499999999999999E-003    8.240300542732272E-032
 -5.399999999999999E-003    1.261739521177838E-031
 -5.299999999999999E-003    1.682823663995342E-031
 -5.199999999999999E-003    2.026053806333487E-031
 -5.099999999999999E-003    2.220238311452322E-031
 -4.999999999999999E-003    2.190867423188284E-031
 -4.899999999999999E-003    1.869429926614007E-031
 -4.799999999999999E-003    1.204870166050332E-031
 -4.699999999999999E-003    1.761603471297527E-032
 -4.599999999999999E-003   -1.195523902728614E-031
 -4.499999999999999E-003   -2.836921015801252E-031
 -4.399999999999999E-003   -4.617189424923810E-031
 -4.299999999999999E-003   -6.348825868648141E-031
 -4.199999999999999E-003   -7.796617180984496E-031
 -4.099999999999999E-003   -8.695496022361635E-031
 -3.999999999999999E-003   -8.777103268231344E-031
 -3.899999999999999E-003   -7.803579296760584E-031
 -3.799999999999999E-003   -5.605744319852486E-031
 -3.699999999999999E-003   -2.121606636349463E-031
 -3.599999999999999E-003    2.569757404522094E-031
 -3.499999999999999E-003    8.224268917450601E-031
 -3.399999999999999E-003    1.442383892235464E-030
 -3.299999999999999E-003    2.058624448897400E-030
 -3.199999999999999E-003    2.599606255099098E-030
 -3.099999999999999E-003    2.985663453064347E-030
 -2.999999999999999E-003    3.136050830733369E-030
 -2.899999999999999E-003    2.977346945231660E-030
 -2.799999999999999E-003    2.452531779516029E-030
 -2.699999999999999E-003    1.529937938370744E-030
 -2.599999999999999E-003    2.112523386520262E-031
 -2.499999999999999E-003   -1.462200867353432E-030
 -2.399999999999999E-003   -3.405524368069766E-030
 -2.299999999999999E-003   -5.489126527657797E-030
 -2.199999999999999E-003   -7.540735894028466E-030
 -2.099999999999999E-003   -9.350771636274323E-030
 -1.999999999999999E-003   -1.068128875362100E-029
 -1.899999999999999E-003   -1.127877867592929E-029
 -1.799999999999999E-003   -1.089120998431755E-029
 -1.699999999999999E-003   -9.289752513234819E-030
 -1.599999999999999E-003   -6.295498607107284E-030
 -1.499999999999999E-003   -1.811089629154954E-030
 -1.399999999999999E-003    4.143662030593865E-030
 -1.299999999999999E-003    1.139434791046628E-029
 -1.199999999999999E-003    1.957656915889442E-029
 -1.099999999999999E-003    2.810831821526646E-029
 -9.999999999999989E-004    3.617762740061817E-029
 -8.999999999999990E-004    4.275419306580155E-029
 -7.999999999999990E-004    4.663383945187002E-029
 -6.999999999999989E-004    4.652321910514168E-029
 -5.999999999999990E-004    4.116873046844431E-029
 -4.999999999999989E-004    2.952811558727043E-029
 -3.999999999999989E-004    1.097572940772703E-029
 -2.999999999999989E-004   -1.447619673487254E-029
 -1.999999999999989E-004   -4.596688031631139E-029
 -9.999999999999892E-005   -8.162102016149858E-029
  1.084202172485504E-018   -1.184662625696028E-028
  1.000000000000011E-004   -1.524725307300480E-028
  2.000000000000011E-004   -1.787456077082968E-028
  3.000000000000011E-004   -1.918940304265279E-028
  4.000000000000011E-004   -1.865690095729341E-028
  5.000000000000011E-004   -1.581516873866897E-028
  6.000000000000011E-004   -1.035348993853407E-028
  7.000000000000011E-004   -2.191934163489941E-029
  8.000000000000011E-004    8.447743000296040E-029
  9.000000000000012E-004    2.099128710750435E-028
  1.000000000000001E-003    3.449253855657698E-028
  1.100000000000001E-003    4.765497294456719E-028
  1.200000000000001E-003    5.890053069345632E-028
  1.300000000000001E-003    6.648718975530184E-028
  1.400000000000001E-003    6.867101488376699E-028
  1.500000000000001E-003    6.390215645375412E-028
  1.600000000000001E-003    5.103854252423292E-028
  1.700000000000001E-003    2.955631180311177E-028
  1.800000000000001E-003   -2.665140789948584E-030
  1.900000000000001E-003   -3.721684427222175E-028
  2.000000000000001E-003   -7.908518908070040E-028
  2.100000000000001E-003   -1.226924488190436E-027
  2.200000000000001E-003   -1.640143934794770E-027
  2.300000000000001E-003   -1.984052232162375E-027
  2.400000000000001E-003   -2.209136920614700E-027
  2.500000000000001E-003   -2.266773967640858E-027
  2.600000000000001E-003   -2.113751935708614E-027
  2.700000000000001E-003   -1.717127112282197E-027
  2.800000000000001E-003   -1.059132708494605E-027
  2.900000000000001E-003   -1.418373356729398E-028
  3.000000000000001E-003    1.008774524000358E-027
  3.100000000000001E-003    2.339663714414210E-027
  3.200000000000001E-003    3.768950914641043E-027
  3.300000000000001E-003    5.185956872676508E-027
  3.400000000000001E-003    6.453597439038917E-027
  3.500000000000001E-003    7.413686450457379E-027
  3.600000000000001E-003    7.895667943803714E-027
  3.700000000000001E-003    7.729152747721248E-027
  3.800000000000001E-003    6.760357660903882E-027
  3.900000000000001E-003    4.872102884057469E-027
  4.000000000000001E-003    2.006409638044653E-027
  4.100000000000001E-003   -1.811983117398747E-027
  4.200000000000001E-003   -6.453654548378951E-027
  4.300000000000001E-003   -1.166729183280562E-026
  4.400000000000001E-003   -1.707093804254762E-026
  4.500000000000001E-003   -2.215558294201376E-026
  4.600000000000002E-003   -2.630460880256324E-026
  4.700000000000001E-003   -2.883161044100521E-026
  4.800000000000001E-003   -2.903746791931533E-026
  4.900000000000002E-003   -2.628527464522390E-026
  5.000000000000001E-003   -2.008895853714781E-026
  5.100000000000001E-003   -1.020851296507177E-026
  5.200000000000001E-003    3.258005156196954E-027
  5.300000000000002E-003    1.979769523810094E-026
  5.400000000000001E-003    3.843436588793338E-026
  5.500000000000001E-003    5.772112330532922E-026
  5.600000000000002E-003    7.578478641970806E-026
  5.700000000000001E-003    9.042888265612843E-026
  5.800000000000001E-003    9.929669574055972E-026
  5.900000000000002E-003    1.000888887024547E-025
  6.000000000000001E-003    9.082299111099968E-026
  6.100000000000001E-003    7.011464922613023E-026
  6.200000000000002E-003    3.745445671287785E-026
  6.300000000000002E-003   -6.550281347277158E-027
  6.400000000000001E-003   -6.000078260145091E-026
  6.500000000000001E-003   -1.196298402517277E-025
  6.600000000000002E-003   -1.808480267288018E-025
  6.700000000000001E-003   -2.379302991602442E-025
  6.800000000000001E-003   -2.843495747545028E-025
  6.900000000000002E-003   -3.132502270514833E-025
  7.000000000000001E-003   -3.180414896763254E-025
  7.100000000000001E-003   -2.930763971363295E-025
  7.200000000000002E-003   -2.343701744059312E-025
  7.300000000000002E-003   -1.403015496404387E-025
  7.400000000000001E-003   -1.223378868131676E-026
  7.500000000000001E-003    1.450112143564566E-025
  7.600000000000002E-003    3.228917718267208E-025
  7.700000000000001E-003    5.091595017145172E-025
  7.800000000000001E-003    6.881980859048210E-025
  7.900000000000001E-003    8.417243748023932E-025
  8.000000000000002E-003    9.498697332407332E-025
  8.100000000000001E-003    9.926319900554809E-025
  8.200000000000001E-003    9.516583387602477E-025
  8.300000000000002E-003    8.122817222659080E-025
  8.400000000000001E-003    5.656907667295560E-025
  8.500000000000002E-003    2.110724017678846E-025
  8.600000000000002E-003   -2.424782961751946E-025
  8.700000000000001E-003   -7.745171673067955E-025
  8.800000000000002E-003   -1.352537162432485E-024
  8.900000000000002E-003   -1.932236258492702E-024
  9.000000000000001E-003   -2.458995223980415E-024
  9.100000000000002E-003   -2.870723458519089E-024
  9.200000000000002E-003   -3.102136094195093E-024
  9.300000000000001E-003   -3.090384619729492E-024
  9.400000000000002E-003   -2.781798586403393E-024
  9.500000000000001E-003   -2.139314136690800E-024
  9.600000000000001E-003   -1.149981084293267E-024
  9.700000000000002E-003    1.682190239535095E-025
  9.800000000000001E-003    1.761121366391083E-024
  9.900000000000001E-003    3.535605484022077E-024
  1.000000000000000E-002    5.360161176187395E-024
  1.010000000000000E-002    7.069488907978174E-024
  1.020000000000000E-002    8.473536349380648E-024
  1.030000000000000E-002    9.371006546983295E-024
  1.040000000000000E-002    9.566883132382632E-024
  1.050000000000000E-002    8.893027659254088E-024
  1.060000000000000E-002    7.230362193923077E-024
  1.070000000000000E-002    4.530726313098850E-024
  1.080000000000000E-002    8.361318231245497E-025
  1.090000000000000E-002   -3.707006630838357E-024
  1.100000000000000E-002   -8.841043599267186E-024
  1.110000000000000E-002   -1.419974870725309E-023
  1.120000000000000E-002   -1.932194605455246E-023
  1.130000000000000E-002   -2.367687655169455E-023
  1.140000000000000E-002   -2.670098401746800E-023
  1.150000000000000E-002   -2.784475082085778E-023
  1.160000000000000E-002   -2.662699430553657E-023
  1.170000000000000E-002   -2.269290917647400E-023
  1.180000000000000E-002   -1.587119123959424E-023
  1.190000000000000E-002   -6.224838129175135E-024
  1.200000000000000E-002    5.910107265669713E-024
  1.210000000000000E-002    1.990352321348522E-023
  1.220000000000000E-002    3.483300063049068E-023
  1.230000000000000E-002    4.951239230038322E-023
  1.240000000000000E-002    6.254954968499254E-023
  1.250000000000000E-002    7.243340217168266E-023
  1.260000000000000E-002    7.764820913630856E-023
  1.270000000000000E-002    7.680991998124133E-023
  1.280000000000000E-002    6.881677029566481E-023
  1.290000000000000E-002    5.300339416310594E-023
  1.300000000000000E-002    2.928546274694525E-023
  1.310000000000000E-002   -1.720001161871549E-024
  1.320000000000000E-002   -3.861417713843951E-023
  1.330000000000000E-002   -7.919107053893836E-023
  1.340000000000000E-002   -1.204804955784292E-022
  1.350000000000000E-002   -1.588691129374977E-022
  1.360000000000000E-002   -1.903041802306457E-022
  1.370000000000000E-002   -2.105778979209342E-022
  1.380000000000000E-002   -2.156822349781976E-022
  1.390000000000000E-002   -2.022155849423972E-022
  1.400000000000000E-002   -1.678135610147966E-022
  1.410000000000000E-002   -1.115687153069522E-022
  1.420000000000000E-002   -3.439753140674565E-023
  1.430000000000000E-002    6.069027575605740E-023
  1.440000000000000E-002    1.684647826634801E-022
  1.450000000000000E-002    2.815308763473203E-022
  1.460000000000000E-002    3.905957659912819E-022
  1.470000000000000E-002    4.849645107256279E-022
  1.480000000000000E-002    5.532607809474843E-022
  1.490000000000000E-002    5.843477138882434E-022
  1.500000000000000E-002    5.684000943595213E-022
  1.510000000000000E-002    4.980550223006013E-022
  1.520000000000000E-002    3.695486565377934E-022
  1.530000000000000E-002    1.837293974601054E-022
  1.540000000000000E-002   -5.316913607163470E-023
  1.550000000000000E-002   -3.291108170460390E-022
  1.560000000000000E-002   -6.262980023602903E-022
  1.570000000000000E-002   -9.217492975370048E-022
  1.580000000000000E-002   -1.188456675746598E-021
  1.590000000000000E-002   -1.397116392554768E-021
  1.600000000000000E-002   -1.518379156076642E-021
  1.610000000000000E-002   -1.525503471751762E-021
  1.620000000000000E-002   -1.397241021091706E-021
  1.630000000000000E-002   -1.120734068901561E-021
  1.640000000000000E-002   -6.941648118399152E-022
  1.650000000000000E-002   -1.288746519142107E-022
  1.660000000000000E-002    5.493308301924764E-022
  1.670000000000000E-002    1.299946152925985E-021
  1.680000000000000E-002    2.068808664189566E-021
  1.690000000000000E-002    2.790546811933498E-021
  1.700000000000000E-002    3.392458211840473E-021
  1.710000000000000E-002    3.799719919831891E-021
  1.720000000000000E-002    3.941697504462263E-021
  1.730000000000000E-002    3.758979398622224E-021
  1.740000000000000E-002    3.210639181361082E-021
  1.750000000000000E-002    2.281111322788574E-021
  1.760000000000000E-002    9.860083670310116E-022
  1.770000000000000E-002   -6.238300917170189E-022
  1.780000000000000E-002   -2.460722873375411E-021
  1.790000000000000E-002   -4.401535213033365E-021
  1.800000000000000E-002   -6.292467948962736E-021
  1.810000000000000E-002   -7.957411371894199E-021
  1.820000000000000E-002   -9.209735419260604E-021
  1.830000000000000E-002   -9.867057849050483E-021
  1.840000000000000E-002   -9.768185897337109E-021
  1.850000000000000E-002   -8.791091745752552E-021
  1.860000000000000E-002   -6.870490859897522E-021
  1.870000000000000E-002   -4.013385896318129E-021