 -4.000000000000000E-002    0.000000000000000E+000
 -3.990000000000000E-002    0.000000000000000E+000
 -3.980000000000000E-002    0.000000000000000E+000
 -3.970000000000000E-002    0.000000000000000E+000
 -3.960000000000000E-002    0.000000000000000E+000
 -3.950000000000000E-002    0.000000000000000E+000
 -3.940000000000000E-002    0.000000000000000E+000
 -3.930000000000000E-002    0.000000000000000E+000
 -3.920000000000000E-002    0.000000000000000E+000
 -3.910000000000000E-002    3.873796081277794E-030
 -3.900000000000000E-002    7.502669965665147E-029
 -3.890000000000000E-002    7.334354391747711E-028
 -3.880000000000000E-002    4.843258947916894E-027
 -3.870000000000000E-002    2.432280206373489E-026
 -3.860000000000000E-002    9.896238060573922E-026
 -3.850000000000000E-002    3.388167146653099E-025
 -3.840000000000000E-002    9.992445990132489E-025
 -3.830000000000000E-002    2.572730282383614E-024
 -3.820000000000000E-002    5.807607300864445E-024
 -3.810000000000000E-002    1.141056993945596E-023
 -3.800000000000000E-002    1.894608352907746E-023
 -3.790000000000000E-002    2.416105416509097E-023
 -3.780000000000000E-002    1.380481801511580E-023
 -3.770000000000000E-002   -4.268295998501222E-023
 -3.760000000000000E-002   -2.039805178779170E-022
 -3.750000000000000E-002   -5.667702492505366E-022
 -3.740000000000000E-002   -1.266644113998499E-021
 -3.730000000000000E-002   -2.455794134892444E-021
 -3.720000000000000E-002   -4.237115247479876E-021
 -3.710000000000000E-002   -6.531521989965772E-021
 -3.700000000000000E-002   -8.860927524014013E-021
 -3.690000000000000E-002   -1.004974022401112E-020
 -3.680000000000000E-002   -7.888543859248735E-021
 -3.670000000000000E-002    1.133232643066331E-021
 -3.660000000000000E-002    2.183938397770293E-020
 -3.650000000000000E-002    5.985944019730222E-020
 -3.640000000000000E-002    1.202931973010342E-019
 -3.630000000000000E-002    2.052735574075671E-019
 -3.620000000000000E-002    3.103185534405319E-019
 -3.610000000000000E-002    4.196994876459244E-019
 -3.600000000000000E-002    5.015707959983216E-019
 -3.590000000000000E-002    5.042634181557589E-019
 -3.580000000000000E-002    3.558155842404699E-019
 -3.570000000000000E-002   -3.070838129089519E-020
 -3.560000000000000E-002   -7.435593236064613E-019
 -3.550000000000000E-002   -1.848536785515700E-018
 -3.540000000000000E-002   -3.355171262118895E-018
 -3.530000000000000E-002   -5.175847705382343E-018
 -3.520000000000000E-002   -7.084719346946048E-018
 -3.510000000000000E-002   -8.687413142265650E-018
 -3.500000000000000E-002   -9.415957440859381E-018
 -3.490000000000000E-002   -8.564673125207533E-018
 -3.480000000000000E-002   -5.380464681302690E-018
 -3.470000000000000E-002    7.863157073258211E-019
 -3.460000000000000E-002    1.027693163150756E-017
 -3.450000000000000E-002    2.288926694545623E-017
 -3.440000000000000E-002    3.765669826158292E-017
 -3.430000000000000E-002    5.270282583954756E-017
 -3.420000000000000E-002    6.524478640780010E-017
 -3.410000000000000E-002    7.181442773090799E-017
 -3.400000000000000E-002    6.874376643095469E-017
 -3.390000000000000E-002    5.291531187812284E-017
 -3.380000000000000E-002    2.271067902746276E-017
 -3.370000000000000E-002   -2.098997132483512E-017
 -3.360000000000000E-002   -7.398518065104026E-017
 -3.350000000000000E-002   -1.283920984729604E-016
 -3.340000000000000E-002   -1.730472105165936E-016
 -3.330000000000000E-002   -1.949091858958062E-016
 -3.320000000000000E-002   -1.815629746411104E-016
 -3.310000000000000E-002   -1.246962364520756E-016
 -3.300000000000000E-002   -2.412292248384155E-017
 -3.290000000000000E-002    1.083902589502301E-016
 -3.280000000000000E-002    2.465157454684580E-016
 -3.270000000000000E-002    3.491480720522912E-016
 -3.260000000000000E-002    3.636907700613958E-016
 -3.250000000000000E-002    2.336182767500047E-016
 -3.240000000000000E-002   -8.956937809571557E-017
 -3.230000000000000E-002   -6.308222578780800E-016
 -3.220000000000000E-002   -1.374395346858571E-015
 -3.210000000000000E-002   -2.248159692377635E-015
 -3.200000000000000E-002   -3.113345522446016E-015
 -3.190000000000000E-002   -3.764067463481186E-015
 -3.180000000000000E-002   -3.940593212470126E-015
 -3.170000000000000E-002   -3.358964393300897E-015
 -3.160000000000000E-002   -1.757223930399932E-015
 -3.150000000000000E-002    1.044692272723611E-015
 -3.140000000000000E-002    5.078022375841300E-015
 -3.130000000000000E-002    1.016140078091731E-014
 -3.120000000000000E-002    1.585316079071070E-014
 -3.110000000000000E-002    2.143375185777548E-014
 -3.100000000000000E-002    2.593109789331056E-014
 -3.090000000000000E-002    2.819779029276413E-014
 -3.080000000000000E-002    2.704234839004708E-014
 -3.070000000000000E-002    2.140782558231604E-014
 -3.060000000000000E-002    1.058106089768277E-014
 -3.050000000000000E-002   -5.593832551106079E-015
 -3.040000000000000E-002   -2.653152234578770E-014
 -3.030000000000000E-002   -5.078808352496308E-014
 -3.020000000000000E-002   -7.604484489500308E-014
 -3.010000000000000E-002   -9.921934918446146E-014
 -3.000000000000000E-002   -1.167141217251817E-013
 -2.990000000000000E-002   -1.247942479733512E-013
 -2.980000000000000E-002   -1.200624201118062E-013
 -2.970000000000000E-002   -9.997930808466521E-014
 -2.960000000000000E-002   -6.336122940647558E-014
 -2.950000000000000E-002   -1.077989417222002E-014
 -2.940000000000000E-002    5.520688412395560E-014
 -2.930000000000000E-002    1.300480913870569E-013
 -2.920000000000000E-002    2.074432882535573E-013
 -2.910000000000000E-002    2.798291251311133E-013
 -2.900000000000000E-002    3.390635875676872E-013
 -2.890000000000000E-002    3.772294099775925E-013
 -2.880000000000000E-002    3.874563629925399E-013
 -2.870000000000000E-002    3.646561996743751E-013
 -2.860000000000000E-002    3.060772513832728E-013
 -2.850000000000000E-002    2.116166337757105E-013
 -2.840000000000000E-002    8.387302289444297E-014
 -2.830000000000000E-002   -7.202804197581905E-014
 -2.820000000000000E-002   -2.487603301591709E-013
 -2.810000000000000E-002   -4.371722390095332E-013
 -2.800000000000000E-002   -6.266076692073440E-013
 -2.790000000000000E-002   -8.050983626424279E-013
 -2.780000000000000E-002   -9.594128009870349E-013
 -2.770000000000000E-002   -1.075022859307628E-012
 -2.760000000000000E-002   -1.136132143385329E-012
 -2.750000000000000E-002   -1.125973496076681E-012
 -2.740000000000000E-002   -1.027608619948069E-012
 -2.730000000000000E-002   -8.254329203171445E-013
 -2.720000000000000E-002   -5.074904439165432E-013
 -2.710000000000000E-002   -6.854257613147395E-014
 -2.700000000000000E-002    4.863711153831823E-013
 -2.690000000000000E-002    1.138365231857080E-012
 -2.680000000000000E-002    1.851809878294600E-012
 -2.670000000000000E-002    2.572893458138690E-012
 -2.660000000000000E-002    3.230431333071077E-012
 -2.650000000000000E-002    3.739550646836107E-012
 -2.640000000000000E-002    4.008556820549464E-012
 -2.630000000000000E-002    3.948831127424592E-012
 -2.620000000000000E-002    3.487061615770352E-012
 -2.610000000000000E-002    2.578542099654306E-012
 -2.600000000000000E-002    1.219811259880955E-012
 -2.590000000000000E-002   -5.413953831183416E-013
 -2.580000000000000E-002   -2.600914613347223E-012
 -2.570000000000000E-002   -4.799369058477538E-012
 -2.560000000000000E-002   -6.930904523827586E-012
 -2.550000000000000E-002   -8.759595402139360E-012
 -2.540000000000000E-002   -1.004255371847603E-011
 -2.530000000000000E-002   -1.055764657991044E-011
 -2.520000000000000E-002   -1.013274093993307E-011
 -2.510000000000000E-002   -8.672754812927574E-012
 -2.500000000000000E-002   -6.180636798905394E-012
 -2.490000000000000E-002   -2.768792124874117E-012
 -2.480000000000000E-002    1.341539820842587E-012
 -2.470000000000000E-002    5.834000778124462E-012
 -2.460000000000000E-002    1.032322554866779E-011
 -2.450000000000000E-002    1.439086080416231E-011
 -2.440000000000000E-002    1.762746826937732E-011
 -2.430000000000000E-002    1.967524134570345E-011
 -2.420000000000000E-002    2.026616089610673E-011
 -2.410000000000000E-002    1.925071156768083E-011
 -2.400000000000000E-002    1.661355104883961E-011
 -2.390000000000000E-002    1.247440735538322E-011
 -2.380000000000000E-002    7.074692488079271E-012
 -2.370000000000000E-002    7.524511139716467E-013
 -2.360000000000000E-002   -6.090029997384440E-012
 -2.350000000000000E-002   -1.302069018634783E-011
 -2.340000000000000E-002   -1.960902531040655E-011
 -2.330000000000000E-002   -2.545011844642945E-011
 -2.320000000000000E-002   -3.017912593379218E-011
 -2.310000000000000E-002   -3.347637247914272E-011
 -2.300000000000000E-002   -3.506572734634591E-011
 -2.290000000000000E-002   -3.471080692549675E-011
 -2.280000000000000E-002   -3.221466178687489E-011
 -2.270000000000000E-002   -2.742822243288364E-011
 -2.260000000000000E-002   -2.027109728414701E-011
 -2.250000000000000E-002   -1.076541902294448E-011
 -2.240000000000000E-002    9.203714642292563E-013
 -2.230000000000000E-002    1.442465866392424E-011
 -2.220000000000000E-002    2.915275509041617E-011
 -2.210000000000000E-002    4.425569521968736E-011
 -2.200000000000000E-002    5.863907064803602E-011
 -2.190000000000000E-002    7.101055439528464E-011
 -2.180000000000000E-002    7.996983197846225E-011
 -2.170000000000000E-002    8.413803174883336E-011
 -2.160000000000000E-002    8.231637509744975E-011
 -2.150000000000000E-002    7.365694412069750E-011
 -2.140000000000000E-002    5.782330611006111E-011
 -2.130000000000000E-002    3.511645931140139E-011
 -2.120000000000000E-002    6.543038781684545E-012
 -2.110000000000000E-002   -2.619207587229799E-011
 -2.100000000000000E-002   -6.077773102061299E-011
 -2.090000000000000E-002   -9.447099872268328E-011
 -2.080000000000000E-002   -1.243399960438098E-010
 -2.070000000000000E-002   -1.475499227433990E-010
 -2.060000000000000E-002   -1.616588999348207E-010
 -2.050000000000000E-002   -1.648866430348822E-010
 -2.040000000000000E-002   -1.563203325565548E-010
 -2.030000000000000E-002   -1.360292360316805E-010
 -2.020000000000000E-002   -1.050712276413540E-010
 -2.010000000000000E-002   -6.538910088791020E-011
 -2.000000000000000E-002   -1.961018514417800E-011
 -1.990000000000000E-002    2.922334260456542E-011
 -1.980000000000000E-002    7.795595039920386E-011
 -1.970000000000000E-002    1.236102987410838E-010
 -1.960000000000000E-002    1.636294243600743E-010
 -1.950000000000000E-002    1.960388963022476E-010
 -1.940000000000000E-002    2.195120368332368E-010
 -1.930000000000000E-002    2.333380574607162E-010
 -1.920000000000000E-002    2.373096636601073E-010
 -1.910000000000000E-002    2.315604810763234E-010
 -1.900000000000000E-002    2.163911164336170E-010
 -1.890000000000000E-002    1.921237965409017E-010
 -1.880000000000000E-002    1.590196791973327E-010
 -1.870000000000000E-002    1.172796695446816E-010
 -1.860000000000000E-002    6.713281570654625E-011
 -1.850000000000000E-002    8.997266939939838E-012
 -1.840000000000000E-002   -5.631753346505054E-011
 -1.830000000000000E-002   -1.274103296718852E-010
 -1.820000000000000E-002   -2.021357126797055E-010
 -1.810000000000000E-002   -2.775414660690450E-010
 -1.800000000000000E-002   -3.499240903113794E-010
 -1.790000000000000E-002   -4.150110824184251E-010
 -1.780000000000000E-002   -4.682567105568570E-010
 -1.770000000000000E-002   -5.052165793986191E-010
 -1.760000000000000E-002   -5.219498773136949E-010
 -1.750000000000000E-002   -5.153914486790382E-010
 -1.740000000000000E-002   -4.836370692638974E-010
 -1.730000000000000E-002   -4.260997834903528E-010
 -1.720000000000000E-002   -3.435156699237877E-010
 -1.710000000000000E-002   -2.378043448400556E-010
 -1.700000000000000E-002   -1.118164186260646E-010
 -1.690000000000000E-002    3.097798103885271E-011
 -1.680000000000000E-002    1.867923960708819E-010
 -1.670000000000000E-002    3.517512304472508E-010
 -1.660000000000000E-002    5.219856457168471E-010
 -1.650000000000000E-002    6.935678675775536E-010
 -1.640000000000000E-002    8.622862360635948E-010
 -1.630000000000000E-002    1.023298970569494E-009
 -1.620000000000000E-002    1.170738372668644E-009
 -1.610000000000000E-002    1.297360019149186E-009
 -1.600000000000000E-002    1.394339959774441E-009
 -1.590000000000000E-002    1.451316687514325E-009
 -1.580000000000000E-002    1.456748616306568E-009
 -1.570000000000000E-002    1.398618387355662E-009
 -1.560000000000000E-002    1.265467281316266E-009
 -1.550000000000000E-002    1.047691570298660E-009
 -1.540000000000000E-002    7.389868179406859E-010
 -1.530000000000000E-002    3.377938395825341E-010
 -1.520000000000000E-002   -1.514177948153960E-010
 -1.510000000000000E-002   -7.171870571026545E-010
 -1.500000000000000E-002   -1.340554965780832E-009
 -1.490000000000000E-002   -1.995107196908527E-009
 -1.480000000000000E-002   -2.647609284539905E-009
 -1.470000000000000E-002   -3.259220783232034E-009
 -1.460000000000000E-002   -3.787222799216714E-009
 -1.450000000000000E-002   -4.187152978981490E-009
 -1.440000000000000E-002   -4.415212197713004E-009
 -1.430000000000000E-002   -4.430802099869337E-009
 -1.420000000000000E-002   -4.199053193734793E-009
 -1.410000000000000E-002   -3.693225799202893E-009
 -1.400000000000000E-002   -2.896893330766695E-009
 -1.390000000000000E-002   -1.805846321513390E-009
 -1.380000000000000E-002   -4.296813934227031E-010
 -1.370000000000000E-002    1.206935819923641E-009
 -1.360000000000000E-002    3.063339592828687E-009
 -1.350000000000000E-002    5.082262264704771E-009
 -1.340000000000000E-002    7.189562685479635E-009
 -1.330000000000000E-002    9.294298434209253E-009
 -1.320000000000000E-002    1.128914242032354E-008
 -1.310000000000000E-002    1.305116687140549E-008
 -1.300000000000000E-002    1.444298263589743E-008
 -1.290000000000000E-002    1.531422086106728E-008
 -1.280000000000000E-002    1.550330975078754E-008
 -1.270000000000000E-002    1.483947875665818E-008
 -1.260000000000000E-002    1.314488298921590E-008
 -1.250000000000000E-002    1.023673982942833E-008
 -1.240000000000000E-002    5.929348240961865E-009
 -1.230000000000000E-002    3.587098411640086E-011
 -1.220000000000000E-002   -7.630209307448034E-009
 -1.210000000000000E-002   -1.725402914418758E-008
 -1.200000000000000E-002   -2.901868138843542E-008
 -1.190000000000000E-002   -4.310491832628462E-008
 -1.180000000000000E-002   -5.969116611118342E-008
 -1.170000000000000E-002   -7.895370141509013E-008
 -1.160000000000000E-002   -1.010668961903852E-007
 -1.150000000000000E-002   -1.262034003512158E-007
 -1.140000000000000E-002   -1.545341234810085E-007
 -1.130000000000000E-002   -1.862279914161145E-007
 -1.120000000000000E-002   -2.214513551358640E-007
 -1.110000000000000E-002   -2.603673054851125E-007
 -1.100000000000000E-002   -3.031345580070811E-007
 -1.090000000000000E-002   -3.499065513433557E-007
 -1.080000000000000E-002   -4.008304811067033E-007
 -1.070000000000000E-002   -4.560466460730801E-007
 -1.060000000000000E-002   -5.156882707418393E-007
 -1.050000000000000E-002   -5.798818670469207E-007
 -1.040000000000000E-002   -6.487485311037689E-007
 -1.030000000000000E-002   -7.224059507454357E-007
 -1.020000000000000E-002   -8.009714569040704E-007
 -1.010000000000000E-002   -8.845658696723256E-007
 -1.000000000000000E-002   -9.733182829851909E-007
 -9.899999999999999E-003   -1.067371753782573E-006
 -9.800000000000000E-003   -1.166889512113553E-006
 -9.699999999999999E-003   -1.272061405296415E-006
 -9.599999999999999E-003   -1.383110699109189E-006
 -9.500000000000000E-003   -1.500300582241680E-006
 -9.399999999999999E-003   -1.623940271261236E-006
 -9.299999999999999E-003   -1.754390083291756E-006
 -9.200000000000000E-003   -1.892065634144399E-006
 -9.099999999999999E-003   -2.037440456988525E-006
 -8.999999999999999E-003   -2.191047257483575E-006
 -8.900000000000000E-003   -2.353477197572611E-006
 -8.799999999999999E-003   -2.525378485071970E-006
 -8.699999999999999E-003   -2.707452353265235E-006
 -8.600000000000000E-003   -2.900448825851773E-006
 -8.499999999999999E-003   -3.105161704889644E-006
 -8.399999999999999E-003   -3.322422286151865E-006
 -8.300000000000000E-003   -3.553094440482471E-006
 -8.199999999999999E-003   -3.798069722889819E-006
 -8.100000000000000E-003   -4.058263433382568E-006
 -8.000000000000000E-003   -4.334611473650980E-006
 -7.899999999999999E-003   -4.628069703143678E-006
 -7.800000000000000E-003   -4.939614840933344E-006
 -7.699999999999999E-003   -5.270246209387254E-006
 -7.599999999999999E-003   -5.620988886665473E-006
 -7.499999999999999E-003   -5.992898562905878E-006
 -7.399999999999999E-003   -6.387068514556953E-006
 -7.299999999999999E-003   -6.804634857116072E-006
 -7.199999999999999E-003   -7.246784411410766E-006
 -7.100000000000000E-003   -7.714762662779966E-006
 -6.999999999999999E-003   -8.209878244235386E-006
 -6.899999999999999E-003   -8.733514159503746E-006
 -6.800000000000000E-003   -9.287131600164223E-006
 -6.699999999999999E-003   -9.872277494891956E-006
 -6.599999999999999E-003   -1.049059121363039E-005
 -6.499999999999999E-003   -1.114380966753671E-005
 -6.399999999999999E-003   -1.183377112970628E-005
 -6.299999999999999E-003   -1.256242071178553E-005
 -6.199999999999999E-003   -1.333181245578861E-005
 -6.100000000000000E-003   -1.414411257268372E-005
 -5.999999999999999E-003   -1.500160344869693E-005
 -5.899999999999999E-003   -1.590668111615159E-005
 -5.800000000000000E-003   -1.686186162489423E-005
 -5.699999999999999E-003   -1.786977892617035E-005
 -5.599999999999999E-003   -1.893318726038193E-005
 -5.499999999999999E-003   -2.005496474208503E-005
 -5.399999999999999E-003   -2.123811292790427E-005
 -5.299999999999999E-003   -2.248576179595983E-005
 -5.199999999999999E-003   -2.380117802254134E-005
 -5.099999999999999E-003   -2.518776244782415E-005
 -4.999999999999999E-003   -2.664906377063024E-005
 -4.899999999999999E-003   -2.818878087566473E-005
 -4.799999999999999E-003   -2.981077428277456E-005
 -4.699999999999999E-003   -3.151907440733487E-005
 -4.599999999999999E-003   -3.331788521593023E-005
 -4.499999999999999E-003   -3.521159766546058E-005
 -4.399999999999999E-003   -3.720480299027768E-005
 -4.299999999999999E-003   -3.930229141393435E-005
 -4.199999999999999E-003   -4.150907562226515E-005
 -4.099999999999999E-003   -4.383038178224694E-005
 -3.999999999999999E-003   -4.627167845755207E-005
 -3.899999999999999E-003   -4.883867074427428E-005
 -3.799999999999999E-003   -5.153731879370563E-005
 -3.699999999999999E-003   -5.437383725161278E-005
 -3.599999999999999E-003   -5.735471005904098E-005
 -3.499999999999999E-003   -6.048670056668681E-005
 -3.399999999999999E-003   -6.377685055339550E-005
 -3.299999999999999E-003   -6.723248815813465E-005
 -3.199999999999999E-003   -7.086124137356089E-005
 -3.099999999999999E-003   -7.467103406950568E-005
 -2.999999999999999E-003   -7.867010323871700E-005
 -2.899999999999999E-003   -8.286699182246322E-005
 -2.799999999999999E-003   -8.727056188933773E-005
 -2.699999999999999E-003   -9.189000792936841E-005
 -2.599999999999999E-003   -9.673485851440898E-005
 -2.499999999999999E-003   -1.018149939029704E-004
 -2.399999999999999E-003   -1.071406598387419E-004
 -2.299999999999999E-003   -1.127224718150593E-004
 -2.199999999999999E-003   -1.185714389138395E-004
 -2.099999999999999E-003   -1.246989842443867E-004
 -1.999999999999999E-003   -1.311169489991247E-004
 -1.899999999999999E-003   -1.378376424382006E-004
 -1.799999999999999E-003   -1.448738206859875E-004
 -1.699999999999999E-003   -1.522387293817813E-004
 -1.599999999999999E-003   -1.599461289145580E-004
 -1.499999999999999E-003   -1.680102809272141E-004
 -1.399999999999999E-003   -1.764459789816491E-004
 -1.299999999999999E-003   -1.852685951111340E-004
 -1.199999999999999E-003   -1.944940224647225E-004
 -1.099999999999999E-003   -2.041387741509113E-004
 -9.999999999999989E-004   -2.142199208279977E-004
 -8.999999999999990E-004   -2.247551532270431E-004
 -7.999999999999990E-004   -2.357627629182404E-004
 -6.999999999999989E-004   -2.472616706540907E-004
 -5.999999999999990E-004   -2.592714205367820E-004
 -4.999999999999989E-004   -2.718121984115837E-004
 -3.999999999999989E-004   -2.849048403072458E-004
 -2.999999999999989E-004   -2.985708422704732E-004
 -1.999999999999989E-004   -3.128323572620076E-004
 -9.999999999999892E-005   -3.277122348057824E-004
  1.084202172485504E-018   -3.432339823546433E-004
  1.000000000000011E-004   -3.594218374880676E-004
  2.000000000000011E-004   -3.763007390395064E-004
  3.000000000000011E-004   -3.938963205036037E-004
  4.000000000000011E-004   -4.122349707089676E-004
  5.000000000000011E-004   -4.313438289629920E-004
  6.000000000000011E-004   -4.512508181556493E-004
  7.000000000000011E-004   -4.719846037656884E-004
  8.000000000000011E-004   -4.935746948995668E-004
  9.000000000000012E-004   -5.160513990859689E-004
  1.000000000000001E-003   -5.394458498346233E-004
  1.100000000000001E-003   -5.637901021605489E-004
  1.200000000000001E-003   -5.891170585098702E-004
  1.300000000000001E-003   -6.154605625675630E-004
  1.400000000000001E-003   -6.428553397687148E-004
  1.500000000000001E-003   -6.713370881734845E-004
  1.600000000000001E-003   -7.009424960653507E-004
  1.700000000000001E-003   -7.317092061873254E-004
  1.800000000000001E-003   -7.636759754237918E-004
  1.900000000000001E-003   -7.968824591427276E-004
  2.000000000000001E-003   -8.313693296152984E-004
  2.100000000000001E-003   -8.671783050775472E-004
  2.200000000000001E-003   -9.043521767379601E-004
  2.300000000000001E-003   -9.429346462128266E-004
  2.400000000000001E-003   -9.829705048197525E-004
  2.500000000000001E-003   -1.024505499236082E-003
  2.600000000000001E-003   -1.067586362092547E-003
  2.700000000000001E-003   -1.112260770275451E-003
  2.800000000000001E-003   -1.158577386788254E-003
  2.900000000000001E-003   -1.206585831468511E-003
  3.000000000000001E-003   -1.256336711546851E-003
  3.100000000000001E-003   -1.307881400400224E-003
  3.200000000000001E-003   -1.361272440212704E-003
  3.300000000000001E-003   -1.416563358143467E-003
  3.400000000000001E-003   -1.473808429300364E-003
  3.500000000000001E-003   -1.533063035559414E-003
  3.600000000000001E-003   -1.594383520581756E-003
  3.700000000000001E-003   -1.657827213918750E-003
  3.800000000000001E-003   -1.723452621636084E-003
  3.900000000000001E-003   -1.791318992039789E-003
  4.000000000000001E-003   -1.861486703017983E-003
  4.100000000000001E-003   -1.934017104064061E-003
  4.200000000000001E-003   -2.008972361038671E-003
  4.300000000000001E-003   -2.086415521426976E-003
  4.400000000000001E-003   -2.166410677153437E-003
  4.500000000000001E-003   -2.249022771814345E-003
  4.600000000000002E-003   -2.334317366449169E-003
  4.700000000000001E-003   -2.422360830361204E-003
  4.800000000000001E-003   -2.513220495759546E-003
  4.900000000000002E-003   -2.606964071912433E-003
  5.000000000000001E-003   -2.703660298781118E-003
  5.100000000000001E-003   -2.803378110783366E-003
  5.200000000000001E-003   -2.906187382742410E-003
  5.300000000000002E-003   -3.012158477555590E-003
  5.400000000000001E-003   -3.121362438523109E-003
  5.500000000000001E-003   -3.233870612720528E-003
  5.600000000000002E-003   -3.349754900713500E-003
  5.700000000000001E-003   -3.469087835343581E-003
  5.800000000000001E-003   -3.591941976589935E-003
  5.900000000000002E-003   -3.718390810494689E-003
  6.000000000000001E-003   -3.848507677810957E-003
  6.100000000000001E-003   -3.982366143937957E-003
  6.200000000000002E-003   -4.120040108768449E-003
  6.300000000000002E-003   -4.261603327960835E-003
  6.400000000000001E-003   -4.407129624986164E-003
  6.500000000000001E-003   -4.556692780403541E-003
  6.600000000000002E-003   -4.710366415536818E-003
  6.700000000000001E-003   -4.868223338876338E-003
  6.800000000000001E-003   -5.030336468753289E-003
  6.900000000000002E-003   -5.196777760854877E-003
  7.000000000000001E-003   -5.367619402176084E-003
  7.100000000000001E-003   -5.542931806794478E-003
  7.200000000000002E-003   -5.722785490303718E-003
  7.300000000000002E-003   -5.907249968438530E-003
  7.400000000000001E-003   -6.096393595008805E-003
  7.500000000000001E-003   -6.290284518419649E-003
  7.600000000000002E-003   -6.488988977522259E-003
  7.700000000000001E-003   -6.692573305573385E-003
  7.800000000000001E-003   -6.901101356288876E-003
  7.900000000000001E-003   -7.114636375614016E-003
  8.000000000000002E-003   -7.333240402508860E-003
  8.100000000000001E-003   -7.556973360070399E-003
  8.200000000000001E-003   -7.785893808420252E-003
  8.300000000000002E-003   -8.020058987495231E-003
  8.400000000000001E-003   -8.259522555574945E-003
  8.500000000000002E-003   -8.504336996436837E-003
  8.600000000000002E-003   -8.754553769488450E-003
  8.700000000000001E-003   -9.010219094118735E-003
  8.800000000000002E-003   -9.271378260850244E-003
  8.900000000000002E-003   -9.538073056559765E-003
  9.000000000000001E-003   -9.810343014192140E-003
  9.100000000000002E-003   -1.008822474452634E-002
  9.200000000000002E-003   -1.037175106420377E-002
  9.300000000000001E-003   -1.066095188759985E-002
  9.400000000000002E-003   -1.095585308834534E-002
  9.500000000000001E-003   -1.125647898573179E-002
  9.600000000000001E-003   -1.156284833431617E-002
  9.700000000000002E-003   -1.187497803951320E-002
  9.800000000000001E-003   -1.219287983264333E-002
  9.900000000000001E-003   -1.251656289271213E-002
  1.000000000000000E-002   -1.284603064521419E-002
  1.010000000000000E-002   -1.318128412316220E-002
  1.020000000000000E-002   -1.352231805016632E-002
  1.030000000000000E-002   -1.386912362554972E-002
  1.040000000000000E-002   -1.422168637497285E-002
  1.050000000000000E-002   -1.457998758221459E-002
  1.060000000000000E-002   -1.494400246358963E-002
  1.070000000000000E-002   -1.531370131642822E-002
  1.080000000000000E-002   -1.568904732210746E-002
  1.090000000000000E-002   -1.607000123460155E-002
  1.100000000000000E-002   -1.645651521752558E-002
  1.110000000000000E-002   -1.684853470287622E-002
  1.120000000000000E-002   -1.724600145277322E-002
  1.130000000000000E-002   -1.764884929213005E-002
  1.140000000000000E-002   -1.805700698820222E-002
  1.150000000000000E-002   -1.847039578937687E-002
  1.160000000000000E-002   -1.888893051834864E-002
  1.170000000000000E-002   -1.931252072112965E-002
  1.180000000000000E-002   -1.974106748371462E-002
  1.190000000000000E-002   -2.017446734660639E-002
  1.200000000000000E-002   -2.061260838468485E-002
  1.210000000000000E-002   -2.105537141521104E-002
  1.220000000000000E-002   -2.150263077461165E-002
  1.230000000000000E-002   -2.195425373184010E-002
  1.240000000000000E-002   -2.241009898900402E-002
  1.250000000000000E-002   -2.287001621875791E-002
  1.260000000000000E-002   -2.333385011685981E-002
  1.270000000000000E-002   -2.380143660549042E-002
  1.280000000000000E-002   -2.427260283230802E-002
  1.290000000000000E-002   -2.474716972286764E-002
  1.300000000000000E-002   -2.522494844607620E-002
  1.310000000000000E-002   -2.570574258833854E-002
  1.320000000000000E-002   -2.618934752141439E-002
  1.330000000000000E-002   -2.667555163437985E-002
  1.340000000000000E-002   -2.716413292190680E-002
  1.350000000000000E-002   -2.765486332726196E-002
  1.360000000000000E-002   -2.814750361304993E-002
  1.370000000000000E-002   -2.864180921094316E-002
  1.380000000000000E-002   -2.913752611073514E-002
  1.390000000000000E-002   -2.963439233412276E-002
  1.400000000000000E-002   -3.013213774249402E-002
  1.410000000000000E-002   -3.063048144113243E-002
  1.420000000000000E-002   -3.112913754371233E-002
  1.430000000000000E-002   -3.162781176947886E-002
  1.440000000000000E-002   -3.212620131817188E-002
  1.450000000000000E-002   -3.262399232069554E-002
  1.460000000000000E-002   -3.312086749198511E-002
  1.470000000000000E-002   -3.361649873447741E-002
  1.480000000000000E-002   -3.411055324399706E-002
  1.490000000000000E-002   -3.460269032325818E-002
  1.500000000000000E-002   -3.509255794347799E-002
  1.510000000000000E-002   -3.557980444811918E-002
  1.520000000000000E-002   -3.606406050797935E-002
  1.530000000000000E-002   -3.654495595251327E-002
  1.540000000000000E-002   -3.702211403830630E-002
  1.550000000000000E-002   -3.749514877020147E-002
  1.560000000000000E-002   -3.796366751270836E-002
  1.570000000000000E-002   -3.842727139562412E-002
  1.580000000000000E-002   -3.888555897837795E-002
  1.590000000000000E-002   -3.933811624159161E-002
  1.600000000000000E-002   -3.978452976564198E-002
  1.610000000000000E-002   -4.022437662606431E-002
  1.620000000000000E-002   -4.065722530478753E-002
  1.630000000000000E-002   -4.108264901625624E-002
  1.640000000000000E-002   -4.150020796402137E-002
  1.650000000000000E-002   -4.190945972375769E-002
  1.660000000000000E-002   -4.230995681562352E-002
  1.670000000000000E-002   -4.270125342747412E-002
  1.680000000000000E-002   -4.308289338155943E-002
  1.690000000000000E-002   -4.345442152498179E-002
  1.700000000000000E-002   -4.381537677093253E-002
  1.710000000000000E-002   -4.416530155492945E-002
  1.720000000000000E-002   -4.450373064748887E-002
  1.730000000000000E-002   -4.483020015306335E-002
  1.740000000000000E-002   -4.514424000594469E-002
  1.750000000000000E-002   -4.544538519824946E-002
  1.760000000000000E-002   -4.573316768837368E-002
  1.770000000000000E-002   -4.600711888849993E-002
  1.780000000000000E-002   -4.626677219854629E-002
  1.790000000000000E-002   -4.651165855034831E-002
  1.800000000000000E-002   -4.674131526642416E-002
  1.810000000000000E-002   -4.695527630922814E-002
  1.820000000000000E-002   -4.715307715730434E-002
  1.830000000000000E-002   -4.733425984361563E-002
  1.840000000000000E-002   -4.749836626276733E-002
  1.850000000000000E-002   -4.764494087231139E-002
  1.860000000000000E-002   -4.777353589757795E-002
  1.870000000000000E-002   -4.788370361651859E-002