 -4.000000000000000E-002    0.000000000000000E+000
 -3.990000000000000E-002    0.000000000000000E+000
 -3.980000000000000E-002    0.000000000000000E+000
 -3.970000000000000E-002    0.000000000000000E+000
 -3.960000000000000E-002    0.000000000000000E+000
 -3.950000000000000E-002    0.000000000000000E+000
 -3.940000000000000E-002    0.000000000000000E+000
 -3.930000000000000E-002    0.000000000000000E+000
 -3.920000000000000E-002    0.000000000000000E+000
 -3.910000000000000E-002    0.000000000000000E+000
 -3.900000000000000E-002    0.000000000000000E+000
 -3.890000000000000E-002    0.000000000000000E+000
 -3.880000000000000E-002    5.823102238484875E-037
 -3.870000000000000E-002    1.172633915873127E-035
 -3.860000000000000E-002    1.208856912504193E-034
 -3.850000000000000E-002    8.474107605696490E-034
 -3.840000000000000E-002    4.524254794391341E-033
 -3.830000000000000E-002    1.951472518846860E-032
 -3.820000000000000E-002    7.031658386119207E-032
 -3.810000000000000E-002    2.153699931193343E-031
 -3.800000000000000E-002    5.624395063939519E-031
 -3.790000000000000E-002    1.230576147315354E-030
 -3.780000000000000E-002    2.107181631039301E-030
 -3.770000000000000E-002    2.051995154003346E-030
 -3.760000000000000E-002   -3.108110896039982E-030
 -3.750000000000000E-002   -2.480053359907587E-029
 -3.740000000000000E-002   -8.929275056281185E-029
 -3.730000000000000E-002   -2.491629510306888E-028
 -3.720000000000000E-002   -5.968330389296513E-028
 -3.710000000000000E-002   -1.273033924720646E-027
 -3.700000000000000E-002   -2.453668573250874E-027
 -3.690000000000000E-002   -4.284957742584499E-027
 -3.680000000000000E-002   -6.721492665003513E-027
 -3.670000000000000E-002   -9.211892683015114E-027
 -3.660000000000000E-002   -1.018537084947734E-026
 -3.650000000000000E-002   -6.339399918699912E-027
 -3.640000000000000E-002    8.162831249803965E-027
 -3.630000000000000E-002    4.228698120911254E-026
 -3.620000000000000E-002    1.079442330619164E-025
 -3.610000000000000E-002    2.181422589544643E-025
 -3.600000000000000E-002    3.823133731442579E-025
 -3.590000000000000E-002    5.976114805818304E-025
 -3.580000000000000E-002    8.353765762948961E-025
 -3.570000000000000E-002    1.023110388252372E-024
 -3.560000000000000E-002    1.024427555360516E-024
 -3.550000000000000E-002    6.226116666871577E-025
 -3.540000000000000E-002   -4.826496235838265E-025
 -3.530000000000000E-002   -2.651821440383956E-024
 -3.520000000000000E-002   -6.239266259199234E-024
 -3.510000000000000E-002   -1.146886309493912E-023
 -3.500000000000000E-002   -1.824269301990140E-023
 -3.490000000000000E-002   -2.588834217029328E-023
 -3.480000000000000E-002   -3.287377308463679E-023
 -3.470000000000000E-002   -3.655016817116054E-023
 -3.460000000000000E-002   -3.301870046511350E-023
 -3.450000000000000E-002   -1.724889526186916E-023
 -3.440000000000000E-002    1.640758794539881E-023
 -3.430000000000000E-002    7.317744118400168E-023
 -3.420000000000000E-002    1.562277574047513E-022
 -3.410000000000000E-002    2.644684102204005E-022
 -3.400000000000000E-002    3.899995278561181E-022
 -3.390000000000000E-002    5.156154972191897E-022
 -3.380000000000000E-002    6.129919255359429E-022
 -3.370000000000000E-002    6.423560752013594E-022
 -3.360000000000000E-002    5.545080434977563E-022
 -3.350000000000000E-002    2.959557556812708E-022
 -3.340000000000000E-002   -1.824053964219723E-022
 -3.330000000000000E-002   -9.132146945493932E-022
 -3.320000000000000E-002   -1.898106509035592E-021
 -3.310000000000000E-002   -3.092549556795341E-021
 -3.300000000000000E-002   -4.392753668860970E-021
 -3.290000000000000E-002   -5.627910675130040E-021
 -3.280000000000000E-002   -6.561109861693980E-021
 -3.270000000000000E-002   -6.901662165702207E-021
 -3.260000000000000E-002   -6.330203402939761E-021
 -3.250000000000000E-002   -4.535924574176307E-021
 -3.240000000000000E-002   -1.262910539451543E-021
 -3.230000000000000E-002    3.639639674472241E-021
 -3.220000000000000E-002    1.016996072859885E-020
 -3.210000000000000E-002    1.813572154686559E-020
 -3.200000000000000E-002    2.713040026172423E-020
 -3.190000000000000E-002    3.652544435231039E-020
 -3.180000000000000E-002    4.547496773174419E-020
 -3.170000000000000E-002    5.292526257603345E-020
 -3.160000000000000E-002    5.761889091294812E-020
 -3.150000000000000E-002    5.808475123567217E-020
 -3.140000000000000E-002    5.261288219246999E-020
 -3.130000000000000E-002    3.922675726613917E-020
 -3.120000000000000E-002    1.568522374535488E-020
 -3.110000000000000E-002   -2.043228710912826E-020
 -3.100000000000000E-002   -7.148614355769970E-020
 -3.090000000000000E-002   -1.393056168402552E-019
 -3.080000000000000E-002   -2.244249512114380E-019
 -3.070000000000000E-002   -3.250080552567734E-019
 -3.060000000000000E-002   -4.355189404323215E-019
 -3.050000000000000E-002   -5.452999451461645E-019
 -3.040000000000000E-002   -6.373420327132011E-019
 -3.030000000000000E-002   -6.876500456158348E-019
 -3.020000000000000E-002   -6.656890995267546E-019
 -3.010000000000000E-002   -5.364115450425734E-019
 -3.000000000000000E-002   -2.642704220904083E-019
 -2.990000000000000E-002    1.805993848896089E-019
 -2.980000000000000E-002    8.142162306362503E-019
 -2.970000000000000E-002    1.629269172383312E-018
 -2.960000000000000E-002    2.585532506754117E-018
 -2.950000000000000E-002    3.601917262219103E-018
 -2.940000000000000E-002    4.552285910819953E-018
 -2.930000000000000E-002    5.267278515430774E-018
 -2.920000000000000E-002    5.544137177318447E-018
 -2.910000000000000E-002    5.165795639816337E-018
 -2.900000000000000E-002    3.929296995230067E-018
 -2.890000000000000E-002    1.682011848607739E-018
 -2.880000000000000E-002   -1.637704427491993E-018
 -2.870000000000000E-002   -5.960553883519526E-018
 -2.860000000000000E-002   -1.105358019472127E-017
 -2.850000000000000E-002   -1.650191544870007E-017
 -2.840000000000000E-002   -2.171182925360133E-017
 -2.830000000000000E-002   -2.594031365807995E-017
 -2.820000000000000E-002   -2.835356550338057E-017
 -2.810000000000000E-002   -2.811282972678766E-017
 -2.800000000000000E-002   -2.448158503162789E-017
 -2.790000000000000E-002   -1.694360492664589E-017
 -2.780000000000000E-002   -5.317876660647030E-018
 -2.770000000000000E-002    1.014565899926357E-017
 -2.760000000000000E-002    2.870530340902759E-017
 -2.750000000000000E-002    4.911480644638269E-017
 -2.740000000000000E-002    6.966648796561281E-017
 -2.730000000000000E-002    8.829131560761751E-017
 -2.720000000000000E-002    1.027093180824343E-016
 -2.710000000000000E-002    1.106166980866809E-016
 -2.700000000000000E-002    1.098909528119023E-016
 -2.690000000000000E-002    9.879341312410983E-017
 -2.680000000000000E-002    7.615054586258792E-017
 -2.670000000000000E-002    4.150084610710861E-017
 -2.660000000000000E-002   -4.797735474048904E-018
 -2.650000000000000E-002   -6.149613267893897E-017
 -2.640000000000000E-002   -1.264076434193683E-016
 -2.630000000000000E-002   -1.963732039032022E-016
 -2.620000000000000E-002   -2.672289762113552E-016
 -2.610000000000000E-002   -3.337776036714676E-016
 -2.600000000000000E-002   -3.897818426904516E-016
 -2.590000000000000E-002   -4.280199447358906E-016
 -2.580000000000000E-002   -4.404617200403039E-016
 -2.570000000000000E-002   -4.186360801637602E-016
 -2.560000000000000E-002   -3.542592351091149E-016
 -2.550000000000000E-002   -2.401714603484200E-016
 -2.540000000000000E-002   -7.158790934397542E-017
 -2.530000000000000E-002    1.523951712984746E-016
 -2.520000000000000E-002    4.271752769944035E-016
 -2.510000000000000E-002    7.411178571182680E-016
 -2.500000000000000E-002    1.074418322641074E-015
 -2.490000000000000E-002    1.398680972504441E-015
 -2.480000000000000E-002    1.677538706875253E-015
 -2.470000000000000E-002    1.868573965927516E-015
 -2.460000000000000E-002    1.926673545699593E-015
 -2.450000000000000E-002    1.808763606334243E-015
 -2.440000000000000E-002    1.479643113949849E-015
 -2.430000000000000E-002    9.183923802043851E-016
 -2.420000000000000E-002    1.246147001968984E-016
 -2.410000000000000E-002   -8.763827299125082E-016
 -2.400000000000000E-002   -2.030415165002077E-015
 -2.390000000000000E-002   -3.254116256367470E-015
 -2.380000000000000E-002   -4.438140405044959E-015
 -2.370000000000000E-002   -5.454145561011237E-015
 -2.360000000000000E-002   -6.165367011531413E-015
 -2.350000000000000E-002   -6.440074297827934E-015
 -2.340000000000000E-002   -6.166720191267474E-015
 -2.330000000000000E-002   -5.269191708616451E-015
 -2.320000000000000E-002   -3.720357377954606E-015
 -2.310000000000000E-002   -1.552107243050964E-015
 -2.300000000000000E-002    1.139659431148119E-015
 -2.290000000000000E-002    4.196169953984444E-015
 -2.280000000000000E-002    7.403429996668686E-015
 -2.270000000000000E-002    1.050602411526244E-014
 -2.260000000000000E-002    1.322595616183646E-014
 -2.250000000000000E-002    1.528479939095563E-014
 -2.240000000000000E-002    1.642703039007679E-014
 -2.230000000000000E-002    1.644233221843162E-014
 -2.220000000000000E-002    1.518486201771498E-014
 -2.210000000000000E-002    1.258795742175649E-014
 -2.200000000000000E-002    8.673436734577682E-015
 -2.190000000000000E-002    3.555348653061648E-015
 -2.180000000000000E-002   -2.561336613141483E-015
 -2.170000000000000E-002   -9.386225226938718E-015
 -2.160000000000000E-002   -1.655222132195654E-014
 -2.150000000000000E-002   -2.362677405235324E-014
 -2.140000000000000E-002   -3.012551449693989E-014
 -2.130000000000000E-002   -3.552881087492005E-014
 -2.120000000000000E-002   -3.930242120775585E-014
 -2.110000000000000E-002   -4.092380440932651E-014
 -2.100000000000000E-002   -3.991549253794641E-014
 -2.090000000000000E-002   -3.588624295198803E-014
 -2.080000000000000E-002   -2.857928950523675E-014
 -2.070000000000000E-002   -1.792511255061331E-014
 -2.060000000000000E-002   -4.093992044605367E-015
 -2.050000000000000E-002    1.245849397642862E-014
 -2.040000000000000E-002    3.096133403401466E-014
 -2.030000000000000E-002    5.032220012636136E-014
 -2.020000000000000E-002    6.915383571916295E-014
 -2.010000000000000E-002    8.583843497925244E-014
 -2.000000000000000E-002    9.863184050876597E-014
 -1.990000000000000E-002    1.058044282829834E-013
 -1.980000000000000E-002    1.058098899685106E-013
 -1.970000000000000E-002    9.746775318785681E-014
 -1.960000000000000E-002    8.014086749386341E-014
 -1.950000000000000E-002    5.388660965613503E-014
 -1.940000000000000E-002    1.956038294224064E-014
 -1.930000000000000E-002   -2.114741604801894E-014
 -1.920000000000000E-002   -6.575415248914511E-014
 -1.910000000000000E-002   -1.111128948785212E-013
 -1.900000000000000E-002   -1.536215384901220E-013
 -1.890000000000000E-002   -1.894995676153712E-013
 -1.880000000000000E-002   -2.151097666517976E-013
 -1.870000000000000E-002   -2.272958315893510E-013
 -1.860000000000000E-002   -2.237027832317707E-013
 -1.850000000000000E-002   -2.030476056593777E-013
 -1.840000000000000E-002   -1.653110355416191E-013
 -1.830000000000000E-002   -1.118286814910836E-013
 -1.820000000000000E-002   -4.526945324707852E-014
 -1.810000000000000E-002    3.049990959461139E-014
 -1.800000000000000E-002    1.106545238421630E-013
 -1.790000000000000E-002    1.897363865508129E-013
 -1.780000000000000E-002    2.620384103022714E-013
 -1.770000000000000E-002    3.220173915516431E-013
 -1.760000000000000E-002    3.647045686963531E-013
 -1.750000000000000E-002    3.860842716149429E-013
 -1.740000000000000E-002    3.834146803789471E-013
 -1.730000000000000E-002    3.554698924940024E-013
 -1.720000000000000E-002    3.026875545067182E-013
 -1.710000000000000E-002    2.272115356317134E-013
 -1.700000000000000E-002    1.328242928524507E-013
 -1.690000000000000E-002    2.476763746528877E-014
 -1.680000000000000E-002   -9.054444840596615E-014
 -1.670000000000000E-002   -2.059115195935246E-013
 -1.660000000000000E-002   -3.138152399793970E-013
 -1.650000000000000E-002   -4.069468518242035E-013
 -1.640000000000000E-002   -4.787610064529902E-013
 -1.630000000000000E-002   -5.240149922332246E-013
 -1.620000000000000E-002   -5.392452998411575E-013
 -1.610000000000000E-002   -5.231304289983502E-013
 -1.600000000000000E-002   -4.766910347127021E-013
 -1.590000000000000E-002   -4.032874652378008E-013
 -1.580000000000000E-002   -3.083904895295941E-013
 -1.570000000000000E-002   -1.991238771679359E-013
 -1.560000000000000E-002   -8.360396856113323E-014
 -1.550000000000000E-002    2.987005787712143E-014
 -1.540000000000000E-002    1.336965837807170E-013
 -1.530000000000000E-002    2.218250102676693E-013
 -1.520000000000000E-002    2.904769403939734E-013
 -1.510000000000000E-002    3.386350599307427E-013
 -1.500000000000000E-002    3.682184417766066E-013
 -1.490000000000000E-002    3.838949035203408E-013
 -1.480000000000000E-002    3.925214263111930E-013
 -1.470000000000000E-002    4.022486820293394E-013
 -1.460000000000000E-002    4.213687086487264E-013
 -1.450000000000000E-002    4.570197279200600E-013
 -1.440000000000000E-002    5.138857712125980E-013
 -1.430000000000000E-002    5.930347500490164E-013
 -1.420000000000000E-002    6.910309903431148E-013
 -1.410000000000000E-002    7.994346865575169E-013
 -1.400000000000000E-002    9.047681484926653E-013
 -1.390000000000000E-002    9.889903590998648E-013
 -1.380000000000000E-002    1.030485157141083E-012
 -1.370000000000000E-002    1.005533986025301E-012
 -1.360000000000000E-002    8.902187999331484E-013
 -1.350000000000000E-002    6.626805118226340E-013
 -1.340000000000000E-002    3.056399770213872E-013
 -1.330000000000000E-002   -1.909301833233062E-013
 -1.320000000000000E-002   -8.271213049467998E-013
 -1.310000000000000E-002   -1.590565367774577E-012
 -1.300000000000000E-002   -2.454294676337123E-012
 -1.290000000000000E-002   -3.375251891429371E-012
 -1.280000000000000E-002   -4.293770084660024E-012
 -1.270000000000000E-002   -5.134363382897240E-012
 -1.260000000000000E-002   -5.808156999308123E-012
 -1.250000000000000E-002   -6.217228582155892E-012
 -1.240000000000000E-002   -6.260996973844446E-012
 -1.230000000000000E-002   -5.844603097354952E-012
 -1.220000000000000E-002   -4.888972558096052E-012
 -1.210000000000000E-002   -3.341953539315219E-012
 -1.200000000000000E-002   -1.189624021777398E-012
 -1.190000000000000E-002    1.533394972831339E-012
 -1.180000000000000E-002    4.735965138636610E-012
 -1.170000000000000E-002    8.266177967719238E-012
 -1.160000000000000E-002    1.191209091824925E-011
 -1.150000000000000E-002    1.540840550983669E-011
 -1.140000000000000E-002    1.844957157377442E-011
 -1.130000000000000E-002    2.070916525108069E-011
 -1.120000000000000E-002    2.186468031362414E-011
 -1.110000000000000E-002    2.162615214527836E-011
 -1.100000000000000E-002    1.976640328087817E-011
 -1.090000000000000E-002    1.615022052455945E-011
 -1.080000000000000E-002    1.075956168981819E-011
 -1.070000000000000E-002    3.711965083019161E-012
 -1.060000000000000E-002   -4.730278651391957E-012
 -1.050000000000000E-002   -1.416195560642689E-011
 -1.040000000000000E-002   -2.404862379825121E-011
 -1.030000000000000E-002   -3.375200393796916E-011
 -1.020000000000000E-002   -4.256585088166233E-011
 -1.010000000000000E-002   -4.976013061268980E-011
 -1.000000000000000E-002   -5.463058256179877E-011
 -9.899999999999999E-003   -5.655028787990411E-011
 -9.800000000000000E-003   -5.501967086233493E-011
 -9.699999999999999E-003   -4.971154955804917E-011
 -9.599999999999999E-003   -4.050821158115947E-011
 -9.500000000000000E-003   -2.752809151163320E-011
 -9.399999999999999E-003   -1.114031358645163E-011
 -9.299999999999999E-003    8.034082008172980E-012
 -9.200000000000000E-003    2.913468637199083E-011
 -9.099999999999999E-003    5.108818669483170E-011
 -8.999999999999999E-003    7.264843192601661E-011
 -8.900000000000000E-003    9.244947119556611E-011
 -8.799999999999999E-003    1.090706712961154E-010
 -8.699999999999999E-003    1.211124537566380E-010
 -8.600000000000000E-003    1.272806152797768E-010
 -8.499999999999999E-003    1.264762124928880E-010
 -8.399999999999999E-003    1.178870775664067E-010
 -8.300000000000000E-003    1.010756060365218E-010
 -8.199999999999999E-003    7.605653297641408E-011
 -8.100000000000000E-003    4.335736740106478E-011
 -8.000000000000000E-003    4.054008932951844E-012
 -7.899999999999999E-003   -4.022574526074084E-011
 -7.800000000000000E-003   -8.733673377681262E-011
 -7.699999999999999E-003   -1.346926286605082E-010
 -7.599999999999999E-003   -1.793844737871338E-010
 -7.499999999999999E-003   -2.183383732403513E-010
 -7.399999999999999E-003   -2.485050158449427E-010
 -7.299999999999999E-003   -2.670698116179622E-010
 -7.199999999999999E-003   -2.716691786803307E-010
 -7.100000000000000E-003   -2.605959982572716E-010
 -6.999999999999999E-003   -2.329767325513170E-010
 -6.899999999999999E-003   -1.889036388099486E-010
 -6.800000000000000E-003   -1.295081430777734E-010
 -6.699999999999999E-003   -5.696562723227256E-011
 -6.599999999999999E-003    2.557223930514042E-011
 -6.499999999999999E-003    1.141159640639388E-010
 -6.399999999999999E-003    2.040393551788469E-010
 -6.299999999999999E-003    2.903301524160586E-010
 -6.199999999999999E-003    3.678726692105332E-010
 -6.100000000000000E-003    4.317431619389864E-010
 -5.999999999999999E-003    4.774976595228499E-010
 -5.899999999999999E-003    5.014341695987298E-010
 -5.800000000000000E-003    5.008137734951667E-010
 -5.699999999999999E-003    4.740297610373214E-010
 -5.599999999999999E-003    4.207180060595292E-010
 -5.499999999999999E-003    3.418071150384052E-010
 -5.399999999999999E-003    2.395096720254177E-010
 -5.299999999999999E-003    1.172594265150170E-010
 -5.199999999999999E-003   -2.039987296684458E-011
 -5.099999999999999E-003   -1.679679226648132E-010
 -4.999999999999999E-003   -3.191779903247646E-010
 -4.899999999999999E-003   -4.672190765628931E-010
 -4.799999999999999E-003   -6.049866192081241E-010
 -4.699999999999999E-003   -7.253573550796289E-010
 -4.599999999999999E-003   -8.214842522212877E-010
 -4.499999999999999E-003   -8.871046371813413E-010
 -4.399999999999999E-003   -9.168512426544179E-010
 -4.299999999999999E-003   -9.065536757341791E-010
 -4.199999999999999E-003   -8.535138725183123E-010
 -4.099999999999999E-003   -7.567366894940318E-010
 -3.999999999999999E-003   -6.170963026779872E-010
 -3.899999999999999E-003   -4.374213143834191E-010
 -3.799999999999999E-003   -2.224846773258913E-010
 -3.699999999999999E-003    2.110859310360017E-011
 -3.599999999999999E-003    2.851352660891094E-010
 -3.499999999999999E-003    5.600590953047940E-010
 -3.399999999999999E-003    8.354094080222356E-010
 -3.299999999999999E-003    1.100207601169611E-009
 -3.199999999999999E-003    1.343411306696183E-009
 -3.099999999999999E-003    1.554346173179563E-009
 -2.999999999999999E-003    1.723095928757021E-009
 -2.899999999999999E-003    1.840831004340511E-009
 -2.799999999999999E-003    1.900060169399819E-009
 -2.699999999999999E-003    1.894807038608077E-009
 -2.599999999999999E-003    1.820716817185058E-009
 -2.499999999999999E-003    1.675114893498610E-009
 -2.399999999999999E-003    1.457040675597913E-009
 -2.299999999999999E-003    1.167284261222201E-009
 -2.199999999999999E-003    8.084529897958321E-010
 -2.099999999999999E-003    3.850860537972484E-010
 -1.999999999999999E-003   -9.617221111310219E-011
 -1.899999999999999E-003   -6.263416100932709E-010
 -1.799999999999999E-003   -1.193831631834665E-009
 -1.699999999999999E-003   -1.784147538153513E-009
 -1.599999999999999E-003   -2.379606091258859E-009
 -1.499999999999999E-003   -2.959096874102047E-009
 -1.399999999999999E-003   -3.497917945179591E-009
 -1.299999999999999E-003   -3.967709481527525E-009
 -1.199999999999999E-003   -4.336500541531241E-009
 -1.099999999999999E-003   -4.568864136027598E-009
 -9.999999999999989E-004   -4.626166653953239E-009
 -8.999999999999990E-004   -4.466885352024614E-009
 -7.999999999999990E-004   -4.046954061405115E-009
 -6.999999999999989E-004   -3.320098178229737E-009
 -5.999999999999990E-004   -2.238115899631513E-009
 -4.999999999999989E-004   -7.510761052509742E-010
 -3.999999999999989E-004    1.192595765642811E-009
 -2.999999999999989E-004    3.646146153967007E-009
 -1.999999999999989E-004    6.664637871401141E-009
 -9.999999999999892E-005    1.030518040768795E-008
  1.084202172485504E-018    1.462722424271587E-008
  1.000000000000011E-004    1.969287596992462E-008
  2.000000000000011E-004    2.556718685432452E-008
  3.000000000000011E-004    3.231839242072429E-008
  4.000000000000011E-004    4.001803601342165E-008
  5.000000000000011E-004    4.874099795015447E-008
  6.000000000000011E-004    5.856537113577961E-008
  7.000000000000011E-004    6.957220276168464E-008
  8.000000000000011E-004    8.184511109092450E-008
  9.000000000000012E-004    9.546977398382373E-008
  1.000000000000001E-003    1.105333260400480E-007
  1.100000000000001E-003    1.271236714709583E-007
  1.200000000000001E-003    1.453287163813429E-007
  1.300000000000001E-003    1.652356365896190E-007
  1.400000000000001E-003    1.869300974577680E-007
  1.500000000000001E-003    2.104955445863189E-007
  1.600000000000001E-003    2.360125479563419E-007
  1.700000000000001E-003    2.635583174772124E-007
  1.800000000000001E-003    2.932064961836281E-007
  1.900000000000001E-003    3.250271365691520E-007
  2.000000000000001E-003    3.590870844987594E-007
  2.100000000000001E-003    3.954508067609315E-007
  2.200000000000001E-003    4.341817497169433E-007
  2.300000000000001E-003    4.753441527778751E-007
  2.400000000000001E-003    5.190056074977124E-007
  2.500000000000001E-003    5.652398422376968E-007
  2.600000000000001E-003    6.141303136561688E-007
  2.700000000000001E-003    6.657738256796411E-007
  2.800000000000001E-003    7.202845085571541E-007
  2.900000000000001E-003    7.777977294118610E-007
  3.000000000000001E-003    8.384738593698913E-007
  3.100000000000001E-003    9.025012615330399E-007
  3.200000000000001E-003    9.700989699120404E-007
  3.300000000000001E-003    1.041518376788298E-006
  3.400000000000001E-003    1.117043842638793E-006
  3.500000000000001E-003    1.196992389706090E-006
  3.600000000000001E-003    1.281712093739700E-006
  3.700000000000001E-003    1.371579895217065E-006
  3.800000000000001E-003    1.466998200162303E-006
  3.900000000000001E-003    1.568391191757448E-006
  4.000000000000001E-003    1.676200582596239E-006
  4.100000000000001E-003    1.790881526633693E-006
  4.200000000000001E-003    1.912898285944287E-006
  4.300000000000001E-003    2.042721073855376E-006
  4.400000000000001E-003    2.180823471251916E-006
  4.500000000000001E-003    2.327680183371008E-006
  4.600000000000002E-003    2.483766743759963E-006
  4.700000000000001E-003    2.649559611929972E-006
  4.800000000000001E-003    2.825537720835279E-006
  4.900000000000002E-003    3.012184962952538E-006
  5.000000000000001E-003    3.209993218462962E-006
  5.100000000000001E-003    3.419466930102010E-006
  5.200000000000001E-003    3.641127642101324E-006
  5.300000000000002E-003    3.875519024276843E-006
  5.400000000000001E-003    4.123212283841824E-006
  5.500000000000001E-003    4.384811949466990E-006
  5.600000000000002E-003    4.660960830656146E-006
  5.700000000000001E-003    4.952345791421577E-006
  5.800000000000001E-003    5.259703382466578E-006
  5.900000000000002E-003    5.583823903568244E-006
  6.000000000000001E-003    5.925556463686361E-006
  6.100000000000001E-003    6.285812439994776E-006
  6.200000000000002E-003    6.665569525150544E-006
  6.300000000000002E-003    7.065873557741557E-006
  6.400000000000001E-003    7.487841216944860E-006
  6.500000000000001E-003    7.932661875605420E-006
  6.600000000000002E-003    8.401595533146526E-006
  6.700000000000001E-003    8.895973873794732E-006
  6.800000000000001E-003    9.417199649119785E-006
  6.900000000000002E-003    9.966744641931970E-006
  7.000000000000001E-003    1.054614495787318E-005
  7.100000000000001E-003    1.115700225418807E-005
  7.200000000000002E-003    1.180097772098709E-005
  7.300000000000002E-003    1.247979446632366E-005
  7.400000000000001E-003    1.319523137320085E-005
  7.500000000000001E-003    1.394912748359377E-005
  7.600000000000002E-003    1.474337982292291E-005
  7.700000000000001E-003    1.557994811039597E-005
  7.800000000000001E-003    1.646085345912076E-005
  7.900000000000001E-003    1.738818667935078E-005
  8.000000000000002E-003    1.836411384372054E-005
  8.100000000000001E-003    1.939088135688619E-005
  8.200000000000001E-003    2.047082275293445E-005
  8.300000000000002E-003    2.160636850390534E-005
  8.400000000000001E-003    2.280005139903681E-005
  8.500000000000002E-003    2.405451416692284E-005
  8.600000000000002E-003    2.537251550566192E-005
  8.700000000000001E-003    2.675694054478376E-005
  8.800000000000002E-003    2.821080493328241E-005
  8.900000000000002E-003    2.973725590746082E-005
  9.000000000000001E-003    3.133958518747327E-005
  9.100000000000002E-003    3.302122509518948E-005
  9.200000000000002E-003    3.478575881397084E-005
  9.300000000000001E-003    3.663692103476111E-005
  9.400000000000002E-003    3.857860426315485E-005
  9.500000000000001E-003    4.061485970486216E-005
  9.600000000000001E-003    4.274990350182172E-005
  9.700000000000002E-003    4.498811696728455E-005
  9.800000000000001E-003    4.733405468093136E-005
  9.900000000000001E-003    4.979244794445045E-005
  1.000000000000000E-002    5.236820966556108E-005
  1.010000000000000E-002    5.506643807907335E-005
  1.020000000000000E-002    5.789241986526642E-005
  1.030000000000000E-002    6.085162935678678E-005
  1.040000000000000E-002    6.394975986097036E-005
  1.050000000000000E-002    6.719269671323118E-005
  1.060000000000000E-002    7.058653932285485E-005
  1.070000000000000E-002    7.413760496435069E-005
  1.080000000000000E-002    7.785243160367733E-005
  1.090000000000000E-002    8.173778066753942E-005
  1.100000000000000E-002    8.580064891528446E-005
  1.110000000000000E-002    9.004826400840641E-005
  1.120000000000000E-002    9.448809736713543E-005
  1.130000000000000E-002    9.912785628911613E-005
  1.140000000000000E-002    1.039755065011344E-004
  1.150000000000000E-002    1.090392694978530E-004
  1.160000000000000E-002    1.143276225747316E-004
  1.170000000000000E-002    1.198493106880939E-004
  1.180000000000000E-002    1.256133526386276E-004
  1.190000000000000E-002    1.316290480875024E-004
  1.200000000000000E-002    1.379059902329110E-004
  1.210000000000000E-002    1.444540712483291E-004
  1.220000000000000E-002    1.512834855365631E-004
  1.230000000000000E-002    1.584047618869902E-004
  1.240000000000000E-002    1.658287513008601E-004
  1.250000000000000E-002    1.735666668011129E-004
  1.260000000000000E-002    1.816300692739417E-004
  1.270000000000000E-002    1.900308853423800E-004
  1.280000000000000E-002    1.987814012333053E-004
  1.290000000000000E-002    2.078943017903449E-004
  1.300000000000000E-002    2.173826636506216E-004
  1.310000000000000E-002    2.272599234707659E-004
  1.320000000000000E-002    2.375399407695749E-004
  1.330000000000000E-002    2.482369352912276E-004
  1.340000000000000E-002    2.593655658608388E-004
  1.350000000000000E-002    2.709408194166895E-004
  1.360000000000000E-002    2.829780994452738E-004
  1.370000000000000E-002    2.954932204627359E-004
  1.380000000000000E-002    3.085023491970413E-004
  1.390000000000000E-002    3.220220679605395E-004
  1.400000000000000E-002    3.360693435725437E-004
  1.410000000000000E-002    3.506615357795911E-004
  1.420000000000000E-002    3.658164055356862E-004
  1.430000000000000E-002    3.815521410599596E-004
  1.440000000000000E-002    3.978873217204139E-004
  1.450000000000000E-002    4.148409982038531E-004
  1.460000000000000E-002    4.324326451926118E-004
  1.470000000000000E-002    4.506821583361699E-004
  1.480000000000000E-002    4.696098753360688E-004
  1.490000000000000E-002    4.892366080656105E-004
  1.500000000000000E-002    5.095836000189377E-004
  1.510000000000000E-002    5.306725440367764E-004
  1.520000000000000E-002    5.525256045850818E-004
  1.530000000000000E-002    5.751653345748815E-004
  1.540000000000000E-002    5.986147872028497E-004
  1.550000000000000E-002    6.228974042401471E-004
  1.560000000000000E-002    6.480371349814924E-004
  1.570000000000000E-002    6.740582718238070E-004
  1.580000000000000E-002    7.009855782432785E-004
  1.590000000000000E-002    7.288442387088590E-004
  1.600000000000000E-002    7.576598583929455E-004
  1.610000000000000E-002    7.874584773141100E-004
  1.620000000000000E-002    8.182665304735808E-004
  1.630000000000000E-002    8.501109076478349E-004
  1.640000000000000E-002    8.830188608362512E-004
  1.650000000000000E-002    9.170181210176882E-004
  1.660000000000000E-002    9.521366702112562E-004
  1.670000000000000E-002    9.884030604723263E-004
  1.680000000000000E-002    1.025846127994845E-003
  1.690000000000000E-002    1.064495069081673E-003
  1.700000000000000E-002    1.104379376272352E-003
  1.710000000000000E-002    1.145528953102996E-003
  1.720000000000000E-002    1.187973986014004E-003
  1.730000000000000E-002    1.231744939411339E-003
  1.740000000000000E-002    1.276872569999535E-003
  1.750000000000000E-002    1.323387757479963E-003
  1.760000000000000E-002    1.371321767079419E-003
  1.770000000000000E-002    1.420705935435526E-003
  1.780000000000000E-002    1.471571876077673E-003
  1.790000000000000E-002    1.523951284190392E-003
  1.800000000000000E-002    1.577876036728823E-003
  1.810000000000000E-002    1.633378090898353E-003
  1.820000000000000E-002    1.690489396310419E-003
  1.830000000000000E-002    1.749242188551336E-003
  1.840000000000000E-002    1.809668732176453E-003
  1.850000000000000E-002    1.871801114371341E-003
  1.860000000000000E-002    1.935671304939481E-003
  1.870000000000000E-002    2.001311719771491E-003