 -4.000000000000000E-002    0.000000000000000E+000
 -3.990000000000000E-002    0.000000000000000E+000
 -3.980000000000000E-002    0.000000000000000E+000
 -3.970000000000000E-002   -1.395915690571697E-015
 -3.960000000000000E-002   -9.130290458534416E-015
 -3.950000000000000E-002   -3.404516108843485E-014
 -3.940000000000000E-002   -9.510053809473960E-014
 -3.930000000000000E-002   -2.212245386224426E-013
 -3.920000000000000E-002   -4.524458569319965E-013
 -3.910000000000000E-002   -8.396616403550076E-013
 -3.900000000000000E-002   -1.442052494698245E-012
 -3.890000000000000E-002   -2.320961168155098E-012
 -3.880000000000000E-002   -3.529168297669404E-012
 -3.870000000000000E-002   -5.095040225584136E-012
 -3.860000000000000E-002   -7.001971695693969E-012
 -3.850000000000000E-002   -9.164780737283907E-012
 -3.840000000000000E-002   -1.140604562504314E-011
 -3.830000000000000E-002   -1.343648377829174E-011
 -3.820000000000000E-002   -1.484409742953543E-011
 -3.810000000000000E-002   -1.509672213469941E-011
 -3.800000000000000E-002   -1.356170222983816E-011
 -3.790000000000000E-002   -9.544641513135206E-012
 -3.780000000000000E-002   -2.346670166943624E-012
 -3.770000000000000E-002    8.663055402306314E-012
 -3.760000000000000E-002    2.396578490120307E-011
 -3.750000000000000E-002    4.381097658223556E-011
 -3.740000000000000E-002    6.814334195489644E-011
 -3.730000000000000E-002    9.654914946329875E-011
 -3.720000000000000E-002    1.282305778971547E-010
 -3.710000000000000E-002    1.620142607971370E-010
 -3.700000000000000E-002    1.963963166582298E-010
 -3.690000000000000E-002    2.296216772309673E-010
 -3.680000000000000E-002    2.597909128905627E-010
 -3.670000000000000E-002    2.849834507636686E-010
 -3.660000000000000E-002    3.033833946977899E-010
 -3.650000000000000E-002    3.133927493858866E-010
 -3.640000000000000E-002    3.137177313130255E-010
 -3.630000000000000E-002    3.034171170684750E-010
 -3.620000000000000E-002    2.819058467924980E-010
 -3.610000000000000E-002    2.489139330412695E-010
 -3.600000000000000E-002    2.044069914022685E-010
 -3.590000000000000E-002    1.484813693046533E-010
 -3.580000000000000E-002    8.125133216410035E-011
 -3.570000000000000E-002    2.749810030152075E-012
 -3.560000000000000E-002   -8.713853860839252E-011
 -3.550000000000000E-002   -1.886927397060745E-010
 -3.540000000000000E-002   -3.023088235124645E-010
 -3.530000000000000E-002   -4.283890044671870E-010
 -3.520000000000000E-002   -5.671716246875733E-010
 -3.510000000000000E-002   -7.185191171123208E-010
 -3.500000000000000E-002   -8.816883604619622E-010
 -3.490000000000000E-002   -1.055112890600903E-009
 -3.480000000000000E-002   -1.236228882219712E-009
 -3.470000000000000E-002   -1.421374025622060E-009
 -3.460000000000000E-002   -1.605781429628787E-009
 -3.450000000000000E-002   -1.783680576533927E-009
 -3.440000000000000E-002   -1.948502777170542E-009
 -3.430000000000000E-002   -2.093177005435461E-009
 -3.420000000000000E-002   -2.210488680075395E-009
 -3.410000000000000E-002   -2.293459717798343E-009
 -3.400000000000000E-002   -2.335711194437980E-009
 -3.390000000000000E-002   -2.331763017323950E-009
 -3.380000000000000E-002   -2.277234199684406E-009
 -3.370000000000000E-002   -2.168922381872346E-009
 -3.360000000000000E-002   -2.004751163873662E-009
 -3.350000000000000E-002   -1.783601126190782E-009
 -3.340000000000000E-002   -1.505050212187344E-009
 -3.330000000000000E-002   -1.169069177848394E-009
 -3.320000000000000E-002   -7.757263556336453E-010
 -3.310000000000000E-002   -3.249587116524375E-010
 -3.300000000000000E-002    1.835426582937529E-010
 -3.290000000000000E-002    7.502964804719962E-010
 -3.280000000000000E-002    1.375831788794548E-009
 -3.270000000000000E-002    2.060336735382581E-009
 -3.260000000000000E-002    2.803192131598791E-009
 -3.250000000000000E-002    3.602453968144441E-009
 -3.240000000000000E-002    4.454359466145901E-009
 -3.230000000000000E-002    5.352942363295688E-009
 -3.220000000000000E-002    6.289823889972729E-009
 -3.210000000000000E-002    7.254248894523855E-009
 -3.200000000000000E-002    8.233366799956910E-009
 -3.190000000000000E-002    9.212763448295359E-009
 -3.180000000000000E-002    1.017716399590415E-008
 -3.170000000000000E-002    1.111119187230828E-008
 -3.160000000000000E-002    1.200006598705011E-008
 -3.150000000000000E-002    1.283004514909350E-008
 -3.140000000000000E-002    1.358848023422538E-008
 -3.130000000000000E-002    1.426332585274507E-008
 -3.120000000000000E-002    1.484202804143752E-008
 -3.110000000000000E-002    1.530976159895941E-008
 -3.100000000000000E-002    1.564710682619263E-008
 -3.090000000000000E-002    1.582731329263738E-008
 -3.080000000000000E-002    1.581343980456332E-008
 -3.070000000000000E-002    1.555571529164908E-008
 -3.060000000000000E-002    1.498954587688366E-008
 -3.050000000000000E-002    1.403461844980606E-008
 -3.040000000000000E-002    1.259554586954965E-008
 -3.030000000000000E-002    1.056443837046218E-008
 -3.020000000000000E-002    7.825684588907841E-009
 -3.010000000000000E-002    4.263100488775429E-009
 -3.000000000000000E-002   -2.306050148132374E-010
 -2.990000000000000E-002   -5.742276244247874E-009
 -2.980000000000000E-002   -1.232509014514120E-008
 -2.970000000000000E-002   -1.998431449744590E-008
 -2.960000000000000E-002   -2.866280099012519E-008
 -2.950000000000000E-002   -3.822714921255225E-008
 -2.940000000000000E-002   -4.845545618445593E-008
 -2.930000000000000E-002   -5.902760875976785E-008
 -2.920000000000000E-002   -6.951893920878794E-008
 -2.910000000000000E-002   -7.939795456658341E-008
 -2.900000000000000E-002   -8.802858255035806E-008
 -2.890000000000000E-002   -9.467711677977213E-008
 -2.880000000000000E-002   -9.852375296353423E-008
 -2.870000000000000E-002   -9.867831773430811E-008
 -2.860000000000000E-002   -9.419945448685179E-008
 -2.850000000000000E-002   -8.411636158733967E-008
 -2.840000000000000E-002   -6.745188792181059E-008
 -2.830000000000000E-002   -4.324578944448474E-008
 -2.820000000000000E-002   -1.057686846369849E-008
 -2.810000000000000E-002    3.141720804963455E-008
 -2.800000000000000E-002    8.352344981353347E-008
 -2.790000000000000E-002    1.464412484967560E-007
 -2.780000000000000E-002    2.207747454793240E-007
 -2.770000000000000E-002    3.070303047548867E-007
 -2.760000000000000E-002    4.056184103396366E-007
 -2.750000000000000E-002    5.168605109688070E-007
 -2.740000000000000E-002    6.409992042056497E-007
 -2.730000000000000E-002    7.782114945185354E-007
 -2.720000000000000E-002    9.286240376415917E-007
 -2.710000000000000E-002    1.092329278999775E-006
 -2.700000000000000E-002    1.269401837459186E-006
 -2.690000000000000E-002    1.459913981839324E-006
 -2.680000000000000E-002    1.663950081426706E-006
 -2.670000000000000E-002    1.881619240664263E-006
 -2.660000000000000E-002    2.113066729835313E-006
 -2.650000000000000E-002    2.358483377207290E-006
 -2.640000000000000E-002    2.618113894206820E-006
 -2.630000000000000E-002    2.892265138011309E-006
 -2.620000000000000E-002    3.181313666515924E-006
 -2.610000000000000E-002    3.485714227114986E-006
 -2.600000000000000E-002    3.806008307547129E-006
 -2.590000000000000E-002    4.142834334347825E-006
 -2.580000000000000E-002    4.496939350444525E-006
 -2.570000000000000E-002    4.869190646052680E-006
 -2.560000000000000E-002    5.260587515257448E-006
 -2.550000000000000E-002    5.672273991171914E-006
 -2.540000000000000E-002    6.105549151123186E-006
 -2.530000000000000E-002    6.561874520004567E-006
 -2.520000000000000E-002    7.042880941987253E-006
 -2.510000000000000E-002    7.550368081097075E-006
 -2.500000000000000E-002    8.086302711068333E-006
 -2.490000000000000E-002    8.652809362283240E-006
 -2.480000000000000E-002    9.252158181583448E-006
 -2.470000000000000E-002    9.886750008969518E-006
 -2.460000000000000E-002    1.055909490079349E-005
 -2.450000000000000E-002    1.127179214113933E-005
 -2.440000000000000E-002    1.202750713795521E-005
 -2.430000000000000E-002    1.282895087129830E-005
 -2.420000000000000E-002    1.367886383542886E-005
 -2.410000000000000E-002    1.458000259835325E-005
 -2.400000000000000E-002    1.553513273773156E-005
 -2.390000000000000E-002    1.654703077962100E-005
 -2.380000000000000E-002    1.761848679222131E-005
 -2.370000000000000E-002    1.875232628625680E-005
 -2.360000000000000E-002    1.995142531984571E-005
 -2.350000000000000E-002    2.121874803786217E-005
 -2.340000000000000E-002    2.255737143286223E-005
 -2.330000000000000E-002    2.397052899058423E-005
 -2.320000000000000E-002    2.546164673911382E-005
 -2.310000000000000E-002    2.703438429935616E-005
 -2.300000000000000E-002    2.869267138625660E-005
 -2.290000000000000E-002    3.044073939282831E-005
 -2.280000000000000E-002    3.228315512604144E-005
 -2.270000000000000E-002    3.422483958305538E-005
 -2.260000000000000E-002    3.627109195307443E-005
 -2.250000000000000E-002    3.842758980585530E-005
 -2.240000000000000E-002    4.070041241860828E-005
 -2.230000000000000E-002    4.309602537073750E-005
 -2.220000000000000E-002    4.562127407453100E-005
 -2.210000000000000E-002    4.828338761228775E-005
 -2.200000000000000E-002    5.108994976811197E-005
 -2.190000000000000E-002    5.404890352843030E-005
 -2.180000000000000E-002    5.716852415640902E-005
 -2.170000000000000E-002    6.045741645500414E-005
 -2.160000000000000E-002    6.392449006002017E-005
 -2.150000000000000E-002    6.757896348661210E-005
 -2.140000000000000E-002    7.143035454268789E-005
 -2.130000000000000E-002    7.548847155955680E-005
 -2.120000000000000E-002    7.976341914013205E-005
 -2.110000000000000E-002    8.426560806056436E-005
 -2.100000000000000E-002    8.900576665424148E-005
 -2.090000000000000E-002    9.399495903669574E-005
 -2.080000000000000E-002    9.924459993166807E-005
 -2.070000000000000E-002    1.047664932000843E-004
 -2.060000000000000E-002    1.105728559465843E-004
 -2.050000000000000E-002    1.166763788364688E-004
 -2.040000000000000E-002    1.230902230706995E-004
 -2.030000000000000E-002    1.298281138235452E-004
 -2.020000000000000E-002    1.369043799831630E-004
 -2.010000000000000E-002    1.443339669213203E-004
 -2.000000000000000E-002    1.521325428619263E-004
 -1.990000000000000E-002    1.603164942735568E-004
 -1.980000000000000E-002    1.689030327807206E-004
 -1.970000000000000E-002    1.779101593826219E-004
 -1.960000000000000E-002    1.873567596073674E-004
 -1.950000000000000E-002    1.972626150661777E-004
 -1.940000000000000E-002    2.076484105322629E-004
 -1.930000000000000E-002    2.185357952604069E-004
 -1.920000000000000E-002    2.299473361205447E-004
 -1.910000000000000E-002    2.419065623271532E-004
 -1.900000000000000E-002    2.544379398522560E-004
 -1.890000000000000E-002    2.675668934860096E-004
 -1.880000000000000E-002    2.813198019871455E-004
 -1.870000000000000E-002    2.957239592163724E-004
 -1.860000000000000E-002    3.108076306175677E-004
 -1.850000000000000E-002    3.266000045941723E-004
 -1.840000000000000E-002    3.431312081385990E-004
 -1.830000000000000E-002    3.604323335541076E-004
 -1.820000000000000E-002    3.785354231828378E-004
 -1.810000000000000E-002    3.974735583199285E-004
 -1.800000000000000E-002    4.172808124194065E-004
 -1.790000000000000E-002    4.379922636200813E-004
 -1.780000000000000E-002    4.596441338028993E-004
 -1.770000000000000E-002    4.822736762270690E-004
 -1.760000000000000E-002    5.059193791263481E-004
 -1.750000000000000E-002    5.306208881404029E-004
 -1.740000000000000E-002    5.564189888747945E-004
 -1.730000000000000E-002    5.833558095355091E-004
 -1.720000000000000E-002    6.114747085617610E-004
 -1.710000000000000E-002    6.408204210966807E-004
 -1.700000000000000E-002    6.714390351504969E-004
 -1.690000000000000E-002    7.033780404861753E-004
 -1.680000000000000E-002    7.366863815561425E-004
 -1.670000000000000E-002    7.714144979640048E-004
 -1.660000000000000E-002    8.076144135159849E-004
 -1.650000000000000E-002    8.453396808505038E-004
 -1.640000000000000E-002    8.846454391723617E-004
 -1.630000000000000E-002    9.255885753786529E-004
 -1.620000000000000E-002    9.682276590903083E-004
 -1.610000000000000E-002    1.012623053476846E-003
 -1.600000000000000E-002    1.058836708198101E-003
 -1.590000000000000E-002    1.106932540449395E-003
 -1.580000000000000E-002    1.156976151834905E-003
 -1.570000000000000E-002    1.209035029545616E-003
 -1.560000000000000E-002    1.263178349408046E-003
 -1.550000000000000E-002    1.319477049813142E-003
 -1.540000000000000E-002    1.378003772272537E-003
 -1.530000000000000E-002    1.438832928862906E-003
 -1.520000000000000E-002    1.502040346108554E-003
 -1.510000000000000E-002    1.567703708420994E-003
 -1.500000000000000E-002    1.635902104172589E-003
 -1.490000000000000E-002    1.706716148341193E-003
 -1.480000000000000E-002    1.780228013832836E-003
 -1.470000000000000E-002    1.856521422917562E-003
 -1.460000000000000E-002    1.935681458465643E-003
 -1.450000000000000E-002    2.017794516611524E-003
 -1.440000000000000E-002    2.102948773509477E-003
 -1.430000000000000E-002    2.191233579731794E-003
 -1.420000000000000E-002    2.282740267339385E-003
 -1.410000000000000E-002    2.377561139335847E-003
 -1.400000000000000E-002    2.475790596770187E-003
 -1.390000000000000E-002    2.577524419668834E-003
 -1.380000000000000E-002    2.682859823082020E-003
 -1.370000000000000E-002    2.791895874176847E-003
 -1.360000000000000E-002    2.904733154049659E-003
 -1.350000000000000E-002    3.021473736070564E-003
 -1.340000000000000E-002    3.142221159519659E-003
 -1.330000000000000E-002    3.267080584823630E-003
 -1.320000000000000E-002    3.396158590196451E-003
 -1.310000000000000E-002    3.529562723252510E-003
 -1.300000000000000E-002    3.667401848756230E-003
 -1.290000000000000E-002    3.809785980517006E-003
 -1.280000000000000E-002    3.956826616811704E-003
 -1.270000000000000E-002    4.108635042141913E-003
 -1.260000000000000E-002    4.265323894051444E-003
 -1.250000000000000E-002    4.427006883061852E-003
 -1.240000000000000E-002    4.593797669254750E-003
 -1.230000000000000E-002    4.765810657709709E-003
 -1.220000000000000E-002    4.943160258540490E-003
 -1.210000000000000E-002    5.125961238522138E-003
 -1.200000000000000E-002    5.314328854491768E-003
 -1.190000000000000E-002    5.508377818809051E-003
 -1.180000000000000E-002    5.708223013366873E-003
 -1.170000000000000E-002    5.913978626928095E-003
 -1.160000000000000E-002    6.125759023740844E-003
 -1.150000000000000E-002    6.343677667958946E-003
 -1.140000000000000E-002    6.567847553151120E-003
 -1.130000000000000E-002    6.798380151538536E-003
 -1.120000000000000E-002    7.035386087522617E-003
 -1.110000000000000E-002    7.278975170890683E-003
 -1.100000000000000E-002    7.529254772939632E-003
 -1.090000000000000E-002    7.786331246948682E-003
 -1.080000000000000E-002    8.050308358541597E-003
 -1.070000000000000E-002    8.321288117437233E-003
 -1.060000000000000E-002    8.599369643956668E-003
 -1.050000000000000E-002    8.884650177285831E-003
 -1.040000000000000E-002    9.177223507110810E-003
 -1.030000000000000E-002    9.477180856772491E-003
 -1.020000000000000E-002    9.784609566079686E-003
 -1.010000000000000E-002    1.009959327165795E-002
 -1.000000000000000E-002    1.042221289140138E-002
 -9.899999999999999E-003    1.075254426594648E-002
 -9.800000000000000E-003    1.109065985109967E-002
 -9.699999999999999E-003    1.143662605278412E-002
 -9.599999999999999E-003    1.179050583644515E-002
 -9.500000000000000E-003    1.215235678851140E-002
 -9.399999999999999E-003    1.252223037754892E-002
 -9.299999999999999E-003    1.290017259448581E-002
 -9.200000000000000E-003    1.328622223993106E-002
 -9.099999999999999E-003    1.368041310525022E-002
 -8.999999999999999E-003    1.408276979208945E-002
 -8.900000000000000E-003    1.449331158002772E-002
 -8.799999999999999E-003    1.491204874087367E-002
 -8.699999999999999E-003    1.533898416629630E-002
 -8.600000000000000E-003    1.577411128816408E-002
 -8.499999999999999E-003    1.621741623781143E-002
 -8.399999999999999E-003    1.666887334694023E-002
 -8.300000000000000E-003    1.712844848021661E-002
 -8.199999999999999E-003    1.759609884341678E-002
 -8.100000000000000E-003    1.807176969097418E-002
 -8.000000000000000E-003    1.855539625101521E-002
 -7.899999999999999E-003    1.904690236038873E-002
 -7.800000000000000E-003    1.954620159837616E-002
 -7.699999999999999E-003    2.005319448993627E-002
 -7.599999999999999E-003    2.056776950445520E-002
 -7.499999999999999E-003    2.108980389790698E-002
 -7.399999999999999E-003    2.161915961877181E-002
 -7.299999999999999E-003    2.215568786647157E-002
 -7.199999999999999E-003    2.269922472159575E-002
 -7.100000000000000E-003    2.324959208271922E-002
 -6.999999999999999E-003    2.380659620792687E-002
 -6.899999999999999E-003    2.437003234488026E-002
 -6.800000000000000E-003    2.493967569268242E-002
 -6.699999999999999E-003    2.551528702187726E-002
 -6.599999999999999E-003    2.609661146346735E-002
 -6.499999999999999E-003    2.668337924903886E-002
 -6.399999999999999E-003    2.727530076921180E-002
 -6.299999999999999E-003    2.787206935358492E-002
 -6.199999999999999E-003    2.847336246191939E-002
 -6.100000000000000E-003    2.907883838595775E-002
 -5.999999999999999E-003    2.968813535372837E-002
 -5.899999999999999E-003    3.030087542324730E-002
 -5.800000000000000E-003    3.091666141921216E-002
 -5.699999999999999E-003    3.153507478967028E-002
 -5.599999999999999E-003    3.215567933246079E-002
 -5.499999999999999E-003    3.277801758913397E-002
 -5.399999999999999E-003    3.340161054928834E-002
 -5.299999999999999E-003    3.402596593235457E-002
 -5.199999999999999E-003    3.465056052049748E-002
 -5.099999999999999E-003    3.527485967985527E-002
 -4.999999999999999E-003    3.589830005600482E-002
 -4.899999999999999E-003    3.652030389887724E-002
 -4.799999999999999E-003    3.714026486151611E-002
 -4.699999999999999E-003    3.775755988773248E-002
 -4.599999999999999E-003    3.837154262298743E-002
 -4.499999999999999E-003    3.898154695895022E-002
 -4.399999999999999E-003    3.958687979970612E-002
 -4.299999999999999E-003    4.018683126256842E-002
 -4.199999999999999E-003    4.078066967047862E-002
 -4.099999999999999E-003    4.136763787316870E-002
 -3.999999999999999E-003    4.194695831118608E-002
 -3.899999999999999E-003    4.251783492633786E-002
 -3.799999999999999E-003    4.307944826049323E-002
 -3.699999999999999E-003    4.363095399336066E-002
 -3.599999999999999E-003    4.417148880424634E-002
 -3.499999999999999E-003    4.470017173837608E-002
 -3.399999999999999E-003    4.521609881173450E-002
 -3.299999999999999E-003    4.571834410912097E-002
 -3.199999999999999E-003    4.620596172114166E-002
 -3.099999999999999E-003    4.667798523076169E-002
 -2.999999999999999E-003    4.713343238274660E-002
 -2.899999999999999E-003    4.757129636603229E-002
 -2.799999999999999E-003    4.799055482397593E-002
 -2.699999999999999E-003    4.839016528398626E-002
 -2.599999999999999E-003    4.876906954091354E-002
 -2.499999999999999E-003    4.912619013161080E-002
 -2.399999999999999E-003    4.946043326895311E-002
 -2.299999999999999E-003    4.977068868308558E-002
 -2.199999999999999E-003    5.005583109837873E-002
 -2.099999999999999E-003    5.031472030750923E-002
 -1.999999999999999E-003    5.054620417140872E-002
 -1.899999999999999E-003    5.074911451537319E-002
 -1.799999999999999E-003    5.092227261246263E-002
 -1.699999999999999E-003    5.106448898252007E-002
 -1.599999999999999E-003    5.117456192591599E-002
 -1.499999999999999E-003    5.125128413108996E-002
 -1.399999999999999E-003    5.129343508417836E-002
 -1.299999999999999E-003    5.129979267442056E-002
 -1.199999999999999E-003    5.126912181586354E-002
 -1.099999999999999E-003    5.120018848720120E-002
 -9.999999999999989E-004    5.109175321644746E-002
 -8.999999999999990E-004    5.094257220797528E-002
 -7.999999999999990E-004    5.075140365374662E-002
 -6.999999999999989E-004    5.051700170067863E-002
 -5.999999999999990E-004    5.023812297558627E-002
 -4.999999999999989E-004    4.991352634170723E-002
 -3.999999999999989E-004    4.954197702333184E-002
 -2.999999999999989E-004    4.912224226900112E-002
 -1.999999999999989E-004    4.865310066245471E-002
 -9.999999999999892E-005    4.813333645905223E-002
  1.084202172485504E-018    4.756174671757080E-002
  1.000000000000011E-004    4.693713768275616E-002
  2.000000000000011E-004    4.625833388033964E-002
  3.000000000000011E-004    4.552416748288302E-002
  4.000000000000011E-004    4.473349234772040E-002
  5.000000000000011E-004    4.388518500105154E-002
  6.000000000000011E-004    4.297813397746175E-002
  7.000000000000011E-004    4.201125309525001E-002
  8.000000000000011E-004    4.098348023531163E-002
  9.000000000000012E-004    3.989377646315226E-002
  1.000000000000001E-003    3.874113634231138E-002
  1.100000000000001E-003    3.752457724420453E-002
  1.200000000000001E-003    3.624314962501692E-002
  1.300000000000001E-003    3.489593675784210E-002
  1.400000000000001E-003    3.348205581911598E-002
  1.500000000000001E-003    3.200066241674101E-002
  1.600000000000001E-003    3.045095024953984E-002
  1.700000000000001E-003    2.883215248964247E-002
  1.800000000000001E-003    2.714354471594541E-002
  1.900000000000001E-003    2.538445124413061E-002
  2.000000000000001E-003    2.355423507396773E-002
  2.100000000000001E-003    2.165231467680487E-002
  2.200000000000001E-003    1.967815448988763E-002
  2.300000000000001E-003    1.763127386162161E-002
  2.400000000000001E-003    1.551124179292913E-002
  2.500000000000001E-003    1.331768447618679E-002
  2.600000000000001E-003    1.105028576220281E-002
  2.700000000000001E-003    8.708788092403720E-003
  2.800000000000001E-003    6.292995118919609E-003
  2.900000000000001E-003    3.802769281461154E-003
  3.000000000000001E-003    1.238040476671002E-003
  3.100000000000001E-003   -1.401194528706364E-003
  3.200000000000001E-003   -4.114876694952309E-003
  3.300000000000001E-003   -6.902874946986761E-003
  3.400000000000001E-003   -9.764987696533466E-003
  3.500000000000001E-003   -1.270094258438032E-002
  3.600000000000001E-003   -1.571039401102405E-002
  3.700000000000001E-003   -1.879292438411621E-002
  3.800000000000001E-003   -2.194803325236895E-002
  3.900000000000001E-003   -2.517515173483385E-002
  4.000000000000001E-003   -2.847362771948008E-002
  4.100000000000001E-003   -3.184273173131268E-002
  4.200000000000001E-003   -3.528165126842983E-002
  4.300000000000001E-003   -3.878949871388720E-002
  4.400000000000001E-003   -4.236529959711418E-002
  4.500000000000001E-003   -4.600799705216016E-002
  4.600000000000002E-003   -4.971645787518597E-002
  4.700000000000001E-003   -5.348945122304143E-002
  4.800000000000001E-003   -5.732567448195681E-002
  4.900000000000002E-003   -6.122373327280788E-002
  5.000000000000001E-003   -6.518215295487009E-002
  5.100000000000001E-003   -6.919937053917191E-002
  5.200000000000001E-003   -7.327373685643920E-002
  5.300000000000002E-003   -7.740351326319508E-002
  5.400000000000001E-003   -8.158688257983210E-002
  5.500000000000001E-003   -8.582194656510847E-002
  5.600000000000002E-003   -9.010670678121303E-002
  5.700000000000001E-003   -9.443909124962405E-002
  5.800000000000001E-003   -9.881693833522370E-002
  5.900000000000002E-003   -0.103238008937796     
  6.000000000000001E-003   -0.107699967522070     
  6.100000000000001E-003   -0.112200422273249     
  6.200000000000002E-003   -0.116736876889318     
  6.300000000000002E-003   -0.121306763202512     
  6.400000000000001E-003   -0.125907438929336     
  6.500000000000001E-003   -0.130536176143845     
  6.600000000000002E-003   -0.135190174774993     
  6.700000000000001E-003   -0.139866558333514     
  6.800000000000001E-003   -0.144562377464580     
  6.900000000000002E-003   -0.149274612690525     
  7.000000000000001E-003   -0.154000180062696     
  7.100000000000001E-003   -0.158735917005392     
  7.200000000000002E-003   -0.163478596274542     
  7.300000000000002E-003   -0.168224939329432     
  7.400000000000001E-003   -0.172971595138767     
  7.500000000000001E-003   -0.177715160462593     
  7.600000000000002E-003   -0.182452175649473     
  7.700000000000001E-003   -0.187179119778572     
  7.800000000000001E-003   -0.191892426684240     
  7.900000000000001E-003   -0.196588500592643     
  8.000000000000002E-003   -0.201263674437555     
  8.100000000000001E-003   -0.205914231392591     
  8.200000000000001E-003   -0.210536453756885     
  8.300000000000002E-003   -0.215126559103888     
  8.400000000000001E-003   -0.219680754129781     
  8.500000000000002E-003   -0.224195191115188     
  8.600000000000002E-003   -0.228666005613802     
  8.700000000000001E-003   -0.233089319811588     
  8.800000000000002E-003   -0.237461243444369     
  8.900000000000002E-003   -0.241777850206292     
  9.000000000000001E-003   -0.246035206449906     
  9.100000000000002E-003   -0.250229393272089     
  9.200000000000002E-003   -0.254356467180545     
  9.300000000000001E-003   -0.258412522230174     
  9.400000000000002E-003   -0.262393596585541     
  9.500000000000001E-003   -0.266295787984323     
  9.600000000000001E-003   -0.270115188158023     
  9.700000000000002E-003   -0.273847910844672     
  9.800000000000001E-003   -0.277490085021774     
  9.900000000000001E-003   -0.281037879990331     
  1.000000000000000E-002   -0.284487480634618     
  1.010000000000000E-002   -0.287835118724599     
  1.020000000000000E-002   -0.291077049856822     
  1.030000000000000E-002   -0.294209566654743     
  1.040000000000000E-002   -0.297229034467431     
  1.050000000000000E-002   -0.300131870439891     
  1.060000000000000E-002   -0.302914524234093     
  1.070000000000000E-002   -0.305573493721268     
  1.080000000000000E-002   -0.308105384122886     
  1.090000000000000E-002   -0.310506836940319     
  1.100000000000000E-002   -0.312774585086636     
  1.110000000000000E-002   -0.314905415791440     
  1.120000000000000E-002   -0.316896211465007     
  1.130000000000000E-002   -0.318743936228910     
  1.140000000000000E-002   -0.320445646774438     
  1.150000000000000E-002   -0.321998474824067     
  1.160000000000000E-002   -0.323399665690000     
  1.170000000000000E-002   -0.324646549430030     
  1.180000000000000E-002   -0.325736581614138     
  1.190000000000000E-002   -0.326667308902802     
  1.200000000000000E-002   -0.327436375976185     
  1.210000000000000E-002   -0.328041585838685     
  1.220000000000000E-002   -0.328480805618993     
  1.230000000000000E-002   -0.328752033809688     
  1.240000000000000E-002   -0.328853417761618     
  1.250000000000000E-002   -0.328783207278289     
  1.260000000000000E-002   -0.328539786164989     
  1.270000000000000E-002   -0.328121680762867     
  1.280000000000000E-002   -0.327527552980130     
  1.290000000000000E-002   -0.326756171921615     
  1.300000000000000E-002   -0.325806483717900     
  1.310000000000000E-002   -0.324677554469552     
  1.320000000000000E-002   -0.323368586074948     
  1.330000000000000E-002   -0.321878912491523     
  1.340000000000000E-002   -0.320208050884905     
  1.350000000000000E-002   -0.318355664044649     
  1.360000000000000E-002   -0.316321533031435     
  1.370000000000000E-002   -0.314105603752502     
  1.380000000000000E-002   -0.311707977532976     
  1.390000000000000E-002   -0.309128897220945     
  1.400000000000000E-002   -0.306368769773486     
  1.410000000000000E-002   -0.303428138052194     
  1.420000000000000E-002   -0.300307733182054     
  1.430000000000000E-002   -0.297008409640973     
  1.440000000000000E-002   -0.293531168725511     
  1.450000000000000E-002   -0.289877187541496     
  1.460000000000000E-002   -0.286047790102145     
  1.470000000000000E-002   -0.282044445926848     
  1.480000000000000E-002   -0.277868799472895     
  1.490000000000000E-002   -0.273522620939258     
  1.500000000000000E-002   -0.269007839210904     
  1.510000000000000E-002   -0.264326525714502     
  1.520000000000000E-002   -0.259480904036987     
  1.530000000000000E-002   -0.254473363206686     
  1.540000000000000E-002   -0.249306391494375     
  1.550000000000000E-002   -0.243982655219304     
  1.560000000000000E-002   -0.238504950112229     
  1.570000000000000E-002   -0.232876207125780     
  1.580000000000000E-002   -0.227099484977840     
  1.590000000000000E-002   -0.221177975085009     
  1.600000000000000E-002   -0.215115019598361     
  1.610000000000000E-002   -0.208914066931301     
  1.620000000000000E-002   -0.202578699112746     
  1.630000000000000E-002   -0.196112604739064     
  1.640000000000000E-002   -0.189519602456030     
  1.650000000000000E-002   -0.182803628778709     
  1.660000000000000E-002   -0.175968707650190     
  1.670000000000000E-002   -0.169019004738778     
  1.680000000000000E-002   -0.161958748971986     
  1.690000000000000E-002   -0.154792302847026     
  1.700000000000000E-002   -0.147524087502251     
  1.710000000000000E-002   -0.140158643962089     
  1.720000000000000E-002   -0.132700582701600     
  1.730000000000000E-002   -0.125154598098963     
  1.740000000000000E-002   -0.117525462619150     
  1.750000000000000E-002   -0.109818022273908     
  1.760000000000000E-002   -0.102037178203478     
  1.770000000000000E-002   -9.418790766539233E-002
  1.780000000000000E-002   -8.627524089209597E-002
  1.790000000000000E-002   -7.830425754575307E-002
  1.800000000000000E-002   -7.028008708030010E-002
  1.810000000000000E-002   -6.220790294421143E-002
  1.820000000000000E-002   -5.409291815821949E-002
  1.830000000000000E-002   -4.594037238872168E-002
  1.840000000000000E-002   -3.775553028504654E-002
  1.850000000000000E-002   -2.954369154283724E-002
  1.860000000000000E-002   -2.131016594868726E-002
  1.870000000000000E-002   -1.306026906038387E-002