 -4.000000000000000E-002    0.000000000000000E+000
 -3.990000000000000E-002    0.000000000000000E+000
 -3.980000000000000E-002    0.000000000000000E+000
 -3.970000000000000E-002    0.000000000000000E+000
 -3.960000000000000E-002    0.000000000000000E+000
 -3.950000000000000E-002    0.000000000000000E+000
 -3.940000000000000E-002    0.000000000000000E+000
 -3.930000000000000E-002    0.000000000000000E+000
 -3.920000000000000E-002    0.000000000000000E+000
 -3.910000000000000E-002    0.000000000000000E+000
 -3.900000000000000E-002    0.000000000000000E+000
 -3.890000000000000E-002    0.000000000000000E+000
 -3.880000000000000E-002    0.000000000000000E+000
 -3.870000000000000E-002   -6.014446768694777E-043
 -3.860000000000000E-002   -1.389230884083137E-041
 -3.850000000000000E-002   -1.621974321551415E-040
 -3.840000000000000E-002   -1.267642329319667E-039
 -3.830000000000000E-002   -7.385557207837616E-039
 -3.820000000000000E-002   -3.364271296381538E-038
 -3.810000000000000E-002   -1.208032226718444E-037
 -3.800000000000000E-002   -3.246872180565270E-037
 -3.790000000000000E-002   -4.794190171128099E-037
 -3.780000000000000E-002    1.087620077391374E-036
 -3.770000000000000E-002    1.259654592966628E-035
 -3.760000000000000E-002    6.529250549739572E-035
 -3.750000000000000E-002    2.607229265940289E-034
 -3.740000000000000E-002    8.929120489440419E-034
 -3.730000000000000E-002    2.736964285089315E-033
 -3.720000000000000E-002    7.677806260773519E-033
 -3.710000000000000E-002    1.997974483221085E-032
 -3.700000000000000E-002    4.866646380793105E-032
 -3.690000000000000E-002    1.116557236942810E-031
 -3.680000000000000E-002    2.423708975487467E-031
 -3.670000000000000E-002    4.993197702461995E-031
 -3.660000000000000E-002    9.782227183927355E-031
 -3.650000000000000E-002    1.824137491484102E-030
 -3.640000000000000E-002    3.236968599418082E-030
 -3.630000000000000E-002    5.457062867689881E-030
 -3.620000000000000E-002    8.707894678623867E-030
 -3.610000000000000E-002    1.306061425333663E-029
 -3.600000000000000E-002    1.817267903588214E-029
 -3.590000000000000E-002    2.284468219312956E-029
 -3.580000000000000E-002    2.434440814028976E-029
 -3.570000000000000E-002    1.747752616446551E-029
 -3.560000000000000E-002   -6.543657496410640E-030
 -3.550000000000000E-002   -6.125131949364453E-029
 -3.540000000000000E-002   -1.657087126848057E-028
 -3.530000000000000E-002   -3.442735469194811E-028
 -3.520000000000000E-002   -6.243570294429854E-028
 -3.510000000000000E-002   -1.030887977444318E-027
 -3.500000000000000E-002   -1.576004461796368E-027
 -3.490000000000000E-002   -2.242600944857591E-027
 -3.480000000000000E-002   -2.960964513349987E-027
 -3.470000000000000E-002   -3.579081189934000E-027
 -3.460000000000000E-002   -3.829477459752639E-027
 -3.450000000000000E-002   -3.298761882143779E-027
 -3.440000000000000E-002   -1.410186581306628E-027
 -3.430000000000000E-002    2.565971961656201E-027
 -3.420000000000000E-002    9.455589593887548E-027
 -3.410000000000000E-002    2.005720342274318E-026
 -3.400000000000000E-002    3.493419368705820E-026
 -3.390000000000000E-002    5.411393607987052E-026
 -3.380000000000000E-002    7.670255203300036E-026
 -3.370000000000000E-002    1.004506293602100E-025
 -3.360000000000000E-002    1.213404153239182E-025
 -3.350000000000000E-002    1.333052190363680E-025
 -3.340000000000000E-002    1.282292452949994E-025
 -3.330000000000000E-002    9.640004730226492E-026
 -3.320000000000000E-002    2.758058907085364E-026
 -3.310000000000000E-002   -8.718218130718937E-026
 -3.300000000000000E-002   -2.530066202495677E-025
 -3.290000000000000E-002   -4.680589454022785E-025
 -3.280000000000000E-002   -7.202909834595364E-025
 -3.270000000000000E-002   -9.847457017451425E-025
 -3.260000000000000E-002   -1.222429996383175E-024
 -3.250000000000000E-002   -1.381959393313930E-024
 -3.240000000000000E-002   -1.405208755620046E-024
 -3.230000000000000E-002   -1.237934669577370E-024
 -3.220000000000000E-002   -8.456595260536706E-025
 -3.210000000000000E-002   -2.339507317975686E-025
 -3.200000000000000E-002    5.294233660681651E-025
 -3.190000000000000E-002    1.295003433739949E-024
 -3.180000000000000E-002    1.821522582994655E-024
 -3.170000000000000E-002    1.783711724549967E-024
 -3.160000000000000E-002    8.075102203295653E-025
 -3.150000000000000E-002   -1.458554809414705E-024
 -3.140000000000000E-002   -5.230176622730376E-024
 -3.130000000000000E-002   -1.043286996263781E-023
 -3.120000000000000E-002   -1.651650582246971E-023
 -3.110000000000000E-002   -2.226185719368055E-023
 -3.100000000000000E-002   -2.561718552746514E-023
 -3.090000000000000E-002   -2.361820548520999E-023
 -3.080000000000000E-002   -1.245742470462690E-023
 -3.070000000000000E-002    1.222530660084163E-023
 -3.060000000000000E-002    5.476440621467255E-023
 -3.050000000000000E-002    1.185565809378161E-022
 -3.040000000000000E-002    2.048097965249496E-022
 -3.030000000000000E-002    3.110089849331430E-022
 -3.020000000000000E-002    4.292347976773312E-022
 -3.010000000000000E-002    5.445666266349282E-022
 -3.000000000000000E-002    6.338975505245749E-022
 -2.990000000000000E-002    6.655743297489724E-022
 -2.980000000000000E-002    6.003244028628927E-022
 -2.970000000000000E-002    3.939282067456594E-022
 -2.960000000000000E-002    2.005182782163758E-024
 -2.950000000000000E-002   -6.128987577942348E-022
 -2.940000000000000E-002   -1.472029437975252E-021
 -2.930000000000000E-002   -2.569450277812491E-021
 -2.920000000000000E-002   -3.860351027831183E-021
 -2.910000000000000E-002   -5.250124598924939E-021
 -2.900000000000000E-002   -6.586168832892937E-021
 -2.890000000000000E-002   -7.654723711456554E-021
 -2.880000000000000E-002   -8.185195281639832E-021
 -2.870000000000000E-002   -7.864228315746605E-021
 -2.860000000000000E-002   -6.361224986146395E-021
 -2.850000000000000E-002   -3.365968829355993E-021
 -2.840000000000000E-002    1.362431711379651E-021
 -2.830000000000000E-002    7.937914395927312E-021
 -2.820000000000000E-002    1.628582117003547E-020
 -2.810000000000000E-002    2.608398733962701E-020
 -2.800000000000000E-002    3.671506096272609E-020
 -2.790000000000000E-002    4.723967019746675E-020
 -2.780000000000000E-002    5.640026764578175E-020
 -2.770000000000000E-002    6.266446741872458E-020
 -2.760000000000000E-002    6.431407441960268E-020
 -2.750000000000000E-002    5.958227577914579E-020
 -2.740000000000000E-002    4.683606120365693E-020
 -2.730000000000000E-002    2.479491832291213E-020
 -2.720000000000000E-002   -7.229772004572041E-021
 -2.710000000000000E-002   -4.909603238378015E-020
 -2.700000000000000E-002   -9.961965460370420E-020
 -2.690000000000000E-002   -1.564184582724588E-019
 -2.680000000000000E-002   -2.158410258311777E-019
 -2.670000000000000E-002   -2.730047524299130E-019
 -2.660000000000000E-002   -3.219609906622154E-019
 -2.650000000000000E-002   -3.559950108633197E-019
 -2.640000000000000E-002   -3.680557617222803E-019
 -2.630000000000000E-002   -3.512970707236076E-019
 -2.620000000000000E-002   -2.996993707782119E-019
 -2.610000000000000E-002   -2.087299005151814E-019
 -2.600000000000000E-002   -7.599329926573512E-020
 -2.590000000000000E-002    9.817838622623317E-020
 -2.580000000000000E-002    3.102428136235736E-019
 -2.570000000000000E-002    5.531108481951881E-019
 -2.560000000000000E-002    8.159839481984255E-019
 -2.550000000000000E-002    1.084379845218755E-018
 -2.540000000000000E-002    1.340351116011211E-018
 -2.530000000000000E-002    1.562891764886820E-018
 -2.520000000000000E-002    1.728529701215107E-018
 -2.510000000000000E-002    1.812108483353149E-018
 -2.500000000000000E-002    1.787774910833382E-018
 -2.490000000000000E-002    1.630210247556855E-018
 -2.480000000000000E-002    1.316156146668175E-018
 -2.470000000000000E-002    8.262995581971194E-019
 -2.460000000000000E-002    1.475716130195982E-019
 -2.450000000000000E-002   -7.241144627406828E-019
 -2.440000000000000E-002   -1.780718307676946E-018
 -2.430000000000000E-002   -2.998647455156820E-018
 -2.420000000000000E-002   -4.335295532039321E-018
 -2.410000000000000E-002   -5.725934127968804E-018
 -2.400000000000000E-002   -7.081483931050146E-018
 -2.390000000000000E-002   -8.287812518016140E-018
 -2.380000000000000E-002   -9.207289063674910E-018
 -2.370000000000000E-002   -9.683313150663934E-018
 -2.360000000000000E-002   -9.548420502732883E-018
 -2.350000000000000E-002   -8.636347020572444E-018
 -2.340000000000000E-002   -6.798035926145836E-018
 -2.330000000000000E-002   -3.921110842440042E-018
 -2.320000000000000E-002    4.827946843820400E-020
 -2.310000000000000E-002    5.082939505169913E-018
 -2.300000000000000E-002    1.105374315075403E-017
 -2.290000000000000E-002    1.771314936074984E-017
 -2.280000000000000E-002    2.468615056052454E-017
 -2.270000000000000E-002    3.147165681381429E-017
 -2.260000000000000E-002    3.745686034167679E-017
 -2.250000000000000E-002    4.194637306362605E-017
 -2.240000000000000E-002    4.420660134531356E-017
 -2.230000000000000E-002    4.352435306574693E-017
 -2.220000000000000E-002    3.927679289788269E-017
 -2.210000000000000E-002    3.100807104775770E-017
 -2.200000000000000E-002    1.850620659767665E-017
 -2.190000000000000E-002    1.872544907840152E-018
 -2.180000000000000E-002   -1.842459974234007E-017
 -2.170000000000000E-002   -4.152037756202585E-017
 -2.160000000000000E-002   -6.615509966550712E-017
 -2.150000000000000E-002   -9.071228525676330E-017
 -2.140000000000000E-002   -1.132953081780020E-016
 -2.130000000000000E-002   -1.318411289109452E-016
 -2.120000000000000E-002   -1.442656736008935E-016
 -2.110000000000000E-002   -1.486313130746586E-016
 -2.100000000000000E-002   -1.433237340921631E-016
 -2.090000000000000E-002   -1.272225544122865E-016
 -2.080000000000000E-002   -9.984944499935172E-017
 -2.070000000000000E-002   -6.147785758513249E-017
 -2.060000000000000E-002   -1.319102410775840E-017
 -2.050000000000000E-002    4.312095030068426E-017
 -2.040000000000000E-002    1.048283593300473E-016
 -2.030000000000000E-002    1.686908703669683E-016
 -2.020000000000000E-002    2.310383240092050E-016
 -2.010000000000000E-002    2.879886397043118E-016
 -2.000000000000000E-002    3.356826180173550E-016
 -1.990000000000000E-002    3.705141612429615E-016
 -1.980000000000000E-002    3.893348697888744E-016
 -1.970000000000000E-002    3.896155976678028E-016
 -1.960000000000000E-002    3.695535152890885E-016
 -1.950000000000000E-002    3.281220150285962E-016
 -1.940000000000000E-002    2.650697525049716E-016
 -1.930000000000000E-002    1.808838324556954E-016
 -1.920000000000000E-002    7.673961510076213E-017
 -1.910000000000000E-002   -4.553697481248438E-017
 -1.900000000000000E-002   -1.834690130649275E-016
 -1.890000000000000E-002   -3.338706977173718E-016
 -1.880000000000000E-002   -4.927227980706524E-016
 -1.870000000000000E-002   -6.549881942606275E-016
 -1.860000000000000E-002   -8.143916417166029E-016
 -1.850000000000000E-002   -9.632066083850258E-016
 -1.840000000000000E-002   -1.092107274310947E-015
 -1.830000000000000E-002   -1.190156346421575E-015
 -1.820000000000000E-002   -1.244999068950149E-015
 -1.810000000000000E-002   -1.243327671119100E-015
 -1.800000000000000E-002   -1.171659939548392E-015
 -1.790000000000000E-002   -1.017445329888157E-015
 -1.780000000000000E-002   -7.704681596875647E-016
 -1.770000000000000E-002   -4.244741427881574E-016
 -1.760000000000000E-002    2.110652689476994E-017
 -1.750000000000000E-002    5.595056142752017E-016
 -1.740000000000000E-002    1.175238394074799E-015
 -1.730000000000000E-002    1.843213833719644E-015
 -1.720000000000000E-002    2.528547504150870E-015
 -1.710000000000000E-002    3.187252200953966E-015
 -1.700000000000000E-002    3.767925411003269E-015
 -1.690000000000000E-002    4.214469275628994E-015
 -1.680000000000000E-002    4.469775695690640E-015
 -1.670000000000000E-002    4.480196033381106E-015
 -1.660000000000000E-002    4.200511748945154E-015
 -1.650000000000000E-002    3.599016309659109E-015
 -1.640000000000000E-002    2.662262334613003E-015
 -1.630000000000000E-002    1.398983432285369E-015
 -1.620000000000000E-002   -1.572700307569742E-016
 -1.610000000000000E-002   -1.947184749244224E-015
 -1.600000000000000E-002   -3.886719106410691E-015
 -1.590000000000000E-002   -5.870238068484672E-015
 -1.580000000000000E-002   -7.775703507578582E-015
 -1.570000000000000E-002   -9.471656385281001E-015
 -1.560000000000000E-002   -1.082555273989553E-014
 -1.550000000000000E-002   -1.171285327773853E-014
 -1.540000000000000E-002   -1.202615099321839E-014
 -1.530000000000000E-002   -1.168359756308018E-014
 -1.520000000000000E-002   -1.063590205818228E-014
 -1.510000000000000E-002   -8.871293513153225E-015
 -1.500000000000000E-002   -6.418038029728499E-015
 -1.490000000000000E-002   -3.344295069749923E-015
 -1.480000000000000E-002    2.446028216154372E-016
 -1.470000000000000E-002    4.211136692973180E-015
 -1.460000000000000E-002    8.392302192022857E-015
 -1.450000000000000E-002    1.260733772384538E-014
 -1.440000000000000E-002    1.666570523844864E-014
 -1.430000000000000E-002    2.037459575272580E-014
 -1.420000000000000E-002    2.354538144988434E-014
 -1.410000000000000E-002    2.599867468253768E-014
 -1.400000000000000E-002    2.756791959538930E-014
 -1.390000000000000E-002    2.810185759894570E-014
 -1.380000000000000E-002    2.746638086298703E-014
 -1.370000000000000E-002    2.554667755820799E-014
 -1.360000000000000E-002    2.225052779473488E-014
 -1.350000000000000E-002    1.751372636849087E-014
 -1.340000000000000E-002    1.130823088028434E-014
 -1.330000000000000E-002    3.653381011261304E-015
 -1.320000000000000E-002   -5.370136171456262E-015
 -1.310000000000000E-002   -1.560442555591180E-014
 -1.300000000000000E-002   -2.679827371103044E-014
 -1.290000000000000E-002   -3.859288603098459E-014
 -1.280000000000000E-002   -5.051222649904638E-014
 -1.270000000000000E-002   -6.196070879617633E-014
 -1.260000000000000E-002   -7.223099500719299E-014
 -1.250000000000000E-002   -8.052421846242677E-014
 -1.240000000000000E-002   -8.598394689206033E-014
 -1.230000000000000E-002   -8.774423329849063E-014
 -1.220000000000000E-002   -8.499044717997747E-014
 -1.210000000000000E-002   -7.703004346398442E-014
 -1.200000000000000E-002   -6.336912897734880E-014
 -1.190000000000000E-002   -4.378878103923486E-014
 -1.180000000000000E-002   -1.841458983000686E-014
 -1.170000000000000E-002    1.222793695814676E-014
 -1.160000000000000E-002    4.717921646987803E-014
 -1.150000000000000E-002    8.503890980941834E-014
 -1.140000000000000E-002    1.239915507917332E-013
 -1.130000000000000E-002    1.618668501716971E-013
 -1.120000000000000E-002    1.962348604176726E-013
 -1.110000000000000E-002    2.245324266523508E-013
 -1.100000000000000E-002    2.442156497083208E-013
 -1.090000000000000E-002    2.529289476065290E-013
 -1.080000000000000E-002    2.486803496312305E-013
 -1.070000000000000E-002    2.300105033791017E-013
 -1.060000000000000E-002    1.961429857535806E-013
 -1.050000000000000E-002    1.471035066974534E-013
 -1.040000000000000E-002    8.379801202815538E-014
 -1.030000000000000E-002    8.041668574975406E-015
 -1.020000000000000E-002   -7.746579664592668E-014
 -1.010000000000000E-002   -1.692190513652144E-013
 -1.000000000000000E-002   -2.630373878076338E-013
 -9.899999999999999E-003   -3.542399217490065E-013
 -9.800000000000000E-003   -4.378556322112716E-013
 -9.699999999999999E-003   -5.088570977924747E-013
 -9.599999999999999E-003   -5.624052409722014E-013
 -9.500000000000000E-003   -5.940921902986760E-013
 -9.399999999999999E-003   -6.001711204752317E-013
 -9.299999999999999E-003   -5.777629043199736E-013
 -9.200000000000000E-003   -5.250329132809545E-013
 -9.099999999999999E-003   -4.413332829034905E-013
 -8.999999999999999E-003   -3.273080999546009E-013
 -8.900000000000000E-003   -1.849612098764380E-013
 -8.799999999999999E-003   -1.768703519842947E-014
 -8.699999999999999E-003    1.697355327123624E-013
 -8.600000000000000E-003    3.711864032750334E-013
 -8.499999999999999E-003    5.792868698715116E-013
 -8.399999999999999E-003    7.855285144463873E-013
 -8.300000000000000E-003    9.804519639972868E-013
 -8.199999999999999E-003    1.153885633312951E-012
 -8.100000000000000E-003    1.295253030790076E-012
 -8.000000000000000E-003    1.393954257555812E-012
 -7.899999999999999E-003    1.439825235478137E-012
 -7.800000000000000E-003    1.423671731647339E-012
 -7.699999999999999E-003    1.337866342759328E-012
 -7.599999999999999E-003    1.176988449299524E-012
 -7.499999999999999E-003    9.384757051915089E-013
 -7.399999999999999E-003    6.232460520282656E-013
 -7.299999999999999E-003    2.362405174375280E-013
 -7.199999999999999E-003   -2.131694691814433E-013
 -7.100000000000000E-003   -7.109660387129053E-013
 -6.999999999999999E-003   -1.238514347101361E-012
 -6.899999999999999E-003   -1.772885202000303E-012
 -6.800000000000000E-003   -2.287497712103595E-012
 -6.699999999999999E-003   -2.753097083686303E-012
 -6.599999999999999E-003   -3.139051764512598E-012
 -6.499999999999999E-003   -3.414933563218070E-012
 -6.399999999999999E-003   -3.552311747069411E-012
 -6.299999999999999E-003   -3.526671740043904E-012
 -6.199999999999999E-003   -3.319345720611388E-012
 -6.100000000000000E-003   -2.919324327638565E-012
 -5.999999999999999E-003   -2.324819092314815E-012
 -5.899999999999999E-003   -1.544442618281631E-012
 -5.800000000000000E-003   -5.978864798949854E-013
 -5.699999999999999E-003    4.839926890063244E-013
 -5.599999999999999E-003    1.659747202493502E-012
 -5.499999999999999E-003    2.878590779532366E-012
 -5.399999999999999E-003    4.082310882261034E-012
 -5.299999999999999E-003    5.207780865931349E-012
 -5.199999999999999E-003    6.189951302098800E-012
 -5.099999999999999E-003    6.965195908937694E-012
 -4.999999999999999E-003    7.474821600727941E-012
 -4.899999999999999E-003    7.668564627663411E-012
 -4.799999999999999E-003    7.507868557201083E-012
 -4.699999999999999E-003    6.968754658969607E-012
 -4.599999999999999E-003    6.044118939388566E-012
 -4.499999999999999E-003    4.745302220268125E-012
 -4.399999999999999E-003    3.102826830735068E-012
 -4.299999999999999E-003    1.166242462581049E-012
 -4.199999999999999E-003   -9.969564820102618E-013
 -4.099999999999999E-003   -3.303313404413028E-012
 -3.999999999999999E-003   -5.656232368041622E-012
 -3.899999999999999E-003   -7.949547986731884E-012
 -3.799999999999999E-003   -1.007172626703662E-011
 -3.699999999999999E-003   -1.191052338855800E-011
 -3.599999999999999E-003   -1.335797205122325E-011
 -3.499999999999999E-003   -1.431549637402602E-011
 -3.399999999999999E-003   -1.469897063498311E-011
 -3.299999999999999E-003   -1.444354776887729E-011
 -3.199999999999999E-003   -1.350803610538298E-011
 -3.099999999999999E-003   -1.187865347629031E-011
 -2.999999999999999E-003   -9.571947646906568E-012
 -2.899999999999999E-003   -6.636693273198737E-012
 -2.799999999999999E-003   -3.154571656475607E-012
 -2.699999999999999E-003    7.605039762586540E-013
 -2.599999999999999E-003    4.964586460509904E-012
 -2.499999999999999E-003    9.287486268411967E-012
 -2.399999999999999E-003    1.353819739711361E-011
 -2.299999999999999E-003    1.751191786680510E-011
 -2.199999999999999E-003    2.099851817321126E-011
 -2.099999999999999E-003    2.379223920455614E-011
 -1.999999999999999E-003    2.570228982481810E-011
 -1.899999999999999E-003    2.656386317248181E-011
 -1.799999999999999E-003    2.624905531921863E-011
 -1.699999999999999E-003    2.467706575353195E-011
 -1.599999999999999E-003    2.182300859338944E-011
 -1.499999999999999E-003    1.772465347671819E-011
 -1.399999999999999E-003    1.248645690049655E-011
 -1.299999999999999E-003    6.280342541735615E-012
 -1.199999999999999E-003   -6.572109868445405E-013
 -1.099999999999999E-003   -8.032009253753613E-012
 -9.999999999999989E-004   -1.550294007041196E-011
 -8.999999999999990E-004   -2.269648477510253E-011
 -7.999999999999990E-004   -2.922444565303881E-011
 -6.999999999999989E-004   -3.470423897627084E-011
 -5.999999999999990E-004   -3.878063874195316E-011
 -4.999999999999989E-004   -4.114791385607542E-011
 -3.999999999999989E-004   -4.157103918751754E-011
 -2.999999999999989E-004   -3.990461182248756E-011
 -1.999999999999989E-004   -3.610816905826491E-011
 -9.999999999999892E-005   -3.025667399357374E-011
  1.084202172485504E-018   -2.254518299384777E-011
  1.000000000000011E-004   -1.328696186777854E-011
  2.000000000000011E-004   -2.904597137271180E-012
  3.000000000000011E-004    8.085806222950434E-012
  4.000000000000011E-004    1.909701076821097E-011
  5.000000000000011E-004    2.949879677672123E-011
  6.000000000000011E-004    3.865063468318267E-011
  7.000000000000011E-004    4.593747707344158E-011
  8.000000000000011E-004    5.080668698314312E-011
  9.000000000000012E-004    5.280442501669601E-011
  1.000000000000001E-003    5.160924608544517E-011
  1.100000000000001E-003    4.706103560868608E-011
  1.200000000000001E-003    3.918346967087074E-011
  1.300000000000001E-003    2.819834313340650E-011
  1.400000000000001E-003    1.453049419680544E-011
  1.500000000000001E-003   -1.197529041987079E-012
  1.600000000000001E-003   -1.818156216967522E-011
  1.700000000000001E-003   -3.546261318760858E-011
  1.800000000000001E-003   -5.196392166312334E-011
  1.900000000000001E-003   -6.653719700914508E-011
  2.000000000000001E-003   -7.801676038251282E-011
  2.100000000000001E-003   -8.527962952050931E-011
  2.200000000000001E-003   -8.730948174972273E-011
  2.300000000000001E-003   -8.326181538100190E-011
  2.400000000000001E-003   -7.252776562003460E-011
  2.500000000000001E-003   -5.479335043857932E-011
  2.600000000000001E-003   -3.009144790784421E-011
  2.700000000000001E-003    1.156769138289452E-012
  2.800000000000001E-003    3.811382783892410E-011
  2.900000000000001E-003    7.951406922444024E-011
  3.000000000000001E-003    1.236703264966125E-010
  3.100000000000001E-003    1.685011970748277E-010
  3.200000000000001E-003    2.115800387864300E-010
  3.300000000000001E-003    2.502066331594659E-010
  3.400000000000001E-003    2.815009483605819E-010
  3.500000000000001E-003    3.025177809917997E-010
  3.600000000000001E-003    3.103801471546482E-010
  3.700000000000001E-003    3.024273869829325E-010
  3.800000000000001E-003    2.763736573813433E-010
  3.900000000000001E-003    2.304710048724202E-010
  4.000000000000001E-003    1.636697805482308E-010
  4.100000000000001E-003    7.576907495679984E-011
  4.200000000000001E-003   -3.245098223542636E-011
  4.300000000000001E-003   -1.591237251427638E-010
  4.400000000000001E-003   -3.012254643016204E-010
  4.500000000000001E-003   -4.545471688370778E-010
  4.600000000000002E-003   -6.137155918561176E-010
  4.700000000000001E-003   -7.722687965032219E-010
  4.800000000000001E-003   -9.227890159421351E-010
  4.900000000000002E-003   -1.057094437446128E-009
  5.000000000000001E-003   -1.166488394557777E-009
  5.100000000000001E-003   -1.242061621346729E-009
  5.200000000000001E-003   -1.275041637283626E-009
  5.300000000000002E-003   -1.257179269492980E-009
  5.400000000000001E-003   -1.181161445806122E-009
  5.500000000000001E-003   -1.041035912092346E-009
  5.600000000000002E-003   -8.326323905546672E-010
  5.700000000000001E-003   -5.539646389988895E-010
  5.800000000000001E-003   -2.055948882350752E-010
  5.900000000000002E-003    2.090559763021889E-010
  6.000000000000001E-003    6.834697420144835E-010
  6.100000000000001E-003    1.207878875521098E-009
  6.200000000000002E-003    1.769216108652803E-009
  6.300000000000002E-003    2.351176133909791E-009
  6.400000000000001E-003    2.934401481876917E-009
  6.500000000000001E-003    3.496796097931559E-009
  6.600000000000002E-003    4.013971115180977E-009
  6.700000000000001E-003    4.459821725202719E-009
  6.800000000000001E-003    4.807231575987445E-009
  6.900000000000002E-003    5.028894215914867E-009
  7.000000000000001E-003    5.098240007751340E-009
  7.100000000000001E-003    4.990449772946702E-009
  7.200000000000002E-003    4.683535162268188E-009
  7.300000000000002E-003    4.159457110581430E-009
  7.400000000000001E-003    3.405252937204423E-009
  7.500000000000001E-003    2.414139541603106E-009
  7.600000000000002E-003    1.186549855318644E-009
  7.700000000000001E-003   -2.689306800096092E-010
  7.800000000000001E-003   -1.934777872429559E-009
  7.900000000000001E-003   -3.783929360572135E-009
  8.000000000000002E-003   -5.779416693835414E-009
  8.100000000000001E-003   -7.874271452881533E-009
  8.200000000000001E-003   -1.001173935795188E-008
  8.300000000000002E-003   -1.212583538138425E-008
  8.400000000000001E-003   -1.414226514214043E-008
  8.500000000000002E-003   -1.597972620028865E-008
  8.600000000000002E-003   -1.755159982735865E-008
  8.700000000000001E-003   -1.876802299684594E-008
  8.800000000000002E-003   -1.953833102606724E-008
  8.900000000000002E-003   -1.977383316348152E-008
  9.000000000000001E-003   -1.939088478982424E-008
  9.100000000000002E-003   -1.831420093970968E-008
  9.200000000000002E-003   -1.648034345261737E-008
  9.300000000000001E-003   -1.384130933981384E-008
  9.400000000000002E-003   -1.036812734112992E-008
  9.500000000000001E-003   -6.054383854692825E-009
  9.600000000000001E-003   -9.195781938763014E-010
  9.700000000000002E-003    4.987802918871235E-009
  9.800000000000001E-003    1.158755850594532E-008
  9.900000000000001E-003    1.876551931260887E-008
  1.000000000000000E-002    2.637181491346385E-008
  1.010000000000000E-002    3.421978031630215E-008
  1.020000000000000E-002    4.208551632743200E-008
  1.030000000000000E-002    4.970822052475250E-008
  1.040000000000000E-002    5.679121473364907E-008
  1.050000000000000E-002    6.300381872660472E-008
  1.060000000000000E-002    6.798397588651922E-008
  1.070000000000000E-002    7.134159277019105E-008
  1.080000000000000E-002    7.266262148175389E-008
  1.090000000000000E-002    7.151379319173671E-008
  1.100000000000000E-002    6.744784273166748E-008
  1.110000000000000E-002    6.000922926408099E-008
  1.120000000000000E-002    4.874019717069735E-008
  1.130000000000000E-002    3.318689284555238E-008
  1.140000000000000E-002    1.290568074361103E-008
  1.150000000000000E-002   -1.253080545089079E-008
  1.160000000000000E-002   -4.352789145734501E-008
  1.170000000000000E-002   -8.046351001829874E-008
  1.180000000000000E-002   -1.236836131935251E-007
  1.190000000000000E-002   -1.734982666382364E-007
  1.200000000000000E-002   -2.301787681197418E-007
  1.210000000000000E-002   -2.939558916995151E-007
  1.220000000000000E-002   -3.650190839492766E-007
  1.230000000000000E-002   -4.435172342820417E-007
  1.240000000000000E-002   -5.295604947222885E-007
  1.250000000000000E-002   -6.232235313761466E-007
  1.260000000000000E-002   -7.245501112770251E-007
  1.270000000000000E-002   -8.335586965450092E-007
  1.280000000000000E-002   -9.502494247071278E-007
  1.290000000000000E-002   -1.074611825031174E-006
  1.300000000000000E-002   -1.206633699017644E-006
  1.310000000000000E-002   -1.346310419135444E-006
  1.320000000000000E-002   -1.493654564759456E-006
  1.330000000000000E-002   -1.648706134894169E-006
  1.340000000000000E-002   -1.811542336951353E-006
  1.350000000000000E-002   -1.982287731876958E-006
  1.360000000000000E-002   -2.161123291351985E-006
  1.370000000000000E-002   -2.348295364682345E-006
  1.380000000000000E-002   -2.544123630652217E-006
  1.390000000000000E-002   -2.749007697063666E-006
  1.400000000000000E-002   -2.963432767716983E-006
  1.410000000000000E-002   -3.187975031452031E-006
  1.420000000000000E-002   -3.423303449142960E-006
  1.430000000000000E-002   -3.670183372422968E-006
  1.440000000000000E-002   -3.929475940640361E-006
  1.450000000000000E-002   -4.202137766816297E-006
  1.460000000000000E-002   -4.489219480894732E-006
  1.470000000000000E-002   -4.791862614205681E-006
  1.480000000000000E-002   -5.111296337075320E-006
  1.490000000000000E-002   -5.448832492379813E-006
  1.500000000000000E-002   -5.805861383247283E-006
  1.510000000000000E-002   -6.183846452033592E-006
  1.520000000000000E-002   -6.584319199639185E-006
  1.530000000000000E-002   -7.008876176812343E-006
  1.540000000000000E-002   -7.459172136400813E-006
  1.550000000000000E-002   -7.936917285392120E-006
  1.560000000000000E-002   -8.443876102512394E-006
  1.570000000000000E-002   -8.981864683807002E-006
  1.580000000000000E-002   -9.552750321664947E-006
  1.590000000000000E-002   -1.015845402522026E-005
  1.600000000000000E-002   -1.080095138838138E-005
  1.610000000000000E-002   -1.148227857044687E-005
  1.620000000000000E-002   -1.220453588966706E-005
  1.630000000000000E-002   -1.296989429193095E-005
  1.640000000000000E-002   -1.378060531979603E-005
  1.650000000000000E-002   -1.463900767268754E-005
  1.660000000000000E-002   -1.554753778426943E-005
  1.670000000000000E-002   -1.650873947980038E-005
  1.680000000000000E-002   -1.752527304753269E-005
  1.690000000000000E-002   -1.859993039113239E-005
  1.700000000000000E-002   -1.973563892712223E-005
  1.710000000000000E-002   -2.093547709845180E-005
  1.720000000000000E-002   -2.220268157272765E-005
  1.730000000000000E-002   -2.354065664019424E-005
  1.740000000000000E-002   -2.495298012368095E-005
  1.750000000000000E-002   -2.644341584184327E-005
  1.760000000000000E-002   -2.801591440466734E-005
  1.770000000000000E-002   -2.967462687461101E-005
  1.780000000000000E-002   -3.142390344298432E-005
  1.790000000000000E-002   -3.326830449878619E-005
  1.800000000000000E-002   -3.521260160104494E-005
  1.810000000000000E-002   -3.726178420233644E-005
  1.820000000000000E-002   -3.942106570082338E-005
  1.830000000000000E-002   -4.169588949381010E-005
  1.840000000000000E-002   -4.409193270886127E-005
  1.850000000000000E-002   -4.661511708345123E-005
  1.860000000000000E-002   -4.927161248878836E-005
  1.870000000000000E-002   -5.206785683939765E-005