 -4.000000000000000E-002    0.000000000000000E+000
 -3.990000000000000E-002    1.263744060558126E-007
 -3.980000000000000E-002    3.771649717486854E-007
 -3.970000000000000E-002    7.458163053943377E-007
 -3.960000000000000E-002    1.222155766342044E-006
 -3.950000000000000E-002    1.793446282225707E-006
 -3.940000000000000E-002    2.445444381752886E-006
 -3.930000000000000E-002    3.163403020871135E-006
 -3.920000000000000E-002    3.932967215633848E-006
 -3.910000000000000E-002    4.740921532270188E-006
 -3.900000000000000E-002    5.575763520814526E-006
 -3.890000000000000E-002    6.428089422034987E-006
 -3.880000000000000E-002    7.290788304491239E-006
 -3.870000000000000E-002    8.159062859534986E-006
 -3.860000000000000E-002    9.030293848287438E-006
 -3.850000000000000E-002    9.903782464101184E-006
 -3.840000000000000E-002    1.078040505853689E-005
 -3.830000000000000E-002    1.166221510236929E-005
 -3.820000000000000E-002    1.255203618375846E-005
 -3.810000000000000E-002    1.345307376079391E-005
 -3.800000000000000E-002    1.436857011277178E-005
 -3.790000000000000E-002    1.530152639215651E-005
 -3.780000000000000E-002    1.625450263275927E-005
 -3.770000000000000E-002    1.722949878834938E-005
 -3.760000000000000E-002    1.822790994389924E-005
 -3.750000000000000E-002    1.925054208343447E-005
 -3.740000000000000E-002    2.029769940888674E-005
 -3.730000000000000E-002    2.136929231256067E-005
 -3.720000000000000E-002    2.246497091192233E-005
 -3.710000000000000E-002    2.358427917414809E-005
 -3.700000000000000E-002    2.472679340793095E-005
 -3.690000000000000E-002    2.589226256714188E-005
 -3.680000000000000E-002    2.708071782685436E-005
 -3.670000000000000E-002    2.829257399206878E-005
 -3.660000000000000E-002    2.952870022317609E-005
 -3.650000000000000E-002    3.079048080195652E-005
 -3.640000000000000E-002    3.207985171362146E-005
 -3.630000000000000E-002    3.339931737528238E-005
 -3.620000000000000E-002    3.475194742546728E-005
 -3.610000000000000E-002    3.614134195297784E-005
 -3.600000000000000E-002    3.757160191012627E-005
 -3.590000000000000E-002    3.904726018127114E-005
 -3.580000000000000E-002    4.057318153966991E-005
 -3.570000000000000E-002    4.215445237180589E-005
 -3.560000000000000E-002    4.379625744127733E-005
 -3.550000000000000E-002    4.550374878921115E-005
 -3.540000000000000E-002    4.728190652973071E-005
 -3.530000000000000E-002    4.913536943880979E-005
 -3.520000000000000E-002    5.106836646534796E-005
 -3.510000000000000E-002    5.308460394177024E-005
 -3.500000000000000E-002    5.518725200685957E-005
 -3.490000000000000E-002    5.737888811430939E-005
 -3.480000000000000E-002    5.966159719268901E-005
 -3.470000000000000E-002    6.203701170369139E-005
 -3.460000000000000E-002    6.450650149145879E-005
 -3.450000000000000E-002    6.707129465554574E-005
 -3.440000000000000E-002    6.973264254276716E-005
 -3.430000000000000E-002    7.249204998345422E-005
 -3.420000000000000E-002    7.535136770198518E-005
 -3.410000000000000E-002    7.831298816433163E-005
 -3.400000000000000E-002    8.137990321518947E-005
 -3.390000000000000E-002    8.455573369674312E-005
 -3.380000000000000E-002    8.784478297416174E-005
 -3.370000000000000E-002    9.125191645452244E-005
 -3.360000000000000E-002    9.478248795604572E-005
 -3.350000000000000E-002    9.844217848055846E-005
 -3.340000000000000E-002    1.022369369455045E-004
 -3.330000000000000E-002    1.061727185256816E-004
 -3.320000000000000E-002    1.102553226990398E-004
 -3.310000000000000E-002    1.144904440627863E-004
 -3.300000000000000E-002    1.188833850234239E-004
 -3.290000000000000E-002    1.234391133127621E-004
 -3.280000000000000E-002    1.281621067974024E-004
 -3.270000000000000E-002    1.330564020445544E-004
 -3.260000000000000E-002    1.381255762121025E-004
 -3.250000000000000E-002    1.433727184805193E-004
 -3.240000000000000E-002    1.488004730653332E-004
 -3.230000000000000E-002    1.544109651873641E-004
 -3.220000000000000E-002    1.602057682702746E-004
 -3.210000000000000E-002    1.661857699246504E-004
 -3.200000000000000E-002    1.723512666075902E-004
 -3.190000000000000E-002    1.787016365864741E-004
 -3.180000000000000E-002    1.852353446118486E-004
 -3.170000000000000E-002    1.919497484156963E-004
 -3.160000000000000E-002    1.988409217184799E-004
 -3.150000000000000E-002    2.059038463404415E-004
 -3.140000000000000E-002    2.131319667216182E-004
 -3.130000000000000E-002    2.205174008576446E-004
 -3.120000000000000E-002    2.280507756019569E-004
 -3.110000000000000E-002    2.357213743203646E-004
 -3.100000000000000E-002    2.435170707767118E-004
 -3.090000000000000E-002    2.514244398943084E-004
 -3.080000000000000E-002    2.594286980241752E-004
 -3.070000000000000E-002    2.675137658748417E-004
 -3.060000000000000E-002    2.756625742339560E-004
 -3.050000000000000E-002    2.838565459534044E-004
 -3.040000000000000E-002    2.920759591276183E-004
 -3.030000000000000E-002    3.002997422771944E-004
 -3.020000000000000E-002    3.085050985766255E-004
 -3.010000000000000E-002    3.166676652468080E-004
 -3.000000000000000E-002    3.247614080775566E-004
 -2.990000000000000E-002    3.327584183095796E-004
 -2.980000000000000E-002    3.406284052808775E-004
 -2.970000000000000E-002    3.483386203879374E-004
 -2.960000000000000E-002    3.558540972887590E-004
 -2.950000000000000E-002    3.631365782807945E-004
 -2.940000000000000E-002    3.701451701459340E-004
 -2.930000000000000E-002    3.768360755729638E-004
 -2.920000000000000E-002    3.831615585300272E-004
 -2.910000000000000E-002    3.890708418693712E-004
 -2.900000000000000E-002    3.945094473982849E-004
 -2.890000000000000E-002    3.994182940544738E-004
 -2.880000000000000E-002    4.037345131656001E-004
 -2.870000000000000E-002    4.073902194842055E-004
 -2.860000000000000E-002    4.103132779050771E-004
 -2.850000000000000E-002    4.124258255582762E-004
 -2.840000000000000E-002    4.136444122326579E-004
 -2.830000000000000E-002    4.138799189622262E-004
 -2.820000000000000E-002    4.130371738796380E-004
 -2.810000000000000E-002    4.110136811107687E-004
 -2.800000000000000E-002    4.077008137816474E-004
 -2.790000000000000E-002    4.029827015825826E-004
 -2.780000000000000E-002    3.967352258059822E-004
 -2.770000000000000E-002    3.888271882165693E-004
 -2.760000000000000E-002    3.791190627133160E-004
 -2.750000000000000E-002    3.674631113417716E-004
 -2.740000000000000E-002    3.537030722948400E-004
 -2.730000000000000E-002    3.376733678869559E-004
 -2.720000000000000E-002    3.192002138741316E-004
 -2.710000000000000E-002    2.980987016578963E-004
 -2.700000000000000E-002    2.741752586457738E-004
 -2.690000000000000E-002    2.472259214812504E-004
 -2.680000000000000E-002    2.170351529357802E-004
 -2.670000000000000E-002    1.833771953198660E-004
 -2.660000000000000E-002    1.460146095105630E-004
 -2.650000000000000E-002    1.046960759100895E-004
 -2.640000000000000E-002    5.916085833469412E-005
 -2.630000000000000E-002    9.131094768702981E-006
 -2.620000000000000E-002   -4.568132046049039E-005
 -2.610000000000000E-002   -1.055803576253794E-004
 -2.600000000000000E-002   -1.708857153299911E-004
 -2.590000000000000E-002   -2.419313644034872E-004
 -2.580000000000000E-002   -3.190667733778960E-004
 -2.570000000000000E-002   -4.026606006836459E-004
 -2.560000000000000E-002   -4.930954445232707E-004
 -2.550000000000000E-002   -5.907742238009874E-004
 -2.540000000000000E-002   -6.961189303510990E-004
 -2.530000000000000E-002   -8.095682987285281E-004
 -2.520000000000000E-002   -9.315808651621607E-004
 -2.510000000000000E-002   -1.062638462946222E-003
 -2.500000000000000E-002   -1.203240553361245E-003
 -2.490000000000000E-002   -1.353912683901750E-003
 -2.480000000000000E-002   -1.515197240824215E-003
 -2.470000000000000E-002   -1.687665395502340E-003
 -2.460000000000000E-002   -1.871910702859274E-003
 -2.450000000000000E-002   -2.068550966117704E-003
 -2.440000000000000E-002   -2.278230481788062E-003
 -2.430000000000000E-002   -2.501616895482046E-003
 -2.420000000000000E-002   -2.739409065193494E-003
 -2.410000000000000E-002   -2.992329940263380E-003
 -2.400000000000000E-002   -3.261137728244480E-003
 -2.390000000000000E-002   -3.546609205359561E-003
 -2.380000000000000E-002   -3.849560713766095E-003
 -2.370000000000000E-002   -4.170832755137391E-003
 -2.360000000000000E-002   -4.511304651390238E-003
 -2.350000000000000E-002   -4.871879476788565E-003
 -2.340000000000000E-002   -5.253499540160981E-003
 -2.330000000000000E-002   -5.657135625076842E-003
 -2.320000000000000E-002   -6.083798052680713E-003
 -2.310000000000000E-002   -6.534528251078784E-003
 -2.300000000000000E-002   -7.010406196570558E-003
 -2.290000000000000E-002   -7.512540106100921E-003
 -2.280000000000000E-002   -8.042088123275851E-003
 -2.270000000000000E-002   -8.600235938586758E-003
 -2.260000000000000E-002   -9.188212556547545E-003
 -2.250000000000000E-002   -9.807284956597257E-003
 -2.240000000000000E-002   -1.045875968794674E-002
 -2.230000000000000E-002   -1.114398593298295E-002
 -2.220000000000000E-002   -1.186434608295363E-002
 -2.210000000000000E-002   -1.262127110646132E-002
 -2.200000000000000E-002   -1.341623627948555E-002
 -2.190000000000000E-002   -1.425075659766179E-002
 -2.180000000000000E-002   -1.512639181303575E-002
 -2.170000000000000E-002   -1.604474084129359E-002
 -2.160000000000000E-002   -1.700745696677638E-002
 -2.150000000000000E-002   -1.801623468803885E-002
 -2.140000000000000E-002   -1.907280817116855E-002
 -2.130000000000000E-002   -2.017896241820041E-002
 -2.120000000000000E-002   -2.133653347388662E-002
 -2.110000000000000E-002   -2.254739379429542E-002
 -2.100000000000000E-002   -2.381346714738091E-002
 -2.090000000000000E-002   -2.513673052168692E-002
 -2.080000000000000E-002   -2.651919329004522E-002
 -2.070000000000000E-002   -2.796291715406328E-002
 -2.060000000000000E-002   -2.947002873983261E-002
 -2.050000000000000E-002   -3.104267192751084E-002
 -2.040000000000000E-002   -3.268307044693902E-002
 -2.030000000000000E-002   -3.439346540865137E-002
 -2.020000000000000E-002   -3.617616014031173E-002
 -2.010000000000000E-002   -3.803350375514489E-002
 -2.000000000000000E-002   -3.996788799513952E-002
 -1.990000000000000E-002   -4.198175546754269E-002
 -1.980000000000000E-002   -4.407759639913988E-002
 -1.970000000000000E-002   -4.625793217337500E-002
 -1.960000000000000E-002   -4.852533942269745E-002
 -1.950000000000000E-002   -5.088244397227358E-002
 -1.940000000000000E-002   -5.333189710075725E-002
 -1.930000000000000E-002   -5.587640711075364E-002
 -1.920000000000000E-002   -5.851871421506596E-002
 -1.910000000000000E-002   -6.126158921561539E-002
 -1.900000000000000E-002   -6.410785900860988E-002
 -1.890000000000000E-002   -6.706038546551704E-002
 -1.880000000000000E-002   -7.012204520124717E-002
 -1.870000000000000E-002   -7.329576884666639E-002
 -1.860000000000000E-002   -7.658451178547943E-002
 -1.850000000000000E-002   -7.999126594995025E-002
 -1.840000000000000E-002   -8.351905133734483E-002
 -1.830000000000000E-002   -8.717089843423086E-002
 -1.820000000000000E-002   -9.094987941486142E-002
 -1.810000000000000E-002   -9.485908810351525E-002
 -1.800000000000000E-002   -9.890161937916607E-002
 -1.790000000000000E-002   -0.103080601400243     
 -1.780000000000000E-002   -0.107399186675451     
 -1.770000000000000E-002   -0.111860520639848     
 -1.760000000000000E-002   -0.116467782788501     
 -1.750000000000000E-002   -0.121224121310785     
 -1.740000000000000E-002   -0.126132727231879     
 -1.730000000000000E-002   -0.131196769871697     
 -1.720000000000000E-002   -0.136419422224678     
 -1.710000000000000E-002   -0.141803830427257     
 -1.700000000000000E-002   -0.147353156908102     
 -1.690000000000000E-002   -0.153070535241912     
 -1.680000000000000E-002   -0.158959098168044     
 -1.670000000000000E-002   -0.165021930552868     
 -1.660000000000000E-002   -0.171262110714311     
 -1.650000000000000E-002   -0.177682681972576     
 -1.640000000000000E-002   -0.184286660616154     
 -1.630000000000000E-002   -0.191077012549374     
 -1.620000000000000E-002   -0.198056655219951     
 -1.610000000000000E-002   -0.205228473640461     
 -1.600000000000000E-002   -0.212595294651362     
 -1.590000000000000E-002   -0.220159863066875     
 -1.580000000000000E-002   -0.227924925442470     
 -1.570000000000000E-002   -0.235893066511645     
 -1.560000000000000E-002   -0.244066872266541     
 -1.550000000000000E-002   -0.252448798587336     
 -1.540000000000000E-002   -0.261041281819486     
 -1.530000000000000E-002   -0.269846571492687     
 -1.520000000000000E-002   -0.278866919975469     
 -1.510000000000000E-002   -0.288104392046038     
 -1.500000000000000E-002   -0.297560976613773     
 -1.490000000000000E-002   -0.307238573848899     
 -1.480000000000000E-002   -0.317138897369878     
 -1.470000000000000E-002   -0.327263592838971     
 -1.460000000000000E-002   -0.337614199773844     
 -1.450000000000000E-002   -0.348192048185296     
 -1.440000000000000E-002   -0.358998336778804     
 -1.430000000000000E-002   -0.370034116823591     
 -1.420000000000000E-002   -0.381300313281612     
 -1.410000000000000E-002   -0.392797653964013     
 -1.400000000000000E-002   -0.404526687919227     
 -1.390000000000000E-002   -0.416487821086033     
 -1.380000000000000E-002   -0.428681207205359     
 -1.370000000000000E-002   -0.441106924257014     
 -1.360000000000000E-002   -0.453764723486792     
 -1.350000000000000E-002   -0.466654243998394     
 -1.340000000000000E-002   -0.479774862358388     
 -1.330000000000000E-002   -0.493125754301868     
 -1.320000000000000E-002   -0.506705887842050     
 -1.310000000000000E-002   -0.520513987377411     
 -1.300000000000000E-002   -0.534548512907112     
 -1.290000000000000E-002   -0.548807751816531     
 -1.280000000000000E-002   -0.563289720359874     
 -1.270000000000000E-002   -0.577992140655748     
 -1.260000000000000E-002   -0.592912488732662     
 -1.250000000000000E-002   -0.608048002952231     
 -1.240000000000000E-002   -0.623395678152227     
 -1.230000000000000E-002   -0.638952121723945     
 -1.220000000000000E-002   -0.654713761066276     
 -1.210000000000000E-002   -0.670676715283565     
 -1.200000000000000E-002   -0.686836832465597     
 -1.190000000000000E-002   -0.703189619066266     
 -1.180000000000000E-002   -0.719730326542742     
 -1.170000000000000E-002   -0.736453820785601     
 -1.160000000000000E-002   -0.753354781410491     
 -1.150000000000000E-002   -0.770427483640445     
 -1.140000000000000E-002   -0.787665903004831     
 -1.130000000000000E-002   -0.805063743719356     
 -1.120000000000000E-002   -0.822614334852683     
 -1.110000000000000E-002   -0.840310737219532     
 -1.100000000000000E-002   -0.858145633940734     
 -1.090000000000000E-002   -0.876111421255643     
 -1.080000000000000E-002   -0.894200075173024     
 -1.070000000000000E-002   -0.912403414996924     
 -1.060000000000000E-002   -0.930712813769930     
 -1.050000000000000E-002   -0.949119290978579     
 -1.040000000000000E-002   -0.967613669715742     
 -1.030000000000000E-002   -0.986186180107471     
 -1.020000000000000E-002    -1.00482700164784     
 -1.010000000000000E-002    -1.02352590476309     
 -1.000000000000000E-002    -1.04227234995210     
 -9.899999999999999E-003    -1.06105533631268     
 -9.800000000000000E-003    -1.07986358400340     
 -9.699999999999999E-003    -1.09868562622142     
 -9.599999999999999E-003    -1.11750957676335     
 -9.500000000000000E-003    -1.13632319214590     
 -9.399999999999999E-003    -1.15511410330909     
 -9.299999999999999E-003    -1.17386947765644     
 -9.200000000000000E-003    -1.19257620927155     
 -9.099999999999999E-003    -1.21122095365012     
 -8.999999999999999E-003    -1.22979002475042     
 -8.900000000000000E-003    -1.24826944815722     
 -8.799999999999999E-003    -1.26664509768599     
 -8.699999999999999E-003    -1.28490242027300     
 -8.600000000000000E-003    -1.30302673417042     
 -8.499999999999999E-003    -1.32100306554636     
 -8.399999999999999E-003    -1.33881613160277     
 -8.300000000000000E-003    -1.35645049816803     
 -8.199999999999999E-003    -1.37389049381531     
 -8.100000000000000E-003    -1.39112019247760     
 -8.000000000000000E-003    -1.40812370921290     
 -7.899999999999999E-003    -1.42488459871859     
 -7.800000000000000E-003    -1.44138652155091     
 -7.699999999999999E-003    -1.45761284206223     
 -7.599999999999999E-003    -1.47354689209663     
 -7.499999999999999E-003    -1.48917171996367     
 -7.399999999999999E-003    -1.50447040890737     
 -7.299999999999999E-003    -1.51942574891398     
 -7.199999999999999E-003    -1.53402075693582     
 -7.100000000000000E-003    -1.54823795049183     
 -6.999999999999999E-003    -1.56206018410823     
 -6.899999999999999E-003    -1.57546994335583     
 -6.800000000000000E-003    -1.58844987671326     
 -6.699999999999999E-003    -1.60098265002344     
 -6.599999999999999E-003    -1.61305082856487     
 -6.499999999999999E-003    -1.62463706227604     
 -6.399999999999999E-003    -1.63572397959671     
 -6.299999999999999E-003    -1.64629435005495     
 -6.199999999999999E-003    -1.65633090217345     
 -6.100000000000000E-003    -1.66581663319025     
 -5.999999999999999E-003    -1.67473448650254     
 -5.899999999999999E-003    -1.68306759758699     
 -5.800000000000000E-003    -1.69079927048506     
 -5.699999999999999E-003    -1.69791297991996     
 -5.599999999999999E-003    -1.70439242658801     
 -5.499999999999999E-003    -1.71022147694645     
 -5.399999999999999E-003    -1.71538428364532     
 -5.299999999999999E-003    -1.71986503365183     
 -5.199999999999999E-003    -1.72364846799437     
 -5.099999999999999E-003    -1.72671954044292     
 -4.999999999999999E-003    -1.72906341627362     
 -4.899999999999999E-003    -1.73066571209316     
 -4.799999999999999E-003    -1.73151235951379     
 -4.699999999999999E-003    -1.73158950810414     
 -4.599999999999999E-003    -1.73088393990865     
 -4.499999999999999E-003    -1.72938264596583     
 -4.399999999999999E-003    -1.72707321809635     
 -4.299999999999999E-003    -1.72394357005249     
 -4.199999999999999E-003    -1.71998210617338     
 -4.099999999999999E-003    -1.71517775583340     
 -3.999999999999999E-003    -1.70951990270416     
 -3.899999999999999E-003    -1.70299849049052     
 -3.799999999999999E-003    -1.69560392065640     
 -3.699999999999999E-003    -1.68732728368772     
 -3.599999999999999E-003    -1.67816009679122     
 -3.499999999999999E-003    -1.66809463609034     
 -3.399999999999999E-003    -1.65712368525813     
 -3.299999999999999E-003    -1.64524055756117     
 -3.199999999999999E-003    -1.63243939296950     
 -3.099999999999999E-003    -1.61871488380205     
 -2.999999999999999E-003    -1.60406237451419     
 -2.899999999999999E-003    -1.58847793251894     
 -2.799999999999999E-003    -1.57195824226125     
 -2.699999999999999E-003    -1.55450076412560     
 -2.599999999999999E-003    -1.53610362477647     
 -2.499999999999999E-003    -1.51676573808562     
 -2.399999999999999E-003    -1.49648668938687     
 -2.299999999999999E-003    -1.47526681988699     
 -2.199999999999999E-003    -1.45310721193269     
 -2.099999999999999E-003    -1.43000966842686     
 -1.999999999999999E-003    -1.40597697393522     
 -1.899999999999999E-003    -1.38101237259372     
 -1.799999999999999E-003    -1.35512013132480     
 -1.699999999999999E-003    -1.32830527995886     
 -1.599999999999999E-003    -1.30057344376217     
 -1.499999999999999E-003    -1.27193122483561     
 -1.399999999999999E-003    -1.24238600164405     
 -1.299999999999999E-003    -1.21194588113005     
 -1.199999999999999E-003    -1.18061979048071     
 -1.099999999999999E-003    -1.14841742397549     
 -9.999999999999989E-004    -1.11534938275570     
 -8.999999999999990E-004    -1.08142693134956     
 -7.999999999999990E-004    -1.04666213884302     
 -6.999999999999989E-004    -1.01106791322995     
 -5.999999999999990E-004   -0.974657895365827     
 -4.999999999999989E-004   -0.937446431106977     
 -3.999999999999989E-004   -0.899448763448484     
 -2.999999999999989E-004   -0.860680815973438     
 -1.999999999999989E-004   -0.821159357533397     
 -9.999999999999892E-005   -0.780901683837328     
  1.084202172485504E-018   -0.739925993066817     
  1.000000000000011E-004   -0.698251172307770     
  2.000000000000011E-004   -0.655896656686899     
  3.000000000000011E-004   -0.612882794246389     
  4.000000000000011E-004   -0.569230476948871     
  5.000000000000011E-004   -0.524961279664039     
  6.000000000000011E-004   -0.480097485325123     
  7.000000000000011E-004   -0.434661857322042     
  8.000000000000011E-004   -0.388677809768861     
  9.000000000000012E-004   -0.342169527620449     
  1.000000000000001E-003   -0.295161437881733     
  1.100000000000001E-003   -0.247678715849735     
  1.200000000000001E-003   -0.199747011984605     
  1.300000000000001E-003   -0.151392542895625     
  1.400000000000001E-003   -0.102641930816939     
  1.500000000000001E-003   -5.352238391664163E-002
  1.600000000000001E-003   -4.061433414929150E-003
  1.700000000000001E-003    4.571301497430159E-002
  1.800000000000001E-003    9.577262935602129E-002
  1.900000000000001E-003    0.146088599760915     
  2.000000000000001E-003    0.196631911792704     
  2.100000000000001E-003    0.247373221749883     
  2.200000000000001E-003    0.298282831408833     
  2.300000000000001E-003    0.349330844979402     
  2.400000000000001E-003    0.400487191493418     
  2.500000000000001E-003    0.451721513302413     
  2.600000000000001E-003    0.503003308927160     
  2.700000000000001E-003    0.554301876649960     
  2.800000000000001E-003    0.605586463235102     
  2.900000000000001E-003    0.656826231188803     
  3.000000000000001E-003    0.707990279513146     
  3.100000000000001E-003    0.759047703721243     
  3.200000000000001E-003    0.809967524481751     
  3.300000000000001E-003    0.860718855306534     
  3.400000000000001E-003    0.911270875863313     
  3.500000000000001E-003    0.961592908555526     
  3.600000000000001E-003     1.01165419470806     
  3.700000000000001E-003     1.06142429967503     
  3.800000000000001E-003     1.11087285081466     
  3.900000000000001E-003     1.15996993152382     
  4.000000000000001E-003     1.20868545756361     
  4.100000000000001E-003     1.25698997505390     
  4.200000000000001E-003     1.30485409732366     
  4.300000000000001E-003     1.35224888694052     
  4.400000000000001E-003     1.39914575431276     
  4.500000000000001E-003     1.44551635971585     
  4.600000000000002E-003     1.49133274338660     
  4.700000000000001E-003     1.53656764056376     
  4.800000000000001E-003     1.58119393209778     
  4.900000000000002E-003     1.62518525966571     
  5.000000000000001E-003     1.66851549300586     
  5.100000000000001E-003     1.71115922153175     
  5.200000000000001E-003     1.75309144336031     
  5.300000000000002E-003     1.79428781200205     
  5.400000000000001E-003     1.83472464298029     
  5.500000000000001E-003     1.87437862547230     
  5.600000000000002E-003     1.91322734507978     
  5.700000000000001E-003     1.95124886955381     
  5.800000000000001E-003     1.98842227572841     
  5.900000000000002E-003     2.02472683072954     
  6.000000000000001E-003     2.06014284952317     
  6.100000000000001E-003     2.09465116746802     
  6.200000000000002E-003     2.12823359934799     
  6.300000000000002E-003     2.16087245768034     
  6.400000000000001E-003     2.19255115796201     
  6.500000000000001E-003     2.22325348941437     
  6.600000000000002E-003     2.25296438242130     
  6.700000000000001E-003     2.28166940214092     
  6.800000000000001E-003     2.30935504944491     
  6.900000000000002E-003     2.33600855234871     
  7.000000000000001E-003     2.36161793954385     
  7.100000000000001E-003     2.38617220415965     
  7.200000000000002E-003     2.40966098024701     
  7.300000000000002E-003     2.43207509730709     
  7.400000000000001E-003     2.45340594974095     
  7.500000000000001E-003     2.47364600154094     
  7.600000000000002E-003     2.49278834163120     
  7.700000000000001E-003     2.51082708329597     
  7.800000000000001E-003     2.52775723003238     
  7.900000000000001E-003     2.54357458804319     
  8.000000000000002E-003     2.55827580867324     
  8.100000000000001E-003     2.57185838471388     
  8.200000000000001E-003     2.58432094739852     
  8.300000000000002E-003     2.59566254387815     
  8.400000000000001E-003     2.60588340990473     
  8.500000000000002E-003     2.61498446241306     
  8.600000000000002E-003     2.62296754561668     
  8.700000000000001E-003     2.62983503507813     
  8.800000000000002E-003     2.63559047844294     
  8.900000000000002E-003     2.64023830336920     
  9.000000000000001E-003     2.64378346492930     
  9.100000000000002E-003     2.64623179034426     
  9.200000000000002E-003     2.64758976747325     
  9.300000000000001E-003     2.64786494148673     
  9.400000000000002E-003     2.64706538629983     
  9.500000000000001E-003     2.64520005585803     
  9.600000000000001E-003     2.64227831097033     
  9.700000000000002E-003     2.63831070532357     
  9.800000000000001E-003     2.63330805723326     
  9.900000000000001E-003     2.62728217998302     
  1.000000000000000E-002     2.62024531043425     
  1.010000000000000E-002     2.61221047757366     
  1.020000000000000E-002     2.60319117264708     
  1.030000000000000E-002     2.59320164058107     
  1.040000000000000E-002     2.58225664199611     
  1.050000000000000E-002     2.57037150205132     
  1.060000000000000E-002     2.55756213987318     
  1.070000000000000E-002     2.54384487525427     
  1.080000000000000E-002     2.52923662095074     
  1.090000000000000E-002     2.51375485051800     
  1.100000000000000E-002     2.49741732421936     
  1.110000000000000E-002     2.48024229206396     
  1.120000000000000E-002     2.46224850368674     
  1.130000000000000E-002     2.44345497008257     
  1.140000000000000E-002     2.42388125361840     
  1.150000000000000E-002     2.40354716262405     
  1.160000000000000E-002     2.38247291784511     
  1.170000000000000E-002     2.36067883208629     
  1.180000000000000E-002     2.33818568274727     
  1.190000000000000E-002     2.31501441034208     
  1.200000000000000E-002     2.29118633527439     
  1.210000000000000E-002     2.26672279585997     
  1.220000000000000E-002     2.24164560088180     
  1.230000000000000E-002     2.21597646607237     
  1.240000000000000E-002     2.18973715781644     
  1.250000000000000E-002     2.16295000264223     
  1.260000000000000E-002     2.13563714772990     
  1.270000000000000E-002     2.10782078444551     
  1.280000000000000E-002     2.07952324514910     
  1.290000000000000E-002     2.05076705590060     
  1.300000000000000E-002     2.02157440405169     
  1.310000000000000E-002     1.99196774644642     
  1.320000000000000E-002     1.96196943504016     
  1.330000000000000E-002     1.93160190177955     
  1.340000000000000E-002     1.90088723618028     
  1.350000000000000E-002     1.86984786852062     
  1.360000000000000E-002     1.83850564632473     
  1.370000000000000E-002     1.80688274717293     
  1.380000000000000E-002     1.77500083815084     
  1.390000000000000E-002     1.74288167412432     
  1.400000000000000E-002     1.71054674869807     
  1.410000000000000E-002     1.67801735066771     
  1.420000000000000E-002     1.64531466717641     
  1.430000000000000E-002     1.61245960487578     
  1.440000000000000E-002     1.57947279749457     
  1.450000000000000E-002     1.54637470662743     
  1.460000000000000E-002     1.51318552808165     
  1.470000000000000E-002     1.47992515171467     
  1.480000000000000E-002     1.44661316853596     
  1.490000000000000E-002     1.41326883719977     
  1.500000000000000E-002     1.37991116055891     
  1.510000000000000E-002     1.34655883561306     
  1.520000000000000E-002     1.31323020524603     
  1.530000000000000E-002     1.27994318604881     
  1.540000000000000E-002     1.24671548418511     
  1.550000000000000E-002     1.21356438308892     
  1.560000000000000E-002     1.18050668765594     
  1.570000000000000E-002     1.14755896123838     
  1.580000000000000E-002     1.11473738545190     
  1.590000000000000E-002     1.08205767713081     
  1.600000000000000E-002     1.04953509734938     
  1.610000000000000E-002     1.01718467960870     
  1.620000000000000E-002    0.985020939489710     
  1.630000000000000E-002    0.953057948470774     
  1.640000000000000E-002    0.921309357979285     
  1.650000000000000E-002    0.889788446963774     
  1.660000000000000E-002    0.858508110448916     
  1.670000000000000E-002    0.827480689366572     
  1.680000000000000E-002    0.796718187817507     
  1.690000000000000E-002    0.766232126417719     
  1.700000000000000E-002    0.736033627611465     
  1.710000000000000E-002    0.706133444283513     
  1.720000000000000E-002    0.676541700666047     
  1.730000000000000E-002    0.647268280756148     
  1.740000000000000E-002    0.618322521755346     
  1.750000000000000E-002    0.589713393370196     
  1.760000000000000E-002    0.561449430538838     
  1.770000000000000E-002    0.533538722667570     
  1.780000000000000E-002    0.505988862745654     
  1.790000000000000E-002    0.478807109789964     
  1.800000000000000E-002    0.452000317686542     
  1.810000000000000E-002    0.425574866508564     
  1.820000000000000E-002    0.399536731037586     
  1.830000000000000E-002    0.373891511492950     
  1.840000000000000E-002    0.348644413754800     
  1.850000000000000E-002    0.323800200142208     
  1.860000000000000E-002    0.299363304801570     
  1.870000000000000E-002    0.275337656222345     