 -4.000000000000000E-002    0.000000000000000E+000
 -3.990000000000000E-002    0.000000000000000E+000
 -3.980000000000000E-002    0.000000000000000E+000
 -3.970000000000000E-002    0.000000000000000E+000
 -3.960000000000000E-002    0.000000000000000E+000
 -3.950000000000000E-002    0.000000000000000E+000
 -3.940000000000000E-002    3.167395078301957E-022
 -3.930000000000000E-002    3.751405410700863E-021
 -3.920000000000000E-002    2.373417180027967E-020
 -3.910000000000000E-002    1.063203086900387E-019
 -3.900000000000000E-002    3.773401816628413E-019
 -3.890000000000000E-002    1.126081293731653E-018
 -3.880000000000000E-002    2.929299519468372E-018
 -3.870000000000000E-002    6.799586575672574E-018
 -3.860000000000000E-002    1.430728879544050E-017
 -3.850000000000000E-002    2.757643440639610E-017
 -3.840000000000000E-002    4.900029978549477E-017
 -3.830000000000000E-002    8.047713367467191E-017
 -3.820000000000000E-002    1.219552208328886E-016
 -3.810000000000000E-002    1.691281528265144E-016
 -3.800000000000000E-002    2.102641740159159E-016
 -3.790000000000000E-002    2.224070924144726E-016
 -3.780000000000000E-002    1.675489545649028E-016
 -3.770000000000000E-002   -1.018513254672318E-017
 -3.760000000000000E-002   -3.848511448372977E-016
 -3.750000000000000E-002   -1.044661705136324E-015
 -3.740000000000000E-002   -2.081674068311713E-015
 -3.730000000000000E-002   -3.573516235171586E-015
 -3.720000000000000E-002   -5.556267219384313E-015
 -3.710000000000000E-002   -7.988991457412905E-015
 -3.700000000000000E-002   -1.071237922666292E-014
 -3.690000000000000E-002   -1.340632691535414E-014
 -3.680000000000000E-002   -1.555380258918736E-014
 -3.670000000000000E-002   -1.642057269150415E-014
 -3.660000000000000E-002   -1.506174292586888E-014
 -3.650000000000000E-002   -1.036610457406129E-014
 -3.640000000000000E-002   -1.147357362231348E-015
 -3.630000000000000E-002    1.371279974726087E-014
 -3.620000000000000E-002    3.507109300101321E-014
 -3.610000000000000E-002    6.328828917924082E-014
 -3.600000000000000E-002    9.797311409512965E-014
 -3.590000000000000E-002    1.377330055534768E-013
 -3.580000000000000E-002    1.799681371780324E-013
 -3.570000000000000E-002    2.207499838458268E-013
 -3.560000000000000E-002    2.548257211046910E-013
 -3.550000000000000E-002    2.757842200686715E-013
 -3.540000000000000E-002    2.764074061139496E-013
 -3.530000000000000E-002    2.492127228595125E-013
 -3.520000000000000E-002    1.871702327254256E-013
 -3.510000000000000E-002    8.455320070714298E-014
 -3.500000000000000E-002   -6.214314230136456E-014
 -3.490000000000000E-002   -2.532990322055910E-013
 -3.480000000000000E-002   -4.853804803776850E-013
 -3.470000000000000E-002   -7.503606654037744E-013
 -3.460000000000000E-002   -1.035440434018180E-012
 -3.450000000000000E-002   -1.323133996418349E-012
 -3.440000000000000E-002   -1.591754813410899E-012
 -3.430000000000000E-002   -1.816298966031690E-012
 -3.420000000000000E-002   -1.969686446421179E-012
 -3.410000000000000E-002   -2.024285405716343E-012
 -3.400000000000000E-002   -1.953624346042543E-012
 -3.390000000000000E-002   -1.734186486652593E-012
 -3.380000000000000E-002   -1.347189511245170E-012
 -3.370000000000000E-002   -7.802733257379626E-013
 -3.360000000000000E-002   -2.905231377225198E-014
 -3.350000000000000E-002    9.014796964297359E-013
 -3.340000000000000E-002    1.995677601832020E-012
 -3.330000000000000E-002    3.226081668714213E-012
 -3.320000000000000E-002    4.552355491107191E-012
 -3.310000000000000E-002    5.920364904619913E-012
 -3.300000000000000E-002    7.261507478117645E-012
 -3.290000000000000E-002    8.492500221002132E-012
 -3.280000000000000E-002    9.515928950150639E-012
 -3.270000000000000E-002    1.022195027098492E-011
 -3.260000000000000E-002    1.049157151098234E-011
 -3.250000000000000E-002    1.020192312321351E-011
 -3.240000000000000E-002    9.233823520064992E-012
 -3.230000000000000E-002    7.481735621069988E-012
 -3.220000000000000E-002    4.865928637027295E-012
 -3.210000000000000E-002    1.346278988121349E-012
 -3.200000000000000E-002   -3.063263087991604E-012
 -3.190000000000000E-002   -8.280898735975841E-012
 -3.180000000000000E-002   -1.414561013362630E-011
 -3.170000000000000E-002   -2.041006333542977E-011
 -3.160000000000000E-002   -2.673968068804699E-011
 -3.150000000000000E-002   -3.271952390771036E-011
 -3.140000000000000E-002   -3.787012287349928E-011
 -3.130000000000000E-002   -4.167265149133418E-011
 -3.120000000000000E-002   -4.360290167249825E-011
 -3.110000000000000E-002   -4.317243847612403E-011
 -3.100000000000000E-002   -3.997427525907582E-011
 -3.090000000000000E-002   -3.372943246092765E-011
 -3.080000000000000E-002   -2.433012331926952E-011
 -3.070000000000000E-002   -1.187497633567865E-011
 -3.060000000000000E-002    3.308111809459915E-012
 -3.050000000000000E-002    2.065517771488653E-011
 -3.040000000000000E-002    3.937797394970013E-011
 -3.030000000000000E-002    5.849527551916572E-011
 -3.020000000000000E-002    7.688278315784786E-011
 -3.010000000000000E-002    9.333879960753602E-011
 -3.000000000000000E-002    1.066610945549408E-010
 -2.990000000000000E-002    1.157289763699568E-010
 -2.980000000000000E-002    1.195838370587508E-010
 -2.970000000000000E-002    1.175012371656330E-010
 -2.960000000000000E-002    1.090483324313878E-010
 -2.950000000000000E-002    9.412185229073900E-011
 -2.940000000000000E-002    7.296362761270874E-011
 -2.930000000000000E-002    4.615323547143987E-011
 -2.920000000000000E-002    1.457938427124934E-011
 -2.910000000000000E-002   -2.060595004575872E-011
 -2.900000000000000E-002   -5.804519520872333E-011
 -2.890000000000000E-002   -9.623842993705289E-011
 -2.880000000000000E-002   -1.336060351326703E-010
 -2.870000000000000E-002   -1.685457304879661E-010
 -2.860000000000000E-002   -1.994807141057565E-010
 -2.850000000000000E-002   -2.248980428429256E-010
 -2.840000000000000E-002   -2.433789538323862E-010
 -2.830000000000000E-002   -2.536249723594530E-010
 -2.820000000000000E-002   -2.544852927766196E-010
 -2.810000000000000E-002   -2.449914504014169E-010
 -2.800000000000000E-002   -2.244044868524052E-010
 -2.790000000000000E-002   -1.922776987604769E-010
 -2.780000000000000E-002   -1.485350527062858E-010
 -2.770000000000000E-002   -9.356101015589152E-011
 -2.760000000000000E-002   -2.829355415243932E-011
 -2.750000000000000E-002    4.569195448441983E-011
 -2.740000000000000E-002    1.261230230110239E-010
 -2.730000000000000E-002    2.100106049123740E-010
 -2.720000000000000E-002    2.936851285192424E-010
 -2.710000000000000E-002    3.728995757830800E-010
 -2.700000000000000E-002    4.430058507929747E-010
 -2.690000000000000E-002    4.992028818666820E-010
 -2.680000000000000E-002    5.368463265658530E-010
 -2.670000000000000E-002    5.518011147211949E-010
 -2.660000000000000E-002    5.408100765806208E-010
 -2.650000000000000E-002    5.018460210125551E-010
 -2.640000000000000E-002    4.344119987503950E-010
 -2.630000000000000E-002    3.397550227624313E-010
 -2.620000000000000E-002    2.209635665488475E-010
 -2.610000000000000E-002    8.292741146408201E-011
 -2.600000000000000E-002   -6.784993556988537E-011
 -2.590000000000000E-002   -2.235822451520445E-010
 -2.580000000000000E-002   -3.756568486595585E-010
 -2.570000000000000E-002   -5.151849322493681E-010
 -2.560000000000000E-002   -6.336037704230068E-010
 -2.550000000000000E-002   -7.232816727290653E-010
 -2.540000000000000E-002   -7.780747633428807E-010
 -2.530000000000000E-002   -7.937874536931091E-010
 -2.520000000000000E-002   -7.684970664147289E-010
 -2.510000000000000E-002   -7.027145745479224E-010
 -2.500000000000000E-002   -5.993699037773590E-010
 -2.490000000000000E-002   -4.636253553364683E-010
 -2.480000000000000E-002   -3.025377514075242E-010
 -2.470000000000000E-002   -1.246018797683717E-010
 -2.460000000000000E-002    6.078177460782844E-011
 -2.450000000000000E-002    2.438684266859055E-010
 -2.440000000000000E-002    4.151141470419841E-010
 -2.430000000000000E-002    5.656651123592433E-010
 -2.420000000000000E-002    6.877623445958372E-010
 -2.410000000000000E-002    7.750457223248204E-010
 -2.400000000000000E-002    8.227549715871536E-010
 -2.390000000000000E-002    8.278381264157731E-010
 -2.380000000000000E-002    7.889860834067306E-010
 -2.370000000000000E-002    7.066183480766195E-010
 -2.360000000000000E-002    5.828442237793921E-010
 -2.350000000000000E-002    4.214188956056457E-010
 -2.340000000000000E-002    2.277053217378389E-010
 -2.330000000000000E-002    8.639356559056530E-012
 -2.320000000000000E-002   -2.273142368195863E-010
 -2.310000000000000E-002   -4.702402514461190E-010
 -2.300000000000000E-002   -7.089178704893433E-010
 -2.290000000000000E-002   -9.310651981303640E-010
 -2.280000000000000E-002   -1.123712832659103E-009
 -2.270000000000000E-002   -1.273724692831023E-009
 -2.260000000000000E-002   -1.368468526580554E-009
 -2.250000000000000E-002   -1.396618062399692E-009
 -2.240000000000000E-002   -1.349044501176983E-009
 -2.230000000000000E-002   -1.219739323861283E-009
 -2.220000000000000E-002   -1.006690151765459E-009
 -2.210000000000000E-002   -7.126219949607508E-010
 -2.200000000000000E-002   -3.455186366495889E-010
 -2.190000000000000E-002    8.115594274672055E-011
 -2.180000000000000E-002    5.485955689909541E-010
 -2.170000000000000E-002    1.033183007807901E-009
 -2.160000000000000E-002    1.507416728482043E-009
 -2.150000000000000E-002    1.941197879438951E-009
 -2.140000000000000E-002    2.303412241848080E-009
 -2.130000000000000E-002    2.563708409517460E-009
 -2.120000000000000E-002    2.694355997178440E-009
 -2.110000000000000E-002    2.672050655881713E-009
 -2.100000000000000E-002    2.479538742151486E-009
 -2.090000000000000E-002    2.106940688244952E-009
 -2.080000000000000E-002    1.552677365373986E-009
 -2.070000000000000E-002    8.239283463126219E-010
 -2.060000000000000E-002   -6.340492768997039E-011
 -2.050000000000000E-002   -1.085232866973504E-009
 -2.040000000000000E-002   -2.210265740276354E-009
 -2.030000000000000E-002   -3.401388277400531E-009
 -2.020000000000000E-002   -4.617326230496327E-009
 -2.010000000000000E-002   -5.814499222292314E-009
 -2.000000000000000E-002   -6.948942369581535E-009
 -1.990000000000000E-002   -7.978181744396658E-009
 -1.980000000000000E-002   -8.862957986033283E-009
 -1.970000000000000E-002   -9.568692853036334E-009
 -1.960000000000000E-002   -1.006662018173332E-008
 -1.950000000000000E-002   -1.033450391921245E-008
 -1.940000000000000E-002   -1.035687992371055E-008
 -1.930000000000000E-002   -1.012477114690747E-008
 -1.920000000000000E-002   -9.634831426316074E-009
 -1.910000000000000E-002   -8.887881501721178E-009
 -1.900000000000000E-002   -7.886815547361363E-009
 -1.890000000000000E-002   -6.633868254771233E-009
 -1.880000000000000E-002   -5.127247992576596E-009
 -1.870000000000000E-002   -3.357184883449738E-009
 -1.860000000000000E-002   -1.301454809157515E-009
 -1.850000000000000E-002    1.079497125452487E-009
 -1.840000000000000E-002    3.847684868743157E-009
 -1.830000000000000E-002    7.092752031563344E-009
 -1.820000000000000E-002    1.093694086121657E-008
 -1.810000000000000E-002    1.553959688586705E-008
 -1.800000000000000E-002    2.110089148828823E-008
 -1.790000000000000E-002    2.786448910744273E-008
 -1.780000000000000E-002    3.611888203454323E-008
 -1.770000000000000E-002    4.619713922747496E-008
 -1.760000000000000E-002    5.847492167686932E-008
 -1.750000000000000E-002    7.336668937728845E-008
 -1.740000000000000E-002    9.132006075791167E-008
 -1.730000000000000E-002    1.128085150617266E-007
 -1.720000000000000E-002    1.383226328417031E-007
 -1.710000000000000E-002    1.683601873396198E-007
 -1.700000000000000E-002    2.034154544050040E-007
 -1.690000000000000E-002    2.439684144534867E-007
 -1.680000000000000E-002    2.904741293720656E-007
 -1.670000000000000E-002    3.433530034610882E-007
 -1.660000000000000E-002    4.029822487818926E-007
 -1.650000000000000E-002    4.696891906574122E-007
 -1.640000000000000E-002    5.437468395962913E-007
 -1.630000000000000E-002    6.253716047321068E-007
 -1.620000000000000E-002    7.147238845531921E-007
 -1.610000000000000E-002    8.119111470990756E-007
 -1.600000000000000E-002    9.169934357479683E-007
 -1.590000000000000E-002    1.029991273417374E-006
 -1.580000000000000E-002    1.150895757842359E-006
 -1.570000000000000E-002    1.279679927618093E-006
 -1.560000000000000E-002    1.416311606072769E-006
 -1.550000000000000E-002    1.560766809312103E-006
 -1.540000000000000E-002    1.713042988835105E-006
 -1.530000000000000E-002    1.873172654027260E-006
 -1.520000000000000E-002    2.041235664005351E-006
 -1.510000000000000E-002    2.217371066317656E-006
 -1.500000000000000E-002    2.401786757022420E-006
 -1.490000000000000E-002    2.594768017886167E-006
 -1.480000000000000E-002    2.796685062414074E-006
 -1.470000000000000E-002    3.007997580847564E-006
 -1.460000000000000E-002    3.229258911934116E-006
 -1.450000000000000E-002    3.461118116710806E-006
 -1.440000000000000E-002    3.704321157684150E-006
 -1.430000000000000E-002    3.959710474160994E-006
 -1.420000000000000E-002    4.228225153435757E-006
 -1.410000000000000E-002    4.510898151295773E-006
 -1.400000000000000E-002    4.808855901312439E-006
 -1.390000000000000E-002    5.123314877364794E-006
 -1.380000000000000E-002    5.455579102098462E-006
 -1.370000000000000E-002    5.807038860316377E-006
 -1.360000000000000E-002    6.179165234136279E-006
 -1.350000000000000E-002    6.573508329790432E-006
 -1.340000000000000E-002    6.991691248151853E-006
 -1.330000000000000E-002    7.435406605341093E-006
 -1.320000000000000E-002    7.906409698988011E-006
 -1.310000000000000E-002    8.406514119678046E-006
 -1.300000000000000E-002    8.937582156325338E-006
 -1.290000000000000E-002    9.501519563121048E-006
 -1.280000000000000E-002    1.010026767757422E-005
 -1.270000000000000E-002    1.073579781444875E-005
 -1.260000000000000E-002    1.141010490069548E-005
 -1.250000000000000E-002    1.212520434994762E-005
 -1.240000000000000E-002    1.288313047653943E-005
 -1.230000000000000E-002    1.368593618586750E-005
 -1.220000000000000E-002    1.453570278079966E-005
 -1.210000000000000E-002    1.543454084427488E-005
 -1.200000000000000E-002    1.638461224211759E-005
 -1.190000000000000E-002    1.738813779986535E-005
 -1.180000000000000E-002    1.844742280540337E-005
 -1.170000000000000E-002    1.956487432477921E-005
 -1.160000000000000E-002    2.074303041940329E-005
 -1.150000000000000E-002    2.198458340984051E-005
 -1.140000000000000E-002    2.329240684203472E-005
 -1.130000000000000E-002    2.466957856599411E-005
 -1.120000000000000E-002    2.611940821929219E-005
 -1.110000000000000E-002    2.764544700522163E-005
 -1.100000000000000E-002    2.925151752260154E-005
 -1.090000000000000E-002    3.094171214744715E-005
 -1.080000000000000E-002    3.272040704960168E-005
 -1.070000000000000E-002    3.459226034168089E-005
 -1.060000000000000E-002    3.656221653122505E-005
 -1.050000000000000E-002    3.863548734949484E-005
 -1.040000000000000E-002    4.081755457616830E-005
 -1.030000000000000E-002    4.311415532761374E-005
 -1.020000000000000E-002    4.553126431244118E-005
 -1.010000000000000E-002    4.807508534700551E-005
 -1.000000000000000E-002    5.075204059768787E-005
 -9.899999999999999E-003    5.356876176403512E-005
 -9.800000000000000E-003    5.653209194480666E-005
 -9.699999999999999E-003    5.964907085899724E-005
 -9.599999999999999E-003    6.292693940191013E-005
 -9.500000000000000E-003    6.637316658175899E-005
 -9.399999999999999E-003    6.999543949391744E-005
 -9.299999999999999E-003    7.380169523623189E-005
 -9.200000000000000E-003    7.780014301540718E-005
 -9.099999999999999E-003    8.199927880223581E-005
 -8.999999999999999E-003    8.640792141882985E-005
 -8.900000000000000E-003    9.103523684545034E-005
 -8.799999999999999E-003    9.589077076890616E-005
 -8.699999999999999E-003    1.009844826952684E-004
 -8.600000000000000E-003    1.063267588454229E-004
 -8.499999999999999E-003    1.119284583235979E-004
 -8.399999999999999E-003    1.178009289364389E-004
 -8.300000000000000E-003    1.239560074298667E-004
 -8.199999999999999E-003    1.304060579755723E-004
 -8.100000000000000E-003    1.371639696860258E-004
 -8.000000000000000E-003    1.442431852899380E-004
 -7.899999999999999E-003    1.516576756114341E-004
 -7.800000000000000E-003    1.594219676305365E-004
 -7.699999999999999E-003    1.675511251032064E-004
 -7.599999999999999E-003    1.760607435936093E-004
 -7.499999999999999E-003    1.849669761373421E-004
 -7.399999999999999E-003    1.942864989147697E-004
 -7.299999999999999E-003    2.040365374944818E-004
 -7.199999999999999E-003    2.142348657515116E-004
 -7.100000000000000E-003    2.248998027454442E-004
 -6.999999999999999E-003    2.360502156682601E-004
 -6.899999999999999E-003    2.477055861495624E-004
 -6.800000000000000E-003    2.598859429026448E-004
 -6.699999999999999E-003    2.726119844489923E-004
 -6.599999999999999E-003    2.859050230451078E-004
 -6.499999999999999E-003    2.997870244488582E-004
 -6.399999999999999E-003    3.142806840172546E-004
 -6.299999999999999E-003    3.294093958879868E-004
 -6.199999999999999E-003    3.451973166830438E-004
 -6.100000000000000E-003    3.616693579087983E-004
 -5.999999999999999E-003    3.788512504043488E-004
 -5.899999999999999E-003    3.967695211692764E-004
 -5.800000000000000E-003    4.154515291547495E-004
 -5.699999999999999E-003    4.349255094909855E-004
 -5.599999999999999E-003    4.552205129262126E-004
 -5.499999999999999E-003    4.763665093706953E-004
 -5.399999999999999E-003    4.983943721213010E-004
 -5.299999999999999E-003    5.213358398576115E-004
 -5.199999999999999E-003    5.452235899464639E-004
 -5.099999999999999E-003    5.700912452575812E-004
 -4.999999999999999E-003    5.959733897964148E-004
 -4.899999999999999E-003    6.229055894547588E-004
 -4.799999999999999E-003    6.509243507079036E-004
 -4.699999999999999E-003    6.800671886061253E-004
 -4.599999999999999E-003    7.103726790926318E-004
 -4.499999999999999E-003    7.418803108876460E-004
 -4.399999999999999E-003    7.746307107122542E-004
 -4.299999999999999E-003    8.086654470490439E-004
 -4.199999999999999E-003    8.440272190459745E-004
 -4.099999999999999E-003    8.807596417142482E-004
 -3.999999999999999E-003    9.189075251695390E-004
 -3.899999999999999E-003    9.585166104395523E-004
 -3.799999999999999E-003    9.996336874085764E-004
 -3.699999999999999E-003    1.042306449582168E-003
 -3.599999999999999E-003    1.086583804047295E-003
 -3.499999999999999E-003    1.132515551509931E-003
 -3.399999999999999E-003    1.180152468885278E-003
 -3.299999999999999E-003    1.229546427107701E-003
 -3.199999999999999E-003    1.280750152515565E-003
 -3.099999999999999E-003    1.333817366823168E-003
 -2.999999999999999E-003    1.388802896811338E-003
 -2.899999999999999E-003    1.445762318516795E-003
 -2.799999999999999E-003    1.504752356878329E-003
 -2.699999999999999E-003    1.565830561979115E-003
 -2.599999999999999E-003    1.629055484887469E-003
 -2.499999999999999E-003    1.694486640365971E-003
 -2.399999999999999E-003    1.762184443190109E-003
 -2.299999999999999E-003    1.832210231518837E-003
 -2.199999999999999E-003    1.904626243171128E-003
 -2.099999999999999E-003    1.979495807981830E-003
 -1.999999999999999E-003    2.056882965445465E-003
 -1.899999999999999E-003    2.136852711065408E-003
 -1.799999999999999E-003    2.219470807051174E-003
 -1.699999999999999E-003    2.304804172767009E-003
 -1.599999999999999E-003    2.392920380197831E-003
 -1.499999999999999E-003    2.483888035929834E-003
 -1.399999999999999E-003    2.577776356103260E-003
 -1.299999999999999E-003    2.674655723320356E-003
 -1.199999999999999E-003    2.774596956788404E-003
 -1.099999999999999E-003    2.877671648898481E-003
 -9.999999999999989E-004    2.983952206358270E-003
 -8.999999999999990E-004    3.093511785104652E-003
 -7.999999999999990E-004    3.206423698007155E-003
 -6.999999999999989E-004    3.322761934142544E-003
 -5.999999999999990E-004    3.442600878762986E-003
 -4.999999999999989E-004    3.566015194435998E-003
 -3.999999999999989E-004    3.693079688410039E-003
 -2.999999999999989E-004    3.823869280238345E-003
 -1.999999999999989E-004    3.958458719734568E-003
 -9.999999999999892E-005    4.096923044726761E-003
  1.084202172485504E-018    4.239337038105835E-003
  1.000000000000011E-004    4.385774876961383E-003
  2.000000000000011E-004    4.536310418716334E-003
  3.000000000000011E-004    4.691017225857909E-003
  4.000000000000011E-004    4.849968242208628E-003
  5.000000000000011E-004    5.013235127229428E-003
  6.000000000000011E-004    5.180889851748641E-003
  7.000000000000011E-004    5.353003042429296E-003
  8.000000000000011E-004    5.529644269956981E-003
  9.000000000000012E-004    5.710882446703218E-003
  1.000000000000001E-003    5.896785321955664E-003
  1.100000000000001E-003    6.087418901520377E-003
  1.200000000000001E-003    6.282848902914836E-003
  1.300000000000001E-003    6.483138962665674E-003
  1.400000000000001E-003    6.688351690488719E-003
  1.500000000000001E-003    6.898548080739262E-003
  1.600000000000001E-003    7.113787170567008E-003
  1.700000000000001E-003    7.334127156576050E-003
  1.800000000000001E-003    7.559623035533673E-003
  1.900000000000001E-003    7.790329131415267E-003
  2.000000000000001E-003    8.026296611943443E-003
  2.100000000000001E-003    8.267575234409661E-003
  2.200000000000001E-003    8.514212733889175E-003
  2.300000000000001E-003    8.766253004087982E-003
  2.400000000000001E-003    9.023737054251869E-003
  2.500000000000001E-003    9.286704656503423E-003
  2.600000000000001E-003    9.555190804406713E-003
  2.700000000000001E-003    9.829228589137949E-003
  2.800000000000001E-003    1.010884659712047E-002
  2.900000000000001E-003    1.039406987352955E-002
  3.000000000000001E-003    1.068491980469253E-002
  3.100000000000001E-003    1.098141253846362E-002
  3.200000000000001E-003    1.128356156237862E-002
  3.300000000000001E-003    1.159137562308139E-002
  3.400000000000001E-003    1.190485756370220E-002
  3.500000000000001E-003    1.222400722640614E-002
  3.600000000000001E-003    1.254881765731253E-002
  3.700000000000001E-003    1.287927808775724E-002
  3.800000000000001E-003    1.321537148441479E-002
  3.900000000000001E-003    1.355707599976165E-002
  4.000000000000001E-003    1.390436410205795E-002
  4.100000000000001E-003    1.425720239283208E-002
  4.200000000000001E-003    1.461555235705160E-002
  4.300000000000001E-003    1.497936835377276E-002
  4.400000000000001E-003    1.534859951390593E-002
  4.500000000000001E-003    1.572318811449668E-002
  4.600000000000002E-003    1.610307139545159E-002
  4.700000000000001E-003    1.648817810094554E-002
  4.800000000000001E-003    1.687843136336251E-002
  4.900000000000002E-003    1.727374589904615E-002
  5.000000000000001E-003    1.767403070189016E-002
  5.100000000000001E-003    1.807918665620875E-002
  5.200000000000001E-003    1.848910854553459E-002
  5.300000000000002E-003    1.890368235358605E-002
  5.400000000000001E-003    1.932278580470465E-002
  5.500000000000001E-003    1.974629128471476E-002
  5.600000000000002E-003    2.017405925632372E-002
  5.700000000000001E-003    2.060594515788511E-002
  5.800000000000001E-003    2.104179417476856E-002
  5.900000000000002E-003    2.148144531011176E-002
  6.000000000000001E-003    2.192472638753593E-002
  6.100000000000001E-003    2.237145689546946E-002
  6.200000000000002E-003    2.282144729059688E-002
  6.300000000000002E-003    2.327450192436529E-002
  6.400000000000001E-003    2.373041524292938E-002
  6.500000000000001E-003    2.418897062547224E-002
  6.600000000000002E-003    2.464994339585727E-002
  6.700000000000001E-003    2.511310020268276E-002
  6.800000000000001E-003    2.557819835150899E-002
  6.900000000000002E-003    2.604498559094370E-002
  7.000000000000001E-003    2.651320222533341E-002
  7.100000000000001E-003    2.698257533520914E-002
  7.200000000000002E-003    2.745282712243888E-002
  7.300000000000002E-003    2.792366898448543E-002
  7.400000000000001E-003    2.839480217359082E-002
  7.500000000000001E-003    2.886591963504686E-002
  7.600000000000002E-003    2.933670638872303E-002
  7.700000000000001E-003    2.980683623063043E-002
  7.800000000000001E-003    3.027597727575108E-002
  7.900000000000001E-003    3.074378220368096E-002
  8.000000000000002E-003    3.120990369574745E-002
  8.100000000000001E-003    3.167397857061323E-002
  8.200000000000001E-003    3.213563575728292E-002
  8.300000000000002E-003    3.259449887603702E-002
  8.400000000000001E-003    3.305018075243087E-002
  8.500000000000002E-003    3.350228389413176E-002
  8.600000000000002E-003    3.395040700425248E-002
  8.700000000000001E-003    3.439413985576055E-002
  8.800000000000002E-003    3.483306260340845E-002
  8.900000000000002E-003    3.526674870060437E-002
  9.000000000000001E-003    3.569476396178807E-002
  9.100000000000002E-003    3.611666495356088E-002
  9.200000000000002E-003    3.653200543614621E-002
  9.300000000000001E-003    3.694032783423257E-002
  9.400000000000002E-003    3.734117423104188E-002
  9.500000000000001E-003    3.773407644509846E-002
  9.600000000000001E-003    3.811856072679384E-002
  9.700000000000002E-003    3.849414809405151E-002
  9.800000000000001E-003    3.886035751068585E-002
  9.900000000000001E-003    3.921669929980761E-002
  1.000000000000000E-002    3.956267939960170E-002
  1.010000000000000E-002    3.989780470043854E-002
  1.020000000000000E-002    4.022157142187253E-002
  1.030000000000000E-002    4.053348061151701E-002
  1.040000000000000E-002    4.083302573113174E-002
  1.050000000000000E-002    4.111969880970541E-002
  1.060000000000000E-002    4.139299041671277E-002
  1.070000000000000E-002    4.165239346246406E-002
  1.080000000000000E-002    4.189739533975179E-002
  1.090000000000000E-002    4.212748345003048E-002
  1.100000000000000E-002    4.234214807851378E-002
  1.110000000000000E-002    4.254087832587250E-002
  1.120000000000000E-002    4.272316419042232E-002
  1.130000000000000E-002    4.288849487726569E-002
  1.140000000000000E-002    4.303637103557883E-002
  1.150000000000000E-002    4.316628308912050E-002
  1.160000000000000E-002    4.327773534365790E-002
  1.170000000000000E-002    4.337023290987791E-002
  1.180000000000000E-002    4.344328215609125E-002
  1.190000000000000E-002    4.349639758230445E-002
  1.200000000000000E-002    4.352909941162680E-002
  1.210000000000000E-002    4.354091235150206E-002
  1.220000000000000E-002    4.353136789581006E-002
  1.230000000000000E-002    4.350000682535766E-002
  1.240000000000000E-002    4.344637744453773E-002
  1.250000000000000E-002    4.337003324319845E-002
  1.260000000000000E-002    4.327054169488102E-002
  1.270000000000000E-002    4.314747629185244E-002
  1.280000000000000E-002    4.300042349464805E-002
  1.290000000000000E-002    4.282898004342899E-002
  1.300000000000000E-002    4.263275184700532E-002
  1.310000000000000E-002    4.241136293933628E-002
  1.320000000000000E-002    4.216444503239586E-002
  1.330000000000000E-002    4.189164718065396E-002
  1.340000000000000E-002    4.159263234904578E-002
  1.350000000000000E-002    4.126707436900749E-002
  1.360000000000000E-002    4.091466616242283E-002
  1.370000000000000E-002    4.053511559954338E-002
  1.380000000000000E-002    4.012815085879357E-002
  1.390000000000000E-002    3.969351180079211E-002
  1.400000000000000E-002    3.923095753256377E-002
  1.410000000000000E-002    3.874026717036608E-002
  1.420000000000000E-002    3.822123661703979E-002
  1.430000000000000E-002    3.767367943548617E-002
  1.440000000000000E-002    3.709743690466753E-002
  1.450000000000000E-002    3.649235748455706E-002
  1.460000000000000E-002    3.585832091517924E-002
  1.470000000000000E-002    3.519522426661805E-002
  1.480000000000000E-002    3.450298806738197E-002
  1.490000000000000E-002    3.378154991529037E-002
  1.500000000000000E-002    3.303087252179221E-002
  1.510000000000000E-002    3.225094214596570E-002
  1.520000000000000E-002    3.144176682997279E-002
  1.530000000000000E-002    3.060337832758086E-002
  1.540000000000000E-002    2.973583118685566E-002
  1.550000000000000E-002    2.883920339267634E-002
  1.560000000000000E-002    2.791359933018042E-002
  1.570000000000000E-002    2.695914585071762E-002
  1.580000000000000E-002    2.597599629123481E-002
  1.590000000000000E-002    2.496432716551291E-002
  1.600000000000000E-002    2.392434015145058E-002
  1.610000000000000E-002    2.285626170217892E-002
  1.620000000000000E-002    2.176034462328617E-002
  1.630000000000000E-002    2.063686538129519E-002
  1.640000000000000E-002    1.948612599257377E-002
  1.650000000000000E-002    1.830845487212509E-002
  1.660000000000000E-002    1.710420390839081E-002
  1.670000000000000E-002    1.587375102994295E-002
  1.680000000000000E-002    1.461749920851901E-002
  1.690000000000000E-002    1.333587745038745E-002
  1.700000000000000E-002    1.202933764301025E-002
  1.710000000000000E-002    1.069835762919349E-002
  1.720000000000000E-002    9.343438585095764E-003
  1.730000000000000E-002    7.965107693014138E-003
  1.740000000000000E-002    6.563914215404318E-003
  1.750000000000000E-002    5.140431035415434E-003
  1.760000000000000E-002    3.695254607544263E-003
  1.770000000000000E-002    2.229003259801867E-003
  1.780000000000000E-002    7.423186165800956E-004
  1.790000000000000E-002   -7.641373088317304E-004
  1.800000000000000E-002   -2.289680633740943E-003
  1.810000000000000E-002   -3.833606644406569E-003
  1.820000000000000E-002   -5.395191655150597E-003
  1.830000000000000E-002   -6.973690727272135E-003
  1.840000000000000E-002   -8.568341353163759E-003
  1.850000000000000E-002   -1.017836188259454E-002
  1.860000000000000E-002   -1.180295454385432E-002
  1.870000000000000E-002   -1.344130237003434E-002