 -4.000000000000000E-002    0.000000000000000E+000
 -3.990000000000000E-002    0.000000000000000E+000
 -3.980000000000000E-002    0.000000000000000E+000
 -3.970000000000000E-002    0.000000000000000E+000
 -3.960000000000000E-002    0.000000000000000E+000
 -3.950000000000000E-002    0.000000000000000E+000
 -3.940000000000000E-002    0.000000000000000E+000
 -3.930000000000000E-002    0.000000000000000E+000
 -3.920000000000000E-002    0.000000000000000E+000
 -3.910000000000000E-002    0.000000000000000E+000
 -3.900000000000000E-002    0.000000000000000E+000
 -3.890000000000000E-002    0.000000000000000E+000
 -3.880000000000000E-002    0.000000000000000E+000
 -3.870000000000000E-002    0.000000000000000E+000
 -3.860000000000000E-002    0.000000000000000E+000
 -3.850000000000000E-002    0.000000000000000E+000
 -3.840000000000000E-002    0.000000000000000E+000
 -3.830000000000000E-002    0.000000000000000E+000
 -3.820000000000000E-002    0.000000000000000E+000
 -3.810000000000000E-002    0.000000000000000E+000
 -3.800000000000000E-002    0.000000000000000E+000
 -3.790000000000000E-002    0.000000000000000E+000
 -3.780000000000000E-002    0.000000000000000E+000
 -3.770000000000000E-002    0.000000000000000E+000
 -3.760000000000000E-002    0.000000000000000E+000
 -3.750000000000000E-002    0.000000000000000E+000
 -3.740000000000000E-002    0.000000000000000E+000
 -3.730000000000000E-002    0.000000000000000E+000
 -3.720000000000000E-002    0.000000000000000E+000
 -3.710000000000000E-002    0.000000000000000E+000
 -3.700000000000000E-002    0.000000000000000E+000
 -3.690000000000000E-002    0.000000000000000E+000
 -3.680000000000000E-002    0.000000000000000E+000
 -3.670000000000000E-002    0.000000000000000E+000
 -3.660000000000000E-002    0.000000000000000E+000
 -3.650000000000000E-002   -1.647783913663594E-047
 -3.640000000000000E-002    1.395571858428762E-046
 -3.630000000000000E-002    8.747113020913570E-046
 -3.620000000000000E-002    3.222778767244851E-045
 -3.610000000000000E-002    1.039961367456579E-044
 -3.600000000000000E-002    2.827498479893795E-044
 -3.590000000000000E-002    7.090385047391763E-044
 -3.580000000000000E-002    1.629580455755381E-043
 -3.570000000000000E-002    3.447141234660133E-043
 -3.560000000000000E-002    6.682071326419127E-043
 -3.550000000000000E-002    1.168007209800486E-042
 -3.540000000000000E-002    1.776267216228256E-042
 -3.530000000000000E-002    2.111242005604066E-042
 -3.520000000000000E-002    1.062559950842248E-042
 -3.510000000000000E-002   -3.940599358951647E-042
 -3.500000000000000E-002   -1.802929621697150E-041
 -3.490000000000000E-002   -5.022202552604732E-041
 -3.480000000000000E-002   -1.143846947564173E-040
 -3.470000000000000E-002   -2.283372799440468E-040
 -3.460000000000000E-002   -4.082276100134976E-040
 -3.450000000000000E-002   -6.534261102838197E-040
 -3.440000000000000E-002   -9.154143790149274E-040
 -3.430000000000000E-002   -1.043692729656427E-039
 -3.420000000000000E-002   -7.050855206764406E-040
 -3.410000000000000E-002    7.163992989526565E-040
 -3.400000000000000E-002    4.209194332392404E-039
 -3.390000000000000E-002    1.114464949183450E-038
 -3.380000000000000E-002    2.308517966587181E-038
 -3.370000000000000E-002    4.120555492614653E-038
 -3.360000000000000E-002    6.509937359361823E-038
 -3.350000000000000E-002    9.076439578015400E-038
 -3.340000000000000E-002    1.077183588843882E-037
 -3.330000000000000E-002    9.557861612388627E-038
 -3.320000000000000E-002    2.112050364705154E-038
 -3.310000000000000E-002   -1.621770303058366E-037
 -3.300000000000000E-002   -5.089186523399270E-037
 -3.290000000000000E-002   -1.066760940989270E-036
 -3.280000000000000E-002   -1.847345691681203E-036
 -3.270000000000000E-002   -2.780881199715589E-036
 -3.260000000000000E-002   -3.657159278527730E-036
 -3.250000000000000E-002   -4.065167218646940E-036
 -3.240000000000000E-002   -3.357195537094504E-036
 -3.230000000000000E-002   -6.795588410402580E-037
 -3.220000000000000E-002    4.874362802567565E-036
 -3.210000000000000E-002    1.393141349124747E-035
 -3.200000000000000E-002    2.629271924920341E-035
 -3.190000000000000E-002    4.020582663312033E-035
 -3.180000000000000E-002    5.160506187286128E-035
 -3.170000000000000E-002    5.364410185914556E-035
 -3.160000000000000E-002    3.705091924768721E-035
 -3.150000000000000E-002   -7.986832842767430E-036
 -3.140000000000000E-002   -8.765859740290474E-035
 -3.130000000000000E-002   -1.975985139734452E-034
 -3.120000000000000E-002   -3.134345163839190E-034
 -3.110000000000000E-002   -3.804577407579519E-034
 -3.100000000000000E-002   -3.061445014425780E-034
 -3.090000000000000E-002    3.813322680984413E-035
 -3.080000000000000E-002    7.973190956040412E-034
 -3.070000000000000E-002    2.084510571104853E-033
 -3.060000000000000E-002    3.895484607341778E-033
 -3.050000000000000E-002    5.983143265309127E-033
 -3.040000000000000E-002    7.702152170020970E-033
 -3.030000000000000E-002    7.855239048914583E-033
 -3.020000000000000E-002    4.601425493365998E-033
 -3.010000000000000E-002   -4.480837142710836E-033
 -3.000000000000000E-002   -2.205434245932634E-032
 -2.990000000000000E-002   -5.027594036484042E-032
 -2.980000000000000E-002   -8.953569406795756E-032
 -2.970000000000000E-002   -1.366598802201673E-031
 -2.960000000000000E-002   -1.827144895739741E-031
 -2.950000000000000E-002   -2.107896960838494E-031
 -2.940000000000000E-002   -1.944618441680205E-031
 -2.930000000000000E-002   -9.797497558747737E-032
 -2.920000000000000E-002    1.205257612248255E-031
 -2.910000000000000E-002    5.012705657308990E-031
 -2.900000000000000E-002    1.069454047901822E-030
 -2.890000000000000E-002    1.815708673526627E-030
 -2.880000000000000E-002    2.671474257529405E-030
 -2.870000000000000E-002    3.482445348428094E-030
 -2.860000000000000E-002    3.986064416307119E-030
 -2.850000000000000E-002    3.802068933102221E-030
 -2.840000000000000E-002    2.447762813302584E-030
 -2.830000000000000E-002   -6.090205616400416E-031
 -2.820000000000000E-002   -5.847525840438049E-030
 -2.810000000000000E-002   -1.353553564842000E-029
 -2.800000000000000E-002   -2.351780401240147E-029
 -2.790000000000000E-002   -3.496963222023372E-029
 -2.780000000000000E-002   -4.615336920673193E-029
 -2.770000000000000E-002   -5.423770111282329E-029
 -2.760000000000000E-002   -5.526017148012461E-029
 -2.750000000000000E-002   -4.432696009498366E-029
 -2.740000000000000E-002   -1.614345760672133E-029
 -2.730000000000000E-002    3.405259810789439E-029
 -2.720000000000000E-002    1.091328716694839E-028
 -2.710000000000000E-002    2.083525132068867E-028
 -2.700000000000000E-002    3.254226020344782E-028
 -2.690000000000000E-002    4.466752671727732E-028
 -2.680000000000000E-002    5.497464427596828E-028
 -2.670000000000000E-002    6.033090356048475E-028
 -2.660000000000000E-002    5.684420729250309E-028
 -2.650000000000000E-002    4.021850923030559E-028
 -2.640000000000000E-002    6.366943369453591E-029
 -2.630000000000000E-002   -4.770818953441121E-028
 -2.620000000000000E-002   -1.228040123983474E-027
 -2.610000000000000E-002   -2.162669730403975E-027
 -2.600000000000000E-002   -3.207617331830531E-027
 -2.590000000000000E-002   -4.232816114797498E-027
 -2.580000000000000E-002   -5.046772518121151E-027
 -2.570000000000000E-002   -5.400115295573431E-027
 -2.560000000000000E-002   -5.000444455749615E-027
 -2.550000000000000E-002   -3.540992778763095E-027
 -2.540000000000000E-002   -7.445305630018843E-028
 -2.530000000000000E-002    3.577772343179133E-027
 -2.520000000000000E-002    9.455142666448922E-027
 -2.510000000000000E-002    1.667915821672825E-026
 -2.500000000000000E-002    2.472765554476824E-026
 -2.490000000000000E-002    3.270285069687890E-026
 -2.480000000000000E-002    3.929920575908761E-026
 -2.470000000000000E-002    4.281913354752337E-026
 -2.460000000000000E-002    4.125589696896329E-026
 -2.450000000000000E-002    3.246202881733339E-026
 -2.440000000000000E-002    1.441741515583963E-026
 -2.430000000000000E-002   -1.439734963961058E-026
 -2.420000000000000E-002   -5.453050079820268E-026
 -2.410000000000000E-002   -1.050193525647818E-025
 -2.400000000000000E-002   -1.628344653413845E-025
 -2.390000000000000E-002   -2.223903717118352E-025
 -2.380000000000000E-002   -2.752360864253796E-025
 -2.370000000000000E-002   -3.100646335117575E-025
 -2.360000000000000E-002   -3.131953929987077E-025
 -2.350000000000000E-002   -2.696761051411007E-025
 -2.340000000000000E-002   -1.651140973307114E-025
 -2.330000000000000E-002    1.173075863611534E-026
 -2.320000000000000E-002    2.656800190724490E-025
 -2.310000000000000E-002    5.914497696364182E-025
 -2.300000000000000E-002    9.699902758892385E-025
 -2.290000000000000E-002    1.365500355486711E-024
 -2.280000000000000E-002    1.723939470118036E-024
 -2.270000000000000E-002    1.973956094744021E-024
 -2.260000000000000E-002    2.031121101099778E-024
 -2.250000000000000E-002    1.806145537912599E-024
 -2.240000000000000E-002    1.217333595025141E-024
 -2.230000000000000E-002    2.068765203560673E-025
 -2.220000000000000E-002   -1.240252199269255E-024
 -2.210000000000000E-002   -3.076989819117903E-024
 -2.200000000000000E-002   -5.177582686436878E-024
 -2.190000000000000E-002   -7.327522752947611E-024
 -2.180000000000000E-002   -9.224157571581447E-024
 -2.170000000000000E-002   -1.049176702731725E-023
 -2.160000000000000E-002   -1.071378990423077E-023
 -2.150000000000000E-002   -9.482873789930946E-024
 -2.140000000000000E-002   -6.466657371175921E-024
 -2.130000000000000E-002   -1.483830507148493E-024
 -2.120000000000000E-002    5.418456749944470E-024
 -2.110000000000000E-002    1.389779899837548E-023
 -2.100000000000000E-002    2.327424521327583E-023
 -2.090000000000000E-002    3.252653782908121E-023
 -2.080000000000000E-002    4.033868298240576E-023
 -2.070000000000000E-002    4.520384369146561E-023
 -2.060000000000000E-002    4.558530095006776E-023
 -2.050000000000000E-002    4.012504784883953E-023
 -2.040000000000000E-002    2.788076454292341E-023
 -2.030000000000000E-002    8.562792457136618E-024
 -2.020000000000000E-002   -1.726374230677542E-023
 -2.010000000000000E-002   -4.804883947717959E-023
 -2.000000000000000E-002   -8.123346386439003E-023
 -1.990000000000000E-002   -1.133558398675529E-022
 -1.980000000000000E-002   -1.402976228490028E-022
 -1.970000000000000E-002   -1.576603274369752E-022
 -1.960000000000000E-002   -1.612417011148559E-022
 -1.950000000000000E-002   -1.475631541497931E-022
 -1.940000000000000E-002   -1.143865696741724E-022
 -1.930000000000000E-002   -6.115427938306251E-023
 -1.920000000000000E-002    1.070743410665295E-023
 -1.910000000000000E-002    9.766411819651672E-023
 -1.900000000000000E-002    1.941460353610561E-022
 -1.890000000000000E-002    2.928071499864749E-022
 -1.880000000000000E-002    3.849334042661385E-022
 -1.870000000000000E-002    4.609463547632417E-022
 -1.860000000000000E-002    5.109461762220951E-022
 -1.850000000000000E-002    5.252536479763105E-022
 -1.840000000000000E-002    4.949421771916221E-022
 -1.830000000000000E-002    4.123916690791770E-022
 -1.820000000000000E-002    2.719356938510062E-022
 -1.810000000000000E-002    7.069551679743303E-023
 -1.800000000000000E-002   -1.903139954221002E-022
 -1.790000000000000E-002   -5.047748940791201E-022
 -1.780000000000000E-002   -8.594216687344764E-022
 -1.770000000000000E-002   -1.232371767296349E-021
 -1.760000000000000E-002   -1.591802474461844E-021
 -1.750000000000000E-002   -1.895492770085626E-021
 -1.740000000000000E-002   -2.091837535758023E-021
 -1.730000000000000E-002   -2.122924975446388E-021
 -1.720000000000000E-002   -1.930107797969754E-021
 -1.710000000000000E-002   -1.462170638589620E-021
 -1.700000000000000E-002   -6.857123364747155E-022
 -1.690000000000000E-002    4.032349646383300E-022
 -1.680000000000000E-002    1.767947611670516E-021
 -1.670000000000000E-002    3.322239258815221E-021
 -1.660000000000000E-002    4.926592654670657E-021
 -1.650000000000000E-002    6.391539074854489E-021
 -1.640000000000000E-002    7.490073144374469E-021
 -1.630000000000000E-002    7.979854195575315E-021
 -1.620000000000000E-002    7.634407185481612E-021
 -1.610000000000000E-002    6.280752593339969E-021
 -1.600000000000000E-002    3.839028961885974E-021
 -1.590000000000000E-002    3.581124759655760E-022
 -1.580000000000000E-002   -3.959635657643150E-021
 -1.570000000000000E-002   -8.751260902026934E-021
 -1.560000000000000E-002   -1.350915824448891E-020
 -1.550000000000000E-002   -1.762284116555083E-020
 -1.540000000000000E-002   -2.044554915454191E-020
 -1.530000000000000E-002   -2.138027860684097E-020
 -1.520000000000000E-002   -1.997534494288899E-020
 -1.510000000000000E-002   -1.601588754596886E-020
 -1.500000000000000E-002   -9.595678942364020E-021
 -1.490000000000000E-002   -1.153864058989973E-021
 -1.480000000000000E-002    8.535662579602345E-021
 -1.470000000000000E-002    1.842868600451701E-020
 -1.460000000000000E-002    2.732724421647841E-020
 -1.450000000000000E-002    3.403730487850402E-020
 -1.440000000000000E-002    3.754748833000740E-020
 -1.430000000000000E-002    3.720168851360751E-020
 -1.420000000000000E-002    3.283512683508577E-020
 -1.410000000000000E-002    2.484502339176068E-020
 -1.400000000000000E-002    1.417435325974690E-020
 -1.390000000000000E-002    2.199668516846625E-021
 -1.380000000000000E-002   -9.469687592189647E-021
 -1.370000000000000E-002   -1.925598699068306E-020
 -1.360000000000000E-002   -2.590029220106488E-020
 -1.350000000000000E-002   -2.872085747431371E-020
 -1.340000000000000E-002   -2.778879545986323E-020
 -1.330000000000000E-002   -2.397467288961656E-020
 -1.320000000000000E-002   -1.883780533587126E-020
 -1.310000000000000E-002   -1.435670689369925E-020
 -1.300000000000000E-002   -1.253087738494470E-020
 -1.290000000000000E-002   -1.491509294061934E-020
 -1.280000000000000E-002   -2.217159476986761E-020
 -1.270000000000000E-002   -3.373672849596965E-020
 -1.260000000000000E-002   -4.769209338712910E-020
 -1.250000000000000E-002   -6.090419239440716E-020
 -1.240000000000000E-002   -6.945269948379407E-020
 -1.230000000000000E-002   -6.931131200997225E-020
 -1.220000000000000E-002   -5.718601113445460E-020
 -1.210000000000000E-002   -3.136498392555094E-020
 -1.200000000000000E-002    7.595548214256539E-021
 -1.190000000000000E-002    5.652450082379001E-020
 -1.180000000000000E-002    1.097659154401819E-019
 -1.170000000000000E-002    1.598500231949115E-019
 -1.160000000000000E-002    1.986685406317583E-019
 -1.150000000000000E-002    2.190033698984552E-019
 -1.140000000000000E-002    2.161524726421569E-019
 -1.130000000000000E-002    1.893228290178694E-019
 -1.120000000000000E-002    1.424404167596236E-019
 -1.110000000000000E-002    8.407633455282766E-020
 -1.100000000000000E-002    2.630988875963817E-020
 -1.090000000000000E-002   -1.746404557140401E-020
 -1.080000000000000E-002   -3.555078607083663E-020
 -1.070000000000000E-002   -2.133403301764821E-020
 -1.060000000000000E-002    2.362868142314042E-020
 -1.050000000000000E-002    8.753449374324673E-020
 -1.040000000000000E-002    1.479962640425200E-019
 -1.030000000000000E-002    1.739645096869313E-019
 -1.020000000000000E-002    1.301121475373652E-019
 -1.010000000000000E-002   -1.655519918372729E-020
 -1.000000000000000E-002   -2.885933043230419E-019
 -9.899999999999999E-003   -6.897121619563656E-019
 -9.800000000000000E-003   -1.197602745054457E-018
 -9.699999999999999E-003   -1.759665409328830E-018
 -9.599999999999999E-003   -2.293160965817855E-018
 -9.500000000000000E-003   -2.690854068314685E-018
 -9.399999999999999E-003   -2.832482209542435E-018
 -9.299999999999999E-003   -2.601439465074598E-018
 -9.200000000000000E-003   -1.905039330910031E-018
 -9.099999999999999E-003   -6.957813691584634E-019
 -8.999999999999999E-003    1.009635529691732E-018
 -8.900000000000000E-003    3.117064713780188E-018
 -8.799999999999999E-003    5.450657662282807E-018
 -8.699999999999999E-003    7.759976812240616E-018
 -8.600000000000000E-003    9.739462839120703E-018
 -8.499999999999999E-003    1.105947665114101E-017
 -8.399999999999999E-003    1.140624766505692E-017
 -8.300000000000000E-003    1.052629921386141E-017
 -8.199999999999999E-003    8.269635789382394E-018
 -8.100000000000000E-003    4.625420723782269E-018
 -8.000000000000000E-003   -2.557936009920765E-019
 -7.899999999999999E-003   -6.057905027313044E-018
 -7.800000000000000E-003   -1.231564509277712E-017
 -7.699999999999999E-003   -1.845121835967332E-017
 -7.599999999999999E-003   -2.382796875091017E-017
 -7.499999999999999E-003   -2.781513251613996E-017
 -7.399999999999999E-003   -2.985579169346603E-017
 -7.299999999999999E-003   -2.952929001588883E-017
 -7.199999999999999E-003   -2.659984060360367E-017
 -7.100000000000000E-003   -2.104497380120639E-017
 -6.999999999999999E-003   -1.306041770388258E-017
 -6.899999999999999E-003   -3.041728882017338E-018
 -6.800000000000000E-003    8.453266675139923E-018
 -6.699999999999999E-003    2.075402462646176E-017
 -6.599999999999999E-003    3.312975005174307E-017
 -6.499999999999999E-003    4.483559347880087E-017
 -6.399999999999999E-003    5.514516400319081E-017
 -6.299999999999999E-003    6.336552246926521E-017
 -6.199999999999999E-003    6.883559650969533E-017
 -6.100000000000000E-003    7.091410439915522E-017
 -5.999999999999999E-003    6.896760600979444E-017
 -5.899999999999999E-003    6.237202076070615E-017
 -5.800000000000000E-003    5.054103217772472E-017
 -5.699999999999999E-003    3.299177341156613E-017
 -5.599999999999999E-003    9.451885085386838E-018
 -5.499999999999999E-003   -1.999677649691531E-017
 -5.399999999999999E-003   -5.475274567837869E-017
 -5.299999999999999E-003   -9.353275219746660E-017
 -5.199999999999999E-003   -1.342452317687117E-016
 -5.099999999999999E-003   -1.739357735265423E-016
 -4.999999999999999E-003   -2.088385458786272E-016
 -4.899999999999999E-003   -2.345595760548609E-016
 -4.799999999999999E-003   -2.464028738047662E-016
 -4.699999999999999E-003   -2.398310906694304E-016
 -4.599999999999999E-003   -2.110299201038932E-016
 -4.499999999999999E-003   -1.575233445165033E-016
 -4.399999999999999E-003   -7.876883622775347E-017
 -4.299999999999999E-003    2.334950101468344E-017
 -4.199999999999999E-003    1.442129568466334E-016
 -4.099999999999999E-003    2.764178807869969E-016
 -3.999999999999999E-003    4.100333236482210E-016
 -3.899999999999999E-003    5.331846044398405E-016
 -3.799999999999999E-003    6.329419925759694E-016
 -3.699999999999999E-003    6.964528082266182E-016
 -3.599999999999999E-003    7.122180840803847E-016
 -3.499999999999999E-003    6.713868033709851E-016
 -3.399999999999999E-003    5.689269843573444E-016
 -3.299999999999999E-003    4.045354448743677E-016
 -3.199999999999999E-003    1.831696730619056E-016
 -3.099999999999999E-003   -8.487792425035038E-017
 -2.999999999999999E-003   -3.843933863284793E-016
 -2.899999999999999E-003   -6.961174250273305E-016
 -2.799999999999999E-003   -9.980066584665872E-016
 -2.699999999999999E-003   -1.266758470224545E-015
 -2.599999999999999E-003   -1.479452347182426E-015
 -2.499999999999999E-003   -1.615153815108240E-015
 -2.399999999999999E-003   -1.656345014777276E-015
 -2.299999999999999E-003   -1.590081548555424E-015
 -2.199999999999999E-003   -1.408825397476913E-015
 -2.099999999999999E-003   -1.110960089697345E-015
 -1.999999999999999E-003   -7.010409482525314E-016
 -1.899999999999999E-003   -1.898675938880713E-016
 -1.799999999999999E-003    4.055270582259550E-016
 -1.699999999999999E-003    1.061898173628251E-015
 -1.599999999999999E-003    1.749798549031432E-015
 -1.499999999999999E-003    2.433624601637178E-015
 -1.399999999999999E-003    3.071828073147380E-015
 -1.299999999999999E-003    3.617497374644937E-015
 -1.199999999999999E-003    4.019555327735677E-015
 -1.099999999999999E-003    4.224828579011366E-015
 -9.999999999999989E-004    4.181183345538439E-015
 -8.999999999999990E-004    3.841812774003229E-015
 -7.999999999999990E-004    3.170584427725486E-015
 -6.999999999999989E-004    2.148140807540983E-015
 -5.999999999999990E-004    7.782229120902383E-016
 -4.999999999999989E-004   -9.065236284378216E-016
 -3.999999999999989E-004   -2.840146332534422E-015
 -2.999999999999989E-004   -4.921327402419290E-015
 -1.999999999999989E-004   -7.014529882057008E-015
 -9.999999999999892E-005   -8.955001423776572E-015
  1.084202172485504E-018   -1.055793719680121E-014
  1.000000000000011E-004   -1.163164800006729E-014
  2.000000000000011E-004   -1.199405015120716E-014
  3.000000000000011E-004   -1.149128667175143E-014
  4.000000000000011E-004   -1.001681480933179E-014
  5.000000000000011E-004   -7.528998502412011E-015
  6.000000000000011E-004   -4.065130171745303E-015
  7.000000000000011E-004    2.500699595413325E-016
  8.000000000000011E-004    5.203039059693499E-015
  9.000000000000012E-004    1.049800048444102E-014
  1.000000000000001E-003    1.577182713642210E-014
  1.100000000000001E-003    2.061646697624597E-014
  1.200000000000001E-003    2.460742745238800E-014
  1.300000000000001E-003    2.733612878566563E-014
  1.400000000000001E-003    2.844345174840402E-014
  1.500000000000001E-003    2.765161099365500E-014
  1.600000000000001E-003    2.479166938403813E-014
  1.700000000000001E-003    1.982437007720613E-014
  1.800000000000001E-003    1.285270485517441E-014
  1.900000000000001E-003    4.125367483489569E-015
  2.000000000000001E-003   -5.968916004033263E-015
  2.100000000000001E-003   -1.691551783266452E-014
  2.200000000000001E-003   -2.809535791380770E-014
  2.300000000000001E-003   -3.881233718619241E-014
  2.400000000000001E-003   -4.832544781385805E-014
  2.500000000000001E-003   -5.588455953680405E-014
  2.600000000000001E-003   -6.076917107769694E-014
  2.700000000000001E-003   -6.232975300765962E-014
  2.800000000000001E-003   -6.003137728524016E-014
  2.900000000000001E-003   -5.349903513708450E-014
  3.000000000000001E-003   -4.256346567700746E-014
  3.100000000000001E-003   -2.730522816263747E-014
  3.200000000000001E-003   -8.093574554056708E-015
  3.300000000000001E-003    1.438463768885886E-014
  3.400000000000001E-003    3.911173600684296E-014
  3.500000000000001E-003    6.474787377458285E-014
  3.600000000000001E-003    8.966723465097815E-014
  3.700000000000001E-003    1.120260027528315E-013
  3.800000000000001E-003    1.298636901728262E-013
  3.900000000000001E-003    1.412358280548796E-013
  4.000000000000001E-003    1.443718121551893E-013
  4.100000000000001E-003    1.378473258053890E-013
  4.200000000000001E-003    1.207567688676457E-013
  4.300000000000001E-003    9.286840208720215E-014
  4.400000000000001E-003    5.474379000287553E-014
  4.500000000000001E-003    7.803965531167258E-015
  4.600000000000002E-003   -4.567162106725644E-014
  4.700000000000001E-003   -1.026222045319255E-013
  4.800000000000001E-003   -1.593602693480246E-013
  4.900000000000002E-003   -2.117970659737715E-013
  5.000000000000001E-003   -2.557243301241822E-013
  5.100000000000001E-003   -2.871306869678100E-013
  5.200000000000001E-003   -3.025260294341203E-013
  5.300000000000002E-003   -2.992452809672775E-013
  5.400000000000001E-003   -2.757037802897400E-013
  5.500000000000001E-003   -2.315810616823285E-013
  5.600000000000002E-003   -1.679163058280665E-013
  5.700000000000001E-003   -8.710795985580426E-014
  5.800000000000001E-003    7.181206711611535E-015
  5.900000000000002E-003    1.102033498419141E-013
  6.000000000000001E-003    2.163722471029579E-013
  6.100000000000001E-003    3.195565409788900E-013
  6.200000000000002E-003    4.133977537481072E-013
  6.300000000000002E-003    4.916333256240378E-013
  6.400000000000001E-003    5.484096155202496E-013
  6.500000000000001E-003    5.785754185544811E-013
  6.600000000000002E-003    5.779520893475230E-013
  6.700000000000001E-003    5.435805702626797E-013
  6.800000000000001E-003    4.739474190711554E-013
  6.900000000000002E-003    3.691896500228563E-013
  7.000000000000001E-003    2.312741008805842E-013
  7.100000000000001E-003    6.413978382689681E-014
  7.200000000000002E-003   -1.262166055555079E-013
  7.300000000000002E-003   -3.317384360645579E-013
  7.400000000000001E-003   -5.424206507675752E-013
  7.500000000000001E-003   -7.465651290483254E-013
  7.600000000000002E-003   -9.312029466942363E-013
  7.700000000000001E-003   -1.082694027515201E-012
  7.800000000000001E-003   -1.187497063064627E-012
  7.900000000000001E-003   -1.233079874512106E-012
  8.000000000000002E-003   -1.208918817824250E-012
  8.100000000000001E-003   -1.107515750798134E-012
  8.200000000000001E-003   -9.253464592648012E-013
  8.300000000000002E-003   -6.636473646610588E-013
  8.400000000000001E-003   -3.289532141004013E-013
  8.500000000000002E-003    6.668956564155388E-014
  8.600000000000002E-003    5.058842872760794E-013
  8.700000000000001E-003    9.664407377474491E-013
  8.800000000000002E-003    1.422314486555159E-012
  8.900000000000002E-003    1.844883530139282E-012
  9.000000000000001E-003    2.204489721001003E-012
  9.100000000000002E-003    2.472152640997338E-012
  9.200000000000002E-003    2.621353536210780E-012
  9.300000000000001E-003    2.629791010583812E-012
  9.400000000000002E-003    2.481014179377087E-012
  9.500000000000001E-003    2.165858860101396E-012
  9.600000000000001E-003    1.683626983162000E-012
  9.700000000000002E-003    1.042961938145008E-012
  9.800000000000001E-003    2.623837669614911E-013
  9.900000000000001E-003   -6.295512725254993E-013
  1.000000000000000E-002   -1.594510275673077E-012
  1.010000000000000E-002   -2.585113440450458E-012
  1.020000000000000E-002   -3.546196072222732E-012
  1.030000000000000E-002   -4.416666944678553E-012
  1.040000000000000E-002   -5.132019225322155E-012
  1.050000000000000E-002   -5.627517353265110E-012
  1.060000000000000E-002   -5.842039014804475E-012
  1.070000000000000E-002   -5.722477065285220E-012
  1.080000000000000E-002   -5.228519414378005E-012
  1.090000000000000E-002   -4.337528556626713E-012
  1.100000000000000E-002   -3.049153995297992E-012
  1.110000000000000E-002   -1.389232158220522E-012
  1.120000000000000E-002    5.875083947631899E-013
  1.130000000000000E-002    2.796419397485009E-012
  1.140000000000000E-002    5.124006250870033E-012
  1.150000000000000E-002    7.431411049228086E-012
  1.160000000000000E-002    9.560447910854397E-012
  1.170000000000000E-002    1.134212283377890E-011
  1.180000000000000E-002    1.260732997795435E-011
  1.190000000000000E-002    1.319918258087610E-011
  1.200000000000000E-002    1.298620893148342E-011
  1.210000000000000E-002    1.187547223323773E-011
  1.220000000000000E-002    9.824562535910570E-012
  1.230000000000000E-002    6.851371604332014E-012
  1.240000000000000E-002    3.040640022429977E-012
  1.250000000000000E-002   -1.453611033387534E-012
  1.260000000000000E-002   -6.410391339151657E-012
  1.270000000000000E-002   -1.154915362739835E-011
  1.280000000000000E-002   -1.654229922149084E-011
  1.290000000000000E-002   -2.103241311239772E-011
  1.300000000000000E-002   -2.465350829569128E-011
  1.310000000000000E-002   -2.705522040502551E-011
  1.320000000000000E-002   -2.792859581560022E-011
  1.330000000000000E-002   -2.703191714528280E-011
  1.340000000000000E-002   -2.421485555324246E-011
  1.350000000000000E-002   -1.943917944190019E-011
  1.360000000000000E-002   -1.279430858722225E-011
  1.370000000000000E-002   -4.506124804508231E-012
  1.380000000000000E-002    5.062273346476965E-012
  1.390000000000000E-002    1.541886320862604E-011
  1.400000000000000E-002    2.596055484997915E-011
  1.410000000000000E-002    3.600058911466251E-011
  1.420000000000000E-002    4.480484313372268E-011
  1.430000000000000E-002    5.163571663883070E-011
  1.440000000000000E-002    5.580159915142349E-011
  1.450000000000000E-002    5.670925343686265E-011
  1.460000000000000E-002    5.391588368375968E-011
  1.470000000000000E-002    4.717722657136861E-011
  1.480000000000000E-002    3.648777488131248E-011
  1.490000000000000E-002    2.210931416930466E-011
  1.500000000000000E-002    4.584257468567301E-012
  1.510000000000000E-002   -1.526904052551970E-011
  1.520000000000000E-002   -3.638081552782861E-011
  1.530000000000000E-002   -5.747490524141738E-011
  1.540000000000000E-002   -7.713331747600025E-011
  1.550000000000000E-002   -9.387793177451059E-011
  1.560000000000000E-002   -1.062652740751546E-010
  1.570000000000000E-002   -1.129890203083431E-010
  1.580000000000000E-002   -1.129835260265301E-010
  1.590000000000000E-002   -1.055211805456632E-010
  1.600000000000000E-002   -9.029596470812197E-011
  1.610000000000000E-002   -6.748602799883506E-011
  1.620000000000000E-002   -3.778892094299543E-011
  1.630000000000000E-002   -2.424649450187788E-012
  1.640000000000000E-002    3.689642292284000E-011
  1.650000000000000E-002    7.804147340697025E-011
  1.660000000000000E-002    1.185571202288506E-010
  1.670000000000000E-002    1.558009906010213E-010
  1.680000000000000E-002    1.870962962392061E-010
  1.690000000000000E-002    2.099007867908840E-010
  1.700000000000000E-002    2.219798384139604E-010
  1.710000000000000E-002    2.215726663157009E-010
  1.720000000000000E-002    2.075402576185006E-010
  1.730000000000000E-002    1.794844374156187E-010
  1.740000000000000E-002    1.378284828354937E-010
  1.750000000000000E-002    8.385184958084937E-011
  1.760000000000000E-002    1.967398913674475E-011
  1.770000000000000E-002   -5.181465212282771E-011
  1.780000000000000E-002   -1.270732161155616E-010
  1.790000000000000E-002   -2.020779511547958E-010
  1.800000000000000E-002   -2.725287084862949E-010
  1.810000000000000E-002   -3.340837722285150E-010
  1.820000000000000E-002   -3.826097279088765E-010
  1.830000000000000E-002   -4.144314792892520E-010
  1.840000000000000E-002   -4.265672279426595E-010
  1.850000000000000E-002   -4.169322718484120E-010
  1.860000000000000E-002   -3.844983942855808E-010
  1.870000000000000E-002   -3.293961122292973E-010