 -4.000000000000000E-002    0.000000000000000E+000
 -3.990000000000000E-002    0.000000000000000E+000
 -3.980000000000000E-002    0.000000000000000E+000
 -3.970000000000000E-002    0.000000000000000E+000
 -3.960000000000000E-002    0.000000000000000E+000
 -3.950000000000000E-002    0.000000000000000E+000
 -3.940000000000000E-002    0.000000000000000E+000
 -3.930000000000000E-002    0.000000000000000E+000
 -3.920000000000000E-002    0.000000000000000E+000
 -3.910000000000000E-002    0.000000000000000E+000
 -3.900000000000000E-002    0.000000000000000E+000
 -3.890000000000000E-002    0.000000000000000E+000
 -3.880000000000000E-002    0.000000000000000E+000
 -3.870000000000000E-002    0.000000000000000E+000
 -3.860000000000000E-002    0.000000000000000E+000
 -3.850000000000000E-002    0.000000000000000E+000
 -3.840000000000000E-002    0.000000000000000E+000
 -3.830000000000000E-002    0.000000000000000E+000
 -3.820000000000000E-002    0.000000000000000E+000
 -3.810000000000000E-002    0.000000000000000E+000
 -3.800000000000000E-002    0.000000000000000E+000
 -3.790000000000000E-002    0.000000000000000E+000
 -3.780000000000000E-002    0.000000000000000E+000
 -3.770000000000000E-002    0.000000000000000E+000
 -3.760000000000000E-002    0.000000000000000E+000
 -3.750000000000000E-002    0.000000000000000E+000
 -3.740000000000000E-002    0.000000000000000E+000
 -3.730000000000000E-002    0.000000000000000E+000
 -3.720000000000000E-002    0.000000000000000E+000
 -3.710000000000000E-002    0.000000000000000E+000
 -3.700000000000000E-002    0.000000000000000E+000
 -3.690000000000000E-002    0.000000000000000E+000
 -3.680000000000000E-002    0.000000000000000E+000
 -3.670000000000000E-002    0.000000000000000E+000
 -3.660000000000000E-002    0.000000000000000E+000
 -3.650000000000000E-002    0.000000000000000E+000
 -3.640000000000000E-002    0.000000000000000E+000
 -3.630000000000000E-002    0.000000000000000E+000
 -3.620000000000000E-002    0.000000000000000E+000
 -3.610000000000000E-002    0.000000000000000E+000
 -3.600000000000000E-002    0.000000000000000E+000
 -3.590000000000000E-002    0.000000000000000E+000
 -3.580000000000000E-002    0.000000000000000E+000
 -3.570000000000000E-002    0.000000000000000E+000
 -3.560000000000000E-002    0.000000000000000E+000
 -3.550000000000000E-002    0.000000000000000E+000
 -3.540000000000000E-002    0.000000000000000E+000
 -3.530000000000000E-002    0.000000000000000E+000
 -3.520000000000000E-002    0.000000000000000E+000
 -3.510000000000000E-002    0.000000000000000E+000
 -3.500000000000000E-002    0.000000000000000E+000
 -3.490000000000000E-002    0.000000000000000E+000
 -3.480000000000000E-002    0.000000000000000E+000
 -3.470000000000000E-002    0.000000000000000E+000
 -3.460000000000000E-002    0.000000000000000E+000
 -3.450000000000000E-002    0.000000000000000E+000
 -3.440000000000000E-002    0.000000000000000E+000
 -3.430000000000000E-002    0.000000000000000E+000
 -3.420000000000000E-002    0.000000000000000E+000
 -3.410000000000000E-002    0.000000000000000E+000
 -3.400000000000000E-002    0.000000000000000E+000
 -3.390000000000000E-002    0.000000000000000E+000
 -3.380000000000000E-002    0.000000000000000E+000
 -3.370000000000000E-002    0.000000000000000E+000
 -3.360000000000000E-002    0.000000000000000E+000
 -3.350000000000000E-002    0.000000000000000E+000
 -3.340000000000000E-002    0.000000000000000E+000
 -3.330000000000000E-002    0.000000000000000E+000
 -3.320000000000000E-002    0.000000000000000E+000
 -3.310000000000000E-002    0.000000000000000E+000
 -3.300000000000000E-002    0.000000000000000E+000
 -3.290000000000000E-002    0.000000000000000E+000
 -3.280000000000000E-002    0.000000000000000E+000
 -3.270000000000000E-002    0.000000000000000E+000
 -3.260000000000000E-002    0.000000000000000E+000
 -3.250000000000000E-002    0.000000000000000E+000
 -3.240000000000000E-002    0.000000000000000E+000
 -3.230000000000000E-002    0.000000000000000E+000
 -3.220000000000000E-002    0.000000000000000E+000
 -3.210000000000000E-002    0.000000000000000E+000
 -3.200000000000000E-002    0.000000000000000E+000
 -3.190000000000000E-002    0.000000000000000E+000
 -3.180000000000000E-002    0.000000000000000E+000
 -3.170000000000000E-002    0.000000000000000E+000
 -3.160000000000000E-002    0.000000000000000E+000
 -3.150000000000000E-002   -1.924390591266381E-047
 -3.140000000000000E-002   -2.766066776027873E-048
 -3.130000000000000E-002   -7.629333455282907E-047
 -3.120000000000000E-002   -2.462403445472887E-046
 -3.110000000000000E-002   -5.061924614551854E-046
 -3.100000000000000E-002   -4.678776503340438E-046
 -3.090000000000000E-002   -1.186372532239794E-048
 -3.080000000000000E-002   -2.814468459591688E-046
 -3.070000000000000E-002    4.143701290005342E-046
 -3.060000000000000E-002    2.256970809449529E-045
 -3.050000000000000E-002    5.237762305784652E-045
 -3.040000000000000E-002    1.008082850171693E-044
 -3.030000000000000E-002    1.488067674105296E-044
 -3.020000000000000E-002    1.831976092689274E-044
 -3.010000000000000E-002    1.672431038738948E-044
 -3.000000000000000E-002    3.581624482434248E-045
 -2.990000000000000E-002   -2.739358922903217E-044
 -2.980000000000000E-002   -8.193198451234038E-044
 -2.970000000000000E-002   -1.590162917287985E-043
 -2.960000000000000E-002   -2.466958144168255E-043
 -2.950000000000000E-002   -3.094997446423449E-043
 -2.940000000000000E-002   -2.826592864464316E-043
 -2.930000000000000E-002   -5.872019648658738E-044
 -2.920000000000000E-002    5.026714050069706E-043
 -2.910000000000000E-002    1.553779979349335E-042
 -2.900000000000000E-002    3.199415856895564E-042
 -2.890000000000000E-002    5.388107742603358E-042
 -2.880000000000000E-002    7.747239785024302E-042
 -2.870000000000000E-002    9.370357023510176E-042
 -2.860000000000000E-002    8.592534763499107E-042
 -2.850000000000000E-002    2.826609856340544E-042
 -2.840000000000000E-002   -1.138285879897791E-041
 -2.830000000000000E-002   -3.791235933744125E-041
 -2.820000000000000E-002   -7.994367195048128E-041
 -2.810000000000000E-002   -1.379459346227113E-040
 -2.800000000000000E-002   -2.065888727181204E-040
 -2.790000000000000E-002   -2.706682553895987E-040
 -2.780000000000000E-002   -3.005592145446046E-040
 -2.770000000000000E-002   -2.483768898975253E-040
 -2.760000000000000E-002   -4.690729379779477E-041
 -2.750000000000000E-002    3.856975173662014E-040
 -2.740000000000000E-002    1.131653435334042E-039
 -2.730000000000000E-002    2.245695406205580E-039
 -2.720000000000000E-002    3.710535857634790E-039
 -2.710000000000000E-002    5.375245347527357E-039
 -2.700000000000000E-002    6.881326520210965E-039
 -2.690000000000000E-002    7.589256920456582E-039
 -2.680000000000000E-002    6.528946351247707E-039
 -2.670000000000000E-002    2.409742551036403E-039
 -2.660000000000000E-002   -6.263079130265060E-039
 -2.650000000000000E-002   -2.091215641242194E-038
 -2.640000000000000E-002   -4.240352962010025E-038
 -2.630000000000000E-002   -7.032719766404437E-038
 -2.620000000000000E-002   -1.020628147952383E-037
 -2.610000000000000E-002   -1.317270180803069E-037
 -2.600000000000000E-002   -1.492051257205942E-037
 -2.590000000000000E-002   -1.395991045820336E-037
 -2.580000000000000E-002   -8.355631824828908E-038
 -2.570000000000000E-002    4.095271872187777E-038
 -2.560000000000000E-002    2.548122137626346E-037
 -2.550000000000000E-002    5.714091672647408E-037
 -2.540000000000000E-002    9.875752863660815E-037
 -2.530000000000000E-002    1.472214475745233E-036
 -2.520000000000000E-002    1.953856422059457E-036
 -2.510000000000000E-002    2.309488496470382E-036
 -2.500000000000000E-002    2.358286158896703E-036
 -2.490000000000000E-002    1.865077810035768E-036
 -2.480000000000000E-002    5.592350946820211E-037
 -2.470000000000000E-002   -1.825270189912774E-036
 -2.460000000000000E-002   -5.484145517496629E-036
 -2.450000000000000E-002   -1.044995647603602E-035
 -2.440000000000000E-002   -1.647603773451906E-035
 -2.430000000000000E-002   -2.290859933812052E-035
 -2.420000000000000E-002   -2.856822041395151E-035
 -2.410000000000000E-002   -3.167282200365251E-035
 -2.400000000000000E-002   -2.984465471259941E-035
 -2.390000000000000E-002   -2.025131812484771E-035
 -2.380000000000000E-002    6.786717348497709E-038
 -2.370000000000000E-002    3.364772937978802E-035
 -2.360000000000000E-002    8.179560571457169E-035
 -2.350000000000000E-002    1.435624750604177E-034
 -2.340000000000000E-002    2.145659856822378E-034
 -2.330000000000000E-002    2.858204287978673E-034
 -2.320000000000000E-002    3.428171083819996E-034
 -2.310000000000000E-002    3.651873753271625E-034
 -2.300000000000000E-002    3.273536286546844E-034
 -2.290000000000000E-002    2.006066655839585E-034
 -2.280000000000000E-002   -4.298807065905584E-035
 -2.270000000000000E-002   -4.245872168057710E-034
 -2.260000000000000E-002   -9.504658016665127E-034
 -2.250000000000000E-002   -1.602221827231924E-033
 -2.240000000000000E-002   -2.326259937754677E-033
 -2.230000000000000E-002   -3.024209016556575E-033
 -2.220000000000000E-002   -3.546669109742062E-033
 -2.210000000000000E-002   -3.693357346655938E-033
 -2.200000000000000E-002   -3.223172942561476E-033
 -2.190000000000000E-002   -1.877700434871990E-033
 -2.180000000000000E-002    5.790232969394062E-034
 -2.170000000000000E-002    4.303279202984560E-033
 -2.160000000000000E-002    9.298521941259398E-033
 -2.150000000000000E-002    1.533180667999768E-032
 -2.140000000000000E-002    2.185024239940832E-032
 -2.130000000000000E-002    2.791349217864957E-032
 -2.120000000000000E-002    3.216372526735123E-032
 -2.110000000000000E-002    3.285842912051791E-032
 -2.100000000000000E-002    2.799262064283971E-032
 -2.090000000000000E-002    1.553353539957128E-032
 -2.080000000000000E-002   -6.218944803942472E-033
 -2.070000000000000E-002   -3.815011280699151E-032
 -2.060000000000000E-002   -7.975579981248755E-032
 -2.050000000000000E-002   -1.285367433970535E-031
 -2.040000000000000E-002   -1.794595522259651E-031
 -2.030000000000000E-002   -2.246170516967729E-031
 -2.020000000000000E-002   -2.532471888006934E-031
 -2.010000000000000E-002   -2.522786632827500E-031
 -2.000000000000000E-002   -2.075527056632911E-031
 -1.990000000000000E-002   -1.058144445191228E-031
 -1.980000000000000E-002    6.253120897246287E-032
 -1.970000000000000E-002    3.000469504890838E-031
 -1.960000000000000E-002    5.986000173919060E-031
 -1.950000000000000E-002    9.359322868804139E-031
 -1.940000000000000E-002    1.273172327529012E-030
 -1.930000000000000E-002    1.554136459585133E-030
 -1.920000000000000E-002    1.707304948757216E-030
 -1.910000000000000E-002    1.651259566625762E-030
 -1.900000000000000E-002    1.304084583566199E-030
 -1.890000000000000E-002    5.967493520059733E-031
 -1.880000000000000E-002   -5.101884015244336E-031
 -1.870000000000000E-002   -2.008044927531625E-030
 -1.860000000000000E-002   -3.822008000164065E-030
 -1.850000000000000E-002   -5.796844378756812E-030
 -1.840000000000000E-002   -7.690056753414214E-030
 -1.830000000000000E-002   -9.176365275944994E-030
 -1.820000000000000E-002   -9.866937293715848E-030
 -1.810000000000000E-002   -9.345612389439223E-030
 -1.800000000000000E-002   -7.222450527434746E-030
 -1.790000000000000E-002   -3.202323644311756E-030
 -1.780000000000000E-002    2.836804824822825E-030
 -1.770000000000000E-002    1.076446153375611E-029
 -1.760000000000000E-002    2.012849789164348E-029
 -1.750000000000000E-002    3.010954095910228E-029
 -1.740000000000000E-002    3.951301574959809E-029
 -1.730000000000000E-002    4.681135943003202E-029
 -1.720000000000000E-002    5.024572587963983E-029
 -1.710000000000000E-002    4.799089753019361E-029
 -1.700000000000000E-002    3.837983048942345E-029
 -1.690000000000000E-002    2.017563483076648E-029
 -1.680000000000000E-002   -7.130178000770454E-030
 -1.670000000000000E-002   -4.302279166392479E-029
 -1.660000000000000E-002   -8.570894208956303E-029
 -1.650000000000000E-002   -1.319422190018171E-028
 -1.640000000000000E-002   -1.769707168149435E-028
 -1.630000000000000E-002   -2.146463450241904E-028
 -1.620000000000000E-002   -2.377289178849858E-028
 -1.610000000000000E-002   -2.384079195884516E-028
 -1.600000000000000E-002   -2.090507603422367E-028
 -1.590000000000000E-002   -1.431679621269101E-028
 -1.580000000000000E-002   -3.656240319819373E-029
 -1.570000000000000E-002    1.113989485530120E-028
 -1.560000000000000E-002    2.964874920222700E-028
 -1.550000000000000E-002    5.084270985247812E-028
 -1.540000000000000E-002    7.300016966559150E-028
 -1.530000000000000E-002    9.366816918922348E-028
 -1.520000000000000E-002    1.097027637096100E-027
 -1.510000000000000E-002    1.174143800512984E-027
 -1.500000000000000E-002    1.128426299237190E-027
 -1.490000000000000E-002    9.217742005706980E-028
 -1.480000000000000E-002    5.232833867049757E-028
 -1.470000000000000E-002   -8.378215674090539E-029
 -1.460000000000000E-002   -8.942441850266680E-028
 -1.450000000000000E-002   -1.873344473243264E-027
 -1.440000000000000E-002   -2.950376946272972E-027
 -1.430000000000000E-002   -4.015147148456182E-027
 -1.420000000000000E-002   -4.918965411048033E-027
 -1.410000000000000E-002   -5.481829614829889E-027
 -1.400000000000000E-002   -5.507094162230847E-027
 -1.390000000000000E-002   -4.804181529259488E-027
 -1.380000000000000E-002   -3.218762613547177E-027
 -1.370000000000000E-002   -6.683687825667589E-028
 -1.360000000000000E-002    2.820269989464735E-027
 -1.350000000000000E-002    7.077504954578325E-027
 -1.340000000000000E-002    1.176730830301048E-026
 -1.330000000000000E-002    1.638134469066940E-026
 -1.320000000000000E-002    2.025741445223776E-026
 -1.310000000000000E-002    2.262739225601729E-026
 -1.300000000000000E-002    2.269660092830894E-026
 -1.290000000000000E-002    1.975206869497687E-026
 -1.280000000000000E-002    1.329158507217754E-026
 -1.270000000000000E-002    3.159667984255697E-027
 -1.260000000000000E-002   -1.032869442258246E-026
 -1.250000000000000E-002   -2.629924236652319E-026
 -1.240000000000000E-002   -4.328809707137765E-026
 -1.230000000000000E-002   -5.929051406106769E-026
 -1.220000000000000E-002   -7.190241472019460E-026
 -1.210000000000000E-002   -7.855711177246358E-026
 -1.200000000000000E-002   -7.684540111309622E-026
 -1.190000000000000E-002   -6.489108056310406E-026
 -1.180000000000000E-002   -4.173876613760877E-026
 -1.170000000000000E-002   -7.698939843248018E-027
 -1.160000000000000E-002    3.541034957868448E-026
 -1.150000000000000E-002    8.418272190949070E-026
 -1.140000000000000E-002    1.337482509150959E-025
 -1.130000000000000E-002    1.781255965727430E-025
 -1.120000000000000E-002    2.107927237333214E-025
 -1.110000000000000E-002    2.254325717817649E-025
 -1.100000000000000E-002    2.167760385909460E-025
 -1.090000000000000E-002    1.814381948053090E-025
 -1.080000000000000E-002    1.186293298026079E-025
 -1.070000000000000E-002    3.062619043780764E-026
 -1.060000000000000E-002   -7.708863024733564E-026
 -1.050000000000000E-002   -1.960698840955209E-025
 -1.040000000000000E-002   -3.155323284647492E-025
 -1.030000000000000E-002   -4.232908500061036E-025
 -1.020000000000000E-002   -5.069035219798851E-025
 -1.010000000000000E-002   -5.548681655815231E-025
 -1.000000000000000E-002   -5.577144338915903E-025
 -9.899999999999999E-003   -5.088575135677131E-025
 -9.800000000000000E-003   -4.051344496870874E-025
 -9.699999999999999E-003   -2.470201203380285E-025
 -9.599999999999999E-003   -3.860350080478828E-026
 -9.500000000000000E-003    2.125272808312733E-025
 -9.399999999999999E-003    4.953120903659016E-025
 -9.299999999999999E-003    7.950035241495056E-025
 -9.200000000000000E-003    1.092646562901795E-024
 -9.099999999999999E-003    1.364339972853542E-024
 -8.999999999999999E-003    1.580557128677603E-024
 -8.900000000000000E-003    1.705992102986424E-024
 -8.799999999999999E-003    1.700533633304169E-024
 -8.699999999999999E-003    1.521992947278717E-024
 -8.600000000000000E-003    1.131077415542621E-024
 -8.499999999999999E-003    4.987754641389865E-025
 -8.399999999999999E-003   -3.841902993879425E-025
 -8.300000000000000E-003   -1.496832756730386E-024
 -8.199999999999999E-003   -2.777967789176918E-024
 -8.100000000000000E-003   -4.119141044232567E-024
 -8.000000000000000E-003   -5.363004210626936E-024
 -7.899999999999999E-003   -6.309641116659616E-024
 -7.800000000000000E-003   -6.732709261648825E-024
 -7.699999999999999E-003   -6.406045978475979E-024
 -7.599999999999999E-003   -5.139633280157962E-024
 -7.499999999999999E-003   -2.821698202320291E-024
 -7.399999999999999E-003    5.384261103232293E-025
 -7.299999999999999E-003    4.773892049854369E-024
 -7.199999999999999E-003    9.538606985876685E-024
 -7.100000000000000E-003    1.430824907999496E-023
 -6.999999999999999E-003    1.841039711882923E-023
 -6.899999999999999E-003    2.108688738573534E-023
 -6.800000000000000E-003    2.158676050821837E-023
 -6.699999999999999E-003    1.928256199638563E-023
 -6.599999999999999E-003    1.379690312882683E-023
 -6.499999999999999E-003    5.121261787691820E-024
 -6.399999999999999E-003   -6.294050257137398E-024
 -6.299999999999999E-003   -1.949996919235926E-023
 -6.199999999999999E-003   -3.307652373820653E-023
 -6.100000000000000E-003   -4.523894756131869E-023
 -5.999999999999999E-003   -5.402190179289768E-023
 -5.899999999999999E-003   -5.752894546393953E-023
 -5.800000000000000E-003   -5.422105763203670E-023
 -5.699999999999999E-003   -4.320673451398226E-023
 -5.599999999999999E-003   -2.448873438337653E-023
 -5.499999999999999E-003    8.785060441607504E-025
 -5.399999999999999E-003    3.076033170586497E-023
 -5.299999999999999E-003    6.206766100368431E-023
 -5.199999999999999E-003    9.104171125472952E-023
 -5.099999999999999E-003    1.136772098207003E-022
 -4.999999999999999E-003    1.262382389343276E-022
 -4.899999999999999E-003    1.257992745418595E-022
 -4.799999999999999E-003    1.107309821453494E-022
 -4.699999999999999E-003    8.104904820073245E-023
 -4.599999999999999E-003    3.855776423799286E-023
 -4.499999999999999E-003   -1.325347802804343E-023
 -4.399999999999999E-003   -6.956445095497369E-023
 -4.299999999999999E-003   -1.247897201743226E-022
 -4.199999999999999E-003   -1.732749306255695E-022
 -4.099999999999999E-003   -2.100119339273362E-022
 -3.999999999999999E-003   -2.312477281365458E-022
 -3.899999999999999E-003   -2.348721091467636E-022
 -3.799999999999999E-003   -2.205036918460924E-022
 -3.699999999999999E-003   -1.892501502845892E-022
 -3.599999999999999E-003   -1.431884749440627E-022
 -3.499999999999999E-003   -8.468178747177470E-023
 -3.399999999999999E-003   -1.570582155650399E-023
 -3.299999999999999E-003    6.261411813119846E-023
 -3.199999999999999E-003    1.500686299219887E-022
 -3.099999999999999E-003    2.469055254746769E-022
 -2.999999999999999E-003    3.528252377888394E-022
 -2.899999999999999E-003    4.655442064234463E-022
 -2.799999999999999E-003    5.791854986551447E-022
 -2.699999999999999E-003    6.828802630433465E-022
 -2.599999999999999E-003    7.600366405685798E-022
 -2.499999999999999E-003    7.887251985376774E-022
 -2.399999999999999E-003    7.435231213300927E-022
 -2.299999999999999E-003    5.989507379539894E-022
 -2.199999999999999E-003    3.343400595489397E-022
 -2.099999999999999E-003   -6.036701367292255E-023
 -1.999999999999999E-003   -5.787267903522487E-022
 -1.899999999999999E-003   -1.192902885802783E-021
 -1.799999999999999E-003   -1.850988354068992E-021
 -1.699999999999999E-003   -2.477669824672116E-021
 -1.599999999999999E-003   -2.979052046126987E-021
 -1.499999999999999E-003   -3.251925635701163E-021
 -1.399999999999999E-003   -3.197047128582752E-021
 -1.299999999999999E-003   -2.735206487009057E-021
 -1.199999999999999E-003   -1.824091694133538E-021
 -1.099999999999999E-003   -4.733873308512203E-022
 -9.999999999999989E-004    1.244716330038717E-021
 -8.999999999999990E-004    3.192253529780962E-021
 -7.999999999999990E-004    5.171446386128474E-021
 -6.999999999999989E-004    6.940772709685656E-021
 -5.999999999999990E-004    8.240540330510881E-021
 -4.999999999999989E-004    8.825725258399229E-021
 -3.999999999999989E-004    8.502273494318808E-021
 -2.999999999999989E-004    7.161877852597626E-021
 -1.999999999999989E-004    4.809674850613291E-021
 -9.999999999999892E-005    1.579580504398560E-021
  1.084202172485504E-018   -2.266837242721513E-021
  1.000000000000011E-004   -6.360014783485972E-021
  2.000000000000011E-004   -1.025994625467259E-020
  3.000000000000011E-004   -1.350805062946881E-020
  4.000000000000011E-004   -1.568699653433523E-020
  5.000000000000011E-004   -1.648004248447321E-020
  6.000000000000011E-004   -1.572053159970006E-020
  7.000000000000011E-004   -1.342272443767474E-020
  8.000000000000011E-004   -9.787306183380200E-021
  9.000000000000012E-004   -5.178445543071669E-021
  1.000000000000001E-003   -7.388024322133632E-023
  1.100000000000001E-003    5.005651208540307E-021
  1.200000000000001E-003    9.576933815900440E-021
  1.300000000000001E-003    1.327107985111593E-020
  1.400000000000001E-003    1.589207151533335E-020
  1.500000000000001E-003    1.744421754387232E-020
  1.600000000000001E-003    1.812003752411341E-020
  1.700000000000001E-003    1.824664233952752E-020
  1.800000000000001E-003    1.819656366215388E-020
  1.900000000000001E-003    1.827688691072595E-020
  2.000000000000001E-003    1.861703527867630E-020
  2.100000000000001E-003    1.907915851946943E-020
  2.200000000000001E-003    1.921465477548356E-020
  2.300000000000001E-003    1.828535231473175E-020
  2.400000000000001E-003    1.535843722365156E-020
  2.500000000000001E-003    9.471434884578712E-021
  2.600000000000001E-003   -1.508540953452468E-022
  2.700000000000001E-003   -1.385907199612302E-020
  2.800000000000001E-003   -3.136334590086057E-020
  2.900000000000001E-003   -5.158444043645447E-020
  3.000000000000001E-003   -7.261429065333628E-020
  3.100000000000001E-003   -9.181625785858452E-020
  3.200000000000001E-003   -1.060760205076583E-019
  3.300000000000001E-003   -1.121892500575110E-019
  3.400000000000001E-003   -1.073455175681413E-019
  3.500000000000001E-003   -8.964410677416143E-020
  3.600000000000001E-003   -5.856071724051927E-020
  3.700000000000001E-003   -1.527891007487835E-020
  3.800000000000001E-003    3.719085003523733E-020
  3.900000000000001E-003    9.415781297287330E-020
  4.000000000000001E-003    1.496798727255814E-019
  4.100000000000001E-003    1.972461244605832E-019
  4.200000000000001E-003    2.306375419282990E-019
  4.300000000000001E-003    2.448488852404248E-019
  4.400000000000001E-003    2.369286875650046E-019
  4.500000000000001E-003    2.065876684912759E-019
  4.600000000000002E-003    1.564455781562596E-019
  4.700000000000001E-003    9.183042085120667E-020
  4.800000000000001E-003    2.011033227323859E-020
  4.900000000000002E-003   -5.038329219828087E-020
  5.000000000000001E-003   -1.117029483066754E-019
  5.100000000000001E-003   -1.576972086144671E-019
  5.200000000000001E-003   -1.852421718495535E-019
  5.300000000000002E-003   -1.950432404397059E-019
  5.400000000000001E-003   -1.917991185843671E-019
  5.500000000000001E-003   -1.836028794558079E-019
  5.600000000000002E-003   -1.805731807705465E-019
  5.700000000000001E-003   -1.928461072695989E-019
  5.800000000000001E-003   -2.281937829464479E-019
  5.900000000000002E-003   -2.896462105479417E-019
  6.000000000000001E-003   -3.735544436515009E-019
  6.100000000000001E-003   -4.685294802113875E-019
  6.200000000000002E-003   -5.556108542371708E-019
  6.300000000000002E-003   -6.098669033180631E-019
  6.400000000000001E-003   -6.034177994049925E-019
  6.500000000000001E-003   -5.096316456181837E-019
  6.600000000000002E-003   -3.080071951342044E-019
  6.700000000000001E-003    1.093252764895720E-020
  6.800000000000001E-003    4.415204764361419E-019
  6.900000000000002E-003    9.603775916708508E-019
  7.000000000000001E-003    1.526043378678955E-018
  7.100000000000001E-003    2.081198649637065E-018
  7.200000000000002E-003    2.557523760495900E-018
  7.300000000000002E-003    2.882837075651291E-018
  7.400000000000001E-003    2.989765077968396E-018
  7.500000000000001E-003    2.824879920823168E-018
  7.600000000000002E-003    2.357051633368169E-018
  7.700000000000001E-003    1.583761076552948E-018
  7.800000000000001E-003    5.343077424434467E-019
  7.900000000000001E-003   -7.307666624185041E-019
  8.000000000000002E-003   -2.124194875540244E-018
  8.100000000000001E-003   -3.539997337410910E-018
  8.200000000000001E-003   -4.863973806415278E-018
  8.300000000000002E-003   -5.985203846536366E-018
  8.400000000000001E-003   -6.806849316337847E-018
  8.500000000000002E-003   -7.254593566093003E-018
  8.600000000000002E-003   -7.281397709549258E-018
  8.700000000000001E-003   -6.867868897338311E-018
  8.800000000000002E-003   -6.018345066667807E-018
  8.900000000000002E-003   -4.753679141714939E-018
  9.000000000000001E-003   -3.102487869880464E-018
  9.100000000000002E-003   -1.093177547456145E-018
  9.200000000000002E-003    1.250802321340691E-018
  9.300000000000001E-003    3.910346694344454E-018
  9.400000000000002E-003    6.863416788396977E-018
  9.500000000000001E-003    1.007103897236196E-017
  9.600000000000001E-003    1.345803386959837E-017
  9.700000000000002E-003    1.689147605283433E-017
  9.800000000000001E-003    2.016121244796005E-017
  9.900000000000001E-003    2.296754009409061E-017
  1.000000000000000E-002    2.492120439665958E-017
  1.010000000000000E-002    2.556001013530344E-017
  1.020000000000000E-002    2.438454531449927E-017
  1.030000000000000E-002    2.091293865189833E-017
  1.040000000000000E-002    1.475147142465177E-017
  1.050000000000000E-002    5.674646407968842E-018
  1.060000000000000E-002   -6.294561207707273E-018
  1.070000000000000E-002   -2.081548552321862E-017
  1.080000000000000E-002   -3.718353409128465E-017
  1.090000000000000E-002   -5.431795128386847E-017
  1.100000000000000E-002   -7.079201051347711E-017
  1.110000000000000E-002   -8.490995327801481E-017
  1.120000000000000E-002   -9.482968379257269E-017
  1.130000000000000E-002   -9.872445283654625E-017
  1.140000000000000E-002   -9.497104972430778E-017
  1.150000000000000E-002   -8.234749416088125E-017
  1.160000000000000E-002   -6.022013556839407E-017
  1.170000000000000E-002   -2.869933244906024E-017
  1.180000000000000E-002    1.125540527690602E-017
  1.190000000000000E-002    5.779603175746572E-017
  1.200000000000000E-002    1.082215781850432E-016
  1.210000000000000E-002    1.590909958250402E-016
  1.220000000000000E-002    2.064082360703972E-016
  1.230000000000000E-002    2.458678529821973E-016
  1.240000000000000E-002    2.731444915630379E-016
  1.250000000000000E-002    2.842068427821539E-016
  1.260000000000000E-002    2.756357363207600E-016
  1.270000000000000E-002    2.449280361489863E-016
  1.280000000000000E-002    1.907703060482551E-016
  1.290000000000000E-002    1.132704888241497E-016
  1.300000000000000E-002    1.413792359860328E-017
  1.310000000000000E-002   -1.031958338032575E-016
  1.320000000000000E-002   -2.335239682249004E-016
  1.330000000000000E-002   -3.698901442538248E-016
  1.340000000000000E-002   -5.037081583638860E-016
  1.350000000000000E-002   -6.249952040700251E-016
  1.360000000000000E-002   -7.227406028442609E-016
  1.370000000000000E-002   -7.854316053291112E-016
  1.380000000000000E-002   -8.017505997246937E-016
  1.390000000000000E-002   -7.614454372075331E-016
  1.400000000000000E-002   -6.563529544666975E-016
  1.410000000000000E-002   -4.815295451866039E-016
  1.420000000000000E-002   -2.364113137113613E-016
  1.430000000000000E-002    7.410465342922400E-017
  1.440000000000000E-002    4.387924467799689E-016
  1.450000000000000E-002    8.395938818776678E-016
  1.460000000000000E-002    1.251630314708648E-015
  1.470000000000000E-002    1.643862272551701E-015
  1.480000000000000E-002    1.980488548827256E-015
  1.490000000000000E-002    2.223115830806850E-015
  1.500000000000000E-002    2.333648712127415E-015
  1.510000000000000E-002    2.277762691288991E-015
  1.520000000000000E-002    2.028727563860412E-015
  1.530000000000000E-002    1.571267730133400E-015
  1.540000000000000E-002    9.050847767273356E-016
  1.550000000000000E-002    4.763257327346180E-017
  1.560000000000000E-002   -9.642522359452670E-016
  1.570000000000000E-002   -2.074212601851800E-015
  1.580000000000000E-002   -3.207976266342883E-015
  1.590000000000000E-002   -4.276822904308124E-015
  1.600000000000000E-002   -5.182867986232852E-015
  1.610000000000000E-002   -5.825942560363119E-015
  1.620000000000000E-002   -6.111675500741462E-015
  1.630000000000000E-002   -5.960227749538748E-015
  1.640000000000000E-002   -5.315016137564319E-015
  1.650000000000000E-002   -4.150689166904379E-015
  1.660000000000000E-002   -2.479612198313751E-015
  1.670000000000000E-002   -3.561613391960847E-016
  1.680000000000000E-002    2.121754365650884E-015
  1.690000000000000E-002    4.814377080842365E-015
  1.700000000000000E-002    7.545212600572475E-015
  1.710000000000000E-002    1.010957543492109E-014
  1.720000000000000E-002    1.228632541941454E-014
  1.730000000000000E-002    1.385231681151451E-014
  1.740000000000000E-002    1.459886312649421E-014
  1.750000000000000E-002    1.434929768607532E-014
  1.760000000000000E-002    1.297657237347747E-014
  1.770000000000000E-002    1.041965877939409E-014
  1.780000000000000E-002    6.697490640869456E-015
  1.790000000000000E-002    1.919109050352319E-015
  1.800000000000000E-002   -3.711242182061366E-015
  1.810000000000000E-002   -9.895205023039662E-015
  1.820000000000000E-002   -1.624847882856246E-014
  1.830000000000000E-002   -2.231663821537556E-014
  1.840000000000000E-002   -2.759869197364253E-014
  1.850000000000000E-002   -3.157792055868902E-014
  1.860000000000000E-002   -3.375888233703576E-014
  1.870000000000000E-002   -3.370876060210223E-014