 -4.000000000000000E-002    0.000000000000000E+000
 -3.990000000000000E-002    0.000000000000000E+000
 -3.980000000000000E-002    0.000000000000000E+000
 -3.970000000000000E-002    0.000000000000000E+000
 -3.960000000000000E-002    0.000000000000000E+000
 -3.950000000000000E-002    0.000000000000000E+000
 -3.940000000000000E-002    0.000000000000000E+000
 -3.930000000000000E-002    0.000000000000000E+000
 -3.920000000000000E-002    0.000000000000000E+000
 -3.910000000000000E-002    0.000000000000000E+000
 -3.900000000000000E-002    0.000000000000000E+000
 -3.890000000000000E-002    0.000000000000000E+000
 -3.880000000000000E-002    0.000000000000000E+000
 -3.870000000000000E-002    0.000000000000000E+000
 -3.860000000000000E-002    0.000000000000000E+000
 -3.850000000000000E-002    0.000000000000000E+000
 -3.840000000000000E-002    0.000000000000000E+000
 -3.830000000000000E-002    0.000000000000000E+000
 -3.820000000000000E-002    0.000000000000000E+000
 -3.810000000000000E-002    0.000000000000000E+000
 -3.800000000000000E-002    0.000000000000000E+000
 -3.790000000000000E-002    0.000000000000000E+000
 -3.780000000000000E-002    0.000000000000000E+000
 -3.770000000000000E-002    0.000000000000000E+000
 -3.760000000000000E-002    0.000000000000000E+000
 -3.750000000000000E-002    0.000000000000000E+000
 -3.740000000000000E-002    0.000000000000000E+000
 -3.730000000000000E-002    0.000000000000000E+000
 -3.720000000000000E-002    0.000000000000000E+000
 -3.710000000000000E-002    0.000000000000000E+000
 -3.700000000000000E-002    0.000000000000000E+000
 -3.690000000000000E-002    0.000000000000000E+000
 -3.680000000000000E-002    0.000000000000000E+000
 -3.670000000000000E-002    0.000000000000000E+000
 -3.660000000000000E-002    0.000000000000000E+000
 -3.650000000000000E-002    0.000000000000000E+000
 -3.640000000000000E-002    0.000000000000000E+000
 -3.630000000000000E-002    0.000000000000000E+000
 -3.620000000000000E-002    0.000000000000000E+000
 -3.610000000000000E-002    0.000000000000000E+000
 -3.600000000000000E-002    0.000000000000000E+000
 -3.590000000000000E-002    0.000000000000000E+000
 -3.580000000000000E-002    0.000000000000000E+000
 -3.570000000000000E-002    0.000000000000000E+000
 -3.560000000000000E-002    0.000000000000000E+000
 -3.550000000000000E-002    0.000000000000000E+000
 -3.540000000000000E-002    0.000000000000000E+000
 -3.530000000000000E-002    0.000000000000000E+000
 -3.520000000000000E-002    0.000000000000000E+000
 -3.510000000000000E-002    0.000000000000000E+000
 -3.500000000000000E-002    0.000000000000000E+000
 -3.490000000000000E-002    0.000000000000000E+000
 -3.480000000000000E-002    0.000000000000000E+000
 -3.470000000000000E-002    0.000000000000000E+000
 -3.460000000000000E-002    0.000000000000000E+000
 -3.450000000000000E-002    0.000000000000000E+000
 -3.440000000000000E-002    0.000000000000000E+000
 -3.430000000000000E-002    0.000000000000000E+000
 -3.420000000000000E-002    0.000000000000000E+000
 -3.410000000000000E-002    0.000000000000000E+000
 -3.400000000000000E-002    0.000000000000000E+000
 -3.390000000000000E-002    0.000000000000000E+000
 -3.380000000000000E-002    0.000000000000000E+000
 -3.370000000000000E-002    0.000000000000000E+000
 -3.360000000000000E-002    0.000000000000000E+000
 -3.350000000000000E-002    0.000000000000000E+000
 -3.340000000000000E-002    0.000000000000000E+000
 -3.330000000000000E-002    0.000000000000000E+000
 -3.320000000000000E-002    0.000000000000000E+000
 -3.310000000000000E-002    0.000000000000000E+000
 -3.300000000000000E-002    0.000000000000000E+000
 -3.290000000000000E-002    0.000000000000000E+000
 -3.280000000000000E-002    0.000000000000000E+000
 -3.270000000000000E-002    0.000000000000000E+000
 -3.260000000000000E-002    0.000000000000000E+000
 -3.250000000000000E-002    0.000000000000000E+000
 -3.240000000000000E-002    0.000000000000000E+000
 -3.230000000000000E-002    0.000000000000000E+000
 -3.220000000000000E-002    0.000000000000000E+000
 -3.210000000000000E-002    0.000000000000000E+000
 -3.200000000000000E-002    0.000000000000000E+000
 -3.190000000000000E-002    0.000000000000000E+000
 -3.180000000000000E-002    0.000000000000000E+000
 -3.170000000000000E-002    0.000000000000000E+000
 -3.160000000000000E-002    0.000000000000000E+000
 -3.150000000000000E-002    0.000000000000000E+000
 -3.140000000000000E-002    0.000000000000000E+000
 -3.130000000000000E-002    0.000000000000000E+000
 -3.120000000000000E-002    0.000000000000000E+000
 -3.110000000000000E-002    0.000000000000000E+000
 -3.100000000000000E-002    0.000000000000000E+000
 -3.090000000000000E-002    0.000000000000000E+000
 -3.080000000000000E-002    0.000000000000000E+000
 -3.070000000000000E-002    0.000000000000000E+000
 -3.060000000000000E-002    3.868802447966698E-047
 -3.050000000000000E-002    1.222784960888829E-046
 -3.040000000000000E-002    2.058689676980987E-046
 -3.030000000000000E-002    1.930396970896562E-046
 -3.020000000000000E-002    1.351077666973254E-046
 -3.010000000000000E-002   -5.151729508810952E-047
 -3.000000000000000E-002   -3.697622471905054E-046
 -2.990000000000000E-002   -6.293929798027442E-046
 -2.980000000000000E-002   -1.004165763595308E-045
 -2.970000000000000E-002   -1.207226533889081E-045
 -2.960000000000000E-002   -1.012446445313026E-045
 -2.950000000000000E-002    6.534479364313584E-046
 -2.940000000000000E-002    3.385658268608431E-045
 -2.930000000000000E-002    8.352150161733883E-045
 -2.920000000000000E-002    1.513800971815244E-044
 -2.910000000000000E-002    2.228717043020464E-044
 -2.900000000000000E-002    2.896569601402867E-044
 -2.890000000000000E-002    2.906918890402009E-044
 -2.880000000000000E-002    1.532005884967027E-044
 -2.870000000000000E-002   -2.364181339002139E-044
 -2.860000000000000E-002   -1.032357630231604E-043
 -2.850000000000000E-002   -2.349118464799579E-043
 -2.840000000000000E-002   -4.234213437572885E-043
 -2.830000000000000E-002   -6.529322522010025E-043
 -2.820000000000000E-002   -8.688806076823556E-043
 -2.810000000000000E-002   -9.605090110586840E-043
 -2.800000000000000E-002   -7.389347784985011E-043
 -2.790000000000000E-002    6.998822049296623E-044
 -2.780000000000000E-002    1.812391360018931E-042
 -2.770000000000000E-002    4.845255961567662E-042
 -2.760000000000000E-002    9.408013587230303E-042
 -2.750000000000000E-002    1.541589181621553E-041
 -2.740000000000000E-002    2.214619751330279E-041
 -2.730000000000000E-002    2.785386969891040E-041
 -2.720000000000000E-002    2.936736633876956E-041
 -2.710000000000000E-002    2.178923056760311E-041
 -2.700000000000000E-002   -1.486572200802481E-042
 -2.690000000000000E-002   -4.816660620007641E-041
 -2.680000000000000E-002   -1.255074456558580E-040
 -2.670000000000000E-002   -2.374837985432473E-040
 -2.660000000000000E-002   -3.804482421454739E-040
 -2.650000000000000E-002   -5.373246445957116E-040
 -2.640000000000000E-002   -6.709054423720475E-040
 -2.630000000000000E-002   -7.175374676334621E-040
 -2.620000000000000E-002   -5.834739319363169E-040
 -2.610000000000000E-002   -1.472191788408672E-040
 -2.600000000000000E-002    7.278866348092787E-040
 -2.590000000000000E-002    2.166163010720143E-039
 -2.580000000000000E-002    4.233119619361244E-039
 -2.570000000000000E-002    6.868184224744474E-039
 -2.560000000000000E-002    9.799253718677026E-039
 -2.550000000000000E-002    1.244871151161162E-038
 -2.540000000000000E-002    1.385018790894987E-038
 -2.530000000000000E-002    1.260676047663907E-038
 -2.520000000000000E-002    6.932825906954682E-039
 -2.510000000000000E-002   -5.169512660468256E-039
 -2.500000000000000E-002   -2.554719345032352E-038
 -2.490000000000000E-002   -5.530461143495579E-038
 -2.480000000000000E-002   -9.397122532839942E-038
 -2.470000000000000E-002   -1.384675779912550E-037
 -2.460000000000000E-002   -1.819861159490952E-037
 -2.450000000000000E-002   -2.130031025593866E-037
 -2.440000000000000E-002   -2.147518321348454E-037
 -2.430000000000000E-002   -1.655965975694772E-037
 -2.420000000000000E-002   -4.082333336126969E-038
 -2.410000000000000E-002    1.836325085494572E-037
 -2.400000000000000E-002    5.251124440815599E-037
 -2.390000000000000E-002    9.856839879780683E-037
 -2.380000000000000E-002    1.541460576933052E-036
 -2.370000000000000E-002    2.130837545091794E-036
 -2.360000000000000E-002    2.643587053150130E-036
 -2.350000000000000E-002    2.913771029560420E-036
 -2.340000000000000E-002    2.720418829513703E-036
 -2.330000000000000E-002    1.800652799282614E-036
 -2.320000000000000E-002   -1.198899412473140E-037
 -2.310000000000000E-002   -3.275252667489644E-036
 -2.300000000000000E-002   -7.783955689445345E-036
 -2.290000000000000E-002   -1.355211672177513E-035
 -2.280000000000000E-002   -2.016216390507733E-035
 -2.270000000000000E-002   -2.676172450294844E-035
 -2.260000000000000E-002   -3.197583524437620E-035
 -2.250000000000000E-002   -3.387437961253766E-035
 -2.240000000000000E-002   -3.003400671013491E-035
 -2.230000000000000E-002   -1.773730383931909E-035
 -2.220000000000000E-002    5.651168137779553E-036
 -2.210000000000000E-002    4.210531782572796E-035
 -2.200000000000000E-002    9.215372299096956E-035
 -2.190000000000000E-002    1.539315977236463E-034
 -2.180000000000000E-002    2.221643574976180E-034
 -2.170000000000000E-002    2.872468945648201E-034
 -2.160000000000000E-002    3.346559766176949E-034
 -2.150000000000000E-002    3.450002221507150E-034
 -2.140000000000000E-002    2.950548814580237E-034
 -2.130000000000000E-002    1.601260771633051E-034
 -2.120000000000000E-002   -8.198477549552648E-035
 -2.110000000000000E-002   -4.453144562988428E-034
 -2.100000000000000E-002   -9.285474132930885E-034
 -2.090000000000000E-002   -1.506877520832250E-033
 -2.080000000000000E-002   -2.123994654191248E-033
 -2.070000000000000E-002   -2.685817755115545E-033
 -2.060000000000000E-002   -3.058109785404719E-033
 -2.050000000000000E-002   -3.070482427536415E-033
 -2.040000000000000E-002   -2.529350101679160E-033
 -2.030000000000000E-002   -1.241993483469724E-033
 -2.020000000000000E-002    9.471576805182414E-034
 -2.010000000000000E-002    4.108698164566736E-033
 -2.000000000000000E-002    8.172096896250411E-033
 -1.990000000000000E-002    1.286763374138984E-032
 -1.980000000000000E-002    1.767633966634543E-032
 -1.970000000000000E-002    2.180116884426148E-032
 -1.960000000000000E-002    2.417498223380683E-032
 -1.950000000000000E-002    2.352145607454596E-032
 -1.940000000000000E-002    1.848273423559662E-032
 -1.930000000000000E-002    7.821740519761335E-033
 -1.920000000000000E-002   -9.303051222473457E-033
 -1.910000000000000E-002   -3.300677551547216E-032
 -1.900000000000000E-002   -6.232515053396201E-032
 -1.890000000000000E-002   -9.489203270670843E-032
 -1.880000000000000E-002   -1.267178368001571E-031
 -1.870000000000000E-002   -1.521511803464813E-031
 -1.860000000000000E-002   -1.641088051086746E-031
 -1.850000000000000E-002   -1.546471437750140E-031
 -1.840000000000000E-002   -1.159199733030417E-031
 -1.830000000000000E-002   -4.151809640861972E-032
 -1.820000000000000E-002    7.187947431159287E-032
 -1.810000000000000E-002    2.226936870486455E-031
 -1.800000000000000E-002    4.027083431214337E-031
 -1.790000000000000E-002    5.957202750413186E-031
 -1.780000000000000E-002    7.769415292215909E-031
 -1.770000000000000E-002    9.135310637963652E-031
 -1.760000000000000E-002    9.665877804184542E-031
 -1.750000000000000E-002    8.948243820853827E-031
 -1.740000000000000E-002    6.599543350898516E-031
 -1.730000000000000E-002    2.335754444663953E-031
 -1.720000000000000E-002   -3.949671671745064E-031
 -1.710000000000000E-002   -1.210567854019416E-030
 -1.700000000000000E-002   -2.165314190138675E-030
 -1.690000000000000E-002   -3.173737101910841E-030
 -1.680000000000000E-002   -4.111770665531760E-030
 -1.670000000000000E-002   -4.820753015518967E-030
 -1.660000000000000E-002   -5.117516090036197E-030
 -1.650000000000000E-002   -4.811114808824786E-030
 -1.640000000000000E-002   -3.726051164617062E-030
 -1.630000000000000E-002   -1.731003335601169E-030
 -1.620000000000000E-002    1.228892903276024E-030
 -1.610000000000000E-002    5.099125439728695E-030
 -1.600000000000000E-002    9.686073573714388E-030
 -1.590000000000000E-002    1.463502309242158E-029
 -1.580000000000000E-002    1.942095294347599E-029
 -1.570000000000000E-002    2.335726205062786E-029
 -1.560000000000000E-002    2.562724856106233E-029
 -1.550000000000000E-002    2.534224955112645E-029
 -1.540000000000000E-002    2.162876610054944E-029
 -1.530000000000000E-002    1.374443893206640E-029
 -1.520000000000000E-002    1.219393750324139E-030
 -1.510000000000000E-002   -1.598495365415568E-029
 -1.500000000000000E-002   -3.731292275482713E-029
 -1.490000000000000E-002   -6.146678215771326E-029
 -1.480000000000000E-002   -8.629982167875754E-029
 -1.470000000000000E-002   -1.087814348162637E-028
 -1.460000000000000E-002   -1.250687174118120E-028
 -1.450000000000000E-002   -1.307187431585029E-028
 -1.440000000000000E-002   -1.210693768397480E-028
 -1.430000000000000E-002   -9.180302623746250E-029
 -1.420000000000000E-002   -3.968505219124103E-029
 -1.410000000000000E-002    3.656255093988230E-029
 -1.400000000000000E-002    1.353304437316171E-028
 -1.390000000000000E-002    2.512546092485486E-028
 -1.380000000000000E-002    3.745731480542970E-028
 -1.370000000000000E-002    4.908967613222687E-028
 -1.360000000000000E-002    5.815916956951145E-028
 -1.350000000000000E-002    6.249515974835497E-028
 -1.340000000000000E-002    5.982736083129068E-028
 -1.330000000000000E-002    4.808493789225523E-028
 -1.320000000000000E-002    2.577344689247853E-028
 -1.310000000000000E-002   -7.601845319410220E-029
 -1.300000000000000E-002   -5.111673047337453E-028
 -1.290000000000000E-002   -1.020806665286282E-027
 -1.280000000000000E-002   -1.558406815083992E-027
 -1.270000000000000E-002   -2.058185549821117E-027
 -1.260000000000000E-002   -2.438524633134709E-027
 -1.250000000000000E-002   -2.608885193806064E-027
 -1.240000000000000E-002   -2.480252969109964E-027
 -1.230000000000000E-002   -1.978589633275548E-027
 -1.220000000000000E-002   -1.060119941792450E-027
 -1.210000000000000E-002    2.733531067253735E-028
 -1.200000000000000E-002    1.961451218782568E-027
 -1.190000000000000E-002    3.877185576450393E-027
 -1.180000000000000E-002    5.826484716315163E-027
 -1.170000000000000E-002    7.557404236689448E-027
 -1.160000000000000E-002    8.780181906694353E-027
 -1.150000000000000E-002    9.197921118697564E-027
 -1.140000000000000E-002    8.545992718968897E-027
 -1.130000000000000E-002    6.636432617544445E-027
 -1.120000000000000E-002    3.401991556510411E-027
 -1.110000000000000E-002   -1.066652365944821E-027
 -1.100000000000000E-002   -6.497388258442877E-027
 -1.090000000000000E-002   -1.243309623805245E-026
 -1.080000000000000E-002   -1.825248899572827E-026
 -1.070000000000000E-002   -2.321706928705534E-026
 -1.060000000000000E-002   -2.654235107947799E-026
 -1.050000000000000E-002   -2.748764015509678E-026
 -1.040000000000000E-002   -2.545504081324631E-026
 -1.030000000000000E-002   -2.008577261689811E-026
 -1.020000000000000E-002   -1.134065743656551E-026
 -1.010000000000000E-002    4.474668481052138E-028
 -1.000000000000000E-002    1.455890451518275E-026
 -9.899999999999999E-003    2.991463171253577E-026
 -9.800000000000000E-003    4.514531824485891E-026
 -9.699999999999999E-003    5.869505993901396E-026
 -9.599999999999999E-003    6.894815957195200E-026
 -9.500000000000000E-003    7.436457404296106E-026
 -9.399999999999999E-003    7.360974380623089E-026
 -9.299999999999999E-003    6.566783452027483E-026
 -9.200000000000000E-003    4.993332971661944E-026
 -9.099999999999999E-003    2.628312175172122E-026
 -8.999999999999999E-003   -4.862078609039284E-027
 -8.900000000000000E-003   -4.247461714260445E-026
 -8.799999999999999E-003   -8.484401957273468E-026
 -8.699999999999999E-003   -1.294853744923430E-025
 -8.600000000000000E-003   -1.730434362524316E-025
 -8.499999999999999E-003   -2.112232357454178E-025
 -8.399999999999999E-003   -2.387987881262557E-025
 -8.300000000000000E-003   -2.497668039090342E-025
 -8.199999999999999E-003   -2.377184781186596E-025
 -8.100000000000000E-003   -1.964895778556217E-025
 -8.000000000000000E-003   -1.211162964785461E-025
 -7.899999999999999E-003   -9.067571388186529E-027
 -7.800000000000000E-003    1.383503254500966E-025
 -7.699999999999999E-003    3.146061870681211E-025
 -7.599999999999999E-003    5.068418194039317E-025
 -7.499999999999999E-003    6.953796550908025E-025
 -7.399999999999999E-003    8.541748226353995E-025
 -7.299999999999999E-003    9.524943911830775E-025
 -7.199999999999999E-003    9.579813583115742E-025
 -7.100000000000000E-003    8.410620142414372E-025
 -6.999999999999999E-003    5.803970138049520E-025
 -6.899999999999999E-003    1.687920419207867E-025
 -6.800000000000000E-003   -3.812855958620236E-025
 -6.699999999999999E-003   -1.033632375685843E-024
 -6.599999999999999E-003   -1.726788044765841E-024
 -6.499999999999999E-003   -2.376068374487407E-024
 -6.399999999999999E-003   -2.879826401071837E-024
 -6.299999999999999E-003   -3.130085116396735E-024
 -6.199999999999999E-003   -3.026994426041948E-024
 -6.100000000000000E-003   -2.495775605985243E-024
 -5.999999999999999E-003   -1.504072029803240E-024
 -5.899999999999999E-003   -7.704389302898689E-026
 -5.800000000000000E-003    1.692720887437285E-024
 -5.699999999999999E-003    3.643240553658350E-024
 -5.599999999999999E-003    5.551204811238580E-024
 -5.499999999999999E-003    7.150993915824043E-024
 -5.399999999999999E-003    8.163992251679589E-024
 -5.299999999999999E-003    8.335752993086325E-024
 -5.199999999999999E-003    7.476819082493861E-024
 -5.099999999999999E-003    5.501616805830993E-024
 -4.999999999999999E-003    2.459117453518168E-024
 -4.899999999999999E-003   -1.450852480897575E-024
 -4.799999999999999E-003   -5.880519925323872E-024
 -4.699999999999999E-003   -1.035889077387900E-023
 -4.599999999999999E-003   -1.433780962240152E-023
 -4.499999999999999E-003   -1.725537323440154E-023
 -4.399999999999999E-003   -1.860935511826538E-023
 -4.299999999999999E-003   -1.803070230240944E-023
 -4.199999999999999E-003   -1.534587369455013E-023
 -4.099999999999999E-003   -1.061730593860974E-023
 -3.999999999999999E-003   -4.153723950652132E-024
 -3.899999999999999E-003    3.513743400884760E-024
 -3.799999999999999E-003    1.168818788258114E-023
 -3.699999999999999E-003    1.958893030145643E-023
 -3.599999999999999E-003    2.644635546301939E-023
 -3.499999999999999E-003    3.159358463121526E-023
 -3.399999999999999E-003    3.453839693551641E-023
 -3.299999999999999E-003    3.500147501137472E-023
 -3.199999999999999E-003    3.291310789842041E-023
 -3.099999999999999E-003    2.836909003398859E-023
 -2.999999999999999E-003    2.155641159937099E-023
 -2.899999999999999E-003    1.266841143292842E-023
 -2.799999999999999E-003    1.835305436759676E-024
 -2.699999999999999E-003   -1.090273258212149E-023
 -2.599999999999999E-003   -2.555776543596691E-023
 -2.499999999999999E-003   -4.208106513586764E-023
 -2.399999999999999E-003   -6.018170106010618E-023
 -2.299999999999999E-003   -7.910411721896580E-023
 -2.199999999999999E-003   -9.741203000001918E-023
 -2.099999999999999E-003   -1.128409634666651E-022
 -1.999999999999999E-003   -1.222869951358900E-022
 -1.899999999999999E-003   -1.219912283868116E-022
 -1.799999999999999E-003   -1.079562646568688E-022
 -1.699999999999999E-003   -7.659306821565085E-023
 -1.599999999999999E-003   -2.554821391623731E-023
 -1.499999999999999E-003    4.539059329696995E-023
 -1.399999999999999E-003    1.334594778134519E-022
 -1.299999999999999E-003    2.323329753322354E-022
 -1.199999999999999E-003    3.319718414562446E-022
 -1.099999999999999E-003    4.190588133105884E-022
 -9.999999999999989E-004    4.781121726730063E-022
 -8.999999999999990E-004    4.932698817221380E-022
 -7.999999999999990E-004    4.506172339194622E-022
 -6.999999999999989E-004    3.408059781127729E-022
 -5.999999999999990E-004    1.616031531817458E-022
 -4.999999999999989E-004   -8.006253399445696E-023
 -3.999999999999989E-004   -3.670018287260068E-022
 -2.999999999999989E-004   -6.719949280785850E-022
 -1.999999999999989E-004   -9.595928505716289E-022
 -9.999999999999892E-005   -1.189523385454796E-021
  1.084202172485504E-018   -1.321478688412135E-021
  1.000000000000011E-004   -1.320797578579418E-021
  2.000000000000011E-004   -1.164319647592955E-021
  3.000000000000011E-004   -8.455356328227388E-022
  4.000000000000011E-004   -3.781233161797699E-022
  5.000000000000011E-004    2.029325899888289E-022
  6.000000000000011E-004    8.431743305689938E-022
  7.000000000000011E-004    1.473603970402810E-021
  8.000000000000011E-004    2.018380860527222E-021
  9.000000000000012E-004    2.404454624736805E-021
  1.000000000000001E-003    2.571876346871220E-021
  1.100000000000001E-003    2.483250933964198E-021
  1.200000000000001E-003    2.130742772621754E-021
  1.300000000000001E-003    1.539250426121093E-021
  1.400000000000001E-003    7.648467017938633E-022
  1.500000000000001E-003   -1.117245059934365E-022
  1.600000000000001E-003   -9.958764561157067E-022
  1.700000000000001E-003   -1.792889273620461E-021
  1.800000000000001E-003   -2.422379973154231E-021
  1.900000000000001E-003   -2.831032598344454E-021
  2.000000000000001E-003   -3.001110226165207E-021
  2.100000000000001E-003   -2.952761649858011E-021
  2.200000000000001E-003   -2.739061866274736E-021
  2.300000000000001E-003   -2.433988826840821E-021
  2.400000000000001E-003   -2.114944124393247E-021
  2.500000000000001E-003   -1.842739487677290E-021
  2.600000000000001E-003   -1.642920468892198E-021
  2.700000000000001E-003   -1.492647023375623E-021
  2.800000000000001E-003   -1.316934685081909E-021
  2.900000000000001E-003   -9.968259384092469E-022
  3.000000000000001E-003   -3.901117544964606E-022
  3.100000000000001E-003    6.372000133791350E-022
  3.200000000000001E-003    2.172981683787746E-021
  3.300000000000001E-003    4.221100753940593E-021
  3.400000000000001E-003    6.671299580721288E-021
  3.500000000000001E-003    9.284643929723638E-021
  3.600000000000001E-003    1.170092099067349E-020
  3.700000000000001E-003    1.347147897293957E-020
  3.800000000000001E-003    1.411690395403818E-020
  3.900000000000001E-003    1.320417659732666E-020
  4.000000000000001E-003    1.043329952187230E-020
  4.100000000000001E-003    5.719695792410523E-021
  4.200000000000001E-003   -7.431830876323315E-022
  4.300000000000001E-003   -8.455994156984155E-021
  4.400000000000001E-003   -1.663194557236626E-020
  4.500000000000001E-003   -2.426701030342480E-020
  4.600000000000002E-003   -3.025925774196633E-020
  4.700000000000001E-003   -3.356557652988074E-020
  4.800000000000001E-003   -3.337551837941760E-020
  4.900000000000002E-003   -2.927550055519067E-020
  5.000000000000001E-003   -2.137381220587202E-020
  5.100000000000001E-003   -1.035870694905920E-020
  5.200000000000001E-003    2.531125521387198E-021
  5.300000000000002E-003    1.563263001379991E-020
  5.400000000000001E-003    2.707470663011004E-020
  5.500000000000001E-003    3.506187257439977E-020
  5.600000000000002E-003    3.818712082921785E-020
  5.700000000000001E-003    3.572465692983886E-020
  5.800000000000001E-003    2.784899645299681E-020
  5.900000000000002E-003    1.573102608010350E-020
  6.000000000000001E-003    1.475089633814996E-021
  6.100000000000001E-003   -1.211713748120583E-020
  6.200000000000002E-003   -2.194282210039064E-020
  6.300000000000002E-003   -2.511159793637700E-020
  6.400000000000001E-003   -1.950736573302984E-020
  6.500000000000001E-003   -4.310216307135744E-021
  6.600000000000002E-003    1.961650090263312E-020
  6.700000000000001E-003    4.956059235923788E-020
  6.800000000000001E-003    8.107958529154220E-020
  6.900000000000002E-003    1.084282349425394E-019
  7.000000000000001E-003    1.252721690856890E-019
  7.100000000000001E-003    1.256146171139599E-019
  7.200000000000002E-003    1.048182139433713E-019
  7.300000000000002E-003    6.057209903145157E-020
  7.400000000000001E-003   -6.356466107307246E-021
  7.500000000000001E-003   -9.173247399660653E-020
  7.600000000000002E-003   -1.879326539215662E-019
  7.700000000000001E-003   -2.845384345938431E-019
  7.800000000000001E-003   -3.694101933592796E-019
  7.900000000000001E-003   -4.301298958777900E-019
  8.000000000000002E-003   -4.556288929835543E-019
  8.100000000000001E-003   -4.377694412686538E-019
  8.200000000000001E-003   -3.726345588547834E-019
  8.300000000000002E-003   -2.613066984775629E-019
  8.400000000000001E-003   -1.099810711246684E-019
  8.500000000000002E-003    7.064113742555666E-020
  8.600000000000002E-003    2.666160235321045E-019
  8.700000000000001E-003    4.624945034831459E-019
  8.800000000000002E-003    6.432521850729464E-019
  8.900000000000002E-003    7.960735130623735E-019
  9.000000000000001E-003    9.116499655873111E-019
  9.100000000000002E-003    9.847167246056189E-019
  9.200000000000002E-003    1.013676297481528E-018
  9.300000000000001E-003    9.993302514812108E-019
  9.400000000000002E-003    9.429328839322895E-019
  9.500000000000001E-003    8.439623226215121E-019
  9.600000000000001E-003    6.981390582154252E-019
  9.700000000000002E-003    4.962750066945079E-019
  9.800000000000001E-003    2.244843685554532E-019
  9.900000000000001E-003   -1.338767692141394E-019
  1.000000000000000E-002   -5.944460965085643E-019
  1.010000000000000E-002   -1.166513262144693E-018
  1.020000000000000E-002   -1.846719002409812E-018
  1.030000000000000E-002   -2.612753258325374E-018
  1.040000000000000E-002   -3.418249570228477E-018
  1.050000000000000E-002   -4.190156356920611E-018
  1.060000000000000E-002   -4.829753035549314E-018
  1.070000000000000E-002   -5.218145506531333E-018
  1.080000000000000E-002   -5.226548681614363E-018
  1.090000000000000E-002   -4.730979310962928E-018
  1.100000000000000E-002   -3.630244918980671E-018
  1.110000000000000E-002   -1.865395536809698E-018
  1.120000000000000E-002    5.617470654261173E-019
  1.130000000000000E-002    3.573676023814112E-018
  1.140000000000000E-002    7.008562926749120E-018
  1.150000000000000E-002    1.062014819551599E-017
  1.160000000000000E-002    1.408764455743839E-017
  1.170000000000000E-002    1.703605897889532E-017
  1.180000000000000E-002    1.906610628230635E-017
  1.190000000000000E-002    1.979159232366725E-017
  1.200000000000000E-002    1.888103965670911E-017
  1.210000000000000E-002    1.609950524519163E-017
  1.220000000000000E-002    1.134614538479038E-017
  1.230000000000000E-002    4.683286837738856E-018
  1.240000000000000E-002   -3.646636150634037E-018
  1.250000000000000E-002   -1.321877168080262E-017
  1.260000000000000E-002   -2.343923763659475E-017
  1.270000000000000E-002   -3.357378754874337E-017
  1.280000000000000E-002   -4.278986139408070E-017
  1.290000000000000E-002   -5.020907706091312E-017
  1.300000000000000E-002   -5.496645501563913E-017
  1.310000000000000E-002   -5.627253580683331E-017
  1.320000000000000E-002   -5.347487600176796E-017
  1.330000000000000E-002   -4.611595071003196E-017
  1.340000000000000E-002   -3.398538845102809E-017
  1.350000000000000E-002   -1.716496109106704E-017
  1.360000000000000E-002    3.934757742640846E-018
  1.370000000000000E-002    2.854755729359714E-017
  1.380000000000000E-002    5.553669672696972E-017
  1.390000000000000E-002    8.339545515920823E-017
  1.400000000000000E-002    1.102679964665478E-016
  1.410000000000000E-002    1.339967665398157E-016
  1.420000000000000E-002    1.522031996301016E-016
  1.430000000000000E-002    1.624077928881064E-016
  1.440000000000000E-002    1.621934636135476E-016
  1.450000000000000E-002    1.494119049644925E-016
  1.460000000000000E-002    1.224268094495860E-016
  1.470000000000000E-002    8.038057467657009E-017
  1.480000000000000E-002    2.346313745936074E-017
  1.490000000000000E-002   -4.684562642651759E-017
  1.500000000000000E-002   -1.275942999280631E-016
  1.510000000000000E-002   -2.142759889731718E-016
  1.520000000000000E-002   -3.008772121707047E-016
  1.530000000000000E-002   -3.800882054149189E-016
  1.540000000000000E-002   -4.436911463328868E-016
  1.550000000000000E-002   -4.831260737276221E-016
  1.560000000000000E-002   -4.902144459506830E-016
  1.570000000000000E-002   -4.579972718413454E-016
  1.580000000000000E-002   -3.816248298699140E-016
  1.590000000000000E-002   -2.592162523826479E-016
  1.600000000000000E-002   -9.259625555020192E-017
  1.610000000000000E-002    1.121866900261132E-016
  1.620000000000000E-002    3.446493946537499E-016
  1.630000000000000E-002    5.900415067083175E-016
  1.640000000000000E-002    8.299348203693592E-016
  1.650000000000000E-002    1.043242491587440E-015
  1.660000000000000E-002    1.207635314646769E-015
  1.670000000000000E-002    1.301281229945803E-015
  1.680000000000000E-002    1.304794317635715E-015
  1.690000000000000E-002    1.203248423903276E-015
  1.700000000000000E-002    9.880894501036730E-016
  1.710000000000000E-002    6.587712147730784E-016
  1.720000000000000E-002    2.239477453177370E-016
  1.730000000000000E-002   -2.979263719964988E-016
  1.740000000000000E-002   -8.787007348063926E-016
  1.750000000000000E-002   -1.481409434360495E-015
  1.760000000000000E-002   -2.061944791190902E-015
  1.770000000000000E-002   -2.571488654113449E-015
  1.780000000000000E-002   -2.959607857735419E-015
  1.790000000000000E-002   -3.177870896366300E-015
  1.800000000000000E-002   -3.183791652172026E-015
  1.810000000000000E-002   -2.944868176616633E-015
  1.820000000000000E-002   -2.442447456050213E-015
  1.830000000000000E-002   -1.675135029065790E-015
  1.840000000000000E-002   -6.614432052280858E-016
  1.850000000000000E-002    5.586116055007471E-016
  1.860000000000000E-002    1.923238311957110E-015
  1.870000000000000E-002    3.350160298239159E-015