 -4.000000000000000E-002    0.000000000000000E+000
 -3.990000000000000E-002    0.000000000000000E+000
 -3.980000000000000E-002    0.000000000000000E+000
 -3.970000000000000E-002    0.000000000000000E+000
 -3.960000000000000E-002    0.000000000000000E+000
 -3.950000000000000E-002    0.000000000000000E+000
 -3.940000000000000E-002    0.000000000000000E+000
 -3.930000000000000E-002    0.000000000000000E+000
 -3.920000000000000E-002    0.000000000000000E+000
 -3.910000000000000E-002    0.000000000000000E+000
 -3.900000000000000E-002    0.000000000000000E+000
 -3.890000000000000E-002    0.000000000000000E+000
 -3.880000000000000E-002    0.000000000000000E+000
 -3.870000000000000E-002    0.000000000000000E+000
 -3.860000000000000E-002    0.000000000000000E+000
 -3.850000000000000E-002    0.000000000000000E+000
 -3.840000000000000E-002    0.000000000000000E+000
 -3.830000000000000E-002    0.000000000000000E+000
 -3.820000000000000E-002    0.000000000000000E+000
 -3.810000000000000E-002    0.000000000000000E+000
 -3.800000000000000E-002    0.000000000000000E+000
 -3.790000000000000E-002    0.000000000000000E+000
 -3.780000000000000E-002    0.000000000000000E+000
 -3.770000000000000E-002    0.000000000000000E+000
 -3.760000000000000E-002    0.000000000000000E+000
 -3.750000000000000E-002    0.000000000000000E+000
 -3.740000000000000E-002    0.000000000000000E+000
 -3.730000000000000E-002    0.000000000000000E+000
 -3.720000000000000E-002    0.000000000000000E+000
 -3.710000000000000E-002    0.000000000000000E+000
 -3.700000000000000E-002    0.000000000000000E+000
 -3.690000000000000E-002    0.000000000000000E+000
 -3.680000000000000E-002    0.000000000000000E+000
 -3.670000000000000E-002    0.000000000000000E+000
 -3.660000000000000E-002    0.000000000000000E+000
 -3.650000000000000E-002    0.000000000000000E+000
 -3.640000000000000E-002    0.000000000000000E+000
 -3.630000000000000E-002    0.000000000000000E+000
 -3.620000000000000E-002    0.000000000000000E+000
 -3.610000000000000E-002    0.000000000000000E+000
 -3.600000000000000E-002    0.000000000000000E+000
 -3.590000000000000E-002    0.000000000000000E+000
 -3.580000000000000E-002    0.000000000000000E+000
 -3.570000000000000E-002    0.000000000000000E+000
 -3.560000000000000E-002    0.000000000000000E+000
 -3.550000000000000E-002    0.000000000000000E+000
 -3.540000000000000E-002    0.000000000000000E+000
 -3.530000000000000E-002    0.000000000000000E+000
 -3.520000000000000E-002    0.000000000000000E+000
 -3.510000000000000E-002    0.000000000000000E+000
 -3.500000000000000E-002    0.000000000000000E+000
 -3.490000000000000E-002    0.000000000000000E+000
 -3.480000000000000E-002    0.000000000000000E+000
 -3.470000000000000E-002    0.000000000000000E+000
 -3.460000000000000E-002    0.000000000000000E+000
 -3.450000000000000E-002    0.000000000000000E+000
 -3.440000000000000E-002    0.000000000000000E+000
 -3.430000000000000E-002    0.000000000000000E+000
 -3.420000000000000E-002    0.000000000000000E+000
 -3.410000000000000E-002    0.000000000000000E+000
 -3.400000000000000E-002    0.000000000000000E+000
 -3.390000000000000E-002    0.000000000000000E+000
 -3.380000000000000E-002    0.000000000000000E+000
 -3.370000000000000E-002    0.000000000000000E+000
 -3.360000000000000E-002    0.000000000000000E+000
 -3.350000000000000E-002    0.000000000000000E+000
 -3.340000000000000E-002    0.000000000000000E+000
 -3.330000000000000E-002    0.000000000000000E+000
 -3.320000000000000E-002    0.000000000000000E+000
 -3.310000000000000E-002    0.000000000000000E+000
 -3.300000000000000E-002    0.000000000000000E+000
 -3.290000000000000E-002    0.000000000000000E+000
 -3.280000000000000E-002    0.000000000000000E+000
 -3.270000000000000E-002    0.000000000000000E+000
 -3.260000000000000E-002    0.000000000000000E+000
 -3.250000000000000E-002    0.000000000000000E+000
 -3.240000000000000E-002    0.000000000000000E+000
 -3.230000000000000E-002    0.000000000000000E+000
 -3.220000000000000E-002    0.000000000000000E+000
 -3.210000000000000E-002    0.000000000000000E+000
 -3.200000000000000E-002    0.000000000000000E+000
 -3.190000000000000E-002    0.000000000000000E+000
 -3.180000000000000E-002    0.000000000000000E+000
 -3.170000000000000E-002    0.000000000000000E+000
 -3.160000000000000E-002    0.000000000000000E+000
 -3.150000000000000E-002    0.000000000000000E+000
 -3.140000000000000E-002    0.000000000000000E+000
 -3.130000000000000E-002    0.000000000000000E+000
 -3.120000000000000E-002    0.000000000000000E+000
 -3.110000000000000E-002    0.000000000000000E+000
 -3.100000000000000E-002    0.000000000000000E+000
 -3.090000000000000E-002    0.000000000000000E+000
 -3.080000000000000E-002    0.000000000000000E+000
 -3.070000000000000E-002    0.000000000000000E+000
 -3.060000000000000E-002    0.000000000000000E+000
 -3.050000000000000E-002    0.000000000000000E+000
 -3.040000000000000E-002    0.000000000000000E+000
 -3.030000000000000E-002    0.000000000000000E+000
 -3.020000000000000E-002    0.000000000000000E+000
 -3.010000000000000E-002    0.000000000000000E+000
 -3.000000000000000E-002    0.000000000000000E+000
 -2.990000000000000E-002    0.000000000000000E+000
 -2.980000000000000E-002    0.000000000000000E+000
 -2.970000000000000E-002    0.000000000000000E+000
 -2.960000000000000E-002    0.000000000000000E+000
 -2.950000000000000E-002    0.000000000000000E+000
 -2.940000000000000E-002    0.000000000000000E+000
 -2.930000000000000E-002    0.000000000000000E+000
 -2.920000000000000E-002    0.000000000000000E+000
 -2.910000000000000E-002    0.000000000000000E+000
 -2.900000000000000E-002    0.000000000000000E+000
 -2.890000000000000E-002    0.000000000000000E+000
 -2.880000000000000E-002    0.000000000000000E+000
 -2.870000000000000E-002    0.000000000000000E+000
 -2.860000000000000E-002    0.000000000000000E+000
 -2.850000000000000E-002    0.000000000000000E+000
 -2.840000000000000E-002    0.000000000000000E+000
 -2.830000000000000E-002    0.000000000000000E+000
 -2.820000000000000E-002    0.000000000000000E+000
 -2.810000000000000E-002    0.000000000000000E+000
 -2.800000000000000E-002    0.000000000000000E+000
 -2.790000000000000E-002    0.000000000000000E+000
 -2.780000000000000E-002    0.000000000000000E+000
 -2.770000000000000E-002    0.000000000000000E+000
 -2.760000000000000E-002    0.000000000000000E+000
 -2.750000000000000E-002    0.000000000000000E+000
 -2.740000000000000E-002    0.000000000000000E+000
 -2.730000000000000E-002    0.000000000000000E+000
 -2.720000000000000E-002    0.000000000000000E+000
 -2.710000000000000E-002    0.000000000000000E+000
 -2.700000000000000E-002    0.000000000000000E+000
 -2.690000000000000E-002    0.000000000000000E+000
 -2.680000000000000E-002    0.000000000000000E+000
 -2.670000000000000E-002    0.000000000000000E+000
 -2.660000000000000E-002    0.000000000000000E+000
 -2.650000000000000E-002    0.000000000000000E+000
 -2.640000000000000E-002    0.000000000000000E+000
 -2.630000000000000E-002    0.000000000000000E+000
 -2.620000000000000E-002    0.000000000000000E+000
 -2.610000000000000E-002    0.000000000000000E+000
 -2.600000000000000E-002    0.000000000000000E+000
 -2.590000000000000E-002    0.000000000000000E+000
 -2.580000000000000E-002    0.000000000000000E+000
 -2.570000000000000E-002    0.000000000000000E+000
 -2.560000000000000E-002    0.000000000000000E+000
 -2.550000000000000E-002    0.000000000000000E+000
 -2.540000000000000E-002    0.000000000000000E+000
 -2.530000000000000E-002    0.000000000000000E+000
 -2.520000000000000E-002    0.000000000000000E+000
 -2.510000000000000E-002    0.000000000000000E+000
 -2.500000000000000E-002    0.000000000000000E+000
 -2.490000000000000E-002    0.000000000000000E+000
 -2.480000000000000E-002    0.000000000000000E+000
 -2.470000000000000E-002    0.000000000000000E+000
 -2.460000000000000E-002    0.000000000000000E+000
 -2.450000000000000E-002    0.000000000000000E+000
 -2.440000000000000E-002    0.000000000000000E+000
 -2.430000000000000E-002    0.000000000000000E+000
 -2.420000000000000E-002    0.000000000000000E+000
 -2.410000000000000E-002    0.000000000000000E+000
 -2.400000000000000E-002    0.000000000000000E+000
 -2.390000000000000E-002    0.000000000000000E+000
 -2.380000000000000E-002    0.000000000000000E+000
 -2.370000000000000E-002    0.000000000000000E+000
 -2.360000000000000E-002    0.000000000000000E+000
 -2.350000000000000E-002    0.000000000000000E+000
 -2.340000000000000E-002    0.000000000000000E+000
 -2.330000000000000E-002    0.000000000000000E+000
 -2.320000000000000E-002    0.000000000000000E+000
 -2.310000000000000E-002    0.000000000000000E+000
 -2.300000000000000E-002    0.000000000000000E+000
 -2.290000000000000E-002    0.000000000000000E+000
 -2.280000000000000E-002    0.000000000000000E+000
 -2.270000000000000E-002    0.000000000000000E+000
 -2.260000000000000E-002    0.000000000000000E+000
 -2.250000000000000E-002    0.000000000000000E+000
 -2.240000000000000E-002    0.000000000000000E+000
 -2.230000000000000E-002    0.000000000000000E+000
 -2.220000000000000E-002    0.000000000000000E+000
 -2.210000000000000E-002    0.000000000000000E+000
 -2.200000000000000E-002    0.000000000000000E+000
 -2.190000000000000E-002    0.000000000000000E+000
 -2.180000000000000E-002    0.000000000000000E+000
 -2.170000000000000E-002    0.000000000000000E+000
 -2.160000000000000E-002    0.000000000000000E+000
 -2.150000000000000E-002    0.000000000000000E+000
 -2.140000000000000E-002    0.000000000000000E+000
 -2.130000000000000E-002    0.000000000000000E+000
 -2.120000000000000E-002    0.000000000000000E+000
 -2.110000000000000E-002    0.000000000000000E+000
 -2.100000000000000E-002    0.000000000000000E+000
 -2.090000000000000E-002    0.000000000000000E+000
 -2.080000000000000E-002    0.000000000000000E+000
 -2.070000000000000E-002    0.000000000000000E+000
 -2.060000000000000E-002    0.000000000000000E+000
 -2.050000000000000E-002    0.000000000000000E+000
 -2.040000000000000E-002    0.000000000000000E+000
 -2.030000000000000E-002    0.000000000000000E+000
 -2.020000000000000E-002    0.000000000000000E+000
 -2.010000000000000E-002    0.000000000000000E+000
 -2.000000000000000E-002    0.000000000000000E+000
 -1.990000000000000E-002    0.000000000000000E+000
 -1.980000000000000E-002    0.000000000000000E+000
 -1.970000000000000E-002    0.000000000000000E+000
 -1.960000000000000E-002    0.000000000000000E+000
 -1.950000000000000E-002    0.000000000000000E+000
 -1.940000000000000E-002    0.000000000000000E+000
 -1.930000000000000E-002    0.000000000000000E+000
 -1.920000000000000E-002    0.000000000000000E+000
 -1.910000000000000E-002    0.000000000000000E+000
 -1.900000000000000E-002    0.000000000000000E+000
 -1.890000000000000E-002    0.000000000000000E+000
 -1.880000000000000E-002    0.000000000000000E+000
 -1.870000000000000E-002    0.000000000000000E+000
 -1.860000000000000E-002    0.000000000000000E+000
 -1.850000000000000E-002    0.000000000000000E+000
 -1.840000000000000E-002    0.000000000000000E+000
 -1.830000000000000E-002    0.000000000000000E+000
 -1.820000000000000E-002    0.000000000000000E+000
 -1.810000000000000E-002    0.000000000000000E+000
 -1.800000000000000E-002    0.000000000000000E+000
 -1.790000000000000E-002    0.000000000000000E+000
 -1.780000000000000E-002    2.138211768073757E-048
 -1.770000000000000E-002    4.276423536147513E-048
 -1.760000000000000E-002    4.276423536147513E-048
 -1.750000000000000E-002    4.276423536147513E-048
 -1.740000000000000E-002    2.138211768073757E-048
 -1.730000000000000E-002   -2.138211768073757E-048
 -1.720000000000000E-002   -2.071474216627302E-048
 -1.710000000000000E-002   -8.486109520848571E-048
 -1.700000000000000E-002    6.673755144645491E-050
 -1.690000000000000E-002   -4.618537419039314E-047
 -1.680000000000000E-002   -1.160245529324905E-046
 -1.670000000000000E-002   -1.880019434426616E-046
 -1.660000000000000E-002   -2.706703927932016E-046
 -1.650000000000000E-002   -2.963956715615331E-046
 -1.640000000000000E-002   -2.629728304281360E-046
 -1.630000000000000E-002    1.496747728173369E-047
 -1.620000000000000E-002    3.209047506309016E-046
 -1.610000000000000E-002    7.925146934410288E-046
 -1.600000000000000E-002    1.267812730380642E-045
 -1.590000000000000E-002    1.869959854196008E-045
 -1.580000000000000E-002    2.558035874043003E-045
 -1.570000000000000E-002    3.079852978025025E-045
 -1.560000000000000E-002    3.302145360959452E-045
 -1.550000000000000E-002    3.015195273965655E-045
 -1.540000000000000E-002    1.427637465370990E-045
 -1.530000000000000E-002   -1.681054203464327E-046
 -1.520000000000000E-002   -3.005120003665012E-045
 -1.510000000000000E-002   -7.302987034833020E-045
 -1.500000000000000E-002   -1.254453904676311E-044
 -1.490000000000000E-002   -1.786595133101854E-044
 -1.480000000000000E-002   -2.302807630654357E-044
 -1.470000000000000E-002   -2.650892994091257E-044
 -1.460000000000000E-002   -2.784178622305673E-044
 -1.450000000000000E-002   -2.413435519624810E-044
 -1.440000000000000E-002   -1.381617450010375E-044
 -1.430000000000000E-002    4.444731160165362E-045
 -1.420000000000000E-002    3.182245050381891E-044
 -1.410000000000000E-002    6.928614666059334E-044
 -1.400000000000000E-002    1.140894396006385E-043
 -1.390000000000000E-002    1.614001970866035E-043
 -1.380000000000000E-002    2.040701501292223E-043
 -1.370000000000000E-002    2.322435611156846E-043
 -1.360000000000000E-002    2.310392385985590E-043
 -1.350000000000000E-002    1.866250082769167E-043
 -1.340000000000000E-002    8.268935611446856E-044
 -1.330000000000000E-002   -9.133409237052542E-044
 -1.320000000000000E-002   -3.422307256508961E-043
 -1.310000000000000E-002   -6.620743674880227E-043
 -1.300000000000000E-002   -1.029427255225231E-042
 -1.290000000000000E-002   -1.401987166178490E-042
 -1.280000000000000E-002   -1.713412165271279E-042
 -1.270000000000000E-002   -1.876406403722968E-042
 -1.260000000000000E-002   -1.783151008269937E-042
 -1.250000000000000E-002   -1.321730413203530E-042
 -1.240000000000000E-002   -3.876742429290463E-043
 -1.230000000000000E-002    1.090346131637848E-042
 -1.220000000000000E-002    3.121944420826628E-042
 -1.210000000000000E-002    5.620977552877210E-042
 -1.200000000000000E-002    8.375905868332413E-042
 -1.190000000000000E-002    1.102567105781258E-041
 -1.180000000000000E-002    1.304711647861167E-041
 -1.170000000000000E-002    1.377588014783911E-041
 -1.160000000000000E-002    1.244965961647247E-041
 -1.150000000000000E-002    8.303839341661068E-042
 -1.140000000000000E-002    6.996555568882732E-043
 -1.130000000000000E-002   -1.069414577069682E-041
 -1.120000000000000E-002   -2.570359469136096E-041
 -1.110000000000000E-002   -4.343617620227128E-041
 -1.100000000000000E-002   -6.210302822214855E-041
 -1.090000000000000E-002   -7.891349744354048E-041
 -1.080000000000000E-002   -9.010252209370238E-041
 -1.070000000000000E-002   -9.113883057330906E-041
 -1.060000000000000E-002   -7.716726874409494E-041
 -1.050000000000000E-002   -4.370758554932855E-041
 -1.040000000000000E-002    1.239956397245834E-041
 -1.030000000000000E-002    9.185553043414720E-041
 -1.020000000000000E-002    1.916886375658796E-040
 -1.010000000000000E-002    3.041491272843796E-040
 -1.000000000000000E-002    4.159477224389833E-040
 -9.899999999999999E-003    5.081178416979982E-040
 -9.800000000000000E-003    5.567922215896641E-040
 -9.699999999999999E-003    5.351474726443731E-040
 -9.599999999999999E-003    4.166606306765444E-040
 -9.500000000000000E-003    1.796658259456204E-040
 -9.399999999999999E-003   -1.870297506053758E-040
 -9.299999999999999E-003   -6.779988269456017E-040
 -9.200000000000000E-003   -1.265330236928121E-039
 -9.099999999999999E-003   -1.894136578308467E-039
 -8.999999999999999E-003   -2.480714339003890E-039
 -8.900000000000000E-003   -2.914673164939147E-039
 -8.799999999999999E-003   -3.066201073241392E-039
 -8.699999999999999E-003   -2.799222676409651E-039
 -8.600000000000000E-003   -1.990517955126691E-039
 -8.499999999999999E-003   -5.539522242166144E-040
 -8.399999999999999E-003    1.532147836380169E-039
 -8.300000000000000E-003    4.197623513091897E-039
 -8.199999999999999E-003    7.257365156717265E-039
 -8.100000000000000E-003    1.039744785940402E-038
 -8.000000000000000E-003    1.317583746263205E-038
 -7.899999999999999E-003    1.504252125402250E-038
 -7.800000000000000E-003    1.538263404236363E-038
 -7.699999999999999E-003    1.358396062203599E-038
 -7.599999999999999E-003    9.127074189914722E-039
 -7.499999999999999E-003    1.692683878985558E-039
 -7.399999999999999E-003   -8.723380130643335E-039
 -7.299999999999999E-003   -2.170106452156463E-038
 -7.199999999999999E-003   -3.630974337222307E-038
 -7.100000000000000E-003   -5.106359163326561E-038
 -6.999999999999999E-003   -6.393790479289386E-038
 -6.899999999999999E-003   -7.246361326440562E-038
 -6.800000000000000E-003   -7.391254716212298E-038
 -6.699999999999999E-003   -6.557857924751465E-038
 -6.599999999999999E-003   -4.514948126144314E-038
 -6.499999999999999E-003   -1.115161526525538E-038
 -6.399999999999999E-003    3.656480336644899E-038
 -6.299999999999999E-003    9.634785059862978E-038
 -6.199999999999999E-003    1.643364547278071E-037
 -6.100000000000000E-003    2.341995300836071E-037
 -5.999999999999999E-003    2.971068169878979E-037
 -5.899999999999999E-003    3.420183510086912E-037
 -5.800000000000000E-003    3.563712641703503E-037
 -5.699999999999999E-003    3.272208374800159E-037
 -5.599999999999999E-003    2.428544120505323E-037
 -5.499999999999999E-003    9.483940670307655E-038
 -5.399999999999999E-003   -1.196094477364644E-037
 -5.299999999999999E-003   -3.951510397581597E-037
 -5.199999999999999E-003   -7.160354587675056E-037
 -5.099999999999999E-003   -1.054424717137893E-036
 -4.999999999999999E-003   -1.369799446472535E-036
 -4.899999999999999E-003   -1.609968527390720E-036
 -4.799999999999999E-003   -1.714160010897607E-036
 -4.699999999999999E-003   -1.618546832407679E-036
 -4.599999999999999E-003   -1.264316491340785E-036
 -4.499999999999999E-003   -6.080408819469582E-037
 -4.399999999999999E-003    3.663605472030073E-037
 -4.299999999999999E-003    1.635294195245635E-036
 -4.199999999999999E-003    3.124565734116671E-036
 -4.099999999999999E-003    4.702052671069565E-036
 -3.999999999999999E-003    6.176418178535587E-036
 -3.899999999999999E-003    7.304237360200940E-036
 -3.799999999999999E-003    7.807421239835073E-036
 -3.699999999999999E-003    7.401844954102816E-036
 -3.599999999999999E-003    5.836639107398900E-036
 -3.499999999999999E-003    2.941737917943695E-036
 -3.399999999999999E-003   -1.320830092333325E-036
 -3.299999999999999E-003   -6.808448502166986E-036
 -3.199999999999999E-003   -1.316041313799567E-035
 -3.099999999999999E-003   -1.978045944733645E-035
 -2.999999999999999E-003   -2.584802608734925E-035
 -2.899999999999999E-003   -3.036513573967612E-035
 -2.799999999999999E-003   -3.224241426083065E-035
 -2.699999999999999E-003   -3.042281874383719E-035
 -2.599999999999999E-003   -2.403578383137712E-035
 -2.499999999999999E-003   -1.256797148133563E-035
 -2.399999999999999E-003    3.968958229597426E-036
 -2.299999999999999E-003    2.489755193167477E-035
 -2.199999999999999E-003    4.878652638534901E-035
 -2.099999999999999E-003    7.343965935613846E-035
 -1.999999999999999E-003    9.598037176542519E-035
 -1.899999999999999E-003    1.130415873149133E-034
 -1.799999999999999E-003    1.210585933296714E-034
 -1.699999999999999E-003    1.166488513333164E-034
 -1.599999999999999E-003    9.704921681632767E-035
 -1.499999999999999E-003    6.057041991963195E-035
 -1.399999999999999E-003    7.021095869836118E-036
 -1.299999999999999E-003   -6.194734397257135E-035
 -1.199999999999999E-003   -1.426197531672985E-034
 -1.099999999999999E-003   -2.291555501577475E-034
 -9.999999999999989E-004   -3.137087417790099E-034
 -8.999999999999990E-004   -3.867394281753890E-034
 -7.999999999999990E-004   -4.375152226445250E-034
 -6.999999999999989E-004   -4.547946518564752E-034
 -5.999999999999990E-004   -4.276833425374944E-034
 -4.999999999999989E-004   -3.466564600788289E-034
 -3.999999999999989E-004   -2.047444073797903E-034
 -2.999999999999989E-004    1.125695291462709E-036
 -1.999999999999989E-004    2.686563153994082E-034
 -9.999999999999892E-005    5.886343956756654E-034
  1.084202172485504E-018    9.434383949790478E-034
  1.000000000000011E-004    1.305805564900270E-033
  2.000000000000011E-004    1.638167024967869E-033
  3.000000000000011E-004    1.892952851203868E-033
  4.000000000000011E-004    2.014332454133285E-033
  5.000000000000011E-004    1.941854271915863E-033
  6.000000000000011E-004    1.616348673475491E-033
  7.000000000000011E-004    9.882302160480866E-034
  8.000000000000011E-004    2.797152953229853E-035
  9.000000000000012E-004   -1.261967890141673E-033
  1.000000000000001E-003   -2.835053088909998E-033
  1.100000000000001E-003   -4.590294997477617E-033
  1.200000000000001E-003   -6.365929369858020E-033
  1.300000000000001E-003   -7.939740031322275E-033
  1.400000000000001E-003   -9.038494254166459E-033
  1.500000000000001E-003   -9.358376739692426E-033
  1.600000000000001E-003   -8.597149145253120E-033
  1.700000000000001E-003   -6.497168573039811E-033
  1.800000000000001E-003   -2.896328896190472E-033
  1.900000000000001E-003    2.218185976976551E-033
  2.000000000000001E-003    8.660525985350747E-033
  2.100000000000001E-003    1.600984073147581E-032
  2.200000000000001E-003    2.359626925819759E-032
  2.300000000000001E-003    3.051773723625468E-032
  2.400000000000001E-003    3.569386239106791E-032
  2.500000000000001E-003    3.795938708808649E-032
  2.600000000000001E-003    3.619447885583220E-032
  2.700000000000001E-003    2.948319033399815E-032
  2.800000000000001E-003    1.728533318780203E-032
  2.900000000000001E-003   -3.982475809813525E-034
  3.000000000000001E-003   -2.289048472889836E-032
  3.100000000000001E-003   -4.875727002506145E-032
  3.200000000000001E-003   -7.580278900438788E-032
  3.300000000000001E-003   -1.011569375188093E-031
  3.400000000000001E-003   -1.214615835059455E-031
  3.500000000000001E-003   -1.331511631349809E-031
  3.600000000000001E-003   -1.328109400370264E-031
  3.700000000000001E-003   -1.175846437666837E-031
  3.800000000000001E-003   -8.559440466358860E-032
  3.900000000000001E-003   -3.633040477914298E-032
  4.000000000000001E-003    2.903217017009571E-032
  4.100000000000001E-003    1.074274785694921E-031
  4.200000000000001E-003    1.938342209591578E-031
  4.300000000000001E-003    2.813704972079372E-031
  4.400000000000001E-003    3.615556498125673E-031
  4.500000000000001E-003    4.247367019133508E-031
  4.600000000000002E-003    4.606703474594033E-031
  4.700000000000001E-003    4.592489684251267E-031
  4.800000000000001E-003    4.113587216182926E-031
  4.900000000000002E-003    3.098580332886705E-031
  5.000000000000001E-003    1.506609917786554E-031
  5.100000000000001E-003   -6.610226423229722E-032
  5.200000000000001E-003   -3.349002816422937E-031
  5.300000000000002E-003   -6.436808720256829E-031
  5.400000000000001E-003   -9.729597427225881E-031
  5.500000000000001E-003   -1.295315251565232E-030
  5.600000000000002E-003   -1.575542955205049E-030
  5.700000000000001E-003   -1.771751370677588E-030
  5.800000000000001E-003   -1.837678835121057E-030
  5.900000000000002E-003   -1.726440651718817E-030
  6.000000000000001E-003   -1.395793983495111E-030
  6.100000000000001E-003   -8.147868152001497E-031
  6.200000000000002E-003    2.860315576507861E-032
  6.300000000000002E-003    1.119557168352785E-030
  6.400000000000001E-003    2.409258632200884E-030
  6.500000000000001E-003    3.809781989462627E-030
  6.600000000000002E-003    5.192458885117647E-030
  6.700000000000001E-003    6.391119337659703E-030
  6.800000000000001E-003    7.211330045126996E-030
  6.900000000000002E-003    7.446239234948069E-030
  7.000000000000001E-003    6.898842599580023E-030
  7.100000000000001E-003    5.409526595457793E-030
  7.200000000000002E-003    2.886671073912844E-030
  7.300000000000002E-003   -6.629602719780493E-031
  7.400000000000001E-003   -5.108114554396378E-030
  7.500000000000001E-003   -1.017579437741469E-029
  7.600000000000002E-003   -1.544731576798113E-029
  7.700000000000001E-003   -2.037144166665906E-029
  7.800000000000001E-003   -2.429698512168070E-029
  7.900000000000001E-003   -2.652525989299898E-029
  8.000000000000002E-003   -2.638032768604607E-029
  8.100000000000001E-003   -2.329234958771676E-029
  8.200000000000001E-003   -1.688683584711238E-029
  8.300000000000002E-003   -7.070484464477566E-030
  8.400000000000001E-003    5.896867298908969E-030
  8.500000000000002E-003    2.135486291252663E-029
  8.600000000000002E-003    3.822943649400342E-029
  8.700000000000001E-003    5.506109918266055E-029
  8.800000000000002E-003    7.007871131292387E-029
  8.900000000000002E-003    8.131848756562063E-029
  9.000000000000001E-003    8.678356295937629E-029
  9.100000000000002E-003    8.463511397796289E-029
  9.200000000000002E-003    7.340203618796469E-029
  9.300000000000001E-003    5.219338915621960E-029
  9.400000000000002E-003    2.089598106138845E-029
  9.500000000000001E-003   -1.966137325164905E-029
  9.600000000000001E-003   -6.759479853064622E-029
  9.700000000000002E-003   -1.199203623237087E-028
  9.800000000000001E-003   -1.725920626480988E-028
  9.900000000000001E-003   -2.206351538435799E-028
  1.000000000000000E-002   -2.583844139293410E-028
  1.010000000000000E-002   -2.798325609456183E-028
  1.020000000000000E-002   -2.790889344473793E-028
  1.030000000000000E-002   -2.509402777408050E-028
  1.040000000000000E-002   -1.914953924015892E-028
  1.050000000000000E-002   -9.888152313584670E-029
  1.060000000000000E-002    2.605598160099668E-029
  1.070000000000000E-002    1.791177123384875E-028
  1.080000000000000E-002    3.522621458317026E-028
  1.090000000000000E-002    5.333646991711530E-028
  1.100000000000000E-002    7.063292428193874E-028
  1.110000000000000E-002    8.516518536996316E-028
  1.120000000000000E-002    9.475174003566076E-028
  1.130000000000000E-002    9.714685944587497E-028
  1.140000000000000E-002    9.026278778161896E-028
  1.150000000000000E-002    7.243791773990189E-028
  1.160000000000000E-002    4.273266945051415E-028
  1.170000000000000E-002    1.225915085653816E-029
  1.180000000000000E-002   -5.072322818149130E-028
  1.190000000000000E-002   -1.102891386839692E-027
  1.200000000000000E-002   -1.731115300382647E-027
  1.210000000000000E-002   -2.333846632944275E-027
  1.220000000000000E-002   -2.841342216658335E-027
  1.230000000000000E-002   -3.176960847212728E-027
  1.240000000000000E-002   -3.263909198895844E-027
  1.250000000000000E-002   -3.033630308832273E-027
  1.260000000000000E-002   -2.435243915454876E-027
  1.270000000000000E-002   -1.445203800989596E-027
  1.280000000000000E-002   -7.611768805462956E-029
  1.290000000000000E-002    1.616445832472052E-027
  1.300000000000000E-002    3.530351123648772E-027
  1.310000000000000E-002    5.517554340786054E-027
  1.320000000000000E-002    7.389823806661411E-027
  1.330000000000000E-002    8.929912421494451E-027
  1.340000000000000E-002    9.908054182739449E-027
  1.350000000000000E-002    1.010306696772498E-026
  1.360000000000000E-002    9.326730088284865E-027
  1.370000000000000E-002    7.449559002703358E-027
  1.380000000000000E-002    4.425609235489681E-027
  1.390000000000000E-002    3.136816077068515E-028
  1.400000000000000E-002   -4.707784109660255E-027
  1.410000000000000E-002   -1.033468047775638E-026
  1.420000000000000E-002   -1.614218066929367E-026
  1.430000000000000E-002   -2.160210934066909E-026
  1.440000000000000E-002   -2.611331015112007E-026
  1.450000000000000E-002   -2.904448207164329E-026
  1.460000000000000E-002   -2.978787372856413E-026
  1.470000000000000E-002   -2.782092200963385E-026
  1.480000000000000E-002   -2.277188724739846E-026
  1.490000000000000E-002   -1.448438821388921E-026
  1.500000000000000E-002   -3.075041368946137E-027
  1.510000000000000E-002    1.102226714435790E-026
  1.520000000000000E-002    2.703190095134532E-026
  1.530000000000000E-002    4.383805669478269E-026
  1.540000000000000E-002    6.001764030094954E-026
  1.550000000000000E-002    7.390810586920099E-026
  1.560000000000000E-002    8.371183090734972E-026
  1.570000000000000E-002    8.763544666193085E-026
  1.580000000000000E-002    8.405928249579392E-026
  1.590000000000000E-002    7.172773411697342E-026
  1.600000000000000E-002    4.994749300415819E-026
  1.610000000000000E-002    1.877649590063326E-026
  1.620000000000000E-002   -2.081692126452771E-026
  1.630000000000000E-002   -6.684721464625106E-026
  1.640000000000000E-002   -1.162798406180350E-025
  1.650000000000000E-002   -1.650952243359796E-025
  1.660000000000000E-002   -2.084642628288055E-025
  1.670000000000000E-002   -2.410435011752210E-025
  1.680000000000000E-002   -2.573872750150906E-025
  1.690000000000000E-002   -2.524618419823300E-025
  1.700000000000000E-002   -2.222313270708935E-025
  1.710000000000000E-002   -1.642721642437703E-025
  1.720000000000000E-002   -7.835873732352774E-026
  1.730000000000000E-002    3.304595948233642E-026
  1.740000000000000E-002    1.644655033798319E-025
  1.750000000000000E-002    3.073198656319644E-025
  1.760000000000000E-002    4.501281425557611E-025
  1.770000000000000E-002    5.790447804182190E-025
  1.780000000000000E-002    6.787427167532390E-025
  1.790000000000000E-002    7.336240640095286E-025
  1.800000000000000E-002    7.293013998304637E-025
  1.810000000000000E-002    6.542536291515277E-025
  1.820000000000000E-002    5.015245219613218E-025
  1.830000000000000E-002    2.703025004566727E-025
  1.840000000000000E-002   -3.279802957516493E-026
  1.850000000000000E-002   -3.929369138420247E-025
  1.860000000000000E-002   -7.868981953426317E-025
  1.870000000000000E-002   -1.183724445118326E-024