 -4.000000000000000E-002    0.000000000000000E+000
 -3.990000000000000E-002    0.000000000000000E+000
 -3.980000000000000E-002    0.000000000000000E+000
 -3.970000000000000E-002    0.000000000000000E+000
 -3.960000000000000E-002    0.000000000000000E+000
 -3.950000000000000E-002    0.000000000000000E+000
 -3.940000000000000E-002    0.000000000000000E+000
 -3.930000000000000E-002    0.000000000000000E+000
 -3.920000000000000E-002    0.000000000000000E+000
 -3.910000000000000E-002    0.000000000000000E+000
 -3.900000000000000E-002    0.000000000000000E+000
 -3.890000000000000E-002    0.000000000000000E+000
 -3.880000000000000E-002    0.000000000000000E+000
 -3.870000000000000E-002    0.000000000000000E+000
 -3.860000000000000E-002    0.000000000000000E+000
 -3.850000000000000E-002    0.000000000000000E+000
 -3.840000000000000E-002    0.000000000000000E+000
 -3.830000000000000E-002    0.000000000000000E+000
 -3.820000000000000E-002    0.000000000000000E+000
 -3.810000000000000E-002    0.000000000000000E+000
 -3.800000000000000E-002    0.000000000000000E+000
 -3.790000000000000E-002    0.000000000000000E+000
 -3.780000000000000E-002    0.000000000000000E+000
 -3.770000000000000E-002    0.000000000000000E+000
 -3.760000000000000E-002    0.000000000000000E+000
 -3.750000000000000E-002    0.000000000000000E+000
 -3.740000000000000E-002    0.000000000000000E+000
 -3.730000000000000E-002    0.000000000000000E+000
 -3.720000000000000E-002    0.000000000000000E+000
 -3.710000000000000E-002    0.000000000000000E+000
 -3.700000000000000E-002    0.000000000000000E+000
 -3.690000000000000E-002    0.000000000000000E+000
 -3.680000000000000E-002    0.000000000000000E+000
 -3.670000000000000E-002    0.000000000000000E+000
 -3.660000000000000E-002    0.000000000000000E+000
 -3.650000000000000E-002    0.000000000000000E+000
 -3.640000000000000E-002    0.000000000000000E+000
 -3.630000000000000E-002    0.000000000000000E+000
 -3.620000000000000E-002    0.000000000000000E+000
 -3.610000000000000E-002    0.000000000000000E+000
 -3.600000000000000E-002    0.000000000000000E+000
 -3.590000000000000E-002    0.000000000000000E+000
 -3.580000000000000E-002    0.000000000000000E+000
 -3.570000000000000E-002    0.000000000000000E+000
 -3.560000000000000E-002    0.000000000000000E+000
 -3.550000000000000E-002    0.000000000000000E+000
 -3.540000000000000E-002    0.000000000000000E+000
 -3.530000000000000E-002    0.000000000000000E+000
 -3.520000000000000E-002    0.000000000000000E+000
 -3.510000000000000E-002    0.000000000000000E+000
 -3.500000000000000E-002    0.000000000000000E+000
 -3.490000000000000E-002    0.000000000000000E+000
 -3.480000000000000E-002    0.000000000000000E+000
 -3.470000000000000E-002    0.000000000000000E+000
 -3.460000000000000E-002    0.000000000000000E+000
 -3.450000000000000E-002    0.000000000000000E+000
 -3.440000000000000E-002    0.000000000000000E+000
 -3.430000000000000E-002    0.000000000000000E+000
 -3.420000000000000E-002    0.000000000000000E+000
 -3.410000000000000E-002    0.000000000000000E+000
 -3.400000000000000E-002    0.000000000000000E+000
 -3.390000000000000E-002    0.000000000000000E+000
 -3.380000000000000E-002    0.000000000000000E+000
 -3.370000000000000E-002    0.000000000000000E+000
 -3.360000000000000E-002    0.000000000000000E+000
 -3.350000000000000E-002    0.000000000000000E+000
 -3.340000000000000E-002    0.000000000000000E+000
 -3.330000000000000E-002    0.000000000000000E+000
 -3.320000000000000E-002    0.000000000000000E+000
 -3.310000000000000E-002    0.000000000000000E+000
 -3.300000000000000E-002    0.000000000000000E+000
 -3.290000000000000E-002    0.000000000000000E+000
 -3.280000000000000E-002    0.000000000000000E+000
 -3.270000000000000E-002    0.000000000000000E+000
 -3.260000000000000E-002    0.000000000000000E+000
 -3.250000000000000E-002    0.000000000000000E+000
 -3.240000000000000E-002    0.000000000000000E+000
 -3.230000000000000E-002    0.000000000000000E+000
 -3.220000000000000E-002    0.000000000000000E+000
 -3.210000000000000E-002    0.000000000000000E+000
 -3.200000000000000E-002    0.000000000000000E+000
 -3.190000000000000E-002    0.000000000000000E+000
 -3.180000000000000E-002    0.000000000000000E+000
 -3.170000000000000E-002    0.000000000000000E+000
 -3.160000000000000E-002    0.000000000000000E+000
 -3.150000000000000E-002    0.000000000000000E+000
 -3.140000000000000E-002    0.000000000000000E+000
 -3.130000000000000E-002    0.000000000000000E+000
 -3.120000000000000E-002    0.000000000000000E+000
 -3.110000000000000E-002    0.000000000000000E+000
 -3.100000000000000E-002    0.000000000000000E+000
 -3.090000000000000E-002    0.000000000000000E+000
 -3.080000000000000E-002    0.000000000000000E+000
 -3.070000000000000E-002    0.000000000000000E+000
 -3.060000000000000E-002    0.000000000000000E+000
 -3.050000000000000E-002    0.000000000000000E+000
 -3.040000000000000E-002    0.000000000000000E+000
 -3.030000000000000E-002    0.000000000000000E+000
 -3.020000000000000E-002    0.000000000000000E+000
 -3.010000000000000E-002    0.000000000000000E+000
 -3.000000000000000E-002    0.000000000000000E+000
 -2.990000000000000E-002    0.000000000000000E+000
 -2.980000000000000E-002    0.000000000000000E+000
 -2.970000000000000E-002    0.000000000000000E+000
 -2.960000000000000E-002    0.000000000000000E+000
 -2.950000000000000E-002    0.000000000000000E+000
 -2.940000000000000E-002    0.000000000000000E+000
 -2.930000000000000E-002    0.000000000000000E+000
 -2.920000000000000E-002    0.000000000000000E+000
 -2.910000000000000E-002    0.000000000000000E+000
 -2.900000000000000E-002    0.000000000000000E+000
 -2.890000000000000E-002    0.000000000000000E+000
 -2.880000000000000E-002    0.000000000000000E+000
 -2.870000000000000E-002    0.000000000000000E+000
 -2.860000000000000E-002    0.000000000000000E+000
 -2.850000000000000E-002    0.000000000000000E+000
 -2.840000000000000E-002    0.000000000000000E+000
 -2.830000000000000E-002    0.000000000000000E+000
 -2.820000000000000E-002    0.000000000000000E+000
 -2.810000000000000E-002    0.000000000000000E+000
 -2.800000000000000E-002    0.000000000000000E+000
 -2.790000000000000E-002    0.000000000000000E+000
 -2.780000000000000E-002    0.000000000000000E+000
 -2.770000000000000E-002    0.000000000000000E+000
 -2.760000000000000E-002    0.000000000000000E+000
 -2.750000000000000E-002    0.000000000000000E+000
 -2.740000000000000E-002    0.000000000000000E+000
 -2.730000000000000E-002    0.000000000000000E+000
 -2.720000000000000E-002    0.000000000000000E+000
 -2.710000000000000E-002    0.000000000000000E+000
 -2.700000000000000E-002    0.000000000000000E+000
 -2.690000000000000E-002    0.000000000000000E+000
 -2.680000000000000E-002    0.000000000000000E+000
 -2.670000000000000E-002    0.000000000000000E+000
 -2.660000000000000E-002    0.000000000000000E+000
 -2.650000000000000E-002    0.000000000000000E+000
 -2.640000000000000E-002    0.000000000000000E+000
 -2.630000000000000E-002    0.000000000000000E+000
 -2.620000000000000E-002    0.000000000000000E+000
 -2.610000000000000E-002    0.000000000000000E+000
 -2.600000000000000E-002    0.000000000000000E+000
 -2.590000000000000E-002    0.000000000000000E+000
 -2.580000000000000E-002    0.000000000000000E+000
 -2.570000000000000E-002    0.000000000000000E+000
 -2.560000000000000E-002    0.000000000000000E+000
 -2.550000000000000E-002    0.000000000000000E+000
 -2.540000000000000E-002    0.000000000000000E+000
 -2.530000000000000E-002    0.000000000000000E+000
 -2.520000000000000E-002    0.000000000000000E+000
 -2.510000000000000E-002    0.000000000000000E+000
 -2.500000000000000E-002    0.000000000000000E+000
 -2.490000000000000E-002    0.000000000000000E+000
 -2.480000000000000E-002    0.000000000000000E+000
 -2.470000000000000E-002    0.000000000000000E+000
 -2.460000000000000E-002    0.000000000000000E+000
 -2.450000000000000E-002    0.000000000000000E+000
 -2.440000000000000E-002    0.000000000000000E+000
 -2.430000000000000E-002    0.000000000000000E+000
 -2.420000000000000E-002    0.000000000000000E+000
 -2.410000000000000E-002    0.000000000000000E+000
 -2.400000000000000E-002    0.000000000000000E+000
 -2.390000000000000E-002    0.000000000000000E+000
 -2.380000000000000E-002    0.000000000000000E+000
 -2.370000000000000E-002    0.000000000000000E+000
 -2.360000000000000E-002    0.000000000000000E+000
 -2.350000000000000E-002    0.000000000000000E+000
 -2.340000000000000E-002    0.000000000000000E+000
 -2.330000000000000E-002    0.000000000000000E+000
 -2.320000000000000E-002    0.000000000000000E+000
 -2.310000000000000E-002    0.000000000000000E+000
 -2.300000000000000E-002    0.000000000000000E+000
 -2.290000000000000E-002    0.000000000000000E+000
 -2.280000000000000E-002    0.000000000000000E+000
 -2.270000000000000E-002    0.000000000000000E+000
 -2.260000000000000E-002    0.000000000000000E+000
 -2.250000000000000E-002    0.000000000000000E+000
 -2.240000000000000E-002    0.000000000000000E+000
 -2.230000000000000E-002    0.000000000000000E+000
 -2.220000000000000E-002    0.000000000000000E+000
 -2.210000000000000E-002    0.000000000000000E+000
 -2.200000000000000E-002    0.000000000000000E+000
 -2.190000000000000E-002    0.000000000000000E+000
 -2.180000000000000E-002    0.000000000000000E+000
 -2.170000000000000E-002    0.000000000000000E+000
 -2.160000000000000E-002    0.000000000000000E+000
 -2.150000000000000E-002    0.000000000000000E+000
 -2.140000000000000E-002    0.000000000000000E+000
 -2.130000000000000E-002    0.000000000000000E+000
 -2.120000000000000E-002    0.000000000000000E+000
 -2.110000000000000E-002    0.000000000000000E+000
 -2.100000000000000E-002    0.000000000000000E+000
 -2.090000000000000E-002    0.000000000000000E+000
 -2.080000000000000E-002    0.000000000000000E+000
 -2.070000000000000E-002    0.000000000000000E+000
 -2.060000000000000E-002    0.000000000000000E+000
 -2.050000000000000E-002    0.000000000000000E+000
 -2.040000000000000E-002    0.000000000000000E+000
 -2.030000000000000E-002    0.000000000000000E+000
 -2.020000000000000E-002    0.000000000000000E+000
 -2.010000000000000E-002    0.000000000000000E+000
 -2.000000000000000E-002    0.000000000000000E+000
 -1.990000000000000E-002    0.000000000000000E+000
 -1.980000000000000E-002    0.000000000000000E+000
 -1.970000000000000E-002    0.000000000000000E+000
 -1.960000000000000E-002    0.000000000000000E+000
 -1.950000000000000E-002    0.000000000000000E+000
 -1.940000000000000E-002    0.000000000000000E+000
 -1.930000000000000E-002    0.000000000000000E+000
 -1.920000000000000E-002    0.000000000000000E+000
 -1.910000000000000E-002    0.000000000000000E+000
 -1.900000000000000E-002    0.000000000000000E+000
 -1.890000000000000E-002    0.000000000000000E+000
 -1.880000000000000E-002    0.000000000000000E+000
 -1.870000000000000E-002    0.000000000000000E+000
 -1.860000000000000E-002    0.000000000000000E+000
 -1.850000000000000E-002    0.000000000000000E+000
 -1.840000000000000E-002    0.000000000000000E+000
 -1.830000000000000E-002    0.000000000000000E+000
 -1.820000000000000E-002    0.000000000000000E+000
 -1.810000000000000E-002    0.000000000000000E+000
 -1.800000000000000E-002    0.000000000000000E+000
 -1.790000000000000E-002    0.000000000000000E+000
 -1.780000000000000E-002    0.000000000000000E+000
 -1.770000000000000E-002    0.000000000000000E+000
 -1.760000000000000E-002    0.000000000000000E+000
 -1.750000000000000E-002    0.000000000000000E+000
 -1.740000000000000E-002    0.000000000000000E+000
 -1.730000000000000E-002    0.000000000000000E+000
 -1.720000000000000E-002    0.000000000000000E+000
 -1.710000000000000E-002    0.000000000000000E+000
 -1.700000000000000E-002    0.000000000000000E+000
 -1.690000000000000E-002    0.000000000000000E+000
 -1.680000000000000E-002    0.000000000000000E+000
 -1.670000000000000E-002    0.000000000000000E+000
 -1.660000000000000E-002    0.000000000000000E+000
 -1.650000000000000E-002    0.000000000000000E+000
 -1.640000000000000E-002    0.000000000000000E+000
 -1.630000000000000E-002    0.000000000000000E+000
 -1.620000000000000E-002    0.000000000000000E+000
 -1.610000000000000E-002    0.000000000000000E+000
 -1.600000000000000E-002    0.000000000000000E+000
 -1.590000000000000E-002    0.000000000000000E+000
 -1.580000000000000E-002    6.481372855667724E-048
 -1.570000000000000E-002    1.296274571133545E-047
 -1.560000000000000E-002    3.654981271159323E-047
 -1.550000000000000E-002    5.799866794377725E-047
 -1.540000000000000E-002    5.586045617570349E-047
 -1.530000000000000E-002    5.372224440762973E-047
 -1.520000000000000E-002    3.862128692822053E-047
 -1.510000000000000E-002   -6.673755144645491E-050
 -1.500000000000000E-002   -9.488425141524990E-047
 -1.490000000000000E-002   -1.692416698569917E-046
 -1.480000000000000E-002   -2.518829021625956E-046
 -1.470000000000000E-002   -3.075826661904702E-046
 -1.460000000000000E-002   -3.341360126210952E-046
 -1.450000000000000E-002   -2.937353357243221E-046
 -1.440000000000000E-002   -1.779612635307486E-046
 -1.430000000000000E-002   -6.837491896647856E-047
 -1.420000000000000E-002    2.312304091672084E-046
 -1.410000000000000E-002    6.237275606073215E-046
 -1.400000000000000E-002    1.140856019022952E-045
 -1.390000000000000E-002    1.429821590259998E-045
 -1.380000000000000E-002    2.348553871587888E-045
 -1.370000000000000E-002    3.057710543713459E-045
 -1.360000000000000E-002    3.718432166863380E-045
 -1.350000000000000E-002    4.348237691071635E-045
 -1.340000000000000E-002    5.256686790314144E-045
 -1.330000000000000E-002    5.160454593654547E-045
 -1.320000000000000E-002    2.788475967372320E-045
 -1.310000000000000E-002   -3.539898610518777E-046
 -1.300000000000000E-002   -5.417641076887385E-045
 -1.290000000000000E-002   -1.220306841596046E-044
 -1.280000000000000E-002   -2.186091147872962E-044
 -1.270000000000000E-002   -3.211615429446764E-044
 -1.260000000000000E-002   -4.210108784487887E-044
 -1.250000000000000E-002   -5.121127739221359E-044
 -1.240000000000000E-002   -5.600175259148012E-044
 -1.230000000000000E-002   -5.230013155284374E-044
 -1.220000000000000E-002   -3.708993919409730E-044
 -1.210000000000000E-002   -6.643096115362042E-045
 -1.200000000000000E-002    4.288367444347936E-044
 -1.190000000000000E-002    1.137991194285523E-043
 -1.180000000000000E-002    2.053835436021706E-043
 -1.170000000000000E-002    3.103544278732092E-043
 -1.160000000000000E-002    4.192608752373222E-043
 -1.150000000000000E-002    5.137636672592778E-043
 -1.140000000000000E-002    5.678512426390392E-043
 -1.130000000000000E-002    5.501310620894912E-043
 -1.120000000000000E-002    4.235745956687160E-043
 -1.110000000000000E-002    1.525878110450590E-043
 -1.100000000000000E-002   -2.918159021403201E-043
 -1.090000000000000E-002   -9.223897076647613E-043
 -1.080000000000000E-002   -1.724580190996232E-042
 -1.070000000000000E-002   -2.647695899945174E-042
 -1.060000000000000E-002   -3.589529667894337E-042
 -1.050000000000000E-002   -4.391319772412835E-042
 -1.040000000000000E-002   -4.840947429885934E-042
 -1.030000000000000E-002   -4.678757285408798E-042
 -1.020000000000000E-002   -3.622044229478595E-042
 -1.010000000000000E-002   -1.404140054794870E-042
 -1.000000000000000E-002    2.167336647105569E-042
 -9.899999999999999E-003    7.142504033319343E-042
 -9.800000000000000E-003    1.335301789437307E-041
 -9.699999999999999E-003    2.032938658829545E-041
 -9.599999999999999E-003    2.724616786115810E-041
 -9.500000000000000E-003    3.289378396688487E-041
 -9.399999999999999E-003    3.570684621879972E-041
 -9.299999999999999E-003    3.387361902712627E-041
 -9.200000000000000E-003    2.553287024253946E-041
 -9.099999999999999E-003    9.067142868127079E-042
 -8.999999999999999E-003   -1.650747695504489E-041
 -8.900000000000000E-003   -5.109073326095388E-041
 -8.799999999999999E-003   -9.303722378865405E-041
 -8.699999999999999E-003   -1.387480567861789E-040
 -8.600000000000000E-003   -1.824256310155588E-040
 -8.499999999999999E-003   -2.160828743863723E-040
 -8.399999999999999E-003   -2.299249738547801E-040
 -8.300000000000000E-003   -2.131877467593225E-040
 -8.199999999999999E-003   -1.554746268620175E-040
 -8.100000000000000E-003   -4.858824364427160E-041
 -8.000000000000000E-003    1.112615413362338E-040
 -7.899999999999999E-003    3.210723963584864E-040
 -7.800000000000000E-003    5.688010820416430E-040
 -7.699999999999999E-003    8.316618305482627E-040
 -7.599999999999999E-003    1.075447971917402E-039
 -7.499999999999999E-003    1.255352273755090E-039
 -7.399999999999999E-003    1.318726676838595E-039
 -7.299999999999999E-003    1.210056204435079E-039
 -7.199999999999999E-003    8.781998104354092E-040
 -7.100000000000000E-003    2.856239360963589E-040
 -6.999999999999999E-003   -5.810312188459098E-040
 -6.899999999999999E-003   -1.700130870365825E-039
 -6.800000000000000E-003   -3.005425242262640E-039
 -6.699999999999999E-003   -4.379418118536571E-039
 -6.599999999999999E-003   -5.651646605095063E-039
 -6.499999999999999E-003   -6.603767846053848E-039
 -6.399999999999999E-003   -6.983002477640135E-039
 -6.299999999999999E-003   -6.524898754686153E-039
 -6.199999999999999E-003   -4.985445259943954E-039
 -6.100000000000000E-003   -2.181376949626082E-039
 -5.999999999999999E-003    1.963868572936033E-039
 -5.899999999999999E-003    7.372608520985796E-039
 -5.800000000000000E-003    1.376932008046714E-038
 -5.699999999999999E-003    2.064782421306013E-038
 -5.599999999999999E-003    2.725698632783187E-038
 -5.499999999999999E-003    3.261301478317977E-038
 -5.399999999999999E-003    3.554592998646315E-038
 -5.299999999999999E-003    3.478626959800537E-038
 -5.199999999999999E-003    2.909534279348836E-038
 -5.099999999999999E-003    1.743816806779703E-038
 -4.999999999999999E-003   -8.074330669536074E-040
 -4.899999999999999E-003   -2.561907732556299E-038
 -4.799999999999999E-003   -5.609710838386576E-038
 -4.699999999999999E-003   -9.026116828489727E-038
 -4.599999999999999E-003   -1.249143140473992E-037
 -4.499999999999999E-003   -1.556190993924765E-037
 -4.399999999999999E-003   -1.768323127588737E-037
 -4.299999999999999E-003   -1.822416133082072E-037
 -4.199999999999999E-003   -1.653358653457049E-037
 -4.099999999999999E-003   -1.202199855751409E-037
 -3.999999999999999E-003   -4.265362288761474E-038
 -3.899999999999999E-003    6.874839260912305E-038
 -3.799999999999999E-003    2.112648601815849E-037
 -3.699999999999999E-003    3.769283684637973E-037
 -3.599999999999999E-003    5.517056975417935E-037
 -3.499999999999999E-003    7.152389025186841E-037
 -3.399999999999999E-003    8.413945910032809E-037
 -3.299999999999999E-003    8.998383664958466E-037
 -3.199999999999999E-003    8.587764295163104E-037
 -3.099999999999999E-003    6.888815908510221E-037
 -2.999999999999999E-003    3.682471295864489E-037
 -2.899999999999999E-003   -1.119969566795441E-037
 -2.799999999999999E-003   -7.419962378178989E-037
 -2.699999999999999E-003   -1.488213991798570E-036
 -2.599999999999999E-003   -2.290160462336595E-036
 -2.499999999999999E-003   -3.059829080226841E-036
 -2.399999999999999E-003   -3.684783382497736E-036
 -2.299999999999999E-003   -4.035601172338610E-036
 -2.199999999999999E-003   -3.977966428337036E-036
 -2.099999999999999E-003   -3.389119822156027E-036
 -1.999999999999999E-003   -2.177677638572075E-036
 -1.899999999999999E-003   -3.050788547105273E-037
 -1.799999999999999E-003    2.193775685655131E-036
 -1.699999999999999E-003    5.193666995398533E-036
 -1.599999999999999E-003    8.469205535810407E-036
 -1.499999999999999E-003    1.169507493066716E-035
 -1.399999999999999E-003    1.445888148912470E-035
 -1.299999999999999E-003    1.628808874130324E-035
 -1.199999999999999E-003    1.669107776293564E-035
 -1.099999999999999E-003    1.521066584027412E-035
 -9.999999999999989E-004    1.148659401691372E-035
 -8.999999999999990E-004    5.321815871338241E-036
 -7.999999999999990E-004   -3.253935584795122E-036
 -6.999999999999989E-004   -1.393065018008197E-035
 -5.999999999999990E-004   -2.608208345751768E-035
 -4.999999999999989E-004   -3.875430601930188E-035
 -3.999999999999989E-004   -5.068447076254480E-035
 -2.999999999999989E-004   -6.035388239935979E-035
 -1.999999999999989E-004   -6.607737134863808E-035
 -9.999999999999892E-005   -6.612880643142322E-035
  1.084202172485504E-018   -5.890043442783935E-035
  1.000000000000011E-004   -4.309133881495302E-035
  2.000000000000011E-004   -1.791787231443084E-035
  3.000000000000011E-004    1.666419272349155E-035
  4.000000000000011E-004    5.974004452548002E-035
  5.000000000000011E-004    1.092380411028920E-034
  6.000000000000011E-004    1.617793151954883E-034
  7.000000000000011E-004    2.126072355331678E-034
  8.000000000000011E-004    2.556355703432878E-034
  9.000000000000012E-004    2.836582692744972E-034
  1.000000000000001E-003    2.887632480395381E-034
  1.100000000000001E-003    2.629844002734685E-034
  1.200000000000001E-003    1.992078191812554E-034
  1.300000000000001E-003    9.231825162209645E-035
  1.400000000000001E-003   -5.947050231803303E-035
  1.500000000000001E-003   -2.532099873993692E-034
  1.600000000000001E-003   -4.799016992915274E-034
  1.700000000000001E-003   -7.234919478737609E-034
  1.800000000000001E-003   -9.604368582116637E-034
  1.900000000000001E-003   -1.160111521251614E-033
  2.000000000000001E-003   -1.286312461034061E-033
  2.100000000000001E-003   -1.300029017645713E-033
  2.200000000000001E-003   -1.163532725441155E-033
  2.300000000000001E-003   -8.456563451902865E-034
  2.400000000000001E-003   -3.279164850998489E-034
  2.500000000000001E-003    3.890978940841733E-034
  2.600000000000001E-003    1.279867663373799E-033
  2.700000000000001E-003    2.289577912835942E-033
  2.800000000000001E-003    3.332274608565093E-033
  2.900000000000001E-003    4.292517162077737E-033
  3.000000000000001E-003    5.031283146166136E-033
  3.100000000000001E-003    5.396505013212602E-033
  3.200000000000001E-003    5.238097008036938E-033
  3.300000000000001E-003    4.426701365968845E-033
  3.400000000000001E-003    2.874716978851044E-033
  3.500000000000001E-003    5.575615369085408E-034
  3.600000000000001E-003   -2.467363518951504E-033
  3.700000000000001E-003   -6.046775693780243E-033
  3.800000000000001E-003   -9.925389084388990E-033
  3.900000000000001E-003   -1.374988512743306E-032
  4.000000000000001E-003   -1.708454594213917E-032
  4.100000000000001E-003   -1.943911304918933E-032
  4.200000000000001E-003   -2.030822830179847E-032
  4.300000000000001E-003   -1.922054226990692E-032
  4.400000000000001E-003   -1.579440294981708E-032
  4.500000000000001E-003   -9.796045543163551E-033
  4.600000000000002E-003   -1.195529503458590E-033
  4.700000000000001E-003    9.784672313325656E-033
  4.800000000000001E-003    2.263354605643841E-032
  4.900000000000002E-003    3.653278282950608E-032
  5.000000000000001E-003    5.035985270106166E-032
  5.100000000000001E-003    6.271697905474938E-032
  5.200000000000001E-003    7.198952160078815E-032
  5.300000000000002E-003    7.643666811022642E-032
  5.400000000000001E-003    7.431647081472042E-032
  5.500000000000001E-003    6.404571058678187E-032
  5.600000000000002E-003    4.439269275706023E-032
  5.700000000000001E-003    1.469723448494881E-032
  5.800000000000001E-003   -2.489311921898592E-032
  5.900000000000002E-003   -7.318866769381520E-032
  6.000000000000001E-003   -1.277507395127207E-031
  6.100000000000001E-003   -1.847465890121404E-031
  6.200000000000002E-003   -2.389072626029058E-031
  6.300000000000002E-003   -2.836330269996889E-031
  6.400000000000001E-003   -3.112900457821454E-031
  6.500000000000001E-003   -3.137325702541395E-031
  6.600000000000002E-003   -2.830674613010028E-031
  6.700000000000001E-003   -2.126499546682978E-031
  6.800000000000001E-003   -9.826371676597330E-032
  6.900000000000002E-003    6.060488122042030E-032
  7.000000000000001E-003    2.595320713778567E-031
  7.100000000000001E-003    4.881356124245962E-031
  7.200000000000002E-003    7.294687604440065E-031
  7.300000000000002E-003    9.600382722921947E-031
  7.400000000000001E-003    1.150636784994269E-030
  7.500000000000001E-003    1.268127031454741E-030
  7.600000000000002E-003    1.278230840343443E-030
  7.700000000000001E-003    1.149258970199981E-030
  7.800000000000001E-003    8.565780829492646E-031
  7.900000000000001E-003    3.874637047887066E-031
  8.000000000000002E-003   -2.541545133477622E-031
  8.100000000000001E-003   -1.043659123915741E-030
  8.200000000000001E-003   -1.933087653867998E-030
  8.300000000000002E-003   -2.850511615706053E-030
  8.400000000000001E-003   -3.702019049312485E-030
  8.500000000000002E-003   -4.376693545485307E-030
  8.600000000000002E-003   -4.754717717464600E-030
  8.700000000000001E-003   -4.718409256878455E-030
  8.800000000000002E-003   -4.165618632927335E-030
  8.900000000000002E-003   -3.024552124548569E-030
  9.000000000000001E-003   -1.268730155790503E-030
  9.100000000000002E-003    1.069460014564599E-030
  9.200000000000002E-003    3.888332137225876E-030
  9.300000000000001E-003    7.011298000084237E-030
  9.400000000000002E-003    1.018766460608423E-029
  9.500000000000001E-003    1.310107321447471E-029
  9.600000000000001E-003    1.538634402680269E-029
  9.700000000000002E-003    1.665485977504057E-029
  9.800000000000001E-003    1.652789059823660E-029
  9.900000000000001E-003    1.467643972070734E-029
  1.000000000000000E-002    1.086533702704832E-029
  1.010000000000000E-002    4.998484138407187E-030
  1.020000000000000E-002   -2.838618680482184E-030
  1.030000000000000E-002   -1.234357820395580E-029
  1.040000000000000E-002   -2.297399375396673E-029
  1.050000000000000E-002   -3.394159989584284E-029
  1.060000000000000E-002   -4.422856576432406E-029
  1.070000000000000E-002   -5.263007696897493E-029
  1.080000000000000E-002   -5.782603525306921E-029
  1.090000000000000E-002   -5.848273845553518E-029
  1.100000000000000E-002   -5.338269469502612E-029
  1.110000000000000E-002   -4.157730934032941E-029
  1.120000000000000E-002   -2.255336193715580E-029
  1.130000000000000E-002    3.600109600707499E-030
  1.140000000000000E-002    3.604181664861067E-029
  1.150000000000000E-002    7.306588585611265E-029
  1.160000000000000E-002    1.120498092756960E-028
  1.170000000000000E-002    1.494855176325792E-028
  1.180000000000000E-002    1.811133562761315E-028
  1.190000000000000E-002    2.021732284085868E-028
  1.200000000000000E-002    2.077773482742470E-028
  1.210000000000000E-002    1.933969448947323E-028
  1.220000000000000E-002    1.554392912583278E-028
  1.230000000000000E-002    9.187519216594927E-029
  1.240000000000000E-002    2.859986836295246E-030
  1.250000000000000E-002   -1.087230796081144E-028
  1.260000000000000E-002   -2.368780778489919E-028
  1.270000000000000E-002   -3.723538074052963E-028
  1.280000000000000E-002   -5.028208399766671E-028
  1.290000000000000E-002   -6.134279234285311E-028
  1.300000000000000E-002   -6.877700148868448E-028
  1.310000000000000E-002   -7.092608239366236E-028
  1.320000000000000E-002   -6.628561701315064E-028
  1.330000000000000E-002   -5.370226785957091E-028
  1.340000000000000E-002   -3.257946190899761E-028
  1.350000000000000E-002   -3.071605897441017E-029
  1.360000000000000E-002    3.375664520759692E-028
  1.370000000000000E-002    7.583115838305722E-028
  1.380000000000000E-002    1.200529001509919E-027
  1.390000000000000E-002    1.623867229517528E-027
  1.400000000000000E-002    1.980675754555519E-027
  1.410000000000000E-002    2.219281534893460E-027
  1.420000000000000E-002    2.288400551017764E-027
  1.430000000000000E-002    2.142470287621415E-027
  1.440000000000000E-002    1.747554029930530E-027
  1.450000000000000E-002    1.087333471167163E-027
  1.460000000000000E-002    1.686046150973708E-028
  1.470000000000000E-002   -9.743770391194326E-028
  1.480000000000000E-002   -2.277375977793074E-027
  1.490000000000000E-002   -3.646107533438196E-027
  1.500000000000000E-002   -4.959129092933942E-027
  1.510000000000000E-002   -6.074022105438849E-027
  1.520000000000000E-002   -6.836935859037268E-027
  1.530000000000000E-002   -7.095260515517897E-027
  1.540000000000000E-002   -6.712852880929941E-027
  1.550000000000000E-002   -5.586871064098061E-027
  1.560000000000000E-002   -3.664942091691733E-027
  1.570000000000000E-002   -9.610802320625292E-028
  1.580000000000000E-002    2.431423234487203E-027
  1.590000000000000E-002    6.332011196554435E-027
  1.600000000000000E-002    1.047156994350263E-026
  1.610000000000000E-002    1.449939052288998E-026
  1.620000000000000E-002    1.799948412247125E-026
  1.630000000000000E-002    2.051670669678224E-026
  1.640000000000000E-002    2.159232071084295E-026
  1.650000000000000E-002    2.080762492742228E-026
  1.660000000000000E-002    1.783325186299331E-026
  1.670000000000000E-002    1.248057637693084E-026
  1.680000000000000E-002    4.750778060842252E-027
  1.690000000000000E-002   -5.123773380378306E-027
  1.700000000000000E-002   -1.665150706405291E-026
  1.710000000000000E-002   -2.907279793712144E-026
  1.720000000000000E-002   -4.137535319282024E-026
  1.730000000000000E-002   -5.233779805499297E-026
  1.740000000000000E-002   -6.060346860599537E-026
  1.750000000000000E-002   -6.478379285147077E-026
  1.760000000000000E-002   -6.358768623530089E-026
  1.770000000000000E-002   -5.596976477784855E-026
  1.780000000000000E-002   -4.128680497724182E-026
  1.790000000000000E-002   -1.944854350461057E-026
  1.800000000000000E-002    8.953559522768447E-027
  1.810000000000000E-002    4.255741871524642E-026
  1.820000000000000E-002    7.919898376840136E-026
  1.830000000000000E-002    1.159541761891999E-025
  1.840000000000000E-002    1.492657060980451E-025
  1.850000000000000E-002    1.751602413577744E-025
  1.860000000000000E-002    1.895532573182902E-025
  1.870000000000000E-002    1.886293826393544E-025