 -4.000000000000000E-002    0.000000000000000E+000
 -3.990000000000000E-002    0.000000000000000E+000
 -3.980000000000000E-002    0.000000000000000E+000
 -3.970000000000000E-002    0.000000000000000E+000
 -3.960000000000000E-002    0.000000000000000E+000
 -3.950000000000000E-002    0.000000000000000E+000
 -3.940000000000000E-002    0.000000000000000E+000
 -3.930000000000000E-002    0.000000000000000E+000
 -3.920000000000000E-002    0.000000000000000E+000
 -3.910000000000000E-002    1.291264464684760E-030
 -3.900000000000000E-002    2.498606118256494E-029
 -3.890000000000000E-002    2.442991588669977E-028
 -3.880000000000000E-002    1.615430031437969E-027
 -3.870000000000000E-002    8.134991750314015E-027
 -3.860000000000000E-002    3.324759644928786E-026
 -3.850000000000000E-002    1.146004784171548E-025
 -3.840000000000000E-002    3.413319106149955E-025
 -3.830000000000000E-002    8.915650339624952E-025
 -3.820000000000000E-002    2.056423696770762E-024
 -3.810000000000000E-002    4.180523273129041E-024
 -3.800000000000000E-002    7.371624993567447E-024
 -3.790000000000000E-002    1.073435953244010E-023
 -3.780000000000000E-002    1.080834520159635E-023
 -3.770000000000000E-002   -1.067415568250940E-024
 -3.760000000000000E-002   -4.243762945393892E-023
 -3.750000000000000E-002   -1.436930233350898E-022
 -3.740000000000000E-002   -3.502284602808167E-022
 -3.730000000000000E-002   -7.188517624914748E-022
 -3.720000000000000E-002   -1.302441179103935E-021
 -3.710000000000000E-002   -2.115418111524587E-021
 -3.700000000000000E-002   -3.073175924402551E-021
 -3.690000000000000E-002   -3.902971594111200E-021
 -3.680000000000000E-002   -4.033759016782183E-021
 -3.670000000000000E-002   -2.489050737662930E-021
 -3.660000000000000E-002    2.170655584688414E-021
 -3.650000000000000E-002    1.178483125980700E-020
 -3.640000000000000E-002    2.831926248342399E-020
 -3.630000000000000E-002    5.328997600798673E-020
 -3.620000000000000E-002    8.682208813550042E-020
 -3.610000000000000E-002    1.263542353740243E-019
 -3.600000000000000E-002    1.651239434030758E-019
 -3.590000000000000E-002    1.907401235506589E-019
 -3.580000000000000E-002    1.843416399588657E-019
 -3.570000000000000E-002    1.210105650872411E-019
 -3.560000000000000E-002   -2.781459549613893E-020
 -3.550000000000000E-002   -2.892742939662086E-019
 -3.540000000000000E-002   -6.810635247706229E-019
 -3.530000000000000E-002   -1.200773893742509E-018
 -3.520000000000000E-002   -1.813841366865688E-018
 -3.510000000000000E-002   -2.442424298864785E-018
 -3.500000000000000E-002   -2.958581623914076E-018
 -3.490000000000000E-002   -3.185822970929079E-018
 -3.480000000000000E-002   -2.913077208813391E-018
 -3.470000000000000E-002   -1.924026543988630E-018
 -3.460000000000000E-002   -4.232069675911666E-020
 -3.450000000000000E-002    2.810564236899487E-018
 -3.440000000000000E-002    6.552801031313620E-018
 -3.430000000000000E-002    1.088791167556085E-017
 -3.420000000000000E-002    1.527554223557861E-017
 -3.410000000000000E-002    1.894563047747292E-017
 -3.400000000000000E-002    2.097180710666215E-017
 -3.390000000000000E-002    2.041230564662042E-017
 -3.380000000000000E-002    1.651364836885127E-017
 -3.370000000000000E-002    8.954823177355339E-018
 -3.360000000000000E-002   -1.910031883174533E-018
 -3.350000000000000E-002   -1.487031712344461E-017
 -3.340000000000000E-002   -2.780989337461432E-017
 -3.330000000000000E-002   -3.785951934567189E-017
 -3.320000000000000E-002   -4.180129377180913E-017
 -3.310000000000000E-002   -3.673688292057279E-017
 -3.300000000000000E-002   -2.097366614071584E-017
 -3.290000000000000E-002    4.987461159022008E-018
 -3.280000000000000E-002    3.755147136006423E-017
 -3.270000000000000E-002    6.946281136842178E-017
 -3.260000000000000E-002    8.984700734765732E-017
 -3.250000000000000E-002    8.510978440772358E-017
 -3.240000000000000E-002    4.085574103784179E-017
 -3.230000000000000E-002   -5.516667262537457E-017
 -3.220000000000000E-002   -2.093014610431980E-016
 -3.210000000000000E-002   -4.178602043954906E-016
 -3.200000000000000E-002   -6.633375422352549E-016
 -3.190000000000000E-002   -9.118580174988920E-016
 -3.180000000000000E-002   -1.112819708433688E-015
 -3.170000000000000E-002   -1.201614906189362E-015
 -3.160000000000000E-002   -1.106020121655173E-015
 -3.150000000000000E-002   -7.563602883472216E-016
 -3.140000000000000E-002   -9.889164488419191E-017
 -3.130000000000000E-002    8.889077045017173E-016
 -3.120000000000000E-002    2.183190025094553E-015
 -3.110000000000000E-002    3.701365756820229E-015
 -3.100000000000000E-002    5.295415598978650E-015
 -3.090000000000000E-002    6.753645632796635E-015
 -3.080000000000000E-002    7.812975688210945E-015
 -3.070000000000000E-002    8.182667684812487E-015
 -3.060000000000000E-002    7.578778615024642E-015
 -3.050000000000000E-002    5.766768179513890E-015
 -3.040000000000000E-002    2.607811335493975E-015
 -3.030000000000000E-002   -1.897155861373507E-015
 -3.020000000000000E-002   -7.572522383681569E-015
 -3.010000000000000E-002   -1.404906604554672E-014
 -3.000000000000000E-002   -2.076676952641830E-014
 -2.990000000000000E-002   -2.700299641111391E-014
 -2.980000000000000E-002   -3.192660990887515E-014
 -2.970000000000000E-002   -3.467508241817876E-014
 -2.960000000000000E-002   -3.444803827716834E-014
 -2.950000000000000E-002   -3.060768675718447E-014
 -2.940000000000000E-002   -2.277464880190096E-014
 -2.930000000000000E-002   -1.090727481761525E-014
 -2.920000000000000E-002    4.646128352992093E-015
 -2.910000000000000E-002    2.312985569945124E-014
 -2.900000000000000E-002    4.340167869633279E-014
 -2.890000000000000E-002    6.399083254069902E-014
 -2.880000000000000E-002    8.318746353026050E-014
 -2.870000000000000E-002    9.915440080270427E-014
 -2.860000000000000E-002    1.100504414991602E-013
 -2.850000000000000E-002    1.141548267364151E-013
 -2.840000000000000E-002    1.099848298619909E-013
 -2.830000000000000E-002    9.640246207074728E-014
 -2.820000000000000E-002    7.271053289870046E-014
 -2.810000000000000E-002    3.874210241812630E-014
 -2.800000000000000E-002   -5.051198514219227E-015
 -2.790000000000000E-002   -5.750771551523984E-014
 -2.780000000000000E-002   -1.166619430171319E-013
 -2.770000000000000E-002   -1.796569889162603E-013
 -2.760000000000000E-002   -2.426820395313536E-013
 -2.750000000000000E-002   -3.009634088356501E-013
 -2.740000000000000E-002   -3.488450766985284E-013
 -2.730000000000000E-002   -3.799965062462204E-013
 -2.720000000000000E-002   -3.877796873050358E-013
 -2.710000000000000E-002   -3.657929468012582E-013
 -2.700000000000000E-002   -3.085844329211094E-013
 -2.690000000000000E-002   -2.124987796810427E-013
 -2.680000000000000E-002   -7.658456890322512E-014
 -2.670000000000000E-002    9.654089527550897E-014
 -2.660000000000000E-002    2.999987789717293E-013
 -2.650000000000000E-002    5.222675690330438E-013
 -2.640000000000000E-002    7.472458627585132E-013
 -2.630000000000000E-002    9.548621131968522E-013
 -2.620000000000000E-002    1.122283760924961E-012
 -2.610000000000000E-002    1.225710061290723E-012
 -2.600000000000000E-002    1.242653112424022E-012
 -2.590000000000000E-002    1.154531604732672E-012
 -2.580000000000000E-002    9.493302562030110E-013
 -2.570000000000000E-002    6.240302327927485E-013
 -2.560000000000000E-002    1.864957850501502E-013
 -2.550000000000000E-002   -3.434776998276458E-013
 -2.540000000000000E-002   -9.341910208287853E-013
 -2.530000000000000E-002   -1.543287005089163E-012
 -2.520000000000000E-002   -2.120237573840266E-012
 -2.510000000000000E-002   -2.609960432617905E-012
 -2.500000000000000E-002   -2.957319905129324E-012
 -2.490000000000000E-002   -3.112153097079537E-012
 -2.480000000000000E-002   -3.034381697821185E-012
 -2.470000000000000E-002   -2.698728431438474E-012
 -2.460000000000000E-002   -2.098568012410163E-012
 -2.450000000000000E-002   -1.248505453285242E-012
 -2.440000000000000E-002   -1.853680111894352E-013
 -2.430000000000000E-002    1.032566795123237E-012
 -2.420000000000000E-002    2.328143602045090E-012
 -2.410000000000000E-002    3.609588208085252E-012
 -2.400000000000000E-002    4.776212234884389E-012
 -2.390000000000000E-002    5.725207990262068E-012
 -2.380000000000000E-002    6.359106345870927E-012
 -2.370000000000000E-002    6.593424259240901E-012
 -2.360000000000000E-002    6.364005458406645E-012
 -2.350000000000000E-002    5.633576982289171E-012
 -2.340000000000000E-002    4.397061153616750E-012
 -2.330000000000000E-002    2.685235147726105E-012
 -2.320000000000000E-002    5.663729247131147E-013
 -2.310000000000000E-002   -1.854414615948654E-012
 -2.300000000000000E-002   -4.438348609568646E-012
 -2.290000000000000E-002   -7.018752267733489E-012
 -2.280000000000000E-002   -9.409378058390254E-012
 -2.270000000000000E-002   -1.141508152194479E-011
 -2.260000000000000E-002   -1.284444819608522E-011
 -2.250000000000000E-002   -1.352377231421556E-011
 -2.240000000000000E-002   -1.331157513964045E-011
 -2.230000000000000E-002   -1.211271890222195E-011
 -2.220000000000000E-002   -9.890991494973942E-012
 -2.210000000000000E-002   -6.679054442801668E-012
 -2.200000000000000E-002   -2.584634606591013E-012
 -2.190000000000000E-002    2.207967821755548E-012
 -2.180000000000000E-002    7.441759543889822E-012
 -2.170000000000000E-002    1.279668144062695E-011
 -2.160000000000000E-002    1.790494388793873E-011
 -2.150000000000000E-002    2.237160317489917E-011
 -2.140000000000000E-002    2.579946876212935E-011
 -2.130000000000000E-002    2.781706021723121E-011
 -2.120000000000000E-002    2.810796140878043E-011
 -2.110000000000000E-002    2.643973061783014E-011
 -2.100000000000000E-002    2.269031349455327E-011
 -2.090000000000000E-002    1.686993524117659E-011
 -2.080000000000000E-002    9.136438297301041E-012
 -2.070000000000000E-002   -1.977088653851437E-013
 -2.060000000000000E-002   -1.066828247372692E-011
 -2.050000000000000E-002   -2.167314133476884E-011
 -2.040000000000000E-002   -3.249760795460746E-011
 -2.030000000000000E-002   -4.235125922198908E-011
 -2.020000000000000E-002   -5.041519246601979E-011
 -2.010000000000000E-002   -5.589788949819677E-011
 -2.000000000000000E-002   -5.809679787533421E-011
 -1.990000000000000E-002   -5.646179171612098E-011
 -1.980000000000000E-002   -5.065571629335998E-011
 -1.970000000000000E-002   -4.060668677453268E-011
 -1.960000000000000E-002   -2.654650753390046E-011
 -1.950000000000000E-002   -9.029869544703828E-012
 -1.940000000000000E-002    1.107015416360757E-011
 -1.930000000000000E-002    3.259324663441387E-011
 -1.920000000000000E-002    5.415043707170097E-011
 -1.910000000000000E-002    7.420843507270101E-011
 -1.900000000000000E-002    9.119514844439369E-011
 -1.890000000000000E-002    1.036191301611448E-010
 -1.880000000000000E-002    1.101934696430675E-010
 -1.870000000000000E-002    1.099530468311437E-010
 -1.860000000000000E-002    1.023537518471713E-010
 -1.850000000000000E-002    8.734291366503458E-011
 -1.840000000000000E-002    6.539253111215070E-011
 -1.830000000000000E-002    3.748999348440567E-011
 -1.820000000000000E-002    5.085146358719483E-012
 -1.810000000000000E-002   -3.000279110159886E-011
 -1.800000000000000E-002   -6.571067554560833E-011
 -1.790000000000000E-002   -9.987774792577018E-011
 -1.780000000000000E-002   -1.303988429932835E-010
 -1.770000000000000E-002   -1.553698534886795E-010
 -1.760000000000000E-002   -1.732116460986326E-010
 -1.750000000000000E-002   -1.827615215054833E-010
 -1.740000000000000E-002   -1.833253762020247E-010
 -1.730000000000000E-002   -1.746887184950669E-010
 -1.720000000000000E-002   -1.570899311406302E-010
 -1.710000000000000E-002   -1.311636526357287E-010
 -1.700000000000000E-002   -9.786555725551992E-011
 -1.690000000000000E-002   -5.839130026921710E-011
 -1.680000000000000E-002   -1.410195921477353E-011
 -1.670000000000000E-002    3.353410367466527E-011
 -1.660000000000000E-002    8.297709925585637E-011
 -1.650000000000000E-002    1.326283616929959E-010
 -1.640000000000000E-002    1.808236198784534E-010
 -1.630000000000000E-002    2.258154822037788E-010
 -1.620000000000000E-002    2.657561623914973E-010
 -1.610000000000000E-002    2.986927413987511E-010
 -1.600000000000000E-002    3.225857028967064E-010
 -1.590000000000000E-002    3.353582657011447E-010
 -1.580000000000000E-002    3.349797566719166E-010
 -1.570000000000000E-002    3.195803399514104E-010
 -1.560000000000000E-002    2.875901452374103E-010
 -1.550000000000000E-002    2.378917186021827E-010
 -1.540000000000000E-002    1.699726471301695E-010
 -1.530000000000000E-002    8.406584450883412E-011
 -1.520000000000000E-002   -1.873302952708389E-011
 -1.510000000000000E-002   -1.363775848082206E-010
 -1.500000000000000E-002   -2.658146776075485E-010
 -1.490000000000000E-002   -4.029581031447416E-010
 -1.480000000000000E-002   -5.426889187375483E-010
 -1.470000000000000E-002   -6.788774002789597E-010
 -1.460000000000000E-002   -8.044265310420676E-010
 -1.450000000000000E-002   -9.113405417242342E-010
 -1.440000000000000E-002   -9.908300718037894E-010
 -1.430000000000000E-002   -1.033472916829519E-009
 -1.420000000000000E-002   -1.029454933957708E-009
 -1.410000000000000E-002   -9.689179884380100E-010
 -1.400000000000000E-002   -8.424401372620035E-010
 -1.390000000000000E-002   -6.416640829779999E-010
 -1.380000000000000E-002   -3.600745997187110E-010
 -1.370000000000000E-002    6.093353989499723E-012
 -1.360000000000000E-002    4.568600831807955E-010
 -1.350000000000000E-002    9.874878389709898E-010
 -1.340000000000000E-002    1.587539026395080E-009
 -1.330000000000000E-002    2.240113635727647E-009
 -1.320000000000000E-002    2.921380548844270E-009
 -1.310000000000000E-002    3.600511318698807E-009
 -1.300000000000000E-002    4.240111005046074E-009
 -1.290000000000000E-002    4.797210050380269E-009
 -1.280000000000000E-002    5.224842348210355E-009
 -1.270000000000000E-002    5.474189502172371E-009
 -1.260000000000000E-002    5.497223690602039E-009
 -1.250000000000000E-002    5.249734871776210E-009
 -1.240000000000000E-002    4.694594998437365E-009
 -1.230000000000000E-002    3.805081020244565E-009
 -1.220000000000000E-002    2.568072786835965E-009
 -1.210000000000000E-002    9.869392037632839E-010
 -1.200000000000000E-002   -9.160455750004277E-010
 -1.190000000000000E-002   -3.097894119918945E-009
 -1.180000000000000E-002   -5.493795784128975E-009
 -1.170000000000000E-002   -8.016753092669653E-009
 -1.160000000000000E-002   -1.055797633039521E-008
 -1.150000000000000E-002   -1.298799399044233E-008
 -1.140000000000000E-002   -1.515842200253371E-008
 -1.130000000000000E-002   -1.690430094453736E-008
 -1.120000000000000E-002   -1.804688728426058E-008
 -1.110000000000000E-002   -1.839680384298506E-008
 -1.100000000000000E-002   -1.775741581846723E-008
 -1.090000000000000E-002   -1.592833004597475E-008
 -1.080000000000000E-002   -1.270889408931479E-008
 -1.070000000000000E-002   -7.901581869977585E-009
 -1.060000000000000E-002   -1.315153487205251E-009
 -1.050000000000000E-002    7.232539503223136E-009
 -1.040000000000000E-002    1.791222174388527E-008
 -1.030000000000000E-002    3.088143924732448E-008
 -1.020000000000000E-002    4.628349196737661E-008
 -1.010000000000000E-002    6.424714292655726E-008
 -1.000000000000000E-002    8.488713987284905E-008
 -9.899999999999999E-003    1.083055446933471E-007
 -9.800000000000000E-003    1.345938850334322E-007
 -9.699999999999999E-003    1.638359272862534E-007
 -9.599999999999999E-003    1.961110580155467E-007
 -9.500000000000000E-003    2.314979592971077E-007
 -9.399999999999999E-003    2.700784193610611E-007
 -9.299999999999999E-003    3.119410960871694E-007
 -9.200000000000000E-003    3.571848351224321E-007
 -9.099999999999999E-003    4.059216773005972E-007
 -8.999999999999999E-003    4.582790191541712E-007
 -8.900000000000000E-003    5.144011514129527E-007
 -8.799999999999999E-003    5.744501472126054E-007
 -8.699999999999999E-003    6.386060157286845E-007
 -8.600000000000000E-003    7.070661877767197E-007
 -8.499999999999999E-003    7.800450796821704E-007
 -8.399999999999999E-003    8.577730124436265E-007
 -8.300000000000000E-003    9.404953847146667E-007
 -8.199999999999999E-003    1.028472105982011E-006
 -8.100000000000000E-003    1.121977575240919E-006
 -8.000000000000000E-003    1.221300572249002E-006
 -7.899999999999999E-003    1.326745453129843E-006
 -7.800000000000000E-003    1.438633270268111E-006
 -7.699999999999999E-003    1.557303708468729E-006
 -7.599999999999999E-003    1.683117257508340E-006
 -7.499999999999999E-003    1.816458005921054E-006
 -7.399999999999999E-003    1.957736091964649E-006
 -7.299999999999999E-003    2.107390805066846E-006
 -7.199999999999999E-003    2.265893521906457E-006
 -7.100000000000000E-003    2.433750646576663E-006
 -6.999999999999999E-003    2.611505589083580E-006
 -6.899999999999999E-003    2.799742208992579E-006
 -6.800000000000000E-003    2.999086131563725E-006
 -6.699999999999999E-003    3.210207429255864E-006
 -6.599999999999999E-003    3.433821920866655E-006
 -6.499999999999999E-003    3.670692477879585E-006
 -6.399999999999999E-003    3.921630655854316E-006
 -6.299999999999999E-003    4.187497330569847E-006
 -6.199999999999999E-003    4.469202646457853E-006
 -6.100000000000000E-003    4.767706573095431E-006
 -5.999999999999999E-003    5.084018992269613E-006
 -5.899999999999999E-003    5.419199182271484E-006
 -5.800000000000000E-003    5.774356725412826E-006
 -5.699999999999999E-003    6.150649921680780E-006
 -5.599999999999999E-003    6.549287712047776E-006
 -5.499999999999999E-003    6.971529032478427E-006
 -5.399999999999999E-003    7.418684392317206E-006
 -5.299999999999999E-003    7.892117589024672E-006
 -5.199999999999999E-003    8.393247159615769E-006
 -5.099999999999999E-003    8.923550871786842E-006
 -4.999999999999999E-003    9.484567845331301E-006
 -4.899999999999999E-003    1.007790294972658E-005
 -4.799999999999999E-003    1.070523159799211E-005
 -4.699999999999999E-003    1.136830261133649E-005
 -4.599999999999999E-003    1.206894605642886E-005
 -4.499999999999999E-003    1.280907601249042E-005
 -4.399999999999999E-003    1.359069720130748E-005
 -4.299999999999999E-003    1.441590924803929E-005
 -4.199999999999999E-003    1.528691183777591E-005
 -4.099999999999999E-003    1.620601185496985E-005
 -3.999999999999999E-003    1.717562653327607E-005
 -3.899999999999999E-003    1.819828950150228E-005
 -3.799999999999999E-003    1.927666054216793E-005
 -3.699999999999999E-003    2.041352667677021E-005
 -3.599999999999999E-003    2.161181073201898E-005
 -3.499999999999999E-003    2.287457875994442E-005
 -3.399999999999999E-003    2.420504910315588E-005
 -3.299999999999999E-003    2.560659586387995E-005
 -3.199999999999999E-003    2.708275930170799E-005
 -3.099999999999999E-003    2.863725460084786E-005
 -2.999999999999999E-003    3.027397270165574E-005
 -2.899999999999999E-003    3.199700030975480E-005
 -2.799999999999999E-003    3.381061021617739E-005
 -2.699999999999999E-003    3.571928183476571E-005
 -2.599999999999999E-003    3.772769490678705E-005
 -2.499999999999999E-003    3.984073997501329E-005
 -2.399999999999999E-003    4.206352095952384E-005
 -2.299999999999999E-003    4.440136300697202E-005
 -2.199999999999999E-003    4.685980572288921E-005
 -2.099999999999999E-003    4.944461663616180E-005
 -1.999999999999999E-003    5.216178449826860E-005
 -1.899999999999999E-003    5.501754004011246E-005
 -1.799999999999999E-003    5.801834434173271E-005
 -1.699999999999999E-003    6.117090195588709E-005
 -1.599999999999999E-003    6.448216910347209E-005
 -1.499999999999999E-003    6.795936958215912E-005
 -1.399999999999999E-003    7.160998005714573E-005
 -1.299999999999999E-003    7.544178033179973E-005
 -1.199999999999999E-003    7.946283901202187E-005
 -1.099999999999999E-003    8.368152886004579E-005
 -9.999999999999989E-004    8.810654954047751E-005
 -8.999999999999990E-004    9.274694050876100E-005
 -7.999999999999990E-004    9.761208203938402E-005
 -6.999999999999989E-004    1.027117466948677E-004
 -5.999999999999990E-004    1.080560598792654E-004
 -4.999999999999989E-004    1.136555510764981E-004
 -3.999999999999989E-004    1.195211588942857E-004
 -2.999999999999989E-004    1.256642463709521E-004
 -1.999999999999989E-004    1.320965973132982E-004
 -9.999999999999892E-005    1.388304600766564E-004
  1.084202172485504E-018    1.458785364212832E-004
  1.000000000000011E-004    1.532540209845818E-004
  2.000000000000011E-004    1.609705786530705E-004
  3.000000000000011E-004    1.690423987006061E-004
  4.000000000000011E-004    1.774841680776627E-004
  5.000000000000011E-004    1.863111354979257E-004
  6.000000000000011E-004    1.955390606995101E-004
  7.000000000000011E-004    2.051842756785078E-004
  8.000000000000011E-004    2.152636842068065E-004
  9.000000000000012E-004    2.257947542138222E-004
  1.000000000000001E-003    2.367955116361402E-004
  1.100000000000001E-003    2.482846171551956E-004
  1.200000000000001E-003    2.602812700681085E-004
  1.300000000000001E-003    2.728053183915861E-004
  1.400000000000001E-003    2.858771892695532E-004
  1.500000000000001E-003    2.995179356372839E-004
  1.600000000000001E-003    3.137492344035290E-004
  1.700000000000001E-003    3.285934277539250E-004
  1.800000000000001E-003    3.440734924032149E-004
  1.900000000000001E-003    3.602131181482721E-004
  2.000000000000001E-003    3.770366331529547E-004
  2.100000000000001E-003    3.945691838323927E-004
  2.200000000000001E-003    4.128365632154436E-004
  2.300000000000001E-003    4.318654017484091E-004
  2.400000000000001E-003    4.516830701560754E-004
  2.500000000000001E-003    4.723177887058101E-004
  2.600000000000001E-003    4.937985557733084E-004
  2.700000000000001E-003    5.161552458405244E-004
  2.800000000000001E-003    5.394185354774809E-004
  2.900000000000001E-003    5.636200427077884E-004
  3.000000000000001E-003    5.887921736067363E-004
  3.100000000000001E-003    6.149682525154855E-004
  3.200000000000001E-003    6.421825133408778E-004
  3.300000000000001E-003    6.704699925813434E-004
  3.400000000000001E-003    6.998666344775338E-004
  3.500000000000001E-003    7.304093132127296E-004
  3.600000000000001E-003    7.621357801667426E-004
  3.700000000000001E-003    7.950846866030912E-004
  3.800000000000001E-003    8.292955937605437E-004
  3.900000000000001E-003    8.648089467471249E-004
  4.000000000000001E-003    9.016661422902852E-004
  4.100000000000001E-003    9.399095582949790E-004
  4.200000000000001E-003    9.795825012831301E-004
  4.300000000000001E-003    1.020729153279704E-003
  4.400000000000001E-003    1.063394700994758E-003
  4.500000000000001E-003    1.107625339095652E-003
  4.600000000000002E-003    1.153468297497537E-003
  4.700000000000001E-003    1.200971652400121E-003
  4.800000000000001E-003    1.250184611722983E-003
  4.900000000000002E-003    1.301157325651034E-003
  5.000000000000001E-003    1.353940883489803E-003
  5.100000000000001E-003    1.408587326808385E-003
  5.200000000000001E-003    1.465149612655381E-003
  5.300000000000002E-003    1.523681760302978E-003
  5.400000000000001E-003    1.584238578724748E-003
  5.500000000000001E-003    1.646875851031336E-003
  5.600000000000002E-003    1.711650076816509E-003
  5.700000000000001E-003    1.778618625328463E-003
  5.800000000000001E-003    1.847839870402000E-003
  5.900000000000002E-003    1.919372893575389E-003
  6.000000000000001E-003    1.993277649959195E-003
  6.100000000000001E-003    2.069614873991748E-003
  6.200000000000002E-003    2.148446127503867E-003
  6.300000000000002E-003    2.229833596791991E-003
  6.400000000000001E-003    2.313840624426398E-003
  6.500000000000001E-003    2.400530911799111E-003
  6.600000000000002E-003    2.489969279580223E-003
  6.700000000000001E-003    2.582220996984860E-003
  6.800000000000001E-003    2.677351998838309E-003
  6.900000000000002E-003    2.775429108498484E-003
  7.000000000000001E-003    2.876519476881522E-003
  7.100000000000001E-003    2.980690794041772E-003
  7.200000000000002E-003    3.088011344965032E-003
  7.300000000000002E-003    3.198549751095766E-003
  7.400000000000001E-003    3.312374856212124E-003
  7.500000000000001E-003    3.429555881297468E-003
  7.600000000000002E-003    3.550162104275674E-003
  7.700000000000001E-003    3.674263181112005E-003
  7.800000000000001E-003    3.801928679735136E-003
  7.900000000000001E-003    3.933228306803165E-003
  8.000000000000002E-003    4.068231549337024E-003
  8.100000000000001E-003    4.207008242380850E-003
  8.200000000000001E-003    4.349628352123497E-003
  8.300000000000002E-003    4.496161247268178E-003
  8.400000000000001E-003    4.646676487476822E-003
  8.500000000000002E-003    4.801243191130877E-003
  8.600000000000002E-003    4.959930401027414E-003
  8.700000000000001E-003    5.122806977423556E-003
  8.800000000000002E-003    5.289940857599490E-003
  8.900000000000002E-003    5.461399682177189E-003
  9.000000000000001E-003    5.637250583249234E-003
  9.100000000000002E-003    5.817558996684528E-003
  9.200000000000002E-003    6.002390479152333E-003
  9.300000000000001E-003    6.191809024842779E-003
  9.400000000000002E-003    6.385877171503060E-003
  9.500000000000001E-003    6.584656259290968E-003
  9.600000000000001E-003    6.788206101777108E-003
  9.700000000000002E-003    6.996585359169465E-003
  9.800000000000001E-003    7.209850119417374E-003
  9.900000000000001E-003    7.428055716951629E-003
  1.000000000000000E-002    7.651255253415806E-003
  1.010000000000000E-002    7.879500069961484E-003
  1.020000000000000E-002    8.112839234569746E-003
  1.030000000000000E-002    8.351319949622318E-003
  1.040000000000000E-002    8.594987884593829E-003
  1.050000000000000E-002    8.843885942901076E-003
  1.060000000000000E-002    9.098054346298260E-003
  1.070000000000000E-002    9.357531670699450E-003
  1.080000000000000E-002    9.622352636599718E-003
  1.090000000000000E-002    9.892549979827085E-003
  1.100000000000000E-002    1.016815421332747E-002
  1.110000000000000E-002    1.044919117701758E-002
  1.120000000000000E-002    1.073568385314460E-002
  1.130000000000000E-002    1.102765225943559E-002
  1.140000000000000E-002    1.132511165589582E-002
  1.150000000000000E-002    1.162807472647236E-002
  1.160000000000000E-002    1.193654929139017E-002
  1.170000000000000E-002    1.225053854671786E-002
  1.180000000000000E-002    1.257004280123791E-002
  1.190000000000000E-002    1.289505750895470E-002
  1.200000000000000E-002    1.322557328285829E-002
  1.210000000000000E-002    1.356157638071392E-002
  1.220000000000000E-002    1.390304768697011E-002
  1.230000000000000E-002    1.424996503198424E-002
  1.240000000000000E-002    1.460229972878005E-002
  1.250000000000000E-002    1.496001916700930E-002
  1.260000000000000E-002    1.532308468169565E-002
  1.270000000000000E-002    1.569145175084977E-002
  1.280000000000000E-002    1.606507275603778E-002
  1.290000000000000E-002    1.644389076786541E-002
  1.300000000000000E-002    1.682784806947613E-002
  1.310000000000000E-002    1.721687520664419E-002
  1.320000000000000E-002    1.761089988447614E-002
  1.330000000000000E-002    1.800984485782551E-002
  1.340000000000000E-002    1.841362422968941E-002
  1.350000000000000E-002    1.882214502910054E-002
  1.360000000000000E-002    1.923531034627568E-002
  1.370000000000000E-002    1.965301419235618E-002
  1.380000000000000E-002    2.007514600768218E-002
  1.390000000000000E-002    2.050158558998341E-002
  1.400000000000000E-002    2.093220921110562E-002
  1.410000000000000E-002    2.136688374466005E-002
  1.420000000000000E-002    2.180546657359375E-002
  1.430000000000000E-002    2.224781270560850E-002
  1.440000000000000E-002    2.269376702601679E-002
  1.450000000000000E-002    2.314316769589291E-002
  1.460000000000000E-002    2.359584390721546E-002
  1.470000000000000E-002    2.405161816381766E-002
  1.480000000000000E-002    2.451030645728040E-002
  1.490000000000000E-002    2.497171678404666E-002
  1.500000000000000E-002    2.543564771716266E-002
  1.510000000000000E-002    2.590189214844621E-002
  1.520000000000000E-002    2.637023417167194E-002
  1.530000000000000E-002    2.684044993283857E-002
  1.540000000000000E-002    2.731230970370642E-002
  1.550000000000000E-002    2.778557373299182E-002
  1.560000000000000E-002    2.825999740608328E-002
  1.570000000000000E-002    2.873532478511684E-002
  1.580000000000000E-002    2.921129306170246E-002
  1.590000000000000E-002    2.968763424329657E-002
  1.600000000000000E-002    3.016407087404899E-002
  1.610000000000000E-002    3.064031763484899E-002
  1.620000000000000E-002    3.111608257271990E-002
  1.630000000000000E-002    3.159106738369070E-002
  1.640000000000000E-002    3.206496221089898E-002
  1.650000000000000E-002    3.253745503872939E-002
  1.660000000000000E-002    3.300822428017460E-002
  1.670000000000000E-002    3.347694078414632E-002
  1.680000000000000E-002    3.394326907923970E-002
  1.690000000000000E-002    3.440686412629014E-002
  1.700000000000000E-002    3.486737910480749E-002
  1.710000000000000E-002    3.532445383129686E-002
  1.720000000000000E-002    3.577772918116565E-002
  1.730000000000000E-002    3.622683714783072E-002
  1.740000000000000E-002    3.667139983154823E-002
  1.750000000000000E-002    3.711103780879727E-002
  1.760000000000000E-002    3.754536407576889E-002
  1.770000000000000E-002    3.797399019097813E-002
  1.780000000000000E-002    3.839651719259177E-002
  1.790000000000000E-002    3.881254246976895E-002
  1.800000000000000E-002    3.922166168452254E-002
  1.810000000000000E-002    3.962346789418537E-002
  1.820000000000000E-002    4.001754360012450E-002
  1.830000000000000E-002    4.040346877803901E-002
  1.840000000000000E-002    4.078082599140354E-002
  1.850000000000000E-002    4.114918827300269E-002
  1.860000000000000E-002    4.150812836452306E-002
  1.870000000000000E-002    4.185721552707904E-002