 -4.000000000000000E-002    0.000000000000000E+000
 -3.990000000000000E-002    0.000000000000000E+000
 -3.980000000000000E-002   -9.796629468853694E-012
 -3.970000000000000E-002   -4.469521449740674E-011
 -3.960000000000000E-002   -1.212852835317792E-010
 -3.950000000000000E-002   -2.540980497420737E-010
 -3.940000000000000E-002   -4.536569509316340E-010
 -3.930000000000000E-002   -7.261054990226264E-010
 -3.920000000000000E-002   -1.074284849469238E-009
 -3.910000000000000E-002   -1.499883428613776E-009
 -3.900000000000000E-002   -2.006098874483964E-009
 -3.890000000000000E-002   -2.600177086204555E-009
 -3.880000000000000E-002   -3.295230076910149E-009
 -3.870000000000000E-002   -4.110829962178141E-009
 -3.860000000000000E-002   -5.072144496207571E-009
 -3.850000000000000E-002   -6.207552155259678E-009
 -3.840000000000000E-002   -7.545001002018092E-009
 -3.830000000000000E-002   -9.107623831014912E-009
 -3.820000000000000E-002   -1.090924862473746E-008
 -3.810000000000000E-002   -1.295059578651961E-008
 -3.800000000000000E-002   -1.521692290524225E-008
 -3.790000000000000E-002   -1.767778372748798E-008
 -3.780000000000000E-002   -2.028929209108098E-008
 -3.770000000000000E-002   -2.299911429080463E-008
 -3.760000000000000E-002   -2.575394865566723E-008
 -3.750000000000000E-002   -2.850902958358064E-008
 -3.740000000000000E-002   -3.123882552919447E-008
 -3.730000000000000E-002   -3.394792105724274E-008
 -3.720000000000000E-002   -3.668092994294036E-008
 -3.710000000000000E-002   -3.953025556352599E-008
 -3.700000000000000E-002   -4.264062977168433E-008
 -3.690000000000000E-002   -4.620961550339798E-008
 -3.680000000000000E-002   -5.048345829132007E-008
 -3.670000000000000E-002   -5.574816056080149E-008
 -3.660000000000000E-002   -6.231593667644815E-008
 -3.650000000000000E-002   -7.050761670181671E-008
 -3.640000000000000E-002   -8.063188210609913E-008
 -3.630000000000000E-002   -9.296252692541037E-008
 -3.620000000000000E-002   -1.077149715054196E-007
 -3.610000000000000E-002   -1.250234791554899E-007
 -3.600000000000000E-002   -1.449203214728643E-007
 -3.590000000000000E-002   -1.673181341239345E-007
 -3.580000000000000E-002   -1.919963739945025E-007
 -3.570000000000000E-002   -2.185925499934337E-007
 -3.560000000000000E-002   -2.465987492352030E-007
 -3.550000000000000E-002   -2.753632983929090E-007
 -3.540000000000000E-002   -3.040975788673598E-007
 -3.530000000000000E-002   -3.318873303147143E-007
 -3.520000000000000E-002   -3.577079556060446E-007
 -3.510000000000000E-002   -3.804427194605813E-007
 -3.500000000000000E-002   -3.989033019186861E-007
 -3.490000000000000E-002   -4.118515386948930E-007
 -3.480000000000000E-002   -4.180216004704376E-007
 -3.470000000000000E-002   -4.161419459589336E-007
 -3.460000000000000E-002   -4.049565025347510E-007
 -3.450000000000000E-002   -3.832444615715746E-007
 -3.440000000000000E-002   -3.498387594780025E-007
 -3.430000000000000E-002   -3.036428451294406E-007
 -3.420000000000000E-002   -2.436464793783857E-007
 -3.410000000000000E-002   -1.689396885644286E-007
 -3.400000000000000E-002   -7.872628803985600E-008
 -3.390000000000000E-002    2.766424998726087E-008
 -3.380000000000000E-002    1.507648187747309E-007
 -3.370000000000000E-002    2.909602729773743E-007
 -3.360000000000000E-002    4.484782483319539E-007
 -3.350000000000000E-002    6.233813148069554E-007
 -3.340000000000000E-002    8.155614514102500E-007
 -3.330000000000000E-002    1.024737768066410E-006
 -3.320000000000000E-002    1.250458132541749E-006
 -3.310000000000000E-002    1.492105956897749E-006
 -3.300000000000000E-002    1.748912060512705E-006
 -3.290000000000000E-002    2.019972858852335E-006
 -3.280000000000000E-002    2.304274814909848E-006
 -3.270000000000000E-002    2.600724804769927E-006
 -3.260000000000000E-002    2.908185385238938E-006
 -3.250000000000000E-002    3.225514668470424E-006
 -3.240000000000000E-002    3.551608982543852E-006
 -3.230000000000000E-002    3.885445539248984E-006
 -3.220000000000000E-002    4.226123289337572E-006
 -3.210000000000000E-002    4.572903254750220E-006
 -3.200000000000000E-002    4.925240673000872E-006
 -3.190000000000000E-002    5.282812714206256E-006
 -3.180000000000000E-002    5.645537651266896E-006
 -3.170000000000000E-002    6.013586880782848E-006
 -3.160000000000000E-002    6.387388196351592E-006
 -3.150000000000000E-002    6.767623442715617E-006
 -3.140000000000000E-002    7.155217475910607E-006
 -3.130000000000000E-002    7.551326243107611E-006
 -3.120000000000000E-002    7.957319323139718E-006
 -3.110000000000000E-002    8.374761158641395E-006
 -3.100000000000000E-002    8.805394264791160E-006
 -3.090000000000000E-002    9.251121070248563E-006
 -3.080000000000000E-002    9.713988130320296E-006
 -3.070000000000000E-002    1.019617119383763E-005
 -3.060000000000000E-002    1.069996165866207E-005
 -3.050000000000000E-002    1.122775578986674E-005
 -3.040000000000000E-002    1.178203823722902E-005
 -3.030000000000000E-002    1.236537140427276E-005
 -3.020000000000000E-002    1.298037647236938E-005
 -3.010000000000000E-002    1.362972058452922E-005
 -3.000000000000000E-002    1.431609216643226E-005
 -2.990000000000000E-002    1.504219066631589E-005
 -2.980000000000000E-002    1.581070290099264E-005
 -2.970000000000000E-002    1.662429366329019E-005
 -2.960000000000000E-002    1.748559371148330E-005
 -2.950000000000000E-002    1.839720452842107E-005
 -2.940000000000000E-002    1.936169598917241E-005
 -2.930000000000000E-002    2.038162988981084E-005
 -2.920000000000000E-002    2.145958238923396E-005
 -2.910000000000000E-002    2.259817463987752E-005
 -2.900000000000000E-002    2.380011811720524E-005
 -2.890000000000000E-002    2.506825722518620E-005
 -2.880000000000000E-002    2.640561224991272E-005
 -2.870000000000000E-002    2.781542312321915E-005
 -2.860000000000000E-002    2.930118716199779E-005
 -2.850000000000000E-002    3.086668837058404E-005
 -2.840000000000000E-002    3.251601468316911E-005
 -2.830000000000000E-002    3.425355580835780E-005
 -2.820000000000000E-002    3.608400201984315E-005
 -2.810000000000000E-002    3.801232561794365E-005
 -2.800000000000000E-002    4.004374420203411E-005
 -2.790000000000000E-002    4.218369962880543E-005
 -2.780000000000000E-002    4.443780645827890E-005
 -2.770000000000000E-002    4.681182690418581E-005
 -2.760000000000000E-002    4.931163518625313E-005
 -2.750000000000000E-002    5.194319653901313E-005
 -2.740000000000000E-002    5.471256656169956E-005
 -2.730000000000000E-002    5.762585488724064E-005
 -2.720000000000000E-002    6.068928206822022E-005
 -2.710000000000000E-002    6.390916997290184E-005
 -2.700000000000000E-002    6.729196935273383E-005
 -2.690000000000000E-002    7.084431319728556E-005
 -2.680000000000000E-002    7.457302225782797E-005
 -2.670000000000000E-002    7.848515779498585E-005
 -2.660000000000000E-002    8.258803604507260E-005
 -2.650000000000000E-002    8.688924967391114E-005
 -2.640000000000000E-002    9.139668209099963E-005
 -2.630000000000000E-002    9.611850153039414E-005
 -2.620000000000000E-002    1.010631699840040E-004
 -2.610000000000000E-002    1.062394108544929E-004
 -2.600000000000000E-002    1.116562018187570E-004
 -2.590000000000000E-002    1.173227832853267E-004
 -2.580000000000000E-002    1.232486000242683E-004
 -2.570000000000000E-002    1.294433241855329E-004
 -2.560000000000000E-002    1.359168660561087E-004
 -2.550000000000000E-002    1.426793717185601E-004
 -2.540000000000000E-002    1.497412018088405E-004
 -2.530000000000000E-002    1.571130173001065E-004
 -2.520000000000000E-002    1.648057775774671E-004
 -2.510000000000000E-002    1.728307721789993E-004
 -2.500000000000000E-002    1.811996608350669E-004
 -2.490000000000000E-002    1.899244980476937E-004
 -2.480000000000000E-002    1.990178020623993E-004
 -2.470000000000000E-002    2.084924884354524E-004
 -2.460000000000000E-002    2.183619520095186E-004
 -2.450000000000000E-002    2.286400635493240E-004
 -2.440000000000000E-002    2.393410716657781E-004
 -2.430000000000000E-002    2.504796749418443E-004
 -2.420000000000000E-002    2.620709361180107E-004
 -2.410000000000000E-002    2.741302319770598E-004
 -2.400000000000000E-002    2.866731959180162E-004
 -2.390000000000000E-002    2.997157228587329E-004
 -2.380000000000000E-002    3.132738193925426E-004
 -2.370000000000000E-002    3.273636406667759E-004
 -2.360000000000000E-002    3.420014024765593E-004
 -2.350000000000000E-002    3.572033463125791E-004
 -2.340000000000000E-002    3.729857048223859E-004
 -2.330000000000000E-002    3.893646931366626E-004
 -2.320000000000000E-002    4.063565154251729E-004
 -2.310000000000000E-002    4.239773601546437E-004
 -2.300000000000000E-002    4.422433755965639E-004
 -2.290000000000000E-002    4.611707268691582E-004
 -2.280000000000000E-002    4.807755228422095E-004
 -2.270000000000000E-002    5.010740732196857E-004
 -2.260000000000000E-002    5.220826177826392E-004
 -2.250000000000000E-002    5.438175095582692E-004
 -2.240000000000000E-002    5.662950900925014E-004
 -2.230000000000000E-002    5.895318771891489E-004
 -2.220000000000000E-002    6.135443282356737E-004
 -2.210000000000000E-002    6.383490699209842E-004
 -2.200000000000000E-002    6.639624917320398E-004
 -2.190000000000000E-002    6.904009915292955E-004
 -2.180000000000000E-002    7.176807406120397E-004
 -2.170000000000000E-002    7.458177781699711E-004
 -2.160000000000000E-002    7.748277155414100E-004
 -2.150000000000000E-002    8.047257001607634E-004
 -2.140000000000000E-002    8.355264720868970E-004
 -2.130000000000000E-002    8.672440075421417E-004
 -2.120000000000000E-002    8.998917261029162E-004
 -2.110000000000000E-002    9.334820869276205E-004
 -2.100000000000000E-002    9.680267136216986E-004
 -2.090000000000000E-002    1.003536355214944E-003
 -2.080000000000000E-002    1.040020690258868E-003
 -2.070000000000000E-002    1.077488366244047E-003
 -2.060000000000000E-002    1.115946870238547E-003
 -2.050000000000000E-002    1.155402503020059E-003
 -2.040000000000000E-002    1.195860403224842E-003
 -2.030000000000000E-002    1.237324223434814E-003
 -2.020000000000000E-002    1.279796280844723E-003
 -2.010000000000000E-002    1.323277662155444E-003
 -2.000000000000000E-002    1.367767441099832E-003
 -1.990000000000000E-002    1.413263180460830E-003
 -1.980000000000000E-002    1.459760921231709E-003
 -1.970000000000000E-002    1.507254483225010E-003
 -1.960000000000000E-002    1.555735825157218E-003
 -1.950000000000000E-002    1.605194965579251E-003
 -1.940000000000000E-002    1.655619421365661E-003
 -1.930000000000000E-002    1.706994605250895E-003
 -1.920000000000000E-002    1.759302948452799E-003
 -1.910000000000000E-002    1.812524817588316E-003
 -1.900000000000000E-002    1.866637514145692E-003
 -1.890000000000000E-002    1.921615877778032E-003
 -1.880000000000000E-002    1.977431173466672E-003
 -1.870000000000000E-002    2.034051664524459E-003
 -1.860000000000000E-002    2.091442286780004E-003
 -1.850000000000000E-002    2.149564795943994E-003
 -1.840000000000000E-002    2.208376945665522E-003
 -1.830000000000000E-002    2.267832793993185E-003
 -1.820000000000000E-002    2.327882398341374E-003
 -1.810000000000000E-002    2.388471666184785E-003
 -1.800000000000000E-002    2.449541351979625E-003
 -1.790000000000000E-002    2.511028325342433E-003
 -1.780000000000000E-002    2.572864314750871E-003
 -1.770000000000000E-002    2.634976148627295E-003
 -1.760000000000000E-002    2.697285589564870E-003
 -1.750000000000000E-002    2.759708819823527E-003
 -1.740000000000000E-002    2.822155697278529E-003
 -1.730000000000000E-002    2.884531196797269E-003
 -1.720000000000000E-002    2.946734215900617E-003
 -1.710000000000000E-002    3.008657402492378E-003
 -1.700000000000000E-002    3.070187092314742E-003
 -1.690000000000000E-002    3.131203749993523E-003
 -1.680000000000000E-002    3.191580335055861E-003
 -1.670000000000000E-002    3.251183503523221E-003
 -1.660000000000000E-002    3.309873105977104E-003
 -1.650000000000000E-002    3.367501672632778E-003
 -1.640000000000000E-002    3.423914258503005E-003
 -1.630000000000000E-002    3.478949353926818E-003
 -1.620000000000000E-002    3.532436172013560E-003
 -1.610000000000000E-002    3.584197324203089E-003
 -1.600000000000000E-002    3.634047191294993E-003
 -1.590000000000000E-002    3.681791513489272E-003
 -1.580000000000000E-002    3.727227257701866E-003
 -1.570000000000000E-002    3.770143143539412E-003
 -1.560000000000000E-002    3.810319283651136E-003
 -1.550000000000000E-002    3.847526567101872E-003
 -1.540000000000000E-002    3.881526327490981E-003
 -1.530000000000000E-002    3.912070762503193E-003
 -1.520000000000000E-002    3.938902790702335E-003
 -1.510000000000000E-002    3.961754817952200E-003
 -1.500000000000000E-002    3.980350490336512E-003
 -1.490000000000000E-002    3.994403338693380E-003
 -1.480000000000000E-002    4.003615386933386E-003
 -1.470000000000000E-002    4.007679574292318E-003
 -1.460000000000000E-002    4.006277180728190E-003
 -1.450000000000000E-002    3.999080340471995E-003
 -1.440000000000000E-002    3.985749904996528E-003
 -1.430000000000000E-002    3.965935575929436E-003
 -1.420000000000000E-002    3.939277192814772E-003
 -1.410000000000000E-002    3.905403237054969E-003
 -1.400000000000000E-002    3.863931143002693E-003
 -1.390000000000000E-002    3.814466846719983E-003
 -1.380000000000000E-002    3.756606746727879E-003
 -1.370000000000000E-002    3.689935015350569E-003
 -1.360000000000000E-002    3.614023969670559E-003
 -1.350000000000000E-002    3.528437297261549E-003
 -1.340000000000000E-002    3.432725375883080E-003
 -1.330000000000000E-002    3.326431103731649E-003
 -1.320000000000000E-002    3.209082046962719E-003
 -1.310000000000000E-002    3.080199003478091E-003
 -1.300000000000000E-002    2.939290557479523E-003
 -1.290000000000000E-002    2.785855558175597E-003
 -1.280000000000000E-002    2.619382116677183E-003
 -1.270000000000000E-002    2.439349310520538E-003
 -1.260000000000000E-002    2.245224058963436E-003
 -1.250000000000000E-002    2.036468059658192E-003
 -1.240000000000000E-002    1.812530165102492E-003
 -1.230000000000000E-002    1.572850689558767E-003
 -1.220000000000000E-002    1.316861331556148E-003
 -1.210000000000000E-002    1.043986745482468E-003
 -1.200000000000000E-002    7.536427719002795E-004
 -1.190000000000000E-002    4.452365627325124E-004
 -1.180000000000000E-002    1.181691768000620E-004
 -1.170000000000000E-002   -2.281670912464237E-004
 -1.160000000000000E-002   -5.943889986316300E-004
 -1.150000000000000E-002   -9.811139928834725E-004
 -1.140000000000000E-002   -1.388969329916629E-003
 -1.130000000000000E-002   -1.818586560605346E-003
 -1.120000000000000E-002   -2.270600750516796E-003
 -1.110000000000000E-002   -2.745655417602290E-003
 -1.100000000000000E-002   -3.244391180360703E-003
 -1.090000000000000E-002   -3.767456394364719E-003
 -1.080000000000000E-002   -4.315499173237755E-003
 -1.070000000000000E-002   -4.889170915005988E-003
 -1.060000000000000E-002   -5.489124972486804E-003
 -1.050000000000000E-002   -6.116009770235195E-003
 -1.040000000000000E-002   -6.770475662976930E-003
 -1.030000000000000E-002   -7.453172928190105E-003
 -1.020000000000000E-002   -8.164748954902115E-003
 -1.010000000000000E-002   -8.905846727726523E-003
 -1.000000000000000E-002   -9.677105315815358E-003
 -9.899999999999999E-003   -1.047915936267173E-002
 -9.800000000000000E-003   -1.131263490923713E-002
 -9.699999999999999E-003   -1.217815979744581E-002
 -9.599999999999999E-003   -1.307634450274113E-002
 -9.500000000000000E-003   -1.400779325207540E-002
 -9.399999999999999E-003   -1.497310203281385E-002
 -9.299999999999999E-003   -1.597285458394945E-002
 -9.200000000000000E-003   -1.700762565991507E-002
 -9.099999999999999E-003   -1.807796994965987E-002
 -8.999999999999999E-003   -1.918443446739006E-002
 -8.900000000000000E-003   -2.032754641586412E-002
 -8.799999999999999E-003   -2.150781593886393E-002
 -8.699999999999999E-003   -2.272573778005131E-002
 -8.600000000000000E-003   -2.398178787528647E-002
 -8.499999999999999E-003   -2.527641836712312E-002
 -8.399999999999999E-003   -2.661005762785364E-002
 -8.300000000000000E-003   -2.798311667458047E-002
 -8.199999999999999E-003   -2.939598040122501E-002
 -8.100000000000000E-003   -3.084900529531191E-002
 -8.000000000000000E-003   -3.234252453808042E-002
 -7.899999999999999E-003   -3.387684005352447E-002
 -7.800000000000000E-003   -3.545223191207096E-002
 -7.699999999999999E-003   -3.706894615305009E-002
 -7.599999999999999E-003   -3.872718963534511E-002
 -7.499999999999999E-003   -4.042714761487033E-002
 -7.399999999999999E-003   -4.216896394413315E-002
 -7.299999999999999E-003   -4.395274307986965E-002
 -7.199999999999999E-003   -4.577856519415162E-002
 -7.100000000000000E-003   -4.764645912139044E-002
 -6.999999999999999E-003   -4.955642513104236E-002
 -6.899999999999999E-003   -5.150840597968374E-002
 -6.800000000000000E-003   -5.350231928874959E-002
 -6.699999999999999E-003   -5.553803134057214E-002
 -6.599999999999999E-003   -5.761535560911482E-002
 -6.499999999999999E-003   -5.973407687476238E-002
 -6.399999999999999E-003   -6.189391973072896E-002
 -6.299999999999999E-003   -6.409456069409264E-002
 -6.199999999999999E-003   -6.633563733547659E-002
 -6.100000000000000E-003   -6.861672560912496E-002
 -5.999999999999999E-003   -7.093735230474839E-002
 -5.899999999999999E-003   -7.329699798046076E-002
 -5.800000000000000E-003   -7.569508833267263E-002
 -5.699999999999999E-003   -7.813098582638475E-002
 -5.599999999999999E-003   -8.060401143979967E-002
 -5.499999999999999E-003   -8.311341376297071E-002
 -5.399999999999999E-003   -8.565840663617999E-002
 -5.299999999999999E-003   -8.823812425050104E-002
 -5.199999999999999E-003   -9.085166025513455E-002
 -5.099999999999999E-003   -9.349803348694519E-002
 -4.999999999999999E-003   -9.617622096868342E-002
 -4.899999999999999E-003   -9.888511777787756E-002
 -4.799999999999999E-003   -0.101623564135978     
 -4.699999999999999E-003   -0.104390351078049     
 -4.599999999999999E-003   -0.107184203858717     
 -4.499999999999999E-003   -0.110003779437162     
 -4.399999999999999E-003   -0.112847672463635     
 -4.299999999999999E-003   -0.115714428643502     
 -4.199999999999999E-003   -0.118602523823228     
 -4.099999999999999E-003   -0.121510362805246     
 -3.999999999999999E-003   -0.124436312088040     
 -3.899999999999999E-003   -0.127378650765494     
 -3.799999999999999E-003   -0.130335620384663     
 -3.699999999999999E-003   -0.133305398229403     
 -3.599999999999999E-003   -0.136286080006500     
 -3.499999999999999E-003   -0.139275732128952     
 -3.399999999999999E-003   -0.142272337658009     
 -3.299999999999999E-003   -0.145273831879010     
 -3.199999999999999E-003   -0.148278103963264     
 -3.099999999999999E-003   -0.151282965107413     
 -2.999999999999999E-003   -0.154286177150004     
 -2.899999999999999E-003   -0.157285464794650     
 -2.799999999999999E-003   -0.160278490721826     
 -2.699999999999999E-003   -0.163262841016771     
 -2.599999999999999E-003   -0.166236094100940     
 -2.499999999999999E-003   -0.169195755096153     
 -2.399999999999999E-003   -0.172139287440151     
 -2.299999999999999E-003   -0.175064103197558     
 -2.199999999999999E-003   -0.177967595675542     
 -2.099999999999999E-003   -0.180847080302813     
 -1.999999999999999E-003   -0.183699861277671     
 -1.899999999999999E-003   -0.186523205386045     
 -1.799999999999999E-003   -0.189314326321845     
 -1.699999999999999E-003   -0.192070425662530     
 -1.599999999999999E-003   -0.194788673838357     
 -1.499999999999999E-003   -0.197466200195128     
 -1.399999999999999E-003   -0.200100109642511     
 -1.299999999999999E-003   -0.202687500727812     
 -1.199999999999999E-003   -0.205225435163837     
 -1.099999999999999E-003   -0.207710955770059     
 -9.999999999999989E-004   -0.210141107024171     
 -8.999999999999990E-004   -0.212512900746620     
 -7.999999999999990E-004   -0.214823354208929     
 -6.999999999999989E-004   -0.217069478009863     
 -5.999999999999990E-004   -0.219248293628953     
 -4.999999999999989E-004   -0.221356796099255     
 -3.999999999999989E-004   -0.223392002813145     
 -2.999999999999989E-004   -0.225350916197786     
 -1.999999999999989E-004   -0.227230606885563     
 -9.999999999999892E-005   -0.229028094362416     
  1.084202172485504E-018   -0.230740451793422     
  1.000000000000011E-004   -0.232364749751842     
  2.000000000000011E-004   -0.233898122723957     
  3.000000000000011E-004   -0.235337717914472     
  4.000000000000011E-004   -0.236680721862360     
  5.000000000000011E-004   -0.237924327858182     
  6.000000000000011E-004   -0.239065800478739     
  7.000000000000011E-004   -0.240102434075849     
  8.000000000000011E-004   -0.241031573799936     
  9.000000000000012E-004   -0.241850604393007     
  1.000000000000001E-003   -0.242556964090663     
  1.100000000000001E-003   -0.243148162988917     
  1.200000000000001E-003   -0.243621770379277     
  1.300000000000001E-003   -0.243975410329208     
  1.400000000000001E-003   -0.244206801544086     
  1.500000000000001E-003   -0.244313708044014     
  1.600000000000001E-003   -0.244293963646428     
  1.700000000000001E-003   -0.244145516917454     
  1.800000000000001E-003   -0.243866357690246     
  1.900000000000001E-003   -0.243454604295002     
  2.000000000000001E-003   -0.242908423382260     
  2.100000000000001E-003   -0.242226098198785     
  2.200000000000001E-003   -0.241405999859182     
  2.300000000000001E-003   -0.240446601112735     
  2.400000000000001E-003   -0.239346484277600     
  2.500000000000001E-003   -0.238104330823020     
  2.600000000000001E-003   -0.236718923208469     
  2.700000000000001E-003   -0.235189142741980     
  2.800000000000001E-003   -0.233514015827511     
  2.900000000000001E-003   -0.231692660286850     
  3.000000000000001E-003   -0.229724308043060     
  3.100000000000001E-003   -0.227608341209206     
  3.200000000000001E-003   -0.225344215372384     
  3.300000000000001E-003   -0.222931566967355     
  3.400000000000001E-003   -0.220370097982514     
  3.500000000000001E-003   -0.217659684293665     
  3.600000000000001E-003   -0.214800303657637     
  3.700000000000001E-003   -0.211792101565549     
  3.800000000000001E-003   -0.208635293831986     
  3.900000000000001E-003   -0.205330303613073     
  4.000000000000001E-003   -0.201877619640560     
  4.100000000000001E-003   -0.198277907120167     
  4.200000000000001E-003   -0.194531971984185     
  4.300000000000001E-003   -0.190640725441656     
  4.400000000000001E-003   -0.186605232926669     
  4.500000000000001E-003   -0.182426709685487     
  4.600000000000002E-003   -0.178106482372732     
  4.700000000000001E-003   -0.173646023340113     
  4.800000000000001E-003   -0.169046949970533     
  4.900000000000002E-003   -0.164311003242846     
  5.000000000000001E-003   -0.159440069353880     
  5.100000000000001E-003   -0.154436166508191     
  5.200000000000001E-003   -0.149301437146992     
  5.300000000000002E-003   -0.144038163095180     
  5.400000000000001E-003   -0.138648763345583     
  5.500000000000001E-003   -0.133135773806638     
  5.600000000000002E-003   -0.127501869182906     
  5.700000000000001E-003   -0.121749848628882     
  5.800000000000001E-003   -0.115882628244852     
  5.900000000000002E-003   -0.109903253240735     
  6.000000000000001E-003   -0.103814881855890     
  6.100000000000001E-003   -9.762080158879834E-002
  6.200000000000002E-003   -9.132440626052657E-002
  6.300000000000002E-003   -8.492921307708551E-002
  6.400000000000001E-003   -7.843882119484047E-002
  6.500000000000001E-003   -7.185696027516382E-002
  6.600000000000002E-003   -6.518746624100347E-002
  6.700000000000001E-003   -5.843424669932245E-002
  6.800000000000001E-003   -5.160131206752942E-002
  6.900000000000002E-003   -4.469277292908038E-002
  7.000000000000001E-003   -3.771282677858994E-002
  7.100000000000001E-003   -3.066574824518700E-002
  7.200000000000002E-003   -2.355589868287924E-002
  7.300000000000002E-003   -1.638771104376376E-002
  7.400000000000001E-003   -9.165682595423545E-003
  7.500000000000001E-003   -1.894382066062891E-003
  7.600000000000002E-003    5.421543442435849E-003
  7.700000000000001E-003    1.277740652948301E-002
  7.800000000000001E-003    2.016846863349338E-002
  7.900000000000001E-003    2.758993711897389E-002
  8.000000000000002E-003    3.503697456244544E-002
  8.100000000000001E-003    4.250470490304341E-002
  8.200000000000001E-003    4.998821941371640E-002
  8.300000000000002E-003    5.748258780402175E-002
  8.400000000000001E-003    6.498283199752337E-002
  8.500000000000002E-003    7.248397322581970E-002
  8.600000000000002E-003    7.998103847282588E-002
  8.700000000000001E-003    8.746900827810493E-002
  8.800000000000002E-003    9.494289303881061E-002
  8.900000000000002E-003    0.102397671711132     
  9.000000000000001E-003    0.109828370854696     
  9.100000000000002E-003    0.117230008024465     
  9.200000000000002E-003    0.124597591975112     
  9.300000000000001E-003    0.131926214830099     
  9.400000000000002E-003    0.139210936084452     
  9.500000000000001E-003    0.146446893382219     
  9.600000000000001E-003    0.153629223184192     
  9.700000000000002E-003    0.160753136913847     
  9.800000000000001E-003    0.167813873584156     
  9.900000000000001E-003    0.174806740793593     
  1.000000000000000E-002    0.181727078996829     
  1.010000000000000E-002    0.188570322442163     
  1.020000000000000E-002    0.195331950506815     
  1.030000000000000E-002    0.202007521918527     
  1.040000000000000E-002    0.208592671589519     
  1.050000000000000E-002    0.215083105554344     
  1.060000000000000E-002    0.221474621290126     
  1.070000000000000E-002    0.227763123475245     
  1.080000000000000E-002    0.233944583814104     
  1.090000000000000E-002    0.240015074315725     
  1.100000000000000E-002    0.245970788664565     
  1.110000000000000E-002    0.251808014588564     
  1.120000000000000E-002    0.257523131574347     
  1.130000000000000E-002    0.263112615135371     
  1.140000000000000E-002    0.268573110412577     
  1.150000000000000E-002    0.273901335766482     
  1.160000000000000E-002    0.279094142690752     
  1.170000000000000E-002    0.284148525580909     
  1.180000000000000E-002    0.289061570513272     
  1.190000000000000E-002    0.293830520197458     
  1.200000000000000E-002    0.298452733100478     
  1.210000000000000E-002    0.302925681352715     
  1.220000000000000E-002    0.307247013761034     
  1.230000000000000E-002    0.311414470728534     
  1.240000000000000E-002    0.315425965451220     
  1.250000000000000E-002    0.319279542289272     
  1.260000000000000E-002    0.322973388336650     
  1.270000000000000E-002    0.326505798219579     
  1.280000000000000E-002    0.329875270227445     
  1.290000000000000E-002    0.333080391585869     
  1.300000000000000E-002    0.336119925962715     
  1.310000000000000E-002    0.338992764415784     
  1.320000000000000E-002    0.341697972222420     
  1.330000000000000E-002    0.344234717054915     
  1.340000000000000E-002    0.346602318643055     
  1.350000000000000E-002    0.348800278268033     
  1.360000000000000E-002    0.350828185091779     
  1.370000000000000E-002    0.352685812038034     
  1.380000000000000E-002    0.354373064897227     
  1.390000000000000E-002    0.355889991447986     
  1.400000000000000E-002    0.357236763242060     
  1.410000000000000E-002    0.358413726200812     
  1.420000000000000E-002    0.359421320780055     
  1.430000000000000E-002    0.360260142887806     
  1.440000000000000E-002    0.360930920533850     
  1.450000000000000E-002    0.361434512679741     
  1.460000000000000E-002    0.361771928439926     
  1.470000000000000E-002    0.361944288846587     
  1.480000000000000E-002    0.361952827515595     
  1.490000000000000E-002    0.361798928635945     
  1.500000000000000E-002    0.361484059984650     
  1.510000000000000E-002    0.361009860087700     
  1.520000000000000E-002    0.360378035788477     
  1.530000000000000E-002    0.359590396713433     
  1.540000000000000E-002    0.358648927743897     
  1.550000000000000E-002    0.357555639741281     
  1.560000000000000E-002    0.356312691648381     
  1.570000000000000E-002    0.354922334461446     
  1.580000000000000E-002    0.353386921660279     
  1.590000000000000E-002    0.351708899967208     
  1.600000000000000E-002    0.349890777584195     
  1.610000000000000E-002    0.347935177423952     
  1.620000000000000E-002    0.345844812180003     
  1.630000000000000E-002    0.343622429098068     
  1.640000000000000E-002    0.341270902406317     
  1.650000000000000E-002    0.338793145851905     
  1.660000000000000E-002    0.336192163258194     
  1.670000000000000E-002    0.333470982401704     
  1.680000000000000E-002    0.330632735022115     
  1.690000000000000E-002    0.327680572766037     
  1.700000000000000E-002    0.324617726694843     
  1.710000000000000E-002    0.321447452757531     
  1.720000000000000E-002    0.318173070621451     
  1.730000000000000E-002    0.314797923647659     
  1.740000000000000E-002    0.311325409501710     
  1.750000000000000E-002    0.307758956670314     
  1.760000000000000E-002    0.304101994749155     
  1.770000000000000E-002    0.300358016293319     
  1.780000000000000E-002    0.296530478009284     
  1.790000000000000E-002    0.292622928378501     
  1.800000000000000E-002    0.288638862180275     
  1.810000000000000E-002    0.284581817729678     
  1.820000000000000E-002    0.280455328541443     
  1.830000000000000E-002    0.276262954751211     
  1.840000000000000E-002    0.272008223447219     
  1.850000000000000E-002    0.267694672271505     
  1.860000000000000E-002    0.263325830071391     
  1.870000000000000E-002    0.258905219618543     