 -4.000000000000000E-002    0.000000000000000E+000
 -3.990000000000000E-002    0.000000000000000E+000
 -3.980000000000000E-002    0.000000000000000E+000
 -3.970000000000000E-002    0.000000000000000E+000
 -3.960000000000000E-002    0.000000000000000E+000
 -3.950000000000000E-002    0.000000000000000E+000
 -3.940000000000000E-002    0.000000000000000E+000
 -3.930000000000000E-002    0.000000000000000E+000
 -3.920000000000000E-002    0.000000000000000E+000
 -3.910000000000000E-002    0.000000000000000E+000
 -3.900000000000000E-002    4.278820931323646E-034
 -3.890000000000000E-002    7.859317900892243E-033
 -3.880000000000000E-002    7.492825102666064E-032
 -3.870000000000000E-002    4.929449808702174E-031
 -3.860000000000000E-002    2.510425000206453E-030
 -3.850000000000000E-002    1.052530572657322E-029
 -3.840000000000000E-002    3.772422246388120E-029
 -3.830000000000000E-002    1.184732501086943E-028
 -3.820000000000000E-002    3.314542274213430E-028
 -3.810000000000000E-002    8.350133518009408E-028
 -3.800000000000000E-002    1.905257327365215E-027
 -3.790000000000000E-002    3.939611459557483E-027
 -3.780000000000000E-002    7.332530688775230E-027
 -3.770000000000000E-002    1.203447931676491E-026
 -3.760000000000000E-002    1.646529677460676E-026
 -3.750000000000000E-002    1.528111417664465E-026
 -3.740000000000000E-002   -4.664851112368682E-027
 -3.730000000000000E-002   -7.087906192895717E-026
 -3.720000000000000E-002   -2.348027643549359E-025
 -3.710000000000000E-002   -5.842168493770602E-025
 -3.700000000000000E-002   -1.256869111195175E-024
 -3.690000000000000E-002   -2.451342195313391E-024
 -3.680000000000000E-002   -4.427755819998693E-024
 -3.670000000000000E-002   -7.486606865133021E-024
 -3.660000000000000E-002   -1.190952439436148E-023
 -3.650000000000000E-002   -1.784219503364648E-023
 -3.640000000000000E-002   -2.509914667482730E-023
 -3.630000000000000E-002   -3.287505763990822E-023
 -3.620000000000000E-002   -3.936071094976979E-023
 -3.610000000000000E-002   -4.128647832466922E-023
 -3.600000000000000E-002   -3.345386716824107E-023
 -3.590000000000000E-002   -8.365840134419743E-024
 -3.580000000000000E-002    4.387498682705769E-023
 -3.570000000000000E-002    1.351729042936460E-022
 -3.560000000000000E-002    2.782790500096876E-022
 -3.550000000000000E-002    4.845827188990577E-022
 -3.540000000000000E-002    7.606166877121659E-022
 -3.530000000000000E-002    1.103162484139943E-021
 -3.520000000000000E-002    1.493060661245879E-021
 -3.510000000000000E-002    1.888155101684023E-021
 -3.500000000000000E-002    2.216214897836085E-021
 -3.490000000000000E-002    2.369154337142105E-021
 -3.480000000000000E-002    2.200340858209293E-021
 -3.470000000000000E-002    1.527159008986211E-021
 -3.460000000000000E-002    1.411660314132663E-022
 -3.450000000000000E-002   -2.171986287209346E-021
 -3.440000000000000E-002   -5.601301242120255E-021
 -3.430000000000000E-002   -1.026743495052230E-020
 -3.420000000000000E-002   -1.616919959572469E-020
 -3.410000000000000E-002   -2.312302002307939E-020
 -3.400000000000000E-002   -3.070124835053180E-020
 -3.390000000000000E-002   -3.817777826008014E-020
 -3.380000000000000E-002   -4.449153856145251E-020
 -3.370000000000000E-002   -4.823978620719982E-020
 -3.360000000000000E-002   -4.771323979312352E-020
 -3.350000000000000E-002   -4.098349807054047E-020
 -3.340000000000000E-002   -2.604976715122338E-020
 -3.330000000000000E-002   -1.046604191666275E-021
 -3.320000000000000E-002    3.549262248476475E-020
 -3.310000000000000E-002    8.432972362910866E-020
 -3.300000000000000E-002    1.451944749702328E-019
 -3.290000000000000E-002    2.164647651495350E-019
 -3.280000000000000E-002    2.948877520891467E-019
 -3.270000000000000E-002    3.753781242010741E-019
 -3.260000000000000E-002    4.509280364205327E-019
 -3.250000000000000E-002    5.126586293384724E-019
 -3.240000000000000E-002    5.500349944396738E-019
 -3.230000000000000E-002    5.512566309097874E-019
 -3.220000000000000E-002    5.038256965136990E-019
 -3.210000000000000E-002    3.952870501208328E-019
 -3.200000000000000E-002    2.141295620304560E-019
 -3.190000000000000E-002   -4.916302332635201E-020
 -3.180000000000000E-002   -4.009195526398662E-019
 -3.170000000000000E-002   -8.429509014539590E-019
 -3.160000000000000E-002   -1.371081988524291E-018
 -3.150000000000000E-002   -1.973552201539627E-018
 -3.140000000000000E-002   -2.629308251870431E-018
 -3.130000000000000E-002   -3.306252079062450E-018
 -3.120000000000000E-002   -3.959567379229999E-018
 -3.110000000000000E-002   -4.530334067921611E-018
 -3.100000000000000E-002   -4.944741865977911E-018
 -3.090000000000000E-002   -5.114325557689630E-018
 -3.080000000000000E-002   -4.937743570011964E-018
 -3.070000000000000E-002   -4.304675815425539E-018
 -3.060000000000000E-002   -3.102416945260107E-018
 -3.050000000000000E-002   -1.225634991650446E-018
 -3.040000000000000E-002    1.410463628853732E-018
 -3.030000000000000E-002    4.853677231780143E-018
 -3.020000000000000E-002    9.095675035565572E-018
 -3.010000000000000E-002    1.405140938342160E-017
 -3.000000000000000E-002    1.953896478031312E-017
 -2.990000000000000E-002    2.526238592441526E-017
 -2.980000000000000E-002    3.080058942474614E-017
 -2.970000000000000E-002    3.560576066630262E-017
 -2.960000000000000E-002    3.901465750205809E-017
 -2.950000000000000E-002    4.027576461241108E-017
 -2.940000000000000E-002    3.859432499867511E-017
 -2.930000000000000E-002    3.319577716920244E-017
 -2.920000000000000E-002    2.340619131175529E-017
 -2.910000000000000E-002    8.745994641999352E-018
 -2.900000000000000E-002   -1.096919776853444E-017
 -2.890000000000000E-002   -3.552918717462719E-017
 -2.880000000000000E-002   -6.424174366144269E-017
 -2.870000000000000E-002   -9.586882911055751E-017
 -2.860000000000000E-002   -1.285984447413817E-016
 -2.850000000000000E-002   -1.600629711735977E-016
 -2.840000000000000E-002   -1.874123912583504E-016
 -2.830000000000000E-002   -2.074470358009125E-016
 -2.820000000000000E-002   -2.168093729640680E-016
 -2.810000000000000E-002   -2.122286898725578E-016
 -2.800000000000000E-002   -1.908061877505478E-016
 -2.790000000000000E-002   -1.503223454594455E-016
 -2.780000000000000E-002   -8.954356982114372E-017
 -2.770000000000000E-002   -8.501849621422252E-018
 -2.760000000000000E-002    9.127973238860397E-017
 -2.750000000000000E-002    2.066411982771445E-016
 -2.740000000000000E-002    3.327411381477382E-016
 -2.730000000000000E-002    4.631283554439076E-016
 -2.720000000000000E-002    5.899360091217344E-016
 -2.710000000000000E-002    7.041956284627962E-016
 -2.700000000000000E-002    7.962580671152692E-016
 -2.690000000000000E-002    8.563004309308955E-016
 -2.680000000000000E-002    8.748912926327915E-016
 -2.670000000000000E-002    8.435825910791062E-016
 -2.660000000000000E-002    7.554958578518226E-016
 -2.650000000000000E-002    6.058733510750177E-016
 -2.640000000000000E-002    3.925694968821477E-016
 -2.630000000000000E-002    1.164652212099295E-016
 -2.620000000000000E-002   -2.182050912441881E-016
 -2.610000000000000E-002   -6.036176472759732E-016
 -2.600000000000000E-002   -1.028214959472724E-015
 -2.590000000000000E-002   -1.476653686638701E-015
 -2.580000000000000E-002   -1.929849319862322E-015
 -2.570000000000000E-002   -2.365131956205823E-015
 -2.560000000000000E-002   -2.756540098485922E-015
 -2.550000000000000E-002   -3.075289624082255E-015
 -2.540000000000000E-002   -3.290472121319988E-015
 -2.530000000000000E-002   -3.370039986898534E-015
 -2.520000000000000E-002   -3.282135734772301E-015
 -2.510000000000000E-002   -2.996812295522687E-015
 -2.500000000000000E-002   -2.488164003838014E-015
 -2.490000000000000E-002   -1.736850213680245E-015
 -2.480000000000000E-002   -7.329390259580743E-016
 -2.470000000000000E-002    5.210612066946785E-016
 -2.460000000000000E-002    2.007185187579232E-015
 -2.450000000000000E-002    3.689271062849152E-015
 -2.440000000000000E-002    5.510819173210053E-015
 -2.430000000000000E-002    7.393802742688849E-015
 -2.420000000000000E-002    9.238784803625597E-015
 -2.410000000000000E-002    1.092667472300614E-014
 -2.400000000000000E-002    1.232238164047547E-014
 -2.390000000000000E-002    1.328050914976264E-014
 -2.380000000000000E-002    1.365309909534925E-014
 -2.370000000000000E-002    1.329923595922721E-014
 -2.360000000000000E-002    1.209614309468832E-014
 -2.350000000000000E-002    9.951192791157140E-015
 -2.340000000000000E-002    6.814074611266032E-015
 -2.330000000000000E-002    2.688212430987032E-015
 -2.320000000000000E-002   -2.359563633198064E-015
 -2.310000000000000E-002   -8.192115040537604E-015
 -2.300000000000000E-002   -1.459882763082037E-014
 -2.290000000000000E-002   -2.129698625121352E-014
 -2.280000000000000E-002   -2.793829447978408E-014
 -2.270000000000000E-002   -3.412079966178090E-014
 -2.260000000000000E-002   -3.940614352262395E-014
 -2.250000000000000E-002   -4.334165538983911E-014
 -2.240000000000000E-002   -4.548638629388613E-014
 -2.230000000000000E-002   -4.543981584933519E-014
 -2.220000000000000E-002   -4.287165546192623E-014
 -2.210000000000000E-002   -3.755090560011191E-014
 -2.200000000000000E-002   -2.937225090572226E-014
 -2.190000000000000E-002   -1.837786020012816E-014
 -2.180000000000000E-002   -4.772828002917036E-015
 -2.170000000000000E-002    1.106727463583061E-014
 -2.160000000000000E-002    2.859779596909467E-014
 -2.150000000000000E-002    4.711600535050130E-014
 -2.140000000000000E-002    6.578175078102327E-014
 -2.130000000000000E-002    8.364731439159380E-014
 -2.120000000000000E-002    9.969539594684923E-014
 -2.110000000000000E-002    1.128837943455961E-013
 -2.100000000000000E-002    1.221947869035624E-013
 -2.090000000000000E-002    1.266871503766285E-013
 -2.080000000000000E-002    1.255484101528373E-013
 -2.070000000000000E-002    1.181450712011968E-013
 -2.060000000000000E-002    1.040685804611347E-013
 -2.050000000000000E-002    8.317501610009637E-014
 -2.040000000000000E-002    5.561678358544399E-014
 -2.030000000000000E-002    2.186486793684251E-014
 -2.020000000000000E-002   -1.727946299873630E-014
 -2.010000000000000E-002   -6.068435277662527E-014
 -2.000000000000000E-002   -1.068991455309934E-013
 -1.990000000000000E-002   -1.541786418830706E-013
 -1.980000000000000E-002   -2.005203024781743E-013
 -1.970000000000000E-002   -2.437146767915253E-013
 -1.960000000000000E-002   -2.814092379152191E-013
 -1.950000000000000E-002   -3.111857259099340E-013
 -1.940000000000000E-002   -3.306507733207349E-013
 -1.930000000000000E-002   -3.375390713124591E-013
 -1.920000000000000E-002   -3.298277957593519E-013
 -1.910000000000000E-002   -3.058599864804965E-013
 -1.900000000000000E-002   -2.644734307471222E-013
 -1.890000000000000E-002   -2.051304478408670E-013
 -1.880000000000000E-002   -1.280419248161504E-013
 -1.870000000000000E-002   -3.427867271306532E-014
 -1.860000000000000E-002    7.413948721662784E-014
 -1.850000000000000E-002    1.941862295092240E-013
 -1.840000000000000E-002    3.218128001920554E-013
 -1.830000000000000E-002    4.519837345021947E-013
 -1.820000000000000E-002    5.787724402681915E-013
 -1.810000000000000E-002    6.955223703847659E-013
 -1.800000000000000E-002    7.950774563623035E-013
 -1.790000000000000E-002    8.700799473676861E-013
 -1.780000000000000E-002    9.133298590782553E-013
 -1.770000000000000E-002    9.181944263125534E-013
 -1.760000000000000E-002    8.790507609726676E-013
 -1.750000000000000E-002    7.917398574544031E-013
 -1.740000000000000E-002    6.540055004861724E-013
 -1.730000000000000E-002    4.658882517957690E-013
 -1.720000000000000E-002    2.300449515649983E-013
 -1.710000000000000E-002   -4.803767535570209E-014
 -1.700000000000000E-002   -3.599615130720736E-013
 -1.690000000000000E-002   -6.944898889951474E-013
 -1.680000000000000E-002   -1.037789380280639E-012
 -1.670000000000000E-002   -1.373846642525569E-012
 -1.660000000000000E-002   -1.685053939124389E-012
 -1.650000000000000E-002   -1.952948433863924E-012
 -1.640000000000000E-002   -2.159077885688147E-012
 -1.630000000000000E-002   -2.285955903118328E-012
 -1.620000000000000E-002   -2.318060580569746E-012
 -1.610000000000000E-002   -2.242826224362162E-012
 -1.600000000000000E-002   -2.051573180211265E-012
 -1.590000000000000E-002   -1.740323083674273E-012
 -1.580000000000000E-002   -1.310447500697631E-012
 -1.570000000000000E-002   -7.691078699901568E-013
 -1.560000000000000E-002   -1.294522470548345E-013
 -1.550000000000000E-002    5.894530115420219E-013
 -1.540000000000000E-002    1.362969530681665E-012
 -1.530000000000000E-002    2.161504394931331E-012
 -1.520000000000000E-002    2.951387372432388E-012
 -1.510000000000000E-002    3.695981208564883E-012
 -1.500000000000000E-002    4.356988782075445E-012
 -1.490000000000000E-002    4.895918663038021E-012
 -1.480000000000000E-002    5.275661126374514E-012
 -1.470000000000000E-002    5.462127399825995E-012
 -1.460000000000000E-002    5.425903037532533E-012
 -1.450000000000000E-002    5.143866634298883E-012
 -1.440000000000000E-002    4.600724404354578E-012
 -1.430000000000000E-002    3.790411630267551E-012
 -1.420000000000000E-002    2.717311129807193E-012
 -1.410000000000000E-002    1.397233782485217E-012
 -1.400000000000000E-002   -1.418928347098399E-013
 -1.390000000000000E-002   -1.859691781607557E-012
 -1.380000000000000E-002   -3.703417315317677E-012
 -1.370000000000000E-002   -5.608518187706863E-012
 -1.360000000000000E-002   -7.499743700489131E-012
 -1.350000000000000E-002   -9.292841535223848E-012
 -1.340000000000000E-002   -1.089689297931148E-011
 -1.330000000000000E-002   -1.221729016094994E-011
 -1.320000000000000E-002   -1.315935113803230E-011
 -1.310000000000000E-002   -1.363250720699669E-011
 -1.300000000000000E-002   -1.355496974381819E-011
 -1.290000000000000E-002   -1.285872263115823E-011
 -1.280000000000000E-002   -1.149464531536395E-011
 -1.270000000000000E-002   -9.437508495890785E-012
 -1.260000000000000E-002   -6.690569341619971E-012
 -1.250000000000000E-002   -3.289436868511557E-012
 -1.240000000000000E-002    6.951070406204813E-013
 -1.230000000000000E-002    5.155657277493632E-012
 -1.220000000000000E-002    9.948376645304175E-012
 -1.210000000000000E-002    1.489508165262909E-011
 -1.200000000000000E-002    1.978734046298821E-011
 -1.190000000000000E-002    2.439267520557152E-011
 -1.180000000000000E-002    2.846276198206387E-011
 -1.170000000000000E-002    3.174347556036501E-011
 -1.160000000000000E-002    3.398645446612217E-011
 -1.150000000000000E-002    3.496174534790198E-011
 -1.140000000000000E-002    3.447100013077674E-011
 -1.130000000000000E-002    3.236058746773142E-011
 -1.120000000000000E-002    2.853396901400976E-011
 -1.110000000000000E-002    2.296262272370855E-011
 -1.100000000000000E-002    1.569483106063263E-011
 -1.090000000000000E-002    6.861739866572905E-012
 -1.080000000000000E-002   -3.319848184093448E-012
 -1.070000000000000E-002   -1.454838886167060E-011
 -1.060000000000000E-002   -2.644244797039436E-011
 -1.050000000000000E-002   -3.854956878144901E-011
 -1.040000000000000E-002   -5.035913748380108E-011
 -1.030000000000000E-002   -6.131893077081476E-011
 -1.020000000000000E-002   -7.085496988888755E-011
 -1.010000000000000E-002   -7.839407681684250E-011
 -1.000000000000000E-002   -8.338847741468087E-011
 -9.899999999999999E-003   -8.534156649056392E-011
 -9.800000000000000E-003   -8.383393496500983E-011
 -9.699999999999999E-003   -7.854875446229875E-011
 -9.599999999999999E-003   -6.929536914139744E-011
 -9.500000000000000E-003   -5.603019489500747E-011
 -9.399999999999999E-003   -3.887375870964867E-011
 -9.299999999999999E-003   -1.812294911057092E-011
 -9.200000000000000E-003    5.742485183573092E-012
 -9.099999999999999E-003    3.206012975274891E-011
 -8.999999999999999E-003    5.999236762749605E-011
 -8.900000000000000E-003    8.854189042633373E-011
 -8.799999999999999E-003    1.165754103850299E-010
 -8.699999999999999E-003    1.428557318145094E-010
 -8.600000000000000E-003    1.660819000809609E-010
 -8.499999999999999E-003    1.849367688437377E-010
 -8.399999999999999E-003    1.981408879515123E-010
 -8.300000000000000E-003    2.045112188725813E-010
 -8.199999999999999E-003    2.030226868726631E-010
 -8.100000000000000E-003    1.928701229559885E-010
 -8.000000000000000E-003    1.735278364465211E-010
 -7.899999999999999E-003    1.448037743905938E-010
 -7.800000000000000E-003    1.068850259265132E-010
 -7.699999999999999E-003    6.037148010755302E-011
 -7.599999999999999E-003    6.294634573685086E-012
 -7.499999999999999E-003   -5.388114248974873E-011
 -7.399999999999999E-003   -1.182767943576042E-010
 -7.299999999999999E-003   -1.846377017351580E-010
 -7.199999999999999E-003   -2.503939265441175E-010
 -7.100000000000000E-003   -3.127407888237952E-010
 -6.999999999999999E-003   -3.687382067877835E-010
 -6.899999999999999E-003   -4.154257364253978E-010
 -6.800000000000000E-003   -4.499491425957130E-010
 -6.699999999999999E-003   -4.696938923402399E-010
 -6.599999999999999E-003   -4.724194814337502E-010
 -6.499999999999999E-003   -4.563888940343453E-010
 -6.399999999999999E-003   -4.204865889263591E-010
 -6.299999999999999E-003   -3.643186401544497E-010
 -6.199999999999999E-003   -2.882898947046928E-010
 -6.100000000000000E-003   -1.936523244292627E-010
 -5.999999999999999E-003   -8.252109706925026E-011
 -5.899999999999999E-003    4.214432272766661E-011
 -5.800000000000000E-003    1.765954414176010E-010
 -5.699999999999999E-003    3.163861671453960E-010
 -5.599999999999999E-003    4.564983938369918E-010
 -5.499999999999999E-003    5.914984774954795E-010
 -5.399999999999999E-003    7.157197827355636E-010
 -5.299999999999999E-003    8.234653128598021E-010
 -5.199999999999999E-003    9.092233966121711E-010
 -5.099999999999999E-003    9.678885940193909E-010
 -4.999999999999999E-003    9.949797333456280E-010
 -4.899999999999999E-003    9.868466249629393E-010
 -4.799999999999999E-003    9.408566267515559E-010
 -4.699999999999999E-003    8.555545377432523E-010
 -4.599999999999999E-003    7.307870081938466E-010
 -4.499999999999999E-003    5.677868767715748E-010
 -4.399999999999999E-003    3.692114842517282E-010
 -4.299999999999999E-003    1.391322370829588E-010
 -4.199999999999999E-003   -1.170264708597416E-010
 -4.099999999999999E-003   -3.925987204525498E-010
 -3.999999999999999E-003   -6.798375231626970E-010
 -3.899999999999999E-003   -9.701190085818417E-010
 -3.799999999999999E-003   -1.254185668236245E-009
 -3.699999999999999E-003   -1.522420004395449E-009
 -3.599999999999999E-003   -1.765139501934618E-009
 -3.499999999999999E-003   -1.972902574378198E-009
 -3.399999999999999E-003   -2.136813021676662E-009
 -3.299999999999999E-003   -2.248811942373930E-009
 -3.199999999999999E-003   -2.301943808909174E-009
 -3.099999999999999E-003   -2.290588196699239E-009
 -2.999999999999999E-003   -2.210642945054397E-009
 -2.899999999999999E-003   -2.059655801177576E-009
 -2.799999999999999E-003   -1.836895594801883E-009
 -2.699999999999999E-003   -1.543363368262928E-009
 -2.599999999999999E-003   -1.181741481983250E-009
 -2.499999999999999E-003   -7.562893600345970E-010
 -2.399999999999999E-003   -2.726898557403482E-010
 -2.299999999999999E-003    2.621388231972325E-010
 -2.199999999999999E-003    8.402550357021406E-010
 -2.099999999999999E-003    1.452911550166664E-009
 -1.999999999999999E-003    2.090762927765555E-009
 -1.899999999999999E-003    2.744046731483409E-009
 -1.799999999999999E-003    3.402722787345464E-009
 -1.699999999999999E-003    4.056558445145716E-009
 -1.599999999999999E-003    4.695149495476298E-009
 -1.499999999999999E-003    5.307876836364942E-009
 -1.399999999999999E-003    5.883795993336122E-009
 -1.299999999999999E-003    6.411469564183782E-009
 -1.199999999999999E-003    6.878761879568101E-009
 -1.099999999999999E-003    7.272608168406665E-009
 -9.999999999999989E-004    7.578792182372299E-009
 -8.999999999999990E-004    7.781764209623278E-009
 -7.999999999999990E-004    7.864528543048876E-009
 -6.999999999999989E-004    7.808641693135369E-009
 -5.999999999999990E-004    7.594360910156098E-009
 -4.999999999999989E-004    7.200966524614758E-009
 -3.999999999999989E-004    6.607296794946124E-009
 -2.999999999999989E-004    5.792512805186019E-009
 -1.999999999999989E-004    4.737106068072639E-009
 -9.999999999999892E-005    3.424149915003401E-009
  1.084202172485504E-018    1.840788489069600E-009
  1.000000000000011E-004   -2.007008857907628E-011
  2.000000000000011E-004   -2.157876568188736E-009
  3.000000000000011E-004   -4.562441630313559E-009
  4.000000000000011E-004   -7.211866739871784E-009
  5.000000000000011E-004   -1.007047728032025E-008
  6.000000000000011E-004   -1.308683472418064E-008
  7.000000000000011E-004   -1.619189854465351E-008
  8.000000000000011E-004   -1.929742445546103E-008
  9.000000000000012E-004   -2.229469720762423E-008
  1.000000000000001E-003   -2.505360695497081E-008
  1.100000000000001E-003   -2.742222759812943E-008
  1.200000000000001E-003   -2.922684438281318E-008
  1.300000000000001E-003   -3.027254921286028E-008
  1.400000000000001E-003   -3.034435758081652E-008
  1.500000000000001E-003   -2.920890474589066E-008
  1.600000000000001E-003   -2.661662623703329E-008
  1.700000000000001E-003   -2.230445399588197E-008
  1.800000000000001E-003   -1.599891384562115E-008
  1.900000000000001E-003   -7.419589581277461E-009
  2.000000000000001E-003    3.717237392635861E-009
  2.100000000000001E-003    1.769468897363235E-008
  2.200000000000001E-003    3.479151438250541E-008
  2.300000000000001E-003    5.527827729047524E-008
  2.400000000000001E-003    7.941397792440911E-008
  2.500000000000001E-003    1.074427789855514E-007
  2.600000000000001E-003    1.395914280539771E-007
  2.700000000000001E-003    1.760671748275644E-007
  2.800000000000001E-003    2.170563534755265E-007
  2.900000000000001E-003    2.627238321628133E-007
  3.000000000000001E-003    3.132130937767366E-007
  3.100000000000001E-003    3.686472931767729E-007
  3.200000000000001E-003    4.291311762104882E-007
  3.300000000000001E-003    4.947537950258299E-007
  3.400000000000001E-003    5.655917061977248E-007
  3.500000000000001E-003    6.417134699505606E-007
  3.600000000000001E-003    7.231841559689465E-007
  3.700000000000001E-003    8.100706609517690E-007
  3.800000000000001E-003    9.024470766579708E-007
  3.900000000000001E-003    1.000400616099360E-006
  4.000000000000001E-003    1.104037119746348E-006
  4.100000000000001E-003    1.213486855382614E-006
  4.200000000000001E-003    1.328909751363193E-006
  4.300000000000001E-003    1.450500329202245E-006
  4.400000000000001E-003    1.578492186804806E-006
  4.500000000000001E-003    1.713161649701010E-006
  4.600000000000002E-003    1.854831107486418E-006
  4.700000000000001E-003    2.003871145476860E-006
  4.800000000000001E-003    2.160703013391921E-006
  4.900000000000002E-003    2.325798668326809E-006
  5.000000000000001E-003    2.499681887605453E-006
  5.100000000000001E-003    2.682928177355878E-006
  5.200000000000001E-003    2.876163920631421E-006
  5.300000000000002E-003    3.080066102109025E-006
  5.400000000000001E-003    3.295360908439119E-006
  5.500000000000001E-003    3.522823092643261E-006
  5.600000000000002E-003    3.763274670787641E-006
  5.700000000000001E-003    4.017584490629831E-006
  5.800000000000001E-003    4.286667297861269E-006
  5.900000000000002E-003    4.571483752178673E-006
  6.000000000000001E-003    4.873041370203156E-006
  6.100000000000001E-003    5.192394599960176E-006
  6.200000000000002E-003    5.530646223229082E-006
  6.300000000000002E-003    5.888948353445200E-006
  6.400000000000001E-003    6.268506489034646E-006
  6.500000000000001E-003    6.670579573830558E-006
  6.600000000000002E-003    7.096484520487209E-006
  6.700000000000001E-003    7.547597609717071E-006
  6.800000000000001E-003    8.025359119069274E-006
  6.900000000000002E-003    8.531276720917112E-006
  7.000000000000001E-003    9.066928095531894E-006
  7.100000000000001E-003    9.633963694902012E-006
  7.200000000000002E-003    1.023411171808148E-005
  7.300000000000002E-003    1.086917926325145E-005
  7.400000000000001E-003    1.154105743265530E-005
  7.500000000000001E-003    1.225172253968962E-005
  7.600000000000002E-003    1.300324012792072E-005
  7.700000000000001E-003    1.379776611587655E-005
  7.800000000000001E-003    1.463755117007424E-005
  7.900000000000001E-003    1.552494334913922E-005
  8.000000000000002E-003    1.646238869219873E-005
  8.100000000000001E-003    1.745243590656527E-005
  8.200000000000001E-003    1.849773910318696E-005
  8.300000000000002E-003    1.960106327673555E-005
  8.400000000000001E-003    2.076528190306020E-005
  8.500000000000002E-003    2.199339151150175E-005
  8.600000000000002E-003    2.328851007496200E-005
  8.700000000000001E-003    2.465388235784669E-005
  8.800000000000002E-003    2.609289282216348E-005
  8.900000000000002E-003    2.760906794362948E-005
  9.000000000000001E-003    2.920608966793317E-005
  9.100000000000002E-003    3.088780264861559E-005
  9.200000000000002E-003    3.265822535152724E-005
  9.300000000000001E-003    3.452156117887163E-005
  9.400000000000002E-003    3.648221234474901E-005
  9.500000000000001E-003    3.854478991612892E-005
  9.600000000000001E-003    4.071412734653365E-005
  9.700000000000002E-003    4.299529732034013E-005
  9.800000000000001E-003    4.539361964883131E-005
  9.900000000000001E-003    4.791466998228770E-005
  1.000000000000000E-002    5.056430091903197E-005
  1.010000000000000E-002    5.334864390487434E-005
  1.020000000000000E-002    5.627412714383265E-005
  1.030000000000000E-002    5.934747072707815E-005
  1.040000000000000E-002    6.257571243273928E-005
  1.050000000000000E-002    6.596619772834510E-005
  1.060000000000000E-002    6.952659295473137E-005
  1.070000000000000E-002    7.326488413493145E-005
  1.080000000000000E-002    7.718938357826195E-005
  1.090000000000000E-002    8.130874070382929E-005
  1.100000000000000E-002    8.563194195820947E-005
  1.110000000000000E-002    9.016829265397089E-005
  1.120000000000000E-002    9.492745470942919E-005
  1.130000000000000E-002    9.991942693252722E-005
  1.140000000000000E-002    1.051545597519380E-004
  1.150000000000000E-002    1.106435580480442E-004
  1.160000000000000E-002    1.163975046866252E-004
  1.170000000000000E-002    1.224278465453697E-004
  1.180000000000000E-002    1.287464143741845E-004
  1.190000000000000E-002    1.353654556584708E-004
  1.200000000000000E-002    1.422976122542541E-004
  1.210000000000000E-002    1.495559692534648E-004
  1.220000000000000E-002    1.571540597069833E-004
  1.230000000000000E-002    1.651058608804259E-004
  1.240000000000000E-002    1.734258629950288E-004
  1.250000000000000E-002    1.821290366436638E-004
  1.260000000000000E-002    1.912309118510277E-004
  1.270000000000000E-002    2.007475206953628E-004
  1.280000000000000E-002    2.106954848087299E-004
  1.290000000000000E-002    2.210919951717183E-004
  1.300000000000000E-002    2.319548496565927E-004
  1.310000000000000E-002    2.433024657398063E-004
  1.320000000000000E-002    2.551538954897593E-004
  1.330000000000000E-002    2.675288514955650E-004
  1.340000000000000E-002    2.804477087928973E-004
  1.350000000000000E-002    2.939315442690919E-004
  1.360000000000000E-002    3.080020906502263E-004
  1.370000000000000E-002    3.226818666706197E-004
  1.380000000000000E-002    3.379940302386624E-004
  1.390000000000000E-002    3.539625273051045E-004
  1.400000000000000E-002    3.706120163328264E-004
  1.410000000000000E-002    3.879679179940908E-004
  1.420000000000000E-002    4.060564027975535E-004
  1.430000000000000E-002    4.249044118562317E-004
  1.440000000000000E-002    4.445396536526608E-004
  1.450000000000000E-002    4.649906122034099E-004
  1.460000000000000E-002    4.862865968412264E-004
  1.470000000000000E-002    5.084576291264788E-004
  1.480000000000000E-002    5.315346243387852E-004
  1.490000000000000E-002    5.555492352074304E-004
  1.500000000000000E-002    5.805339388234650E-004
  1.510000000000000E-002    6.065220758905583E-004
  1.520000000000000E-002    6.335478543270838E-004
  1.530000000000000E-002    6.616463051055556E-004
  1.540000000000000E-002    6.908532829919673E-004
  1.550000000000000E-002    7.212056596743605E-004
  1.560000000000000E-002    7.527410873754794E-004
  1.570000000000000E-002    7.854981497892106E-004
  1.580000000000000E-002    8.195164563635904E-004
  1.590000000000000E-002    8.548364490721414E-004
  1.600000000000000E-002    8.914995413863447E-004
  1.610000000000000E-002    9.295481216874120E-004
  1.620000000000000E-002    9.690255744122376E-004
  1.630000000000000E-002    1.009976221918116E-003
  1.640000000000000E-002    1.052445348475349E-003
  1.650000000000000E-002    1.096479171972062E-003
  1.660000000000000E-002    1.142125025481009E-003
  1.670000000000000E-002    1.189431025156271E-003
  1.680000000000000E-002    1.238446377060772E-003
  1.690000000000000E-002    1.289221179908072E-003
  1.700000000000000E-002    1.341806324039778E-003
  1.710000000000000E-002    1.396253856790425E-003
  1.720000000000000E-002    1.452616567642987E-003
  1.730000000000000E-002    1.510948146898841E-003
  1.740000000000000E-002    1.571303064015816E-003
  1.750000000000000E-002    1.633736919814459E-003
  1.760000000000000E-002    1.698305890674189E-003
  1.770000000000000E-002    1.765066946502563E-003
  1.780000000000000E-002    1.834077947159634E-003
  1.790000000000000E-002    1.905397538883747E-003
  1.800000000000000E-002    1.979085014356782E-003
  1.810000000000000E-002    2.055200474033821E-003
  1.820000000000000E-002    2.133804660072214E-003
  1.830000000000000E-002    2.214959175753853E-003
  1.840000000000000E-002    2.298726054523628E-003
  1.850000000000000E-002    2.385168287983264E-003
  1.860000000000000E-002    2.474349286264236E-003
  1.870000000000000E-002    2.566333129727537E-003