 -4.000000000000000E-002    0.000000000000000E+000
 -3.990000000000000E-002    0.000000000000000E+000
 -3.980000000000000E-002    0.000000000000000E+000
 -3.970000000000000E-002    0.000000000000000E+000
 -3.960000000000000E-002    0.000000000000000E+000
 -3.950000000000000E-002    0.000000000000000E+000
 -3.940000000000000E-002    0.000000000000000E+000
 -3.930000000000000E-002    0.000000000000000E+000
 -3.920000000000000E-002    0.000000000000000E+000
 -3.910000000000000E-002    0.000000000000000E+000
 -3.900000000000000E-002    0.000000000000000E+000
 -3.890000000000000E-002    0.000000000000000E+000
 -3.880000000000000E-002    0.000000000000000E+000
 -3.870000000000000E-002    0.000000000000000E+000
 -3.860000000000000E-002    0.000000000000000E+000
 -3.850000000000000E-002    0.000000000000000E+000
 -3.840000000000000E-002    0.000000000000000E+000
 -3.830000000000000E-002    0.000000000000000E+000
 -3.820000000000000E-002    0.000000000000000E+000
 -3.810000000000000E-002   -2.565854121688508E-047
 -3.800000000000000E-002    4.881129210838346E-046
 -3.790000000000000E-002    5.096500264912352E-045
 -3.780000000000000E-002    4.193688198405580E-044
 -3.770000000000000E-002    2.625397136637369E-043
 -3.760000000000000E-002    1.399112025662092E-042
 -3.750000000000000E-002    6.537971466149399E-042
 -3.740000000000000E-002    2.736751259413684E-041
 -3.730000000000000E-002    1.041203115368199E-040
 -3.720000000000000E-002    3.639887418207323E-040
 -3.710000000000000E-002    1.179152206146317E-039
 -3.700000000000000E-002    3.563665820332575E-039
 -3.690000000000000E-002    1.010176539332647E-038
 -3.680000000000000E-002    2.697277953877566E-038
 -3.670000000000000E-002    6.806725664079304E-038
 -3.660000000000000E-002    1.627546872505609E-037
 -3.650000000000000E-002    3.693743207256576E-037
 -3.640000000000000E-002    7.964050494097787E-037
 -3.630000000000000E-002    1.631242760484048E-036
 -3.620000000000000E-002    3.170121010981727E-036
 -3.610000000000000E-002    5.827876702896704E-036
 -3.600000000000000E-002    1.007706431196965E-035
 -3.590000000000000E-002    1.621518401203992E-035
 -3.580000000000000E-002    2.378022890339763E-035
 -3.570000000000000E-002    3.032817732090904E-035
 -3.560000000000000E-002    2.916610260214129E-035
 -3.550000000000000E-002    5.545497177416497E-036
 -3.540000000000000E-002   -6.914616276982606E-035
 -3.530000000000000E-002   -2.453412142226923E-034
 -3.520000000000000E-002   -6.046985634235255E-034
 -3.510000000000000E-002   -1.268577119319180E-033
 -3.500000000000000E-002   -2.400304470389755E-033
 -3.490000000000000E-002   -4.191606933445917E-033
 -3.480000000000000E-002   -6.817734353873003E-033
 -3.470000000000000E-002   -1.033910446572651E-032
 -3.460000000000000E-002   -1.452133157278379E-032
 -3.450000000000000E-002   -1.854336807988563E-032
 -3.440000000000000E-002   -2.057019544150144E-032
 -3.430000000000000E-002   -1.718908473786521E-032
 -3.420000000000000E-002   -2.755511015066086E-033
 -3.410000000000000E-002    3.122467863366267E-032
 -3.400000000000000E-002    9.642997604680540E-032
 -3.390000000000000E-002    2.073681048499803E-031
 -3.380000000000000E-002    3.797380965806633E-031
 -3.370000000000000E-002    6.267362836764610E-031
 -3.360000000000000E-002    9.524182099480159E-031
 -3.350000000000000E-002    1.341269544095517E-030
 -3.340000000000000E-002    1.743458157168069E-030
 -3.330000000000000E-002    2.055978890339222E-030
 -3.320000000000000E-002    2.101208509301603E-030
 -3.310000000000000E-002    1.606357684329994E-030
 -3.300000000000000E-002    1.899616783830344E-031
 -3.290000000000000E-002   -2.635274898358867E-030
 -3.280000000000000E-002   -7.430650369647299E-030
 -3.270000000000000E-002   -1.475529436521795E-029
 -3.260000000000000E-002   -2.502917957103558E-029
 -3.250000000000000E-002   -3.832073890487798E-029
 -3.240000000000000E-002   -5.405109721651210E-029
 -3.230000000000000E-002   -7.061971175605467E-029
 -3.220000000000000E-002   -8.497681012727628E-029
 -3.210000000000000E-002   -9.219662928707912E-029
 -3.200000000000000E-002   -8.514173295607139E-029
 -3.190000000000000E-002   -5.434950945221245E-029
 -3.180000000000000E-002    1.168742674662098E-029
 -3.170000000000000E-002    1.256431807747684E-028
 -3.160000000000000E-002    2.996661699186606E-028
 -3.150000000000000E-002    5.426754113429895E-028
 -3.140000000000000E-002    8.565149865167029E-028
 -3.130000000000000E-002    1.230963913609766E-027
 -3.120000000000000E-002    1.637798458280241E-027
 -3.110000000000000E-002    2.024381606573203E-027
 -3.100000000000000E-002    2.307604322739542E-027
 -3.090000000000000E-002    2.369410417186488E-027
 -3.080000000000000E-002    2.055565289433770E-027
 -3.070000000000000E-002    1.179725077498743E-027
 -3.060000000000000E-002   -4.648439237883126E-028
 -3.050000000000000E-002   -3.083458512927730E-027
 -3.040000000000000E-002   -6.845915819441016E-027
 -3.030000000000000E-002   -1.183856653943060E-026
 -3.020000000000000E-002   -1.800229954886072E-026
 -3.010000000000000E-002   -2.505815966524795E-026
 -3.000000000000000E-002   -3.242510334231974E-026
 -2.990000000000000E-002   -3.913804776569372E-026
 -2.980000000000000E-002   -4.377875067079974E-026
 -2.970000000000000E-002   -4.443703945745906E-026
 -2.960000000000000E-002   -3.872489688481123E-026
 -2.950000000000000E-002   -2.387031670757450E-026
 -2.940000000000000E-002    3.079470498586416E-027
 -2.930000000000000E-002    4.491626428879792E-026
 -2.920000000000000E-002    1.037667577498220E-025
 -2.910000000000000E-002    1.804140854328298E-025
 -2.900000000000000E-002    2.734537247053051E-025
 -2.890000000000000E-002    3.783228246057007E-025
 -2.880000000000000E-002    4.862832034666055E-025
 -2.870000000000000E-002    5.834883396241642E-025
 -2.860000000000000E-002    6.503212957516355E-025
 -2.850000000000000E-002    6.612465570586197E-025
 -2.840000000000000E-002    5.854651708307707E-025
 -2.830000000000000E-002    3.886868548654905E-025
 -2.820000000000000E-002    3.631798277912725E-026
 -2.810000000000000E-002   -5.017047837093023E-025
 -2.800000000000000E-002   -1.244346541549135E-024
 -2.790000000000000E-002   -2.191306043945076E-024
 -2.780000000000000E-002   -3.313694097195902E-024
 -2.770000000000000E-002   -4.544389763420055E-024
 -2.760000000000000E-002   -5.769346128173149E-024
 -2.750000000000000E-002   -6.821557053086303E-024
 -2.740000000000000E-002   -7.479772349679526E-024
 -2.730000000000000E-002   -7.474273010578419E-024
 -2.720000000000000E-002   -6.501984329839551E-024
 -2.710000000000000E-002   -4.252819393014903E-024
 -2.700000000000000E-002   -4.483121804363852E-025
 -2.690000000000000E-002    5.107732081782479E-024
 -2.680000000000000E-002    1.246865842782094E-023
 -2.670000000000000E-002    2.147879222886108E-023
 -2.660000000000000E-002    3.170847705550453E-023
 -2.650000000000000E-002    4.239955609404349E-023
 -2.640000000000000E-002    5.243256991442993E-023
 -2.630000000000000E-002    6.032809513954183E-023
 -2.620000000000000E-002    6.429454233183492E-023
 -2.610000000000000E-002    6.233282709745705E-023
 -2.600000000000000E-002    5.240439673665077E-023
 -2.590000000000000E-002    3.266303504503254E-023
 -2.580000000000000E-002    1.742667844508651E-024
 -2.570000000000000E-002   -4.091612823180184E-023
 -2.560000000000000E-002   -9.472858874146193E-023
 -2.550000000000000E-002   -1.576545495834366E-022
 -2.540000000000000E-002   -2.259586974322397E-022
 -2.530000000000000E-002   -2.940915936282445E-022
 -2.520000000000000E-002   -3.547399521331770E-022
 -2.510000000000000E-002   -3.990874867577476E-022
 -2.500000000000000E-002   -4.173138153703651E-022
 -2.490000000000000E-002   -3.993383906202928E-022
 -2.480000000000000E-002   -3.357899715572126E-022
 -2.470000000000000E-002   -2.191530538242806E-022
 -2.460000000000000E-002   -4.501215897087457E-023
 -2.450000000000000E-002    1.867119373672271E-022
 -2.440000000000000E-002    4.706598992473511E-022
 -2.430000000000000E-002    7.952008659477473E-022
 -2.420000000000000E-002    1.142000644200589E-021
 -2.410000000000000E-002    1.486104143205449E-021
 -2.400000000000000E-002    1.796612922103839E-021
 -2.390000000000000E-002    2.037995076475900E-021
 -2.380000000000000E-002    2.172012302818954E-021
 -2.370000000000000E-002    2.160197081868251E-021
 -2.360000000000000E-002    1.966764871834070E-021
 -2.350000000000000E-002    1.561808909217796E-021
 -2.340000000000000E-002    9.246032844645118E-022
 -2.330000000000000E-002    4.683499838559096E-023
 -2.320000000000000E-002   -1.064402082498662E-021
 -2.310000000000000E-002   -2.384003738247798E-021
 -2.300000000000000E-002   -3.866768990997958E-021
 -2.290000000000000E-002   -5.445947176450326E-021
 -2.280000000000000E-002   -7.032547857834166E-021
 -2.270000000000000E-002   -8.515572524963546E-021
 -2.260000000000000E-002   -9.763393433808798E-021
 -2.250000000000000E-002   -1.062659174178651E-020
 -2.240000000000000E-002   -1.094265208464776E-020
 -2.230000000000000E-002   -1.054298220840058E-020
 -2.220000000000000E-002   -9.262729973103486E-021
 -2.210000000000000E-002   -6.953794554441734E-021
 -2.200000000000000E-002   -3.501196833290977E-021
 -2.190000000000000E-002    1.157379635682738E-021
 -2.180000000000000E-002    7.009616291384306E-021
 -2.170000000000000E-002    1.394554512335497E-020
 -2.160000000000000E-002    2.173564411607476E-020
 -2.150000000000000E-002    3.001292704819942E-020
 -2.140000000000000E-002    3.826252383385856E-020
 -2.130000000000000E-002    4.582257984578320E-020
 -2.120000000000000E-002    5.190021251594122E-020
 -2.110000000000000E-002    5.560565046825091E-020
 -2.100000000000000E-002    5.600641837792621E-020
 -2.090000000000000E-002    5.220153129505443E-020
 -2.080000000000000E-002    4.341322706122070E-020
 -2.070000000000000E-002    2.909096277846339E-020
 -2.060000000000000E-002    9.019465675042669E-021
 -2.050000000000000E-002   -1.657995070726834E-020
 -2.040000000000000E-002   -4.696746733195918E-020
 -2.030000000000000E-002   -8.083565736848301E-020
 -2.020000000000000E-002   -1.163057387730932E-019
 -2.010000000000000E-002   -1.509791922944908E-019
 -2.000000000000000E-002   -1.820502178062821E-019
 -1.990000000000000E-002   -2.064785547194430E-019
 -1.980000000000000E-002   -2.212147999802096E-019
 -1.970000000000000E-002   -2.234627521080742E-019
 -1.960000000000000E-002   -2.109560783636785E-019
 -1.950000000000000E-002   -1.822211236047873E-019
 -1.940000000000000E-002   -1.367947675696674E-019
 -1.930000000000000E-002   -7.536692423365401E-020
 -1.920000000000000E-002    1.775234169017024E-022
 -1.910000000000000E-002    8.683351687703466E-020
 -1.900000000000000E-002    1.806699080329253E-019
 -1.890000000000000E-002    2.771300404602455E-019
 -1.880000000000000E-002    3.714084180399714E-019
 -1.870000000000000E-002    4.588582282988556E-019
 -1.860000000000000E-002    5.353719493075983E-019
 -1.850000000000000E-002    5.976727873344653E-019
 -1.840000000000000E-002    6.434571361938410E-019
 -1.830000000000000E-002    6.713416927386243E-019
 -1.820000000000000E-002    6.805915391102919E-019
 -1.810000000000000E-002    6.706371897154681E-019
 -1.800000000000000E-002    6.404272532439377E-019
 -1.790000000000000E-002    5.877015418164495E-019
 -1.780000000000000E-002    5.083073367443047E-019
 -1.770000000000000E-002    3.957065382434192E-019
 -1.760000000000000E-002    2.408334797695260E-019
 -1.750000000000000E-002    3.245401357601237E-020
 -1.740000000000000E-002   -2.418582469060091E-019
 -1.730000000000000E-002   -5.940678389175415E-019
 -1.720000000000000E-002   -1.033369440112142E-018
 -1.710000000000000E-002   -1.563342336022659E-018
 -1.700000000000000E-002   -2.178791949108083E-018
 -1.690000000000000E-002   -2.862601651479572E-018
 -1.680000000000000E-002   -3.583002093429167E-018
 -1.670000000000000E-002   -4.291715999916552E-018
 -1.660000000000000E-002   -4.923443874637939E-018
 -1.650000000000000E-002   -5.397110617581194E-018
 -1.640000000000000E-002   -5.619191682170813E-018
 -1.630000000000000E-002   -5.489275469281077E-018
 -1.620000000000000E-002   -4.907816317187999E-018
 -1.610000000000000E-002   -3.785788327788923E-018
 -1.600000000000000E-002   -2.055712099892550E-018
 -1.590000000000000E-002    3.167208193796097E-019
 -1.580000000000000E-002    3.321388008772087E-018
 -1.570000000000000E-002    6.893923418156916E-018
 -1.560000000000000E-002    1.090848938213940E-017
 -1.550000000000000E-002    1.517419431624895E-017
 -1.540000000000000E-002    1.943606600971745E-017
 -1.530000000000000E-002    2.338121273177830E-017
 -1.520000000000000E-002    2.665048529516277E-017
 -1.510000000000000E-002    2.885554829312381E-017
 -1.500000000000000E-002    2.960087092709031E-017
 -1.490000000000000E-002    2.850976653997621E-017
 -1.480000000000000E-002    2.525327636864995E-017
 -1.470000000000000E-002    1.958043985070243E-017
 -1.460000000000000E-002    1.134834848554601E-017
 -1.450000000000000E-002    5.503366524089699E-019
 -1.440000000000000E-002   -1.265934760339144E-017
 -1.430000000000000E-002   -2.794591655900615E-017
 -1.420000000000000E-002   -4.478090558773236E-017
 -1.410000000000000E-002   -6.243685611009781E-017
 -1.400000000000000E-002   -7.999107138795889E-017
 -1.390000000000000E-002   -9.633973254868360E-017
 -1.380000000000000E-002   -1.102236048407012E-016
 -1.370000000000000E-002   -1.202666933883942E-016
 -1.360000000000000E-002   -1.250290979129644E-016
 -1.350000000000000E-002   -1.230751477108336E-016
 -1.340000000000000E-002   -1.130575318746352E-016
 -1.330000000000000E-002   -9.381725955095656E-017
 -1.320000000000000E-002   -6.449808909254377E-017
 -1.310000000000000E-002   -2.467245131940882E-017
 -1.300000000000000E-002    2.552641541866113E-017
 -1.290000000000000E-002    8.527374195118824E-017
 -1.280000000000000E-002    1.529343601631789E-016
 -1.270000000000000E-002    2.259685165058579E-016
 -1.260000000000000E-002    3.008774292854539E-016
 -1.250000000000000E-002    3.732047681908340E-016
 -1.240000000000000E-002    4.376101413194552E-016
 -1.230000000000000E-002    4.880289218799696E-016
 -1.220000000000000E-002    5.179289722343640E-016
 -1.210000000000000E-002    5.206688909337046E-016
 -1.200000000000000E-002    4.899548870636608E-016
 -1.190000000000000E-002    4.203829537162841E-016
 -1.180000000000000E-002    3.080432364444017E-016
 -1.170000000000000E-002    1.511513873049601E-016
 -1.160000000000000E-002   -4.933834523070493E-017
 -1.150000000000000E-002   -2.891925825196107E-016
 -1.140000000000000E-002   -5.604903631592143E-016
 -1.130000000000000E-002   -8.514086563241561E-016
 -1.120000000000000E-002   -1.146259289172308E-015
 -1.110000000000000E-002   -1.425826484498129E-015
 -1.100000000000000E-002   -1.668037806277739E-015
 -1.090000000000000E-002   -1.848981368493628E-015
 -1.080000000000000E-002   -1.944257596990772E-015
 -1.070000000000000E-002   -1.930621965530544E-015
 -1.060000000000000E-002   -1.787849546999657E-015
 -1.050000000000000E-002   -1.500719552113527E-015
 -1.040000000000000E-002   -1.060994746734519E-015
 -1.030000000000000E-002   -4.692493271881035E-016
 -1.020000000000000E-002    2.636087389565006E-016
 -1.010000000000000E-002    1.115280629232710E-015
 -1.000000000000000E-002    2.051629855597322E-015
 -9.899999999999999E-003    3.026969004221714E-015
 -9.800000000000000E-003    3.985171752540300E-015
 -9.699999999999999E-003    4.861653991879621E-015
 -9.599999999999999E-003    5.586217639509762E-015
 -9.500000000000000E-003    6.086692910477953E-015
 -9.399999999999999E-003    6.293256009187678E-015
 -9.299999999999999E-003    6.143237649842409E-015
 -9.200000000000000E-003    5.586192475883149E-015
 -9.099999999999999E-003    4.588948269580011E-015
 -8.999999999999999E-003    3.140327872277406E-015
 -8.900000000000000E-003    1.255215518772558E-015
 -8.799999999999999E-003   -1.022360717809466E-015
 -8.699999999999999E-003   -3.617442797433332E-015
 -8.600000000000000E-003   -6.423930170222914E-015
 -8.499999999999999E-003   -9.306177048426737E-015
 -8.399999999999999E-003   -1.210255001928761E-014
 -8.300000000000000E-003   -1.463103308997590E-014
 -8.199999999999999E-003   -1.669685564927636E-014
 -8.100000000000000E-003   -1.810201372656794E-014
 -8.000000000000000E-003   -1.865643947232106E-014
 -7.899999999999999E-003   -1.819043440864847E-014
 -7.800000000000000E-003   -1.656787611534452E-014
 -7.699999999999999E-003   -1.369955361317433E-014
 -7.599999999999999E-003   -9.555907024713798E-015
 -7.499999999999999E-003   -4.178327264824284E-015
 -7.399999999999999E-003    2.311886714343827E-015
 -7.299999999999999E-003    9.707833076838849E-015
 -7.199999999999999E-003    1.771546541419565E-014
 -7.100000000000000E-003    2.595703544674874E-014
 -6.999999999999999E-003    3.398015296239224E-014
 -6.899999999999999E-003    4.127289530711305E-014
 -6.800000000000000E-003    4.728506973262166E-014
 -6.699999999999999E-003    5.145538909484769E-014
 -6.599999999999999E-003    5.324384638104136E-014
 -6.499999999999999E-003    5.216813419913133E-014
 -6.399999999999999E-003    4.784246820966523E-014
 -6.299999999999999E-003    4.001674844218111E-014
 -6.199999999999999E-003    2.861354127320451E-014
 -6.100000000000000E-003    1.376015956624009E-014
 -5.999999999999999E-003   -4.187047813210695E-015
 -5.899999999999999E-003   -2.462905776069796E-014
 -5.800000000000000E-003   -4.672377515895336E-014
 -5.699999999999999E-003   -6.940093966110724E-014
 -5.599999999999999E-003   -9.139377906283857E-014
 -5.499999999999999E-003   -1.112878608745354E-013
 -5.399999999999999E-003   -1.275865607179502E-013
 -5.299999999999999E-003   -1.387913039116419E-013
 -5.199999999999999E-003   -1.434935859850042E-013
 -5.099999999999999E-003   -1.404744282815733E-013
 -4.999999999999999E-003   -1.288060024493817E-013
 -4.899999999999999E-003   -1.079491580353949E-013
 -4.799999999999999E-003   -7.784013836221500E-014
 -4.699999999999999E-003   -3.895951367560178E-014
 -4.599999999999999E-003    7.623196752425789E-015
 -4.499999999999999E-003    6.023530702368510E-014
 -4.399999999999999E-003    1.166216574750197E-013
 -4.299999999999999E-003    1.740033447219400E-013
 -4.199999999999999E-003    2.291756176861354E-013
 -4.099999999999999E-003    2.786434532799163E-013
 -3.999999999999999E-003    3.187912752159968E-013
 -3.899999999999999E-003    3.460805662359384E-013
 -3.799999999999999E-003    3.572667723205629E-013
 -3.699999999999999E-003    3.496249345399232E-013
 -3.599999999999999E-003    3.211717967225367E-013
 -3.499999999999999E-003    2.708709870545971E-013
 -3.399999999999999E-003    1.988075380528139E-013
 -3.299999999999999E-003    1.063183522342022E-013
 -3.199999999999999E-003   -3.933859176276512E-015
 -3.099999999999999E-003   -1.279535146043223E-013
 -2.999999999999999E-003   -2.604798327833818E-013
 -2.899999999999999E-003   -3.951336246963394E-013
 -2.799999999999999E-003   -5.246441267305111E-013
 -2.699999999999999E-003   -6.411517846973102E-013
 -2.599999999999999E-003   -7.365788640092248E-013
 -2.499999999999999E-003   -8.030551745172778E-013
 -2.399999999999999E-003   -8.333814903280033E-013
 -2.299999999999999E-003   -8.215093576447707E-013
 -2.199999999999999E-003   -7.630129110356996E-013
 -2.099999999999999E-003   -6.555257175971655E-013
 -1.999999999999999E-003   -4.991144170425271E-013
 -1.899999999999999E-003   -2.965612841732840E-013
 -1.799999999999999E-003   -5.352896575497606E-014
 -1.699999999999999E-003    2.214150093647095E-013
 -1.599999999999999E-003    5.169327521568208E-013
 -1.499999999999999E-003    8.192202127997592E-013
 -1.399999999999999E-003    1.112485519556797E-012
 -1.299999999999999E-003    1.379594064638539E-012
 -1.199999999999999E-003    1.602864784898608E-012
 -1.099999999999999E-003    1.764990985282268E-012
 -9.999999999999989E-004    1.850047644133970E-012
 -8.999999999999990E-004    1.844538404994976E-012
 -7.999999999999990E-004    1.738427455065641E-012
 -6.999999999999989E-004    1.526096034162526E-012
 -5.999999999999990E-004    1.207156803121016E-012
 -4.999999999999989E-004    7.870678855777969E-013
 -3.999999999999989E-004    2.774824505634001E-013
 -2.999999999999989E-004   -3.037127804755897E-013
 -1.999999999999989E-004   -9.327089543379906E-013
 -9.999999999999892E-005   -1.580457556736923E-012
  1.084202172485504E-018   -2.213725518660797E-012
  1.000000000000011E-004   -2.796501889078461E-012
  2.000000000000011E-004   -3.291713402306290E-012
  3.000000000000011E-004   -3.663181238676574E-012
  4.000000000000011E-004   -3.877731913440152E-012
  5.000000000000011E-004   -3.907355618515460E-012
  6.000000000000011E-004   -3.731293217827036E-012
  7.000000000000011E-004   -3.337922446455018E-012
  8.000000000000011E-004   -2.726317224397628E-012
  9.000000000000012E-004   -1.907359311688556E-012
  1.000000000000001E-003   -9.042928211994032E-013
  1.100000000000001E-003    2.473574518255133E-013
  1.200000000000001E-003    1.500561765601829E-012
  1.300000000000001E-003    2.798272455424981E-012
  1.400000000000001E-003    4.075602389685184E-012
  1.500000000000001E-003    5.262633190035956E-012
  1.600000000000001E-003    6.287752147861361E-012
  1.700000000000001E-003    7.081375459319828E-012
  1.800000000000001E-003    7.579888991278116E-012
  1.900000000000001E-003    7.729600479547589E-012
  2.000000000000001E-003    7.490498381104964E-012
  2.100000000000001E-003    6.839583938976221E-012
  2.200000000000001E-003    5.773577962332021E-012
  2.300000000000001E-003    4.310789619338361E-012
  2.400000000000001E-003    2.491993583900831E-012
  2.500000000000001E-003    3.801860170418607E-013
  2.600000000000001E-003   -1.940855623715379E-012
  2.700000000000001E-003   -4.369225858678166E-012
  2.800000000000001E-003   -6.788713988876151E-012
  2.900000000000001E-003   -9.073679947911069E-012
  3.000000000000001E-003   -1.109482055402637E-011
  3.100000000000001E-003   -1.272559081718776E-011
  3.200000000000001E-003   -1.384899281596548E-011
  3.300000000000001E-003   -1.436442220490046E-011
  3.400000000000001E-003   -1.419420544316721E-011
  3.500000000000001E-003   -1.328948733072466E-011
  3.600000000000001E-003   -1.163508860256509E-011
  3.700000000000001E-003   -9.253023981794512E-012
  3.800000000000001E-003   -6.204377865258982E-012
  3.900000000000001E-003   -2.589316416801761E-012
  4.000000000000001E-003    1.454922424309354E-012
  4.100000000000001E-003    5.758105320371348E-012
  4.200000000000001E-003    1.012311840680603E-011
  4.300000000000001E-003    1.433395783314084E-011
  4.400000000000001E-003    1.816533026345691E-011
  4.500000000000001E-003    2.139350032490111E-011
  4.600000000000002E-003    2.380790658427560E-011
  4.700000000000001E-003    2.522301133666164E-011
  4.800000000000001E-003    2.548976849458731E-011
  4.900000000000002E-003    2.450608213977075E-011
  5.000000000000001E-003    2.222563476250099E-011
  5.100000000000001E-003    1.866446417242538E-011
  5.200000000000001E-003    1.390479564609382E-011
  5.300000000000002E-003    8.095722289757668E-012
  5.400000000000001E-003    1.450427574873824E-012
  5.500000000000001E-003   -5.760114710164847E-012
  5.600000000000002E-003   -1.321690464128975E-011
  5.700000000000001E-003   -2.056586749133384E-011
  5.800000000000001E-003   -2.743352302019867E-011
  5.900000000000002E-003   -3.344472622703614E-011
  6.000000000000001E-003   -3.824167700050567E-011
  6.100000000000001E-003   -4.150327978493928E-011
  6.200000000000002E-003   -4.296384186147875E-011
  6.300000000000002E-003   -4.243009993505221E-011
  6.400000000000001E-003   -3.979556690364119E-011
  6.500000000000001E-003   -3.505128765328233E-011
  6.600000000000002E-003   -2.829225293392816E-011
  6.700000000000001E-003   -1.971887925322549E-011
  6.800000000000001E-003   -9.633217612259113E-012
  6.900000000000002E-003    1.570190283394718E-012
  7.000000000000001E-003    1.341861192387849E-011
  7.100000000000001E-003    2.538011276710237E-011
  7.200000000000002E-003    3.688649364788255E-011
  7.300000000000002E-003    4.735919302395718E-011
  7.400000000000001E-003    5.623701246053658E-011
  7.500000000000001E-003    6.300433805017508E-011
  7.600000000000002E-003    6.721846956180072E-011
  7.700000000000001E-003    6.853470710237378E-011
  7.800000000000001E-003    6.672781611476329E-011
  7.900000000000001E-003    6.170868207033753E-011
  8.000000000000002E-003    5.353518267121412E-011
  8.100000000000001E-003    4.241646466854600E-011
  8.200000000000001E-003    2.871016817419226E-011
  8.300000000000002E-003    1.291247489505039E-011
  8.400000000000001E-003   -4.358849112961115E-012
  8.500000000000002E-003   -2.238789298124780E-011
  8.600000000000002E-003   -4.038963230737133E-011
  8.700000000000001E-003   -5.754342875425378E-011
  8.800000000000002E-003   -7.302955394858312E-011
  8.900000000000002E-003   -8.606716334316149E-011
  9.000000000000001E-003   -9.595196283885094E-011
  9.100000000000002E-003   -1.020917637599585E-010
  9.200000000000002E-003   -1.040382279787893E-010
  9.300000000000001E-003   -1.015130564213543E-010
  9.400000000000002E-003   -9.442726819739973E-011
  9.500000000000001E-003   -8.289234854704508E-011
  9.600000000000001E-003   -6.722242535429905E-011
  9.700000000000002E-003   -4.792711308566002E-011
  9.800000000000001E-003   -2.569488162664869E-011
  9.900000000000001E-003   -1.367625701946020E-012
  1.000000000000000E-002    2.409279590134652E-011
  1.010000000000000E-002    4.964463792783614E-011
  1.020000000000000E-002    7.421116340635103E-011
  1.030000000000000E-002    9.672839480557502E-011
  1.040000000000000E-002    1.161933314688944E-010
  1.050000000000000E-002    1.317103830022341E-010
  1.060000000000000E-002    1.425335446303322E-010
  1.070000000000000E-002    1.481021449313381E-010
  1.080000000000000E-002    1.480682253708838E-010
  1.090000000000000E-002    1.423139606788391E-010
  1.100000000000000E-002    1.309581550305093E-010
  1.110000000000000E-002    1.143512329502017E-010
  1.120000000000000E-002    9.305889809767206E-011
  1.130000000000000E-002    6.783523554788805E-011
  1.140000000000000E-002    3.958668241323742E-011
  1.150000000000000E-002    9.328647822642476E-012
  1.160000000000000E-002   -2.186263862882008E-011
  1.170000000000000E-002   -5.290053137198513E-011
  1.180000000000000E-002   -8.273762379071568E-011
  1.190000000000000E-002   -1.104118603607323E-010
  1.200000000000000E-002   -1.350863769513580E-010
  1.210000000000000E-002   -1.560807263450804E-010
  1.220000000000000E-002   -1.728915714239931E-010
  1.230000000000000E-002   -1.852016612175530E-010
  1.240000000000000E-002   -1.928766844604432E-010
  1.250000000000000E-002   -1.959499601700681E-010
  1.260000000000000E-002   -1.945964140523425E-010
  1.270000000000000E-002   -1.890973100865117E-010
  1.280000000000000E-002   -1.797984479742711E-010
  1.290000000000000E-002   -1.670647609756377E-010
  1.300000000000000E-002   -1.512346463453436E-010
  1.310000000000000E-002   -1.325777745433746E-010
  1.320000000000000E-002   -1.112598909096809E-010
  1.330000000000000E-002   -8.731786981848667E-011
  1.340000000000000E-002   -6.064809962863852E-011
  1.350000000000000E-002   -3.101023085041057E-011
  1.360000000000000E-002    1.952055918476576E-012
  1.370000000000000E-002    3.867306510875040E-011
  1.380000000000000E-002    7.961024107187533E-011
  1.390000000000000E-002    1.251743907678198E-010
  1.400000000000000E-002    1.756477217757727E-010
  1.410000000000000E-002    2.310937157562257E-010
  1.420000000000000E-002    2.912634533056729E-010
  1.430000000000000E-002    3.555043283222883E-010
  1.440000000000000E-002    4.226773888089245E-010
  1.450000000000000E-002    4.910895835042464E-010
  1.460000000000000E-002    5.584477990316529E-010
  1.470000000000000E-002    6.218410001861263E-010
  1.480000000000000E-002    6.777557485902092E-010
  1.490000000000000E-002    7.221304015766245E-010
  1.500000000000000E-002    7.504508294110495E-010
  1.510000000000000E-002    7.578897430433319E-010
  1.520000000000000E-002    7.394890907595955E-010
  1.530000000000000E-002    6.903835713921972E-010
  1.540000000000000E-002    6.060601776250903E-010
  1.550000000000000E-002    4.826470257714040E-010
  1.560000000000000E-002    3.172217399148084E-010
  1.570000000000000E-002    1.081279179601927E-010
  1.580000000000000E-002   -1.447143794648271E-010
  1.590000000000000E-002   -4.395191568550944E-010
  1.600000000000000E-002   -7.723830034785398E-010
  1.610000000000000E-002   -1.137088335182760E-009
  1.620000000000000E-002   -1.524978936842178E-009
  1.630000000000000E-002   -1.924923286039064E-009
  1.640000000000000E-002   -2.323381304088695E-009
  1.650000000000000E-002   -2.704584405496402E-009
  1.660000000000000E-002   -3.050840898056638E-009
  1.670000000000000E-002   -3.342966625860468E-009
  1.680000000000000E-002   -3.560845017886680E-009
  1.690000000000000E-002   -3.684108238377892E-009
  1.700000000000000E-002   -3.692928113192023E-009
  1.710000000000000E-002   -3.568900467241785E-009
  1.720000000000000E-002   -3.295999723265630E-009
  1.730000000000000E-002   -2.861573733414426E-009
  1.740000000000000E-002   -2.257346041009521E-009
  1.750000000000000E-002   -1.480388087996275E-009
  1.760000000000000E-002   -5.340174260427010E-010
  1.770000000000000E-002    5.714187334373190E-010
  1.780000000000000E-002    1.817920625970675E-009
  1.790000000000000E-002    3.179417133729319E-009
  1.800000000000000E-002    4.621590525122639E-009
  1.810000000000000E-002    6.101986072371270E-009
  1.820000000000000E-002    7.570433160393189E-009
  1.830000000000000E-002    8.969806635726136E-009
  1.840000000000000E-002    1.023714301473481E-008
  1.850000000000000E-002    1.130511588723763E-008
  1.860000000000000E-002    1.210387185602199E-008
  1.870000000000000E-002    1.256320238400442E-008