 -4.000000000000000E-002    0.000000000000000E+000
 -3.990000000000000E-002    0.000000000000000E+000
 -3.980000000000000E-002    0.000000000000000E+000
 -3.970000000000000E-002    0.000000000000000E+000
 -3.960000000000000E-002    0.000000000000000E+000
 -3.950000000000000E-002    0.000000000000000E+000
 -3.940000000000000E-002    0.000000000000000E+000
 -3.930000000000000E-002    0.000000000000000E+000
 -3.920000000000000E-002    0.000000000000000E+000
 -3.910000000000000E-002    0.000000000000000E+000
 -3.900000000000000E-002    0.000000000000000E+000
 -3.890000000000000E-002   -1.270470017199824E-035
 -3.880000000000000E-002   -3.124619487654914E-034
 -3.870000000000000E-002   -3.837927263097664E-033
 -3.860000000000000E-002   -3.161807298235130E-032
 -3.850000000000000E-002   -1.972871662102978E-031
 -3.840000000000000E-002   -9.963278241784987E-031
 -3.830000000000000E-002   -4.244551141829968E-030
 -3.820000000000000E-002   -1.568593286332967E-029
 -3.810000000000000E-002   -5.128490614247574E-029
 -3.800000000000000E-002   -1.504659578366413E-028
 -3.790000000000000E-002   -4.002159044845755E-028
 -3.780000000000000E-002   -9.718781675244843E-028
 -3.770000000000000E-002   -2.163679361459954E-027
 -3.760000000000000E-002   -4.420870443566467E-027
 -3.750000000000000E-002   -8.266142005736645E-027
 -3.740000000000000E-002   -1.401417152569696E-026
 -3.730000000000000E-002   -2.107572469225928E-026
 -3.720000000000000E-002   -2.660974265019693E-026
 -3.710000000000000E-002   -2.331728539651375E-026
 -3.700000000000000E-002    3.617769501420534E-027
 -3.690000000000000E-002    7.993792882303803E-026
 -3.680000000000000E-002    2.446890650839302E-025
 -3.670000000000000E-002    5.489183602338718E-025
 -3.660000000000000E-002    1.046571086425902E-024
 -3.650000000000000E-002    1.772237931916013E-024
 -3.640000000000000E-002    2.700234748138343E-024
 -3.630000000000000E-002    3.681523702176759E-024
 -3.620000000000000E-002    4.360494835111103E-024
 -3.610000000000000E-002    4.083660503078708E-024
 -3.600000000000000E-002    1.827073565082886E-024
 -3.590000000000000E-002   -3.812658496189001E-024
 -3.580000000000000E-002   -1.450128213565516E-023
 -3.570000000000000E-002   -3.185061029889308E-023
 -3.560000000000000E-002   -5.683527678292863E-023
 -3.550000000000000E-002   -8.890637328264848E-023
 -3.540000000000000E-002   -1.248325357342829E-022
 -3.530000000000000E-002   -1.574048363575675E-022
 -3.520000000000000E-002   -1.742807269507209E-022
 -3.510000000000000E-002   -1.573954617613161E-022
 -3.500000000000000E-002   -8.350068721157783E-023
 -3.490000000000000E-002    7.355000198081359E-023
 -3.480000000000000E-002    3.382193671266765E-022
 -3.470000000000000E-002    7.261164839263626E-022
 -3.460000000000000E-002    1.234423947180500E-021
 -3.450000000000000E-002    1.830800871771237E-021
 -3.440000000000000E-002    2.442484174864947E-021
 -3.430000000000000E-002    2.948168215231794E-021
 -3.420000000000000E-002    3.175916641511357E-021
 -3.410000000000000E-002    2.910591335844852E-021
 -3.400000000000000E-002    1.913842522030176E-021
 -3.390000000000000E-002   -4.160943014131342E-023
 -3.380000000000000E-002   -3.123902680201976E-021
 -3.370000000000000E-002   -7.383663928919415E-021
 -3.360000000000000E-002   -1.269220055101706E-020
 -3.350000000000000E-002   -1.868624460098918E-020
 -3.340000000000000E-002   -2.473133222573846E-020
 -3.330000000000000E-002   -2.991621094838907E-020
 -3.320000000000000E-002   -3.308854189229858E-020
 -3.310000000000000E-002   -3.293748122598886E-020
 -3.300000000000000E-002   -2.812174744017742E-020
 -3.290000000000000E-002   -1.743375097901669E-020
 -3.280000000000000E-002    1.721875931464468E-023
 -3.270000000000000E-002    2.462466439776067E-020
 -3.260000000000000E-002    5.612982979094068E-020
 -3.250000000000000E-002    9.350907004815779E-020
 -3.240000000000000E-002    1.349098776189688E-019
 -3.230000000000000E-002    1.776274019392702E-019
 -3.220000000000000E-002    2.180987856098744E-019
 -3.210000000000000E-002    2.518843007891941E-019
 -3.200000000000000E-002    2.736073922372507E-019
 -3.190000000000000E-002    2.768460915285424E-019
 -3.180000000000000E-002    2.540077501551855E-019
 -3.170000000000000E-002    1.962752566158626E-019
 -3.160000000000000E-002    9.377657647726916E-020
 -3.150000000000000E-002   -6.381498553293281E-020
 -3.140000000000000E-002   -2.860161544928629E-019
 -3.130000000000000E-002   -5.793983583406284E-019
 -3.120000000000000E-002   -9.444759089167931E-019
 -3.110000000000000E-002   -1.371699036854085E-018
 -3.100000000000000E-002   -1.836901203604767E-018
 -3.090000000000000E-002   -2.296873994464891E-018
 -3.080000000000000E-002   -2.686075228252452E-018
 -3.070000000000000E-002   -2.915740638423774E-018
 -3.060000000000000E-002   -2.876787406099740E-018
 -3.050000000000000E-002   -2.447776392619170E-018
 -3.040000000000000E-002   -1.508775402937085E-018
 -3.030000000000000E-002    3.879453322688712E-020
 -3.020000000000000E-002    2.247318151853130E-018
 -3.010000000000000E-002    5.095417720076531E-018
 -3.000000000000000E-002    8.461248724191537E-018
 -2.990000000000000E-002    1.210137327056789E-017
 -2.980000000000000E-002    1.564060538897500E-017
 -2.970000000000000E-002    1.857816693776396E-017
 -2.960000000000000E-002    2.031453468001826E-017
 -2.950000000000000E-002    2.020137470760718E-017
 -2.940000000000000E-002    1.761406176471591E-017
 -2.930000000000000E-002    1.204266410928213E-017
 -2.920000000000000E-002    3.193440636189997E-018
 -2.910000000000000E-002   -8.910656344592569E-018
 -2.900000000000000E-002   -2.384455249579008E-017
 -2.890000000000000E-002   -4.072575023072892E-017
 -2.880000000000000E-002   -5.820318468022535E-017
 -2.870000000000000E-002   -7.450094894896842E-017
 -2.860000000000000E-002   -8.752224353610363E-017
 -2.850000000000000E-002   -9.501182973159772E-017
 -2.840000000000000E-002   -9.476759560603036E-017
 -2.830000000000000E-002   -8.488438898938769E-017
 -2.820000000000000E-002   -6.400742701777351E-017
 -2.810000000000000E-002   -3.156928228986905E-017
 -2.800000000000000E-002    1.201569490473668E-017
 -2.790000000000000E-002    6.522218830123922E-017
 -2.780000000000000E-002    1.253663831774518E-016
 -2.770000000000000E-002    1.886481843689903E-016
 -2.760000000000000E-002    2.502825048534385E-016
 -2.750000000000000E-002    3.047115325230035E-016
 -2.740000000000000E-002    3.458848182546838E-016
 -2.730000000000000E-002    3.675930318073166E-016
 -2.720000000000000E-002    3.638439507144974E-016
 -2.710000000000000E-002    3.292742290514499E-016
 -2.700000000000000E-002    2.595970043841452E-016
 -2.690000000000000E-002    1.520895813297914E-016
 -2.680000000000000E-002    6.124319640418341E-018
 -2.670000000000000E-002   -1.762619954607496E-016
 -2.660000000000000E-002   -3.897826007212441E-016
 -2.650000000000000E-002   -6.253472588601697E-016
 -2.640000000000000E-002   -8.696195719688590E-016
 -2.630000000000000E-002   -1.104796677015215E-015
 -2.620000000000000E-002   -1.308746779912126E-015
 -2.610000000000000E-002   -1.455650216908964E-015
 -2.600000000000000E-002   -1.517276164422728E-015
 -2.590000000000000E-002   -1.464984258623118E-015
 -2.580000000000000E-002   -1.272466450534548E-015
 -2.570000000000000E-002   -9.191416718805159E-016
 -2.560000000000000E-002   -3.939921917297582E-016
 -2.550000000000000E-002    3.004995486022560E-016
 -2.540000000000000E-002    1.144771512591650E-015
 -2.530000000000000E-002    2.099503005399684E-015
 -2.520000000000000E-002    3.104408362255066E-015
 -2.510000000000000E-002    4.079032941445716E-015
 -2.500000000000000E-002    4.925961923162409E-015
 -2.490000000000000E-002    5.536647312175000E-015
 -2.480000000000000E-002    5.799787238461257E-015
 -2.470000000000000E-002    5.611873800624551E-015
 -2.460000000000000E-002    4.889199441690014E-015
 -2.450000000000000E-002    3.580305892003784E-015
 -2.440000000000000E-002    1.677630358141004E-015
 -2.430000000000000E-002   -7.730192601480828E-016
 -2.420000000000000E-002   -3.666517638952874E-015
 -2.410000000000000E-002   -6.837194164747289E-015
 -2.400000000000000E-002   -1.006319589861684E-014
 -2.390000000000000E-002   -1.307686894041951E-014
 -2.380000000000000E-002   -1.558104195793995E-014
 -2.370000000000000E-002   -1.727051225081912E-014
 -2.360000000000000E-002   -1.785745282622798E-014
 -2.350000000000000E-002   -1.709897195554496E-014
 -2.340000000000000E-002   -1.482465293454716E-014
 -2.330000000000000E-002   -1.096171807512544E-014
 -2.320000000000000E-002   -5.555411013492404E-015
 -2.310000000000000E-002    1.217605366023122E-015
 -2.300000000000000E-002    9.044701825753843E-015
 -2.290000000000000E-002    1.748289556863403E-014
 -2.280000000000000E-002    2.597528993005973E-014
 -2.270000000000000E-002    3.387826153747922E-014
 -2.260000000000000E-002    4.049855658783388E-014
 -2.250000000000000E-002    4.513866271782500E-014
 -2.240000000000000E-002    4.714813847547951E-014
 -2.230000000000000E-002    4.597796716244222E-014
 -2.220000000000000E-002    4.123449703009193E-014
 -2.210000000000000E-002    3.272919997618109E-014
 -2.200000000000000E-002    2.052037741606783E-014
 -2.190000000000000E-002    4.942952209315741E-015
 -2.180000000000000E-002   -1.337713716702600E-014
 -2.170000000000000E-002   -3.352691475880202E-014
 -2.160000000000000E-002   -5.433086167422730E-014
 -2.150000000000000E-002   -7.439700769222770E-014
 -2.140000000000000E-002   -9.218443364223088E-014
 -2.130000000000000E-002   -1.060905974900075E-013
 -2.120000000000000E-002   -1.145552438034664E-013
 -2.110000000000000E-002   -1.161762555109631E-013
 -2.100000000000000E-002   -1.098312007332209E-013
 -2.090000000000000E-002   -9.479712765647863E-014
 -2.080000000000000E-002   -7.086008182732906E-014
 -2.070000000000000E-002   -3.840537094462854E-014
 -2.060000000000000E-002    1.520685504136713E-015
 -2.050000000000000E-002    4.718610611264289E-014
 -2.040000000000000E-002    9.619336854300143E-014
 -2.030000000000000E-002    1.455499585258486E-013
 -2.020000000000000E-002    1.917926802447320E-013
 -2.010000000000000E-002    2.311657604256310E-013
 -2.000000000000000E-002    2.598488370235209E-013
 -1.990000000000000E-002    2.742267558500148E-013
 -1.980000000000000E-002    2.711882600740670E-013
 -1.970000000000000E-002    2.484358458766888E-013
 -1.960000000000000E-002    2.047848869386641E-013
 -1.950000000000000E-002    1.404263206884946E-013
 -1.940000000000000E-002    5.712550168651947E-014
 -1.930000000000000E-002   -4.167079362668831E-014
 -1.920000000000000E-002   -1.508444237199643E-013
 -1.910000000000000E-002   -2.637529310274325E-013
 -1.900000000000000E-002   -3.725251338754080E-013
 -1.890000000000000E-002   -4.685053539785671E-013
 -1.880000000000000E-002   -5.428324575894908E-013
 -1.870000000000000E-002   -5.871251582116137E-013
 -1.860000000000000E-002   -5.942287727002731E-013
 -1.850000000000000E-002   -5.589667387202786E-013
 -1.840000000000000E-002   -4.788285065748950E-013
 -1.830000000000000E-002   -3.545220730971694E-013
 -1.820000000000000E-002   -1.903206828598376E-013
 -1.810000000000000E-002    5.856037689297395E-015
 -1.800000000000000E-002    2.226697476124736E-013
 -1.790000000000000E-002    4.459168381495015E-013
 -1.780000000000000E-002    6.593956872570731E-013
 -1.770000000000000E-002    8.460433184830296E-013
 -1.760000000000000E-002    9.892642318919911E-013
 -1.750000000000000E-002    1.074348679436563E-012
 -1.740000000000000E-002    1.089856289224486E-012
 -1.730000000000000E-002    1.028835333321730E-012
 -1.720000000000000E-002    8.897509819720534E-013
 -1.710000000000000E-002    6.770154729925917E-013
 -1.700000000000000E-002    4.010443076202608E-013
 -1.690000000000000E-002    7.780288739770858E-014
 -1.680000000000000E-002   -2.721438367016409E-013
 -1.670000000000000E-002   -6.250188805847865E-013
 -1.660000000000000E-002   -9.555543062325894E-013
 -1.650000000000000E-002   -1.238906400683297E-012
 -1.640000000000000E-002   -1.452606835125469E-012
 -1.630000000000000E-002   -1.578382911509995E-012
 -1.620000000000000E-002   -1.603693399368185E-012
 -1.610000000000000E-002   -1.522850624908109E-012
 -1.600000000000000E-002   -1.337637481480660E-012
 -1.590000000000000E-002   -1.057371577281284E-012
 -1.580000000000000E-002   -6.984159528434810E-013
 -1.570000000000000E-002   -2.831780804554110E-013
 -1.560000000000000E-002    1.613260652289367E-013
 -1.550000000000000E-002    6.052395534304943E-013
 -1.540000000000000E-002    1.017848499432018E-012
 -1.530000000000000E-002    1.369662091580140E-012
 -1.520000000000000E-002    1.634473062134830E-012
 -1.510000000000000E-002    1.791290939742637E-012
 -1.500000000000000E-002    1.826049557697221E-012
 -1.490000000000000E-002    1.732995705257885E-012
 -1.480000000000000E-002    1.515670097995755E-012
 -1.470000000000000E-002    1.187389075072273E-012
 -1.460000000000000E-002    7.711364334284097E-013
 -1.450000000000000E-002    2.987796213816482E-013
 -1.440000000000000E-002   -1.904627433858691E-013
 -1.430000000000000E-002   -6.523426193366663E-013
 -1.420000000000000E-002   -1.040683304366039E-012
 -1.410000000000000E-002   -1.311175938751347E-012
 -1.400000000000000E-002   -1.425698791721226E-012
 -1.390000000000000E-002   -1.356880083753020E-012
 -1.380000000000000E-002   -1.092526944436782E-012
 -1.370000000000000E-002   -6.394515744286890E-013
 -1.360000000000000E-002   -2.617802475802265E-014
 -1.350000000000000E-002    6.959998746436548E-013
 -1.340000000000000E-002    1.454072637933893E-012
 -1.330000000000000E-002    2.156822640658670E-012
 -1.320000000000000E-002    2.700927400128257E-012
 -1.310000000000000E-002    2.979542982252583E-012
 -1.300000000000000E-002    2.892954265598107E-012
 -1.290000000000000E-002    2.360569689251143E-012
 -1.280000000000000E-002    1.333264035412354E-012
 -1.270000000000000E-002   -1.951747889149899E-013
 -1.260000000000000E-002   -2.178835578300856E-012
 -1.250000000000000E-002   -4.514077892269631E-012
 -1.240000000000000E-002   -7.038725550270877E-012
 -1.230000000000000E-002   -9.536974898619919E-012
 -1.220000000000000E-002   -1.175046426595829E-011
 -1.210000000000000E-002   -1.339542537955780E-011
 -1.200000000000000E-002   -1.418519566094717E-011
 -1.190000000000000E-002   -1.385673956964313E-011
 -1.180000000000000E-002   -1.219924635262988E-011
 -1.170000000000000E-002   -9.082421760684592E-012
 -1.160000000000000E-002   -4.481798659819928E-012
 -1.150000000000000E-002    1.501667556411428E-012
 -1.140000000000000E-002    8.630247939558588E-012
 -1.130000000000000E-002    1.652837536295735E-011
 -1.120000000000000E-002    2.469330685888726E-011
 -1.110000000000000E-002    3.251792365590020E-011
 -1.100000000000000E-002    3.932523594344101E-011
 -1.090000000000000E-002    4.441293410327319E-011
 -1.080000000000000E-002    4.710551413708247E-011
 -1.070000000000000E-002    4.681046809062605E-011
 -1.060000000000000E-002    4.307455385844156E-011
 -1.050000000000000E-002    3.563575868129234E-011
 -1.040000000000000E-002    2.446654148285748E-011
 -1.030000000000000E-002    9.804424042827566E-012
 -1.020000000000000E-002   -7.833522066296020E-012
 -1.010000000000000E-002   -2.765457209934471E-011
 -1.000000000000000E-002   -4.861398791094497E-011
 -9.899999999999999E-003   -6.945814368019048E-011
 -9.800000000000000E-003   -8.878589182259336E-011
 -9.699999999999999E-003   -1.051255066126236E-010
 -9.599999999999999E-003   -1.170233720452611E-010
 -9.500000000000000E-003   -1.231398103586762E-010
 -9.399999999999999E-003   -1.223467830028820E-010
 -9.299999999999999E-003   -1.138216540563390E-010
 -9.200000000000000E-003   -9.713136586507259E-011
 -9.099999999999999E-003   -7.230122174234710E-011
 -8.999999999999999E-003   -3.986322697658232E-011
 -8.900000000000000E-003   -8.791665311856701E-013
 -8.799999999999999E-003    4.306501905172033E-011
 -8.699999999999999E-003    8.989665563123035E-011
 -8.600000000000000E-003    1.371264650116255E-010
 -8.499999999999999E-003    1.819514880451079E-010
 -8.399999999999999E-003    2.213887002202278E-010
 -8.300000000000000E-003    2.524353096504685E-010
 -8.199999999999999E-003    2.722494711813453E-010
 -8.100000000000000E-003    2.783430486946038E-010
 -8.000000000000000E-003    2.687757746136497E-010
 -7.899999999999999E-003    2.423385350745508E-010
 -7.800000000000000E-003    1.987117641812291E-010
 -7.699999999999999E-003    1.385854917766169E-010
 -7.599999999999999E-003    6.372690450586584E-011
 -7.499999999999999E-003   -2.301564850572995E-011
 -7.399999999999999E-003   -1.177806805234240E-010
 -7.299999999999999E-003   -2.158376132569724E-010
 -7.199999999999999E-003   -3.118049260834463E-010
 -7.100000000000000E-003   -3.999347572456675E-010
 -6.999999999999999E-003   -4.744493521509947E-010
 -6.899999999999999E-003   -5.299091155720243E-010
 -6.800000000000000E-003   -5.615872928091416E-010
 -6.699999999999999E-003   -5.658230711191954E-010
 -6.599999999999999E-003   -5.403238102679145E-010
 -6.499999999999999E-003   -4.843900011779310E-010
 -6.399999999999999E-003   -3.990397928553617E-010
 -6.299999999999999E-003   -2.870180313504518E-010
 -6.199999999999999E-003   -1.526832817930360E-010
 -6.100000000000000E-003   -1.775959382849426E-012
 -5.999999999999999E-003    1.589172874156395E-010
 -5.899999999999999E-003    3.219811183686324E-010
 -5.800000000000000E-003    4.798384688377389E-010
 -5.699999999999999E-003    6.252326657577571E-010
 -5.599999999999999E-003    7.516864954235950E-010
 -5.499999999999999E-003    8.539033834396800E-010
 -5.399999999999999E-003    9.280804728251998E-010
 -5.299999999999999E-003    9.721118725438479E-010
 -5.199999999999999E-003    9.856683905967567E-010
 -5.099999999999999E-003    9.701525182297593E-010
 -4.999999999999999E-003    9.285346216474102E-010
 -4.899999999999999E-003    8.650862641525895E-010
 -4.799999999999999E-003    7.850316131230989E-010
 -4.699999999999999E-003    6.941414399615152E-010
 -4.599999999999999E-003    5.982948086059055E-010
 -4.499999999999999E-003    5.030325592316250E-010
 -4.399999999999999E-003    4.131252057472818E-010
 -4.299999999999999E-003    3.321732745341701E-010
 -4.199999999999999E-003    2.622590433727400E-010
 -4.099999999999999E-003    2.036666511071860E-010
 -3.999999999999999E-003    1.546876829326736E-010
 -3.899999999999999E-003    1.115360713119369E-010
 -3.799999999999999E-003    6.839463107102876E-011
 -3.699999999999999E-003    1.762298919063858E-011
 -3.599999999999999E-003   -4.984524762692028E-011
 -3.499999999999999E-003   -1.438899433553809E-010
 -3.399999999999999E-003   -2.743571816788266E-010
 -3.299999999999999E-003   -4.499707819172780E-010
 -3.199999999999999E-003   -6.770163331553010E-010
 -3.099999999999999E-003   -9.578298187238553E-010
 -2.999999999999999E-003   -1.289153899760955E-009
 -2.899999999999999E-003   -1.660445099056100E-009
 -2.799999999999999E-003   -2.052238062076063E-009
 -2.699999999999999E-003   -2.434688054020552E-009
 -2.599999999999999E-003   -2.766425603798913E-009
 -2.499999999999999E-003   -2.993826737619220E-009
 -2.399999999999999E-003   -3.050825302478637E-009
 -2.299999999999999E-003   -2.859310048901159E-009
 -2.199999999999999E-003   -2.330162380499716E-009
 -2.099999999999999E-003   -1.364898587961838E-009
 -1.999999999999999E-003    1.421387755432572E-010
 -1.899999999999999E-003    2.301157985590948E-009
 -1.799999999999999E-003    5.224015328774081E-009
 -1.699999999999999E-003    9.021203250048759E-009
 -1.599999999999999E-003    1.379890327294146E-008
 -1.499999999999999E-003    1.965632470326330E-008
 -1.399999999999999E-003    2.668342178311386E-008
 -1.299999999999999E-003    3.495916927929494E-008
 -1.199999999999999E-003    4.455047282088760E-008
 -1.099999999999999E-003    5.551169919615095E-008
 -9.999999999999989E-004    6.788485434791586E-008
 -8.999999999999990E-004    8.170036917307723E-008
 -7.999999999999990E-004    9.697842478303728E-008
 -6.999999999999989E-004    1.137306622099218E-007
 -5.999999999999990E-004    1.319622533835690E-007
 -4.999999999999989E-004    1.516742775570157E-007
 -3.999999999999989E-004    1.728662261786641E-007
 -2.999999999999989E-004    1.955386951089278E-007
 -1.999999999999989E-004    2.196961633845549E-007
 -9.999999999999892E-005    2.453499059061064E-007
  1.084202172485504E-018    2.725209356702745E-007
  1.000000000000011E-004    3.012429653659460E-007
  2.000000000000011E-004    3.315654245806263E-007
  3.000000000000011E-004    3.635562851501733E-007
  4.000000000000011E-004    3.973046868193942E-007
  5.000000000000011E-004    4.329233667861856E-007
  6.000000000000011E-004    4.705503951478848E-007
  7.000000000000011E-004    5.103504730876235E-007
  8.000000000000011E-004    5.525154711148844E-007
  9.000000000000012E-004    5.972638498629343E-007
  1.000000000000001E-003    6.448399088798200E-007
  1.100000000000001E-003    6.955114066423879E-007
  1.200000000000001E-003    7.495668685400576E-007
  1.300000000000001E-003    8.073124550133159E-007
  1.400000000000001E-003    8.690682464136145E-007
  1.500000000000001E-003    9.351642416709057E-007
  1.600000000000001E-003    1.005937047683740E-006
  1.700000000000001E-003    1.081726385991635E-006
  1.800000000000001E-003    1.162872625699274E-006
  1.900000000000001E-003    1.249715070700949E-006
  2.000000000000001E-003    1.342590797840682E-006
  2.100000000000001E-003    1.441834883241010E-006
  2.200000000000001E-003    1.547781595955618E-006
  2.300000000000001E-003    1.660765972012415E-006
  2.400000000000001E-003    1.781126359020290E-006
  2.500000000000001E-003    1.909208030207380E-006
  2.600000000000001E-003    2.045366382280521E-006
  2.700000000000001E-003    2.189971124573541E-006
  2.800000000000001E-003    2.343409956489153E-006
  2.900000000000001E-003    2.506093163215047E-006
  3.000000000000001E-003    2.678456652942087E-006
  3.100000000000001E-003    2.860965887947388E-006
  3.200000000000001E-003    3.054119263117927E-006
  3.300000000000001E-003    3.258450393970946E-006
  3.400000000000001E-003    3.474530483444277E-006
  3.500000000000001E-003    3.702969599712672E-006
  3.600000000000001E-003    3.944418137863124E-006
  3.700000000000001E-003    4.199566115043649E-006
  3.800000000000001E-003    4.469143681466325E-006
  3.900000000000001E-003    4.753919962553483E-006
  4.000000000000001E-003    5.054701210401314E-006
  4.100000000000001E-003    5.372331130699603E-006
  4.200000000000001E-003    5.707688853446082E-006
  4.300000000000001E-003    6.061688732410492E-006
  4.400000000000001E-003    6.435281841357403E-006
  4.500000000000001E-003    6.829455863257718E-006
  4.600000000000002E-003    7.245240846304939E-006
  4.700000000000001E-003    7.683711393131473E-006
  4.800000000000001E-003    8.145994173893126E-006
  4.900000000000002E-003    8.633274237133426E-006
  5.000000000000001E-003    9.146802146848995E-006
  5.100000000000001E-003    9.687903276152981E-006
  5.200000000000001E-003    1.025798307321203E-005
  5.300000000000002E-003    1.085853489764941E-005
  5.400000000000001E-003    1.149114369080874E-005
  5.500000000000001E-003    1.215749074394195E-005
  5.600000000000002E-003    1.285935125021389E-005
  5.700000000000001E-003    1.359859697741819E-005
  5.800000000000001E-003    1.437719019359636E-005
  5.900000000000002E-003    1.519718010113852E-005
  6.000000000000001E-003    1.606069991090653E-005
  6.100000000000001E-003    1.696996088630744E-005
  6.200000000000002E-003    1.792724976004340E-005
  6.300000000000002E-003    1.893492894263438E-005
  6.400000000000001E-003    1.999543510237854E-005
  6.500000000000001E-003    2.111128557189633E-005
  6.600000000000002E-003    2.228508233501841E-005
  6.700000000000001E-003    2.351952321250115E-005
  6.800000000000001E-003    2.481740887026416E-005
  6.900000000000002E-003    2.618165611133015E-005
  7.000000000000001E-003    2.761530900203997E-005
  7.100000000000001E-003    2.912155046382877E-005
  7.200000000000002E-003    3.070371000199437E-005
  7.300000000000002E-003    3.236526584339722E-005
  7.400000000000001E-003    3.410985839140139E-005
  7.500000000000001E-003    3.594128349240579E-005
  7.600000000000002E-003    3.786350187656520E-005
  7.700000000000001E-003    3.988062929704106E-005
  7.800000000000001E-003    4.199694464669175E-005
  7.900000000000001E-003    4.421688184409133E-005
  8.000000000000002E-003    4.654503802592142E-005
  8.100000000000001E-003    4.898617089528642E-005
  8.200000000000001E-003    5.154521682751577E-005
  8.300000000000002E-003    5.422728667777237E-005
  8.400000000000001E-003    5.703768093457339E-005
  8.500000000000002E-003    5.998190696542336E-005
  8.600000000000002E-003    6.306568569550182E-005
  8.700000000000001E-003    6.629496840659011E-005
  8.800000000000002E-003    6.967594508672746E-005
  8.900000000000002E-003    7.321505148090364E-005
  9.000000000000001E-003    7.691898861077821E-005
  9.100000000000002E-003    8.079471615646499E-005
  9.200000000000002E-003    8.484944739020371E-005
  9.300000000000001E-003    8.909067365995592E-005
  9.400000000000002E-003    9.352613856646014E-005
  9.500000000000001E-003    9.816384633741382E-005
  9.600000000000001E-003    1.030120528000876E-004
  9.700000000000002E-003    1.080792925324541E-004
  9.800000000000001E-003    1.133743562534725E-004
  9.900000000000001E-003    1.189063184240422E-004
  1.000000000000000E-002    1.246845212039100E-004
  1.010000000000000E-002    1.307186098056332E-004
  1.020000000000000E-002    1.370185493550034E-004
  1.030000000000000E-002    1.435946311888340E-004
  1.040000000000000E-002    1.504574705490943E-004
  1.050000000000000E-002    1.576180673884367E-004
  1.060000000000000E-002    1.650877591772599E-004
  1.070000000000000E-002    1.728782869480830E-004
  1.080000000000000E-002    1.810017657502767E-004
  1.090000000000000E-002    1.894706921224963E-004
  1.100000000000000E-002    1.982979307178664E-004
  1.110000000000000E-002    2.074967695414865E-004
  1.120000000000000E-002    2.170808701623843E-004
  1.130000000000000E-002    2.270642508109534E-004
  1.140000000000000E-002    2.374613371601124E-004
  1.150000000000000E-002    2.482869443019585E-004
  1.160000000000000E-002    2.595562683240262E-004
  1.170000000000000E-002    2.712849080379146E-004
  1.180000000000000E-002    2.834888899463813E-004
  1.190000000000000E-002    2.961846183594656E-004
  1.200000000000000E-002    3.093889763544865E-004
  1.210000000000000E-002    3.231192772801270E-004
  1.220000000000000E-002    3.373932894423124E-004
  1.230000000000000E-002    3.522292388091946E-004
  1.240000000000000E-002    3.676458547686987E-004
  1.250000000000000E-002    3.836623606443145E-004
  1.260000000000000E-002    4.002984387365385E-004
  1.270000000000000E-002    4.175743100627573E-004
  1.280000000000000E-002    4.355106394729386E-004
  1.290000000000000E-002    4.541286781308495E-004
  1.300000000000000E-002    4.734501129207639E-004
  1.310000000000000E-002    4.934971642308755E-004
  1.320000000000000E-002    5.142925616876610E-004
  1.330000000000000E-002    5.358595238825518E-004
  1.340000000000000E-002    5.582218246314651E-004
  1.350000000000000E-002    5.814037524030456E-004
  1.360000000000000E-002    6.054300541699139E-004
  1.370000000000000E-002    6.303260334985690E-004
  1.380000000000000E-002    6.561175271088912E-004
  1.390000000000000E-002    6.828308141237813E-004
  1.400000000000000E-002    7.104926937307814E-004
  1.410000000000000E-002    7.391304009335513E-004
  1.420000000000000E-002    7.687717918027916E-004
  1.430000000000000E-002    7.994450305817264E-004
  1.440000000000000E-002    8.311788847715775E-004
  1.450000000000000E-002    8.640024592943696E-004
  1.460000000000000E-002    8.979453867331020E-004
  1.470000000000000E-002    9.330376574045464E-004
  1.480000000000000E-002    9.693098619130793E-004
  1.490000000000000E-002    1.006792906579451E-003
  1.500000000000000E-002    1.045518207585364E-003
  1.510000000000000E-002    1.085517550098874E-003
  1.520000000000000E-002    1.126823343170555E-003
  1.530000000000000E-002    1.169468151822740E-003
  1.540000000000000E-002    1.213485175892321E-003
  1.550000000000000E-002    1.258907892157110E-003
  1.560000000000000E-002    1.305770188521581E-003
  1.570000000000000E-002    1.354106382078946E-003
  1.580000000000000E-002    1.403951123454562E-003
  1.590000000000000E-002    1.455339415984154E-003
  1.600000000000000E-002    1.508306546349602E-003
  1.610000000000000E-002    1.562888017101833E-003
  1.620000000000000E-002    1.619119674429774E-003
  1.630000000000000E-002    1.677037449614058E-003
  1.640000000000000E-002    1.736677589599278E-003
  1.650000000000000E-002    1.798076345339860E-003
  1.660000000000000E-002    1.861270256640895E-003
  1.670000000000000E-002    1.926295584804988E-003
  1.680000000000000E-002    1.993189032919190E-003
  1.690000000000000E-002    2.061987126318814E-003
  1.700000000000000E-002    2.132726360066751E-003
  1.710000000000000E-002    2.205443197482321E-003
  1.720000000000000E-002    2.280174032513822E-003
  1.730000000000000E-002    2.356954974891273E-003
  1.740000000000000E-002    2.435822366155371E-003
  1.750000000000000E-002    2.516812045778641E-003
  1.760000000000000E-002    2.599959821332039E-003
  1.770000000000000E-002    2.685301337529329E-003
  1.780000000000000E-002    2.772871599781992E-003
  1.790000000000000E-002    2.862705803358631E-003
  1.800000000000000E-002    2.954838653286370E-003
  1.810000000000000E-002    3.049304580327108E-003
  1.820000000000000E-002    3.146137152169150E-003
  1.830000000000000E-002    3.245369787220566E-003
  1.840000000000000E-002    3.347035184167097E-003
  1.850000000000000E-002    3.451165605166207E-003
  1.860000000000000E-002    3.557792473271415E-003
  1.870000000000000E-002    3.666946188496010E-003