 -4.000000000000000E-002    0.000000000000000E+000
 -3.990000000000000E-002    0.000000000000000E+000
 -3.980000000000000E-002    0.000000000000000E+000
 -3.970000000000000E-002    0.000000000000000E+000
 -3.960000000000000E-002    0.000000000000000E+000
 -3.950000000000000E-002    0.000000000000000E+000
 -3.940000000000000E-002    0.000000000000000E+000
 -3.930000000000000E-002    0.000000000000000E+000
 -3.920000000000000E-002    0.000000000000000E+000
 -3.910000000000000E-002    0.000000000000000E+000
 -3.900000000000000E-002    0.000000000000000E+000
 -3.890000000000000E-002    0.000000000000000E+000
 -3.880000000000000E-002    0.000000000000000E+000
 -3.870000000000000E-002    0.000000000000000E+000
 -3.860000000000000E-002    0.000000000000000E+000
 -3.850000000000000E-002    0.000000000000000E+000
 -3.840000000000000E-002    0.000000000000000E+000
 -3.830000000000000E-002    0.000000000000000E+000
 -3.820000000000000E-002    0.000000000000000E+000
 -3.810000000000000E-002    0.000000000000000E+000
 -3.800000000000000E-002    0.000000000000000E+000
 -3.790000000000000E-002    0.000000000000000E+000
 -3.780000000000000E-002    0.000000000000000E+000
 -3.770000000000000E-002    0.000000000000000E+000
 -3.760000000000000E-002    0.000000000000000E+000
 -3.750000000000000E-002    0.000000000000000E+000
 -3.740000000000000E-002    0.000000000000000E+000
 -3.730000000000000E-002    0.000000000000000E+000
 -3.720000000000000E-002    0.000000000000000E+000
 -3.710000000000000E-002    0.000000000000000E+000
 -3.700000000000000E-002    0.000000000000000E+000
 -3.690000000000000E-002    0.000000000000000E+000
 -3.680000000000000E-002    0.000000000000000E+000
 -3.670000000000000E-002    0.000000000000000E+000
 -3.660000000000000E-002    0.000000000000000E+000
 -3.650000000000000E-002    0.000000000000000E+000
 -3.640000000000000E-002    0.000000000000000E+000
 -3.630000000000000E-002    0.000000000000000E+000
 -3.620000000000000E-002    0.000000000000000E+000
 -3.610000000000000E-002    0.000000000000000E+000
 -3.600000000000000E-002    0.000000000000000E+000
 -3.590000000000000E-002    0.000000000000000E+000
 -3.580000000000000E-002    0.000000000000000E+000
 -3.570000000000000E-002    0.000000000000000E+000
 -3.560000000000000E-002    0.000000000000000E+000
 -3.550000000000000E-002    0.000000000000000E+000
 -3.540000000000000E-002    0.000000000000000E+000
 -3.530000000000000E-002    0.000000000000000E+000
 -3.520000000000000E-002    0.000000000000000E+000
 -3.510000000000000E-002    0.000000000000000E+000
 -3.500000000000000E-002    0.000000000000000E+000
 -3.490000000000000E-002    0.000000000000000E+000
 -3.480000000000000E-002    0.000000000000000E+000
 -3.470000000000000E-002    0.000000000000000E+000
 -3.460000000000000E-002    0.000000000000000E+000
 -3.450000000000000E-002    0.000000000000000E+000
 -3.440000000000000E-002    0.000000000000000E+000
 -3.430000000000000E-002    0.000000000000000E+000
 -3.420000000000000E-002    0.000000000000000E+000
 -3.410000000000000E-002    0.000000000000000E+000
 -3.400000000000000E-002    0.000000000000000E+000
 -3.390000000000000E-002    0.000000000000000E+000
 -3.380000000000000E-002    0.000000000000000E+000
 -3.370000000000000E-002    0.000000000000000E+000
 -3.360000000000000E-002    0.000000000000000E+000
 -3.350000000000000E-002    0.000000000000000E+000
 -3.340000000000000E-002    0.000000000000000E+000
 -3.330000000000000E-002    0.000000000000000E+000
 -3.320000000000000E-002    0.000000000000000E+000
 -3.310000000000000E-002    0.000000000000000E+000
 -3.300000000000000E-002    0.000000000000000E+000
 -3.290000000000000E-002    0.000000000000000E+000
 -3.280000000000000E-002    0.000000000000000E+000
 -3.270000000000000E-002    0.000000000000000E+000
 -3.260000000000000E-002    0.000000000000000E+000
 -3.250000000000000E-002    0.000000000000000E+000
 -3.240000000000000E-002    0.000000000000000E+000
 -3.230000000000000E-002    0.000000000000000E+000
 -3.220000000000000E-002    0.000000000000000E+000
 -3.210000000000000E-002    0.000000000000000E+000
 -3.200000000000000E-002    0.000000000000000E+000
 -3.190000000000000E-002    0.000000000000000E+000
 -3.180000000000000E-002    0.000000000000000E+000
 -3.170000000000000E-002    0.000000000000000E+000
 -3.160000000000000E-002    0.000000000000000E+000
 -3.150000000000000E-002    0.000000000000000E+000
 -3.140000000000000E-002    0.000000000000000E+000
 -3.130000000000000E-002    0.000000000000000E+000
 -3.120000000000000E-002    0.000000000000000E+000
 -3.110000000000000E-002    0.000000000000000E+000
 -3.100000000000000E-002    0.000000000000000E+000
 -3.090000000000000E-002    0.000000000000000E+000
 -3.080000000000000E-002    0.000000000000000E+000
 -3.070000000000000E-002    0.000000000000000E+000
 -3.060000000000000E-002    0.000000000000000E+000
 -3.050000000000000E-002    0.000000000000000E+000
 -3.040000000000000E-002    0.000000000000000E+000
 -3.030000000000000E-002    0.000000000000000E+000
 -3.020000000000000E-002    0.000000000000000E+000
 -3.010000000000000E-002    0.000000000000000E+000
 -3.000000000000000E-002    0.000000000000000E+000
 -2.990000000000000E-002    0.000000000000000E+000
 -2.980000000000000E-002    0.000000000000000E+000
 -2.970000000000000E-002   -2.138211768073757E-048
 -2.960000000000000E-002   -2.138211768073757E-048
 -2.950000000000000E-002   -2.138211768073757E-048
 -2.940000000000000E-002   -2.138211768073757E-048
 -2.930000000000000E-002   -2.786349053640529E-047
 -2.920000000000000E-002   -7.403395114343682E-048
 -2.910000000000000E-002    2.365641467349143E-048
 -2.900000000000000E-002    6.045826400750887E-047
 -2.890000000000000E-002    1.378615300117789E-046
 -2.880000000000000E-002    2.534060895034297E-046
 -2.870000000000000E-002    2.769135934663092E-046
 -2.860000000000000E-002    2.651018606912148E-046
 -2.850000000000000E-002    2.486923200843150E-046
 -2.840000000000000E-002    2.754869606540796E-046
 -2.830000000000000E-002   -6.255559953417763E-046
 -2.820000000000000E-002   -2.249758118742688E-045
 -2.810000000000000E-002   -3.956073306115998E-045
 -2.800000000000000E-002   -6.168496381502198E-045
 -2.790000000000000E-002   -8.439927525209243E-045
 -2.780000000000000E-002   -1.118425495450800E-044
 -2.770000000000000E-002   -1.227690934639122E-044
 -2.760000000000000E-002   -9.784762062659099E-045
 -2.750000000000000E-002   -1.939066904265733E-045
 -2.740000000000000E-002    1.622167266404869E-044
 -2.730000000000000E-002    4.859306143022784E-044
 -2.720000000000000E-002    9.903581496459785E-044
 -2.710000000000000E-002    1.681637301624794E-043
 -2.700000000000000E-002    2.496406777233100E-043
 -2.690000000000000E-002    3.265354512419568E-043
 -2.680000000000000E-002    3.661428782638216E-043
 -2.670000000000000E-002    3.202537337786318E-043
 -2.660000000000000E-002    1.198294229233916E-043
 -2.650000000000000E-002   -3.178191235852639E-043
 -2.640000000000000E-002   -1.072753880736114E-042
 -2.630000000000000E-002   -2.195028856333415E-042
 -2.620000000000000E-002   -3.669381537676560E-042
 -2.610000000000000E-002   -5.353060653152224E-042
 -2.600000000000000E-002   -6.919011512238466E-042
 -2.590000000000000E-002   -7.796245476757385E-042
 -2.580000000000000E-002   -7.138020521335630E-042
 -2.570000000000000E-002   -3.841551773452968E-042
 -2.560000000000000E-002    3.338087045178517E-042
 -2.550000000000000E-002    1.555397489959273E-041
 -2.540000000000000E-002    3.348021427815148E-041
 -2.530000000000000E-002    5.676680173570632E-041
 -2.520000000000000E-002    8.337488081975058E-041
 -2.510000000000000E-002    1.088739098429796E-040
 -2.500000000000000E-002    1.258584644414806E-040
 -2.490000000000000E-002    1.237164946572681E-040
 -2.480000000000000E-002    8.902745417301480E-041
 -2.470000000000000E-002    6.909058324769284E-042
 -2.460000000000000E-002   -1.364165960768994E-040
 -2.450000000000000E-002   -3.496742517251087E-040
 -2.440000000000000E-002   -6.312686020768899E-040
 -2.430000000000000E-002   -9.630847678231608E-040
 -2.420000000000000E-002   -1.304153309533657E-039
 -2.410000000000000E-002   -1.585448240526600E-039
 -2.400000000000000E-002   -1.707490874670462E-039
 -2.390000000000000E-002   -1.542752291841496E-039
 -2.380000000000000E-002   -9.448962918547179E-040
 -2.370000000000000E-002    2.333428167100772E-040
 -2.360000000000000E-002    2.112524739406378E-039
 -2.350000000000000E-002    4.749076589564564E-039
 -2.340000000000000E-002    8.089519363134347E-039
 -2.330000000000000E-002    1.191954993450868E-038
 -2.320000000000000E-002    1.581319088490212E-038
 -2.310000000000000E-002    1.908931155168757E-038
 -2.300000000000000E-002    2.078503751774685E-038
 -2.290000000000000E-002    1.965800024295808E-038
 -2.280000000000000E-002    1.423203891842290E-038
 -2.270000000000000E-002    2.904098732516972E-039
 -2.260000000000000E-002   -1.586688356788557E-038
 -2.250000000000000E-002   -4.326605642419998E-038
 -2.240000000000000E-002   -7.970135935434912E-038
 -2.230000000000000E-002   -1.242395474594512E-037
 -2.220000000000000E-002   -1.739023121340690E-037
 -2.210000000000000E-002   -2.228596244162604E-037
 -2.200000000000000E-002   -2.616142138029878E-037
 -2.190000000000000E-002   -2.763508558503770E-037
 -2.180000000000000E-002   -2.487255317471170E-037
 -2.170000000000000E-002   -1.564787956001103E-037
 -2.160000000000000E-002    2.465101197973652E-038
 -2.150000000000000E-002    3.172033821611962E-037
 -2.140000000000000E-002    7.360236727228918E-037
 -2.130000000000000E-002    1.279852527547917E-036
 -2.120000000000000E-002    1.920748995658324E-036
 -2.110000000000000E-002    2.592348868143131E-036
 -2.100000000000000E-002    3.178911019339908E-036
 -2.090000000000000E-002    3.508217439479779E-036
 -2.080000000000000E-002    3.352457225186524E-036
 -2.070000000000000E-002    2.441963157373613E-036
 -2.060000000000000E-002    4.966973662068012E-037
 -2.050000000000000E-002   -2.720729199005608E-036
 -2.040000000000000E-002   -7.329392607419856E-036
 -2.030000000000000E-002   -1.323508299764410E-035
 -2.020000000000000E-002   -2.002559953020894E-035
 -2.010000000000000E-002   -2.687341890550301E-035
 -2.000000000000000E-002   -3.247066936303756E-035
 -1.990000000000000E-002   -3.502783153446066E-035
 -1.980000000000000E-002   -3.237061353610825E-035
 -1.970000000000000E-002   -2.216658036251041E-035
 -1.960000000000000E-002   -2.302083739537826E-036
 -1.950000000000000E-002    2.859079967537856E-035
 -1.940000000000000E-002    7.048845281930039E-035
 -1.930000000000000E-002    1.212813649360148E-034
 -1.920000000000000E-002    1.761441834796633E-034
 -1.910000000000000E-002    2.271229505249677E-034
 -1.900000000000000E-002    2.631188334909884E-034
 -1.890000000000000E-002    2.704507933496709E-034
 -1.880000000000000E-002    2.341483423329449E-034
 -1.870000000000000E-002    1.400527518586450E-034
 -1.860000000000000E-002   -2.231299285379744E-035
 -1.850000000000000E-002   -2.563015657775324E-034
 -1.840000000000000E-002   -5.545033742142660E-034
 -1.830000000000000E-002   -8.954707559148205E-034
 -1.820000000000000E-002   -1.241509256113529E-033
 -1.810000000000000E-002   -1.538314721633873E-033
 -1.800000000000000E-002   -1.717203141933755E-033
 -1.790000000000000E-002   -1.700504913888912E-033
 -1.780000000000000E-002   -1.410382886477681E-033
 -1.770000000000000E-002   -7.808656801568499E-034
 -1.760000000000000E-002    2.276661124250545E-034
 -1.750000000000000E-002    1.612905193104654E-033
 -1.740000000000000E-002    3.315876890688043E-033
 -1.730000000000000E-002    5.209371963103224E-033
 -1.720000000000000E-002    7.092093497114613E-033
 -1.710000000000000E-002    8.690973942597494E-033
 -1.700000000000000E-002    9.673720779376607E-033
 -1.690000000000000E-002    9.672940812308235E-033
 -1.680000000000000E-002    8.322255372161718E-033
 -1.670000000000000E-002    5.303666457155808E-033
 -1.660000000000000E-002    4.042068733907457E-034
 -1.650000000000000E-002   -6.421398474089482E-033
 -1.640000000000000E-002   -1.498668414538342E-032
 -1.630000000000000E-002   -2.481408619720587E-032
 -1.620000000000000E-002   -3.508794789087162E-032
 -1.610000000000000E-002   -4.462943348761024E-032
 -1.600000000000000E-002   -5.190470762278027E-032
 -1.590000000000000E-002   -5.507951487970475E-032
 -1.580000000000000E-002   -5.213420016771520E-032
 -1.570000000000000E-002   -4.105228028981149E-032
 -1.560000000000000E-002   -2.009177590332811E-032
 -1.550000000000000E-002    1.185955283645685E-032
 -1.540000000000000E-002    5.485778486484303E-032
 -1.530000000000000E-002    1.074371222381589E-031
 -1.520000000000000E-002    1.661611958977930E-031
 -1.510000000000000E-002    2.252747592115177E-031
 -1.500000000000000E-002    2.765628470737505E-031
 -1.490000000000000E-002    3.095410828604691E-031
 -1.480000000000000E-002    3.120990428441808E-031
 -1.470000000000000E-002    2.716929780538406E-031
 -1.460000000000000E-002    1.771269417265325E-031
 -1.450000000000000E-002    2.086987335057229E-032
 -1.440000000000000E-002   -1.982653168451624E-031
 -1.430000000000000E-002   -4.723958272354324E-031
 -1.420000000000000E-002   -7.822503824840836E-031
 -1.410000000000000E-002   -1.095822604053830E-030
 -1.400000000000000E-002   -1.368605085554042E-030
 -1.390000000000000E-002   -1.545963601866728E-030
 -1.380000000000000E-002   -1.568033622397187E-030
 -1.370000000000000E-002   -1.377211718532516E-030
 -1.360000000000000E-002   -9.278793995912105E-031
 -1.350000000000000E-002   -1.974807461319777E-031
 -1.340000000000000E-002    8.024532181432186E-031
 -1.330000000000000E-002    2.017183395738091E-030
 -1.320000000000000E-002    3.343638876692054E-030
 -1.310000000000000E-002    4.631327459178687E-030
 -1.300000000000000E-002    5.690870700017174E-030
 -1.290000000000000E-002    6.310902740542898E-030
 -1.280000000000000E-002    6.282841704079165E-030
 -1.270000000000000E-002    5.431590890361519E-030
 -1.260000000000000E-002    3.648744712176833E-030
 -1.250000000000000E-002    9.236488896148645E-031
 -1.240000000000000E-002   -2.633006201549869E-030
 -1.230000000000000E-002   -6.778233603919296E-030
 -1.220000000000000E-002   -1.114250276947327E-029
 -1.210000000000000E-002   -1.525417069224901E-029
 -1.200000000000000E-002   -1.858171348795223E-029
 -1.190000000000000E-002   -2.058967811986912E-029
 -1.180000000000000E-002   -2.080135956260050E-029
 -1.170000000000000E-002   -1.885920257535498E-029
 -1.160000000000000E-002   -1.457346252382656E-029
 -1.150000000000000E-002   -7.951310752923307E-030
 -1.140000000000000E-002    7.978853092898650E-031
 -1.130000000000000E-002    1.128010903625693E-029
 -1.120000000000000E-002    2.295018452690921E-029
 -1.110000000000000E-002    3.514915806748601E-029
 -1.100000000000000E-002    4.713088453902027E-029
 -1.090000000000000E-002    5.806408981046259E-029
 -1.080000000000000E-002    6.700243168624805E-029
 -1.070000000000000E-002    7.282592074051773E-029
 -1.060000000000000E-002    7.417187629871293E-029
 -1.050000000000000E-002    6.938912072010296E-029
 -1.040000000000000E-002    5.656181030893484E-029
 -1.030000000000000E-002    3.365422461397004E-029
 -1.020000000000000E-002   -1.179387185995180E-030
 -1.010000000000000E-002   -4.909880597615025E-029
 -1.000000000000000E-002   -1.099133928631608E-028
 -9.899999999999999E-003   -1.813194234380386E-028
 -9.800000000000000E-003   -2.581678103944685E-028
 -9.699999999999999E-003   -3.319440251120664E-028
 -9.599999999999999E-003   -3.906762595984804E-028
 -9.500000000000000E-003   -4.194873873275251E-028
 -9.399999999999999E-003   -4.019588415687050E-028
 -9.299999999999999E-003   -3.223733646383977E-028
 -9.200000000000000E-003   -1.687498298603283E-028
 -9.099999999999999E-003    6.360750607756623E-029
 -8.999999999999999E-003    3.685257238916787E-028
 -8.900000000000000E-003    7.260031801046958E-028
 -8.799999999999999E-003    1.100637352490350E-027
 -8.699999999999999E-003    1.442197644852112E-027
 -8.600000000000000E-003    1.688949094073142E-027
 -8.499999999999999E-003    1.774014897147214E-027
 -8.399999999999999E-003    1.634602591767279E-027
 -8.300000000000000E-003    1.223349112409241E-027
 -8.199999999999999E-003    5.204460005922463E-028
 -8.100000000000000E-003   -4.553091102745926E-028
 -8.000000000000000E-003   -1.638704614432380E-027
 -7.899999999999999E-003   -2.915734013610866E-027
 -7.800000000000000E-003   -4.128443100170460E-027
 -7.699999999999999E-003   -5.088010875243271E-027
 -7.599999999999999E-003   -5.595914998129042E-027
 -7.499999999999999E-003   -5.471597693318228E-027
 -7.399999999999999E-003   -4.583615142497641E-027
 -7.299999999999999E-003   -2.879986837037681E-027
 -7.199999999999999E-003   -4.126993518643524E-028
 -7.100000000000000E-003    2.648721323244176E-027
 -6.999999999999999E-003    6.018822231306787E-027
 -6.899999999999999E-003    9.315529052066535E-027
 -6.800000000000000E-003    1.209715115685306E-026
 -6.699999999999999E-003    1.391414786815125E-026
 -6.599999999999999E-003    1.436976493240147E-026
 -6.499999999999999E-003    1.318131449166482E-026
 -6.399999999999999E-003    1.023260281517249E-026
 -6.299999999999999E-003    5.608285212944461E-027
 -6.199999999999999E-003   -3.970598330771012E-028
 -6.100000000000000E-003   -7.298672599756735E-027
 -5.999999999999999E-003   -1.446893707374232E-026
 -5.899999999999999E-003   -2.120586912677011E-026
 -5.800000000000000E-003   -2.681182512747265E-026
 -5.699999999999999E-003   -3.066863022969253E-026
 -5.599999999999999E-003   -3.229527562066930E-026
 -5.499999999999999E-003   -3.137716677539079E-026
 -5.399999999999999E-003   -2.776213577132409E-026
 -5.299999999999999E-003   -2.142657876991002E-026
 -5.199999999999999E-003   -1.242438866572990E-026
 -5.099999999999999E-003   -8.390624986102295E-028
 -4.999999999999999E-003    1.323619410659251E-026
 -4.899999999999999E-003    2.966690715645829E-026
 -4.799999999999999E-003    4.817872805880685E-026
 -4.699999999999999E-003    6.819146344890738E-026
 -4.599999999999999E-003    8.860562494057765E-026
 -4.499999999999999E-003    1.075839863897187E-025
 -4.399999999999999E-003    1.223913140189447E-025
 -4.299999999999999E-003    1.293675993480326E-025
 -4.199999999999999E-003    1.241100314009587E-025
 -4.099999999999999E-003    1.019211095334071E-025
 -3.999999999999999E-003    5.854417474811335E-026
 -3.899999999999999E-003   -8.845906890795375E-027
 -3.799999999999999E-003   -1.004938406230817E-025
 -3.699999999999999E-003   -2.129201507667671E-025
 -3.599999999999999E-003   -3.380017341809604E-025
 -3.499999999999999E-003   -4.625265618894137E-025
 -3.399999999999999E-003   -5.684660656421439E-025
 -3.299999999999999E-003   -6.341550005393595E-025
 -3.199999999999999E-003   -6.364664039797557E-025
 -3.099999999999999E-003   -5.539217863951271E-025
 -2.999999999999999E-003   -3.705008591090980E-025
 -2.899999999999999E-003   -7.973495772639191E-026
 -2.799999999999999E-003    3.114909726486975E-025
 -2.699999999999999E-003    7.800996035501815E-025
 -2.599999999999999E-003    1.285633827709976E-024
 -2.499999999999999E-003    1.771310177176118E-024
 -2.399999999999999E-003    2.167696173577062E-024
 -2.299999999999999E-003    2.399078897884303E-024
 -2.199999999999999E-003    2.392201602849610E-024
 -2.099999999999999E-003    2.086630467870916E-024
 -1.999999999999999E-003    1.445637138211959E-024
 -1.899999999999999E-003    4.661907012411629E-025
 -1.799999999999999E-003   -8.134549133933376E-025
 -1.699999999999999E-003   -2.310025260875226E-024
 -1.599999999999999E-003   -3.896472589419892E-024
 -1.499999999999999E-003   -5.408849999932449E-024
 -1.399999999999999E-003   -6.658773893663264E-024
 -1.299999999999999E-003   -7.450735360042562E-024
 -1.199999999999999E-003   -7.602783500277924E-024
 -1.099999999999999E-003   -6.968576756453855E-024
 -9.999999999999989E-004   -5.458444167797502E-024
 -8.999999999999990E-004   -3.057052697394356E-024
 -7.999999999999990E-004    1.644172897469735E-025
 -6.999999999999989E-004    4.043158962908624E-024
 -5.999999999999990E-004    8.327496088778128E-024
 -4.999999999999989E-004    1.268748187207032E-023
 -3.999999999999989E-004    1.673260778632585E-023
 -2.999999999999989E-004    2.003527037158085E-023
 -1.999999999999989E-004    2.215847352988504E-023
 -9.999999999999892E-005    2.268627203937505E-023
  1.084202172485504E-018    2.125579195786956E-023
  1.000000000000011E-004    1.759017946460683E-023
  2.000000000000011E-004    1.153219056167591E-023
  3.000000000000011E-004    3.078278221626307E-024
  4.000000000000011E-004   -7.587392971526197E-024
  5.000000000000011E-004   -2.006051192932966E-023
  6.000000000000011E-004   -3.368892468543222E-023
  7.000000000000011E-004   -4.755475079978313E-023
  8.000000000000011E-004   -6.047345567237992E-023
  9.000000000000012E-004   -7.101856588567895E-023
  1.000000000000001E-003   -7.758108355374693E-023
  1.100000000000001E-003   -7.847140435794579E-023
  1.200000000000001E-003   -7.206827068747243E-023
  1.300000000000001E-003   -5.701348468038494E-023
  1.400000000000001E-003   -3.244344075565223E-023
  1.500000000000001E-003    1.760499012702268E-024
  1.600000000000001E-003    4.473016730459914E-023
  1.700000000000001E-003    9.441272457689279E-023
  1.800000000000001E-003    1.474571279396022E-022
  1.900000000000001E-003    1.992258101150286E-022
  2.000000000000001E-003    2.439668571257312E-022
  2.100000000000001E-003    2.751692336303177E-022
  2.200000000000001E-003    2.861057773540042E-022
  2.300000000000001E-003    2.705434684073853E-022
  2.400000000000001E-003    2.235740062991289E-022
  2.500000000000001E-003    1.424912983805768E-022
  2.600000000000001E-003    2.761903905005264E-023
  2.700000000000001E-003   -1.170224640205717E-022
  2.800000000000001E-003   -2.833243478977243E-022
  2.900000000000001E-003   -4.590750426973704E-022
  3.000000000000001E-003   -6.284011136817807E-022
  3.100000000000001E-003   -7.727001813490340E-022
  3.200000000000001E-003   -8.720515678982419E-022
  3.300000000000001E-003   -9.070336037555494E-022
  3.400000000000001E-003   -8.608202003649066E-022
  3.500000000000001E-003   -7.213774849034987E-022
  3.600000000000001E-003   -4.835479645812060E-022
  3.700000000000001E-003   -1.507911503876786E-022
  3.800000000000001E-003    2.636431517280720E-022
  3.900000000000001E-003    7.363013563813893E-022
  4.000000000000001E-003    1.234013976131586E-021
  4.100000000000001E-003    1.715354788409285E-021
  4.200000000000001E-003    2.133059161462134E-021
  4.300000000000001E-003    2.437308157368614E-021
  4.400000000000001E-003    2.579702823235883E-021
  4.500000000000001E-003    2.517681475947560E-021
  4.600000000000002E-003    2.219089210089736E-021
  4.700000000000001E-003    1.666566906861016E-021
  4.800000000000001E-003    8.614147659208903E-022
  4.900000000000002E-003   -1.734102099432019E-022
  5.000000000000001E-003   -1.391491758887142E-021
  5.100000000000001E-003   -2.722642864391971E-021
  5.200000000000001E-003   -4.074344731415396E-021
  5.300000000000002E-003   -5.335131317508724E-021
  5.400000000000001E-003   -6.380052367892988E-021
  5.500000000000001E-003   -7.078232826048688E-021
  5.600000000000002E-003   -7.302421400310343E-021
  5.700000000000001E-003   -6.940230457196700E-021
  5.800000000000001E-003   -5.906579386004106E-021
  5.900000000000002E-003   -4.156584890411512E-021
  6.000000000000001E-003   -1.697898716267244E-021
  6.100000000000001E-003    1.398737506129850E-021
  6.200000000000002E-003    4.992146950515693E-021
  6.300000000000002E-003    8.868076308943203E-021
  6.400000000000001E-003    1.274266826490280E-020
  6.500000000000001E-003    1.627323282396903E-020
  6.600000000000002E-003    1.907700838668118E-020
  6.700000000000001E-003    2.075792698594824E-020
  6.800000000000001E-003    2.094057110206306E-020
  6.900000000000002E-003    1.930951898015142E-020
  7.000000000000001E-003    1.565127286196579E-020
  7.100000000000001E-003    9.895095101858614E-021
  7.200000000000002E-003    2.148369819374518E-021
  7.300000000000002E-003   -7.278210064070075E-021
  7.400000000000001E-003   -1.786015766495229E-020
  7.500000000000001E-003   -2.886738995740194E-020
  7.600000000000002E-003   -3.939368266012380E-020
  7.700000000000001E-003   -4.840849007048575E-020
  7.800000000000001E-003   -5.482987712626272E-020
  7.900000000000001E-003   -5.761520885335357E-020
  8.000000000000002E-003   -5.586377445320963E-020
  8.100000000000001E-003   -4.892348731350413E-020
  8.200000000000001E-003   -3.649224635694309E-020
  8.300000000000002E-003   -1.870365167987246E-020
  8.400000000000001E-003    3.813211314908695E-021
  8.500000000000002E-003    2.990917191075236E-020
  8.600000000000002E-003    5.793287398795372E-020
  8.700000000000001E-003    8.579559095818949E-020
  8.800000000000002E-003    1.110838776733020E-019
  8.900000000000002E-003    1.312167765454553E-019
  9.000000000000001E-003    1.436403732553016E-019
  9.100000000000002E-003    1.460483983817538E-019
  9.200000000000002E-003    1.366138271015333E-019
  9.300000000000001E-003    1.142143278904621E-019
  9.400000000000002E-003    7.863220435591603E-020
  9.500000000000001E-003    3.070935546766451E-020
  9.600000000000001E-003   -2.756122918216474E-020
  9.700000000000002E-003   -9.302353955434665E-020
  9.800000000000001E-003   -1.614382622599860E-019
  9.900000000000001E-003   -2.276615694944059E-019
  1.000000000000000E-002   -2.859230515223991E-019
  1.010000000000000E-002   -3.301961133220685E-019
  1.020000000000000E-002   -3.546459565114711E-019
  1.030000000000000E-002   -3.541319193582019E-019
  1.040000000000000E-002   -3.247327646163444E-019
  1.050000000000000E-002   -2.642569971308067E-019
  1.060000000000000E-002   -1.726944929532307E-019
  1.070000000000000E-002   -5.256356590836412E-020
  1.080000000000000E-002    9.089225709385871E-020
  1.090000000000000E-002    2.496990558989644E-019
  1.100000000000000E-002    4.133707926927107E-019
  1.110000000000000E-002    5.693705921850338E-019
  1.120000000000000E-002    7.038162081558985E-019
  1.130000000000000E-002    8.024111775734236E-019
  1.140000000000000E-002    8.515592087215642E-019
  1.150000000000000E-002    8.395981938101254E-019
  1.160000000000000E-002    7.580665963292284E-019
  1.170000000000000E-002    6.029006803448569E-019
  1.180000000000000E-002    3.754485439234553E-019
  1.190000000000000E-002    8.318618922609355E-020
  1.200000000000000E-002   -2.599719110391749E-019
  1.210000000000000E-002   -6.338553406263643E-019
  1.220000000000000E-002   -1.012773442991327E-018
  1.230000000000000E-002   -1.366820934690220E-018
  1.240000000000000E-002   -1.663729266350901E-018
  1.250000000000000E-002   -1.871182304089860E-018
  1.260000000000000E-002   -1.959471130437806E-018
  1.270000000000000E-002   -1.904308050424702E-018
  1.280000000000000E-002   -1.689588375576187E-018
  1.290000000000000E-002   -1.309860659976667E-018
  1.300000000000000E-002   -7.722588212997978E-019
  1.310000000000000E-002   -9.766226669688201E-020
  1.320000000000000E-002    6.791167808610956E-019
  1.330000000000000E-002    1.510264175438821E-018
  1.340000000000000E-002    2.337085759175270E-018
  1.350000000000000E-002    3.093301202289723E-018
  1.360000000000000E-002    3.709394595470400E-018
  1.370000000000000E-002    4.117798921880840E-018
  1.380000000000000E-002    4.258599757599377E-018
  1.390000000000000E-002    4.085355157362649E-018
  1.400000000000000E-002    3.570570516757707E-018
  1.410000000000000E-002    2.710333173371542E-018
  1.420000000000000E-002    1.527623470357922E-018
  1.430000000000000E-002    7.386413312168012E-020
  1.440000000000000E-002   -1.571636589500176E-018
  1.450000000000000E-002   -3.304566919396102E-018
  1.460000000000000E-002   -5.000853108910433E-018
  1.470000000000000E-002   -6.524136511372749E-018
  1.480000000000000E-002   -7.735118948602686E-018
  1.490000000000000E-002   -8.502246363490528E-018
  1.500000000000000E-002   -8.713021645189165E-018
  1.510000000000000E-002   -8.285083292724166E-018
  1.520000000000000E-002   -7.176138589229825E-018
  1.530000000000000E-002   -5.391823804266137E-018
  1.540000000000000E-002   -2.990627553696492E-018
  1.550000000000000E-002   -8.517739932562245E-020
  1.560000000000000E-002    3.160599656953527E-018
  1.570000000000000E-002    6.538635078890678E-018
  1.580000000000000E-002    9.808072295910117E-018
  1.590000000000000E-002    1.271034171291861E-017
  1.600000000000000E-002    1.498713720886560E-017
  1.610000000000000E-002    1.640019914024906E-017
  1.620000000000000E-002    1.675152678227694E-017
  1.630000000000000E-002    1.590251876880059E-017
  1.640000000000000E-002    1.379048931359071E-017
  1.650000000000000E-002    1.044103489510071E-017
  1.660000000000000E-002    5.974939571443553E-018
  1.670000000000000E-002    6.085720604646883E-019
  1.680000000000000E-002   -5.352880770827722E-018
  1.690000000000000E-002   -1.152952379876165E-017
  1.700000000000000E-002   -1.748786570403799E-017
  1.710000000000000E-002   -2.276805778115384E-017
  1.720000000000000E-002   -2.691580450995439E-017
  1.730000000000000E-002   -2.951704550326211E-017
  1.740000000000000E-002   -3.023303952237834E-017
  1.750000000000000E-002   -2.883325236591141E-017
  1.760000000000000E-002   -2.522325997141228E-017
  1.770000000000000E-002   -1.946500231857057E-017
  1.780000000000000E-002   -1.178696062416791E-017
  1.790000000000000E-002   -2.582386691207581E-018
  1.800000000000000E-002    7.605595331023126E-018
  1.810000000000000E-002    1.811220563861837E-017
  1.820000000000000E-002    2.819169282814187E-017
  1.830000000000000E-002    3.706844220758082E-017
  1.840000000000000E-002    4.399533762284924E-017
  1.850000000000000E-002    4.831517856524049E-017
  1.860000000000000E-002    4.952022968506727E-017
  1.870000000000000E-002    4.730453346004949E-017