 -4.000000000000000E-002    0.000000000000000E+000
 -3.990000000000000E-002    0.000000000000000E+000
 -3.980000000000000E-002    0.000000000000000E+000
 -3.970000000000000E-002    0.000000000000000E+000
 -3.960000000000000E-002    0.000000000000000E+000
 -3.950000000000000E-002    0.000000000000000E+000
 -3.940000000000000E-002    0.000000000000000E+000
 -3.930000000000000E-002    0.000000000000000E+000
 -3.920000000000000E-002    0.000000000000000E+000
 -3.910000000000000E-002    0.000000000000000E+000
 -3.900000000000000E-002    0.000000000000000E+000
 -3.890000000000000E-002    0.000000000000000E+000
 -3.880000000000000E-002    0.000000000000000E+000
 -3.870000000000000E-002    0.000000000000000E+000
 -3.860000000000000E-002    0.000000000000000E+000
 -3.850000000000000E-002    0.000000000000000E+000
 -3.840000000000000E-002    0.000000000000000E+000
 -3.830000000000000E-002    0.000000000000000E+000
 -3.820000000000000E-002    0.000000000000000E+000
 -3.810000000000000E-002    0.000000000000000E+000
 -3.800000000000000E-002    0.000000000000000E+000
 -3.790000000000000E-002    0.000000000000000E+000
 -3.780000000000000E-002    0.000000000000000E+000
 -3.770000000000000E-002    0.000000000000000E+000
 -3.760000000000000E-002    0.000000000000000E+000
 -3.750000000000000E-002    0.000000000000000E+000
 -3.740000000000000E-002    0.000000000000000E+000
 -3.730000000000000E-002    0.000000000000000E+000
 -3.720000000000000E-002    0.000000000000000E+000
 -3.710000000000000E-002    0.000000000000000E+000
 -3.700000000000000E-002    0.000000000000000E+000
 -3.690000000000000E-002    0.000000000000000E+000
 -3.680000000000000E-002   -5.908138235028213E-047
 -3.670000000000000E-002   -2.170816234884647E-046
 -3.660000000000000E-002   -5.878870645789645E-046
 -3.650000000000000E-002   -1.573587776077605E-045
 -3.640000000000000E-002   -3.910662931922008E-045
 -3.630000000000000E-002   -8.908550813853538E-045
 -3.620000000000000E-002   -1.801934925920626E-044
 -3.610000000000000E-002   -3.438841789747179E-044
 -3.600000000000000E-002   -5.268978764940652E-044
 -3.590000000000000E-002   -5.171621978769340E-044
 -3.580000000000000E-002    3.891958612563194E-044
 -3.570000000000000E-002    3.987844990084128E-043
 -3.560000000000000E-002    1.432717518976654E-042
 -3.550000000000000E-002    3.934641062293844E-042
 -3.540000000000000E-002    9.292831322722792E-042
 -3.530000000000000E-002    1.960346581402715E-041
 -3.520000000000000E-002    3.737656962338688E-041
 -3.510000000000000E-002    6.418037275878981E-041
 -3.500000000000000E-002    9.709329741463362E-041
 -3.490000000000000E-002    1.212526699146615E-040
 -3.480000000000000E-002    9.655517200848941E-041
 -3.470000000000000E-002   -6.282550415029978E-041
 -3.460000000000000E-002   -5.146746005408024E-040
 -3.450000000000000E-002   -1.512704624292574E-039
 -3.440000000000000E-002   -3.407973610682696E-039
 -3.430000000000000E-002   -6.588138905944107E-039
 -3.420000000000000E-002   -1.128979448727177E-038
 -3.410000000000000E-002   -1.719442259775321E-038
 -3.400000000000000E-002   -2.270932746721531E-038
 -3.390000000000000E-002   -2.386873656047944E-038
 -3.380000000000000E-002   -1.290784420706954E-038
 -3.370000000000000E-002    2.318581029879752E-038
 -3.360000000000000E-002    1.034086765749903E-037
 -3.350000000000000E-002    2.514100394364178E-037
 -3.340000000000000E-002    4.899977540408362E-037
 -3.330000000000000E-002    8.287345332888582E-037
 -3.320000000000000E-002    1.241727890485381E-036
 -3.310000000000000E-002    1.633715869187813E-036
 -3.300000000000000E-002    1.795546304107025E-036
 -3.290000000000000E-002    1.356043668201030E-036
 -3.280000000000000E-002   -2.533295280182708E-037
 -3.270000000000000E-002   -3.791877022633847E-036
 -3.260000000000000E-002   -1.011766531730991E-035
 -3.250000000000000E-002   -1.995471469500703E-035
 -3.240000000000000E-002   -3.346136060346046E-035
 -3.230000000000000E-002   -4.955821345392301E-035
 -3.220000000000000E-002   -6.502128648063449E-035
 -3.210000000000000E-002   -7.343474633407864E-035
 -3.200000000000000E-002   -6.423450312417115E-035
 -3.190000000000000E-002   -2.225376952871798E-035
 -3.180000000000000E-002    7.161726139884811E-035
 -3.170000000000000E-002    2.378696238587638E-034
 -3.160000000000000E-002    4.930457915090123E-034
 -3.150000000000000E-002    8.408942801000259E-034
 -3.140000000000000E-002    1.259687160072729E-033
 -3.130000000000000E-002    1.686221748521323E-033
 -3.120000000000000E-002    1.998352240094809E-033
 -3.110000000000000E-002    1.999711068268368E-033
 -3.100000000000000E-002    1.412454638246938E-033
 -3.090000000000000E-002   -1.138464439310903E-034
 -3.080000000000000E-002   -2.967109020245254E-033
 -3.070000000000000E-002   -7.500381818055129E-033
 -3.060000000000000E-002   -1.391198819458659E-032
 -3.050000000000000E-002   -2.207149601918824E-032
 -3.040000000000000E-002   -3.129231575607543E-032
 -3.030000000000000E-002   -4.006438140407021E-032
 -3.020000000000000E-002   -4.577927438644225E-032
 -3.010000000000000E-002   -4.450632750939626E-032
 -3.000000000000000E-002   -3.091157177652599E-032
 -2.990000000000000E-002    1.549860241934334E-033
 -2.980000000000000E-002    5.999797381770010E-032
 -2.970000000000000E-002    1.508491057307198E-031
 -2.960000000000000E-002    2.776910485049006E-031
 -2.950000000000000E-002    4.381570005459856E-031
 -2.940000000000000E-002    6.197759986942965E-031
 -2.930000000000000E-002    7.950318903689696E-031
 -2.920000000000000E-002    9.162717874526208E-031
 -2.910000000000000E-002    9.116798936227664E-031
 -2.900000000000000E-002    6.842459570111265E-031
 -2.890000000000000E-002    1.164081801995433E-031
 -2.880000000000000E-002   -9.163505539693667E-031
 -2.870000000000000E-002   -2.519535812856273E-030
 -2.860000000000000E-002   -4.738604684328257E-030
 -2.850000000000000E-002   -7.502205930531096E-030
 -2.840000000000000E-002   -1.055282051834211E-029
 -2.830000000000000E-002   -1.337366197976328E-029
 -2.820000000000000E-002   -1.512817184786873E-029
 -2.810000000000000E-002   -1.463683088071406E-029
 -2.800000000000000E-002   -1.042358370930863E-029
 -2.790000000000000E-002   -8.683371894882604E-031
 -2.780000000000000E-002    1.550073976910119E-029
 -2.770000000000000E-002    3.955476752191987E-029
 -2.760000000000000E-002    7.095863359116961E-029
 -2.750000000000000E-002    1.074625508989384E-028
 -2.740000000000000E-002    1.441981635462802E-028
 -2.730000000000000E-002    1.731520079634432E-028
 -2.720000000000000E-002    1.830507360457458E-028
 -2.710000000000000E-002    1.599323487942209E-028
 -2.700000000000000E-002    8.867367922688939E-029
 -2.690000000000000E-002   -4.432789642998167E-029
 -2.680000000000000E-002   -2.472804936204103E-028
 -2.670000000000000E-002   -5.181498776375066E-028
 -2.660000000000000E-002   -8.393991502771234E-028
 -2.650000000000000E-002   -1.173269285087671E-027
 -2.640000000000000E-002   -1.458926768210690E-027
 -2.630000000000000E-002   -1.613062337160491E-027
 -2.620000000000000E-002   -1.535550003289024E-027
 -2.610000000000000E-002   -1.121448309851573E-027
 -2.600000000000000E-002   -2.798592410133252E-028
 -2.590000000000000E-002    1.041079631101739E-027
 -2.580000000000000E-002    2.825438673965673E-027
 -2.570000000000000E-002    4.961201566170459E-027
 -2.560000000000000E-002    7.218413598065163E-027
 -2.550000000000000E-002    9.240966037194522E-027
 -2.540000000000000E-002    1.055939189175872E-026
 -2.530000000000000E-002    1.063074591680577E-026
 -2.520000000000000E-002    8.908533917342557E-027
 -2.510000000000000E-002    4.940753981186195E-027
 -2.500000000000000E-002   -1.512251394184924E-027
 -2.490000000000000E-002   -1.035536889689202E-026
 -2.480000000000000E-002   -2.105322255267692E-026
 -2.470000000000000E-002   -3.256713421204624E-026
 -2.460000000000000E-002   -4.336014406683655E-026
 -2.450000000000000E-002   -5.149063020881126E-026
 -2.440000000000000E-002   -5.480418412133516E-026
 -2.430000000000000E-002   -5.121733849705605E-026
 -2.420000000000000E-002   -3.906727048811398E-026
 -2.410000000000000E-002   -1.748217961916550E-026
 -2.400000000000000E-002    1.328823782171716E-026
 -2.390000000000000E-002    5.164923334916759E-026
 -2.380000000000000E-002    9.460504028168795E-026
 -2.370000000000000E-002    1.379101953062546E-025
 -2.360000000000000E-002    1.764333027294143E-025
 -2.350000000000000E-002    2.046947622763421E-025
 -2.340000000000000E-002    2.174962118868698E-025
 -2.330000000000000E-002    2.105264181042356E-025
 -2.320000000000000E-002    1.808181567737833E-025
 -2.310000000000000E-002    1.269525069805916E-025
 -2.300000000000000E-002    4.896586458331727E-026
 -2.290000000000000E-002   -5.199635205361609E-026
 -2.280000000000000E-002   -1.741291707029562E-025
 -2.270000000000000E-002   -3.152762309728563E-025
 -2.260000000000000E-002   -4.728003184944958E-025
 -2.250000000000000E-002   -6.427452325903905E-025
 -2.240000000000000E-002   -8.181450411958584E-025
 -2.230000000000000E-002   -9.865732861529580E-025
 -2.220000000000000E-002   -1.127346926772700E-024
 -2.210000000000000E-002   -1.209157302110509E-024
 -2.200000000000000E-002   -1.189204118680593E-024
 -2.190000000000000E-002   -1.015052237221574E-024
 -2.180000000000000E-002   -6.303088381086537E-025
 -2.170000000000000E-002    1.525664067827433E-026
 -2.160000000000000E-002    9.513731750635391E-025
 -2.150000000000000E-002    2.170099132087688E-024
 -2.140000000000000E-002    3.608521078244221E-024
 -2.130000000000000E-002    5.135223639702195E-024
 -2.120000000000000E-002    6.545175498339213E-024
 -2.110000000000000E-002    7.567638183803302E-024
 -2.100000000000000E-002    7.890555187171889E-024
 -2.090000000000000E-002    7.202536449654891E-024
 -2.080000000000000E-002    5.250095346692231E-024
 -2.070000000000000E-002    1.903654922790876E-024
 -2.060000000000000E-002   -2.778272018770651E-024
 -2.050000000000000E-002   -8.500439284749491E-024
 -2.040000000000000E-002   -1.471257607657030E-023
 -2.030000000000000E-002   -2.063441282459852E-023
 -2.020000000000000E-002   -2.533167495460572E-023
 -2.010000000000000E-002   -2.784205307199968E-023
 -2.000000000000000E-002   -2.733904315877323E-023
 -1.990000000000000E-002   -2.330985218887405E-023
 -1.980000000000000E-002   -1.571368905752132E-023
 -1.970000000000000E-002   -5.081587202471281E-024
 -1.960000000000000E-002    7.478907903061702E-024
 -1.950000000000000E-002    2.039968211842272E-023
 -1.940000000000000E-002    3.189366680370053E-023
 -1.930000000000000E-002    4.029950930332691E-023
 -1.920000000000000E-002    4.447601160007272E-023
 -1.910000000000000E-002    4.416585015868411E-023
 -1.900000000000000E-002    4.023112146928724E-023
 -1.890000000000000E-002    3.466492699044822E-023
 -1.880000000000000E-002    3.030733342709657E-023
 -1.870000000000000E-002    3.024325282832317E-023
 -1.860000000000000E-002    3.692941402024106E-023
 -1.850000000000000E-002    5.117841622045548E-023
 -1.840000000000000E-002    7.120412443012722E-023
 -1.830000000000000E-002    9.198551408576222E-023
 -1.820000000000000E-002    1.052159042974187E-022
 -1.810000000000000E-002    1.000567278311839E-022
 -1.800000000000000E-002    6.480119498006871E-023
 -1.790000000000000E-002   -1.061943830946446E-023
 -1.780000000000000E-002   -1.315658331408776E-022
 -1.770000000000000E-002   -2.955503858320150E-022
 -1.760000000000000E-002   -4.896900117646572E-022
 -1.750000000000000E-002   -6.894951648617118E-022
 -1.740000000000000E-002   -8.596764894329453E-022
 -1.730000000000000E-002   -9.574264848159606E-022
 -1.720000000000000E-002   -9.382508841791075E-022
 -1.710000000000000E-002   -7.639144214435397E-022
 -1.700000000000000E-002   -4.115086859664227E-022
 -1.690000000000000E-002    1.178477505606187E-022
 -1.680000000000000E-002    7.924932921122754E-022
 -1.670000000000000E-002    1.547735541073424E-021
 -1.660000000000000E-002    2.288894686977561E-021
 -1.650000000000000E-002    2.900642794500234E-021
 -1.640000000000000E-002    3.262329827251896E-021
 -1.630000000000000E-002    3.267708899247588E-021
 -1.620000000000000E-002    2.846224611486492E-021
 -1.610000000000000E-002    1.982072252442791E-021
 -1.600000000000000E-002    7.268290833415489E-022
 -1.590000000000000E-002   -7.981511989172414E-022
 -1.580000000000000E-002   -2.412135430866203E-021
 -1.570000000000000E-002   -3.898672158561113E-021
 -1.560000000000000E-002   -5.040343661292016E-021
 -1.550000000000000E-002   -5.659650231346911E-021
 -1.540000000000000E-002   -5.658713896275258E-021
 -1.530000000000000E-002   -5.049160148515443E-021
 -1.520000000000000E-002   -3.963753527272033E-021
 -1.510000000000000E-002   -2.643447154704026E-021
 -1.500000000000000E-002   -1.397420902555863E-021
 -1.490000000000000E-002   -5.390468191505934E-022
 -1.480000000000000E-002   -3.066603615301728E-022
 -1.470000000000000E-002   -7.834566964598063E-022
 -1.460000000000000E-002   -1.834438354465861E-021
 -1.450000000000000E-002   -3.078919625080357E-021
 -1.440000000000000E-002   -3.913873473549620E-021
 -1.430000000000000E-002   -3.596064878597191E-021
 -1.420000000000000E-002   -1.380243374509919E-021
 -1.410000000000000E-002    3.302072016383837E-021
 -1.400000000000000E-002    1.065104408189136E-020
 -1.390000000000000E-002    2.033153364684446E-020
 -1.380000000000000E-002    3.137189885516549E-020
 -1.370000000000000E-002    4.216599742715509E-020
 -1.360000000000000E-002    5.060354438336090E-020
 -1.350000000000000E-002    5.433366932041957E-020
 -1.340000000000000E-002    5.114086298885640E-020
 -1.330000000000000E-002    3.938545761632070E-020
 -1.320000000000000E-002    1.843755276109487E-020
 -1.310000000000000E-002   -1.098032996721970E-020
 -1.300000000000000E-002   -4.662614748302907E-020
 -1.290000000000000E-002   -8.481359173877768E-020
 -1.280000000000000E-002   -1.207619659197869E-019
 -1.270000000000000E-002   -1.492052487543016E-019
 -1.260000000000000E-002   -1.651909686507706E-019
 -1.250000000000000E-002   -1.649489484270136E-019
 -1.240000000000000E-002   -1.466741899885559E-019
 -1.230000000000000E-002   -1.110568021631417E-019
 -1.220000000000000E-002   -6.141314878526196E-020
 -1.210000000000000E-002   -3.326449877055568E-021
 -1.200000000000000E-002    5.621024692854674E-020
 -1.190000000000000E-002    1.100542248991091E-019
 -1.180000000000000E-002    1.523795136740917E-019
 -1.170000000000000E-002    1.800708839497399E-019
 -1.160000000000000E-002    1.937266266499266E-019
 -1.150000000000000E-002    1.979696396100418E-019
 -1.140000000000000E-002    2.008499419987357E-019
 -1.130000000000000E-002    2.122692882727430E-019
 -1.120000000000000E-002    2.415498039564668E-019
 -1.110000000000000E-002    2.944766327339305E-019
 -1.100000000000000E-002    3.703294617600830E-019
 -1.090000000000000E-002    4.595383458176495E-019
 -1.080000000000000E-002    5.426195313636577E-019
 -1.070000000000000E-002    5.909411353030520E-019
 -1.060000000000000E-002    5.696378096627562E-019
 -1.050000000000000E-002    4.426475575115209E-019
 -1.040000000000000E-002    1.794436655306999E-019
 -1.030000000000000E-002   -2.373757727428176E-019
 -1.020000000000000E-002   -8.048038150357078E-019
 -1.010000000000000E-002   -1.493788515848701E-018
 -1.000000000000000E-002   -2.246559187515745E-018
 -9.899999999999999E-003   -2.977969325534483E-018
 -9.800000000000000E-003   -3.581411963094137E-018
 -9.699999999999999E-003   -3.939218648288449E-018
 -9.599999999999999E-003   -3.936700605973815E-018
 -9.500000000000000E-003   -3.478309934716777E-018
 -9.399999999999999E-003   -2.503861384737913E-018
 -9.299999999999999E-003   -1.002513499916143E-018
 -9.200000000000000E-003    9.776830873685520E-019
 -9.099999999999999E-003    3.326407175500353E-018
 -8.999999999999999E-003    5.874776577430589E-018
 -8.900000000000000E-003    8.406100366795369E-018
 -8.799999999999999E-003    1.067261671201943E-017
 -8.699999999999999E-003    1.241624345500804E-017
 -8.600000000000000E-003    1.339090035575398E-017
 -8.499999999999999E-003    1.338380849616227E-017
 -8.399999999999999E-003    1.223359387386184E-017
 -8.300000000000000E-003    9.843855978236678E-018
 -8.199999999999999E-003    6.191913597583969E-018
 -8.100000000000000E-003    1.333579225229664E-018
 -8.000000000000000E-003   -4.594388149003174E-018
 -7.899999999999999E-003   -1.137212544618459E-017
 -7.800000000000000E-003   -1.869319415250149E-017
 -7.699999999999999E-003   -2.615926805129849E-017
 -7.599999999999999E-003   -3.327421179936635E-017
 -7.499999999999999E-003   -3.944075515932868E-017
 -7.399999999999999E-003   -4.396490723652393E-017
 -7.299999999999999E-003   -4.607447567729255E-017
 -7.199999999999999E-003   -4.495810796645473E-017
 -7.100000000000000E-003   -3.982979467795341E-017
 -6.999999999999999E-003   -3.002060556748617E-017
 -6.899999999999999E-003   -1.509476405987417E-017
 -6.800000000000000E-003    5.018554952415954E-018
 -6.699999999999999E-003    2.989222227858400E-017
 -6.599999999999999E-003    5.848660094004412E-017
 -6.499999999999999E-003    8.907615243384626E-017
 -6.399999999999999E-003    1.192403598106732E-016
 -6.299999999999999E-003    1.459385981827704E-016
 -6.199999999999999E-003    1.656818095783622E-016
 -6.100000000000000E-003    1.748029581168590E-016
 -5.999999999999999E-003    1.698157400429066E-016
 -5.899999999999999E-003    1.478368823756024E-016
 -5.800000000000000E-003    1.070345372579602E-016
 -5.699999999999999E-003    4.705509906579182E-017
 -5.599999999999999E-003   -3.062443456788696E-017
 -5.499999999999999E-003   -1.224716166771641E-016
 -5.399999999999999E-003   -2.228470220413287E-016
 -5.299999999999999E-003   -3.241592000931779E-016
 -5.199999999999999E-003   -4.172411316652000E-016
 -5.099999999999999E-003   -4.919422443736910E-016
 -4.999999999999999E-003   -5.379074347471366E-016
 -4.899999999999999E-003   -5.454940083093839E-016
 -4.799999999999999E-003   -5.067604700680080E-016
 -4.699999999999999E-003   -4.164483533476595E-016
 -4.599999999999999E-003   -2.728736006579518E-016
 -4.499999999999999E-003   -7.864370375298863E-017
 -4.399999999999999E-003    1.588756065080258E-016
 -4.299999999999999E-003    4.274090723129650E-016
 -4.199999999999999E-003    7.099852899902542E-016
 -4.099999999999999E-003    9.855461359195279E-016
 -3.999999999999999E-003    1.229961726700085E-015
 -3.899999999999999E-003    1.417438725506808E-015
 -3.799999999999999E-003    1.522284129911510E-015
 -3.699999999999999E-003    1.520959632744583E-015
 -3.599999999999999E-003    1.394330256181985E-015
 -3.499999999999999E-003    1.129979395974633E-015
 -3.399999999999999E-003    7.244279656177286E-016
 -3.299999999999999E-003    1.850666153067109E-016
 -3.199999999999999E-003   -4.684139171902980E-016
 -3.099999999999999E-003   -1.203317733670102E-015
 -2.999999999999999E-003   -1.974180024643573E-015
 -2.899999999999999E-003   -2.724125345468722E-015
 -2.799999999999999E-003   -3.387468681783763E-015
 -2.699999999999999E-003   -3.893588297528539E-015
 -2.599999999999999E-003   -4.171989497813962E-015
 -2.499999999999999E-003   -4.158337460916313E-015
 -2.399999999999999E-003   -3.801105479977966E-015
 -2.299999999999999E-003   -3.068348803611733E-015
 -2.199999999999999E-003   -1.954006699141921E-015
 -2.099999999999999E-003   -4.830713140079745E-016
 -1.999999999999999E-003    1.285052880120678E-015
 -1.899999999999999E-003    3.255620608032310E-015
 -1.799999999999999E-003    5.300548355848445E-015
 -1.699999999999999E-003    7.263652564124805E-015
 -1.599999999999999E-003    8.969195687318304E-015
 -1.499999999999999E-003    1.023350437383112E-014
 -1.399999999999999E-003    1.087913829817959E-014
 -1.299999999999999E-003    1.075077580977203E-014
 -1.199999999999999E-003    9.731724673377070E-015
 -1.099999999999999E-003    7.759752223356261E-015
 -9.999999999999989E-004    4.840819649690916E-015
 -8.999999999999990E-004    1.059272667783104E-015
 -7.999999999999990E-004   -3.416882271404528E-015
 -6.999999999999989E-004   -8.336749912845832E-015
 -5.999999999999990E-004   -1.337420292361097E-014
 -4.999999999999989E-004   -1.814279927338651E-014
 -3.999999999999989E-004   -2.221788672049832E-014
 -2.999999999999989E-004   -2.516511551398364E-014
 -1.999999999999989E-004   -2.657408404539397E-014
 -9.999999999999892E-005   -2.609515592105433E-014
  1.084202172485504E-018   -2.347695035536499E-014
  1.000000000000011E-004   -1.860158167664868E-014
  2.000000000000011E-004   -1.151442010290513E-014
  3.000000000000011E-004   -2.445071832992770E-015
  4.000000000000011E-004    8.183448413551842E-015
  5.000000000000011E-004    1.975999075892014E-014
  6.000000000000011E-004    3.150671293311093E-014
  7.000000000000011E-004    4.251741106188501E-014
  8.000000000000011E-004    5.181203626341961E-014
  9.000000000000012E-004    5.840530505427660E-014
  1.000000000000001E-003    6.138567891434387E-014
  1.100000000000001E-003    5.999964159137699E-014
  1.200000000000001E-003    5.373496283535505E-014
  1.300000000000001E-003    4.239584373925821E-014
  1.400000000000001E-003    2.616255958297247E-014
  1.500000000000001E-003    5.628588383364205E-015
  1.600000000000001E-003   -1.819088615733952E-014
  1.700000000000001E-003   -4.388344130724540E-014
  1.800000000000001E-003   -6.969911565305835E-014
  1.900000000000001E-003   -9.364494995772952E-014
  2.000000000000001E-003   -1.136108698925229E-013
  2.100000000000001E-003   -1.275209075506678E-013
  2.200000000000001E-003   -1.335005464255074E-013
  2.300000000000001E-003   -1.300490433717611E-013
  2.400000000000001E-003   -1.162038470190843E-013
  2.500000000000001E-003   -9.168326971212149E-014
  2.600000000000001E-003   -5.699401229480772E-014
  2.700000000000001E-003   -1.349087761904437E-014
  2.800000000000001E-003    3.662128560016467E-014
  2.900000000000001E-003    9.035099939447755E-014
  3.000000000000001E-003    1.440514843282703E-013
  3.100000000000001E-003    1.936188349311946E-013
  3.200000000000001E-003    2.347500763220601E-013
  3.300000000000001E-003    2.632492567451895E-013
  3.400000000000001E-003    2.753640429995422E-013
  3.500000000000001E-003    2.681314612697058E-013
  3.600000000000001E-003    2.397067905453408E-013
  3.700000000000001E-003    1.896481020694516E-013
  3.800000000000001E-003    1.191280556967344E-013
  3.900000000000001E-003    3.104627275772054E-014
  4.000000000000001E-003   -6.997982138489730E-014
  4.100000000000001E-003   -1.777619628376356E-013
  4.200000000000001E-003   -2.848318481677380E-013
  4.300000000000001E-003   -3.828720931819637E-013
  4.400000000000001E-003   -4.632701955352845E-013
  4.500000000000001E-003   -5.177661251381471E-013
  4.600000000000002E-003   -5.391521900124390E-013
  4.700000000000001E-003   -5.219729678495702E-013
  4.800000000000001E-003   -4.631677484896210E-013
  4.900000000000002E-003   -3.625936928705568E-013
  5.000000000000001E-003   -2.233722254527418E-013
  5.100000000000001E-003   -5.200825175077026E-014
  5.200000000000001E-003    1.417535841619163E-013
  5.300000000000002E-003    3.453528030390732E-013
  5.400000000000001E-003    5.441126298555347E-013
  5.500000000000001E-003    7.221859751994702E-013
  5.600000000000002E-003    8.636949202540803E-013
  5.700000000000001E-003    9.539889382426949E-013
  5.800000000000001E-003    9.809305856791009E-013
  5.900000000000002E-003    9.361058765853258E-013
  6.000000000000001E-003    8.158551574304428E-013
  6.100000000000001E-003    6.220236822579327E-013
  6.200000000000002E-003    3.623476711502098E-013
  6.300000000000002E-003    5.041243087775226E-014
  6.400000000000001E-003   -2.948526359643977E-013
  6.500000000000001E-003   -6.501409137753429E-013
  6.600000000000002E-003   -9.891662545962866E-013
  6.700000000000001E-003   -1.284419247962171E-012
  6.800000000000001E-003   -1.509178966436439E-012
  6.900000000000002E-003   -1.639651997061150E-012
  7.000000000000001E-003   -1.657085545905045E-012
  7.100000000000001E-003   -1.549693426620156E-012
  7.200000000000002E-003   -1.314231667385511E-012
  7.300000000000002E-003   -9.570695142958554E-013
  7.400000000000001E-003   -4.946262167425803E-013
  7.500000000000001E-003    4.692567934970403E-014
  7.600000000000002E-003    6.327432574413241E-013
  7.700000000000001E-003    1.221180568743265E-012
  7.800000000000001E-003    1.766385134397217E-012
  7.900000000000001E-003    2.221495745536199E-012
  8.000000000000002E-003    2.542260609336847E-012
  8.100000000000001E-003    2.690832771469956E-012
  8.200000000000001E-003    2.639460112804125E-012
  8.300000000000002E-003    2.373756638085546E-012
  8.400000000000001E-003    1.895240628047091E-012
  8.500000000000002E-003    1.222844505448310E-012
  8.600000000000002E-003    3.931519602900381E-013
  8.700000000000001E-003   -5.408007427722882E-013
  8.800000000000002E-003   -1.512226463068908E-012
  8.900000000000002E-003   -2.444725884534847E-012
  9.000000000000001E-003   -3.257677852919222E-012
  9.100000000000002E-003   -3.872549155221199E-012
  9.200000000000002E-003   -4.219690686137839E-012
  9.300000000000001E-003   -4.245081432305069E-012
  9.400000000000002E-003   -3.916436886350550E-012
  9.500000000000001E-003   -3.228089545837155E-012
  9.600000000000001E-003   -2.204098900197849E-012
  9.700000000000002E-003   -8.991434222612055E-013
  9.800000000000001E-003    6.030931517730865E-013
  9.900000000000001E-003    2.194153095923709E-012
  1.000000000000000E-002    3.747529964999259E-012
  1.010000000000000E-002    5.127561944640193E-012
  1.020000000000000E-002    6.199933944592784E-012
  1.030000000000000E-002    6.843061250043586E-012
  1.040000000000000E-002    6.959480321626067E-012
  1.050000000000000E-002    6.486307244732360E-012
  1.060000000000000E-002    5.403819580320494E-012
  1.070000000000000E-002    3.741297715193583E-012
  1.080000000000000E-002    1.579404376176565E-012
  1.090000000000000E-002   -9.513891966709815E-013
  1.100000000000000E-002   -3.676564577304808E-012
  1.110000000000000E-002   -6.387415755071787E-012
  1.120000000000000E-002   -8.854604714086688E-012
  1.130000000000000E-002   -1.084468310270019E-011
  1.140000000000000E-002   -1.213856840322410E-011
  1.150000000000000E-002   -1.255071441483644E-011
  1.160000000000000E-002   -1.194755700108901E-011
  1.170000000000000E-002   -1.026372582633510E-011
  1.180000000000000E-002   -7.514547368696923E-012
  1.190000000000000E-002   -3.803487700099124E-012
  1.200000000000000E-002    6.765694608432280E-013
  1.210000000000000E-002    5.648936945331713E-012
  1.220000000000000E-002    1.076598204309476E-011
  1.230000000000000E-002    1.562894079663806E-011
  1.240000000000000E-002    1.981395409879041E-011
  1.250000000000000E-002    2.290294907085995E-011
  1.260000000000000E-002    2.451747463145626E-011
  1.270000000000000E-002    2.435314494168538E-011
  1.280000000000000E-002    2.221204688259041E-011
  1.290000000000000E-002    1.803030933267858E-011
  1.300000000000000E-002    1.189809466673371E-011
  1.310000000000000E-002    4.069617227583575E-012
  1.320000000000000E-002   -5.038752479716259E-012
  1.330000000000000E-002   -1.486337439263679E-011
  1.340000000000000E-002   -2.472146936087845E-011
  1.350000000000000E-002   -3.385162665058977E-011
  1.360000000000000E-002   -4.146479259732397E-011
  1.370000000000000E-002   -4.680268501892838E-011
  1.380000000000000E-002   -4.919985009711604E-011
  1.390000000000000E-002   -4.814475900965595E-011
  1.400000000000000E-002   -4.333502485807240E-011
  1.410000000000000E-002   -3.472189773288296E-011
  1.420000000000000E-002   -2.253951288932302E-011
  1.430000000000000E-002   -7.315197074267290E-012
  1.440000000000000E-002    1.014160960293150E-011
  1.450000000000000E-002    2.877297216169289E-011
  1.460000000000000E-002    4.732800184451873E-011
  1.470000000000000E-002    6.443786632067455E-011
  1.480000000000000E-002    7.870646571272518E-011
  1.490000000000000E-002    8.881108797919885E-011
  1.500000000000000E-002    9.360649437762202E-011
  1.510000000000000E-002    9.222489130221076E-011
  1.520000000000000E-002    8.416413841786584E-011
  1.530000000000000E-002    6.935674162077653E-011
  1.540000000000000E-002    4.821309295930964E-011
  1.550000000000000E-002    2.163367989076843E-011
  1.560000000000000E-002   -9.013032467045796E-012
  1.570000000000000E-002   -4.194818486163392E-011
  1.580000000000000E-002   -7.507436612155661E-011
  1.590000000000000E-002   -1.060977262227700E-010
  1.600000000000000E-002   -1.326742204381940E-010
  1.610000000000000E-002   -1.525713900480162E-010
  1.620000000000000E-002   -1.638354352811671E-010
  1.630000000000000E-002   -1.649521599451700E-010
  1.640000000000000E-002   -1.549897759167953E-010
  1.650000000000000E-002   -1.337120452822437E-010
  1.660000000000000E-002   -1.016511794943109E-010
  1.670000000000000E-002   -6.013218579920855E-011
  1.680000000000000E-002   -1.124282720797410E-011
  1.690000000000000E-002    4.225282094577816E-011
  1.700000000000000E-002    9.705568913949157E-011
  1.710000000000000E-002    1.495222094443771E-010
  1.720000000000000E-002    1.958940684520530E-010
  1.730000000000000E-002    2.325539315799350E-010
  1.740000000000000E-002    2.562907740995073E-010
  1.750000000000000E-002    2.645563653279209E-010
  1.760000000000000E-002    2.556939419814614E-010
  1.770000000000000E-002    2.291202571164631E-010
  1.780000000000000E-002    1.854446688968817E-010
  1.790000000000000E-002    1.265118169721608E-010
  1.800000000000000E-002    5.535930869264712E-011
  1.810000000000000E-002   -2.391260500056514E-011
  1.820000000000000E-002   -1.063564466790101E-010
  1.830000000000000E-002   -1.864682256780570E-010
  1.840000000000000E-002   -2.585383800798847E-010
  1.850000000000000E-002   -3.170417035531292E-010
  1.860000000000000E-002   -3.570412763432781E-010
  1.870000000000000E-002   -3.745785899130287E-010