 -4.000000000000000E-002    0.000000000000000E+000
 -3.990000000000000E-002    0.000000000000000E+000
 -3.980000000000000E-002   -3.391881513603628E-011
 -3.970000000000000E-002   -1.774148472926149E-010
 -3.960000000000000E-002   -5.422100155093779E-010
 -3.950000000000000E-002   -1.260017028796615E-009
 -3.940000000000000E-002   -2.461302254591530E-009
 -3.930000000000000E-002   -4.254722058723267E-009
 -3.920000000000000E-002   -6.712137266541861E-009
 -3.910000000000000E-002   -9.862139424034362E-009
 -3.900000000000000E-002   -1.369247609225978E-008
 -3.890000000000000E-002   -1.815952727377412E-008
 -3.880000000000000E-002   -2.320150207968858E-008
 -3.870000000000000E-002   -2.875149158881029E-008
 -3.860000000000000E-002   -3.474732037512002E-008
 -3.850000000000000E-002   -4.113644183205784E-008
 -3.840000000000000E-002   -4.787610963740761E-008
 -3.830000000000000E-002   -5.493076969026389E-008
 -3.820000000000000E-002   -6.226955967150514E-008
 -3.810000000000000E-002   -6.986722632300511E-008
 -3.800000000000000E-002   -7.771091129698984E-008
 -3.790000000000000E-002   -8.581369777697172E-008
 -3.780000000000000E-002   -9.423394604251159E-008
 -3.770000000000000E-002   -1.030974253830408E-007
 -3.760000000000000E-002   -1.126178167888649E-007
 -3.750000000000000E-002   -1.231105059223424E-007
 -3.740000000000000E-002   -1.349950909652467E-007
 -3.730000000000000E-002   -1.487830408247187E-007
 -3.720000000000000E-002   -1.650494585521836E-007
 -3.710000000000000E-002   -1.843897887814539E-007
 -3.700000000000000E-002   -2.073654518139660E-007
 -3.690000000000000E-002   -2.344434501769978E-007
 -3.680000000000000E-002   -2.659366266094367E-007
 -3.670000000000000E-002   -3.019511767322264E-007
 -3.660000000000000E-002   -3.423472834927029E-007
 -3.650000000000000E-002   -3.867169724842396E-007
 -3.640000000000000E-002   -4.343815426899903E-007
 -3.630000000000000E-002   -4.844081543842461E-007
 -3.620000000000000E-002   -5.356436057872863E-007
 -3.610000000000000E-002   -5.867621801426851E-007
 -3.600000000000000E-002   -6.363221267538258E-007
 -3.590000000000000E-002   -6.828261599827226E-007
 -3.580000000000000E-002   -7.247821391658041E-007
 -3.570000000000000E-002   -7.607589445144523E-007
 -3.560000000000000E-002   -7.894350443000035E-007
 -3.550000000000000E-002   -8.096374517350717E-007
 -3.540000000000000E-002   -8.203707871404767E-007
 -3.530000000000000E-002   -8.208341016075437E-007
 -3.520000000000000E-002   -8.104282887896802E-007
 -3.510000000000000E-002   -7.887520754915024E-007
 -3.500000000000000E-002   -7.555889236115480E-007
 -3.490000000000000E-002   -7.108840909323790E-007
 -3.480000000000000E-002   -6.547179201595151E-007
 -3.470000000000000E-002   -5.872703538784797E-007
 -3.460000000000000E-002   -5.087828189485327E-007
 -3.450000000000000E-002   -4.195181172363359E-007
 -3.440000000000000E-002   -3.197196400928576E-007
 -3.430000000000000E-002   -2.095731278291245E-007
 -3.420000000000000E-002   -8.916894163117033E-008
 -3.410000000000000E-002    4.153008773592163E-008
 -3.400000000000000E-002    1.827158201690959E-007
 -3.390000000000000E-002    3.347553763673729E-007
 -3.380000000000000E-002    4.982013912631359E-007
 -3.370000000000000E-002    6.737958108536577E-007
 -3.360000000000000E-002    8.624600708963461E-007
 -3.350000000000000E-002    1.065269713536706E-006
 -3.340000000000000E-002    1.283419520723177E-006
 -3.330000000000000E-002    1.518169981074331E-006
 -3.320000000000000E-002    1.770781615207311E-006
 -3.310000000000000E-002    2.042442969131609E-006
 -3.300000000000000E-002    2.334191199603461E-006
 -3.290000000000000E-002    2.646840827264069E-006
 -3.280000000000000E-002    2.980927153244614E-006
 -3.270000000000000E-002    3.336670077145005E-006
 -3.260000000000000E-002    3.713971856507279E-006
 -3.250000000000000E-002    4.112446661487226E-006
 -3.240000000000000E-002    4.531502920016871E-006
 -3.230000000000000E-002    4.970441305789641E-006
 -3.220000000000000E-002    5.428602129480385E-006
 -3.210000000000000E-002    5.905509482084123E-006
 -3.200000000000000E-002    6.401033592505009E-006
 -3.190000000000000E-002    6.915530508391566E-006
 -3.180000000000000E-002    7.449946933985908E-006
 -3.170000000000000E-002    8.005897260975356E-006
 -3.160000000000000E-002    8.585679837299325E-006
 -3.150000000000000E-002    9.192259131526644E-006
 -3.140000000000000E-002    9.829190731688129E-006
 -3.130000000000000E-002    1.050054406589159E-005
 -3.120000000000000E-002    1.121078012853437E-005
 -3.110000000000000E-002    1.196465196908116E-005
 -3.100000000000000E-002    1.276710792616825E-005
 -3.090000000000000E-002    1.362322620446357E-005
 -3.080000000000000E-002    1.453816905112186E-005
 -3.070000000000000E-002    1.551716984269487E-005
 -3.060000000000000E-002    1.656550721606476E-005
 -3.050000000000000E-002    1.768851622350779E-005
 -3.040000000000000E-002    1.889158296196873E-005
 -3.030000000000000E-002    2.018008507809277E-005
 -3.020000000000000E-002    2.155938089453460E-005
 -3.010000000000000E-002    2.303470723502606E-005
 -3.000000000000000E-002    2.461112794131440E-005
 -2.990000000000000E-002    2.629344686548147E-005
 -2.980000000000000E-002    2.808618862075767E-005
 -2.970000000000000E-002    2.999358899093998E-005
 -2.960000000000000E-002    3.201967311539658E-005
 -2.950000000000000E-002    3.416837332211507E-005
 -2.940000000000000E-002    3.644374237668133E-005
 -2.930000000000000E-002    3.885014744445531E-005
 -2.920000000000000E-002    4.139257300703017E-005
 -2.910000000000000E-002    4.407681954829869E-005
 -2.900000000000000E-002    4.690974280761131E-005
 -2.890000000000000E-002    4.989933676512705E-005
 -2.880000000000000E-002    5.305480584492160E-005
 -2.870000000000000E-002    5.638646459022352E-005
 -2.860000000000000E-002    5.990563243875515E-005
 -2.850000000000000E-002    6.362439436603824E-005
 -2.840000000000000E-002    6.755536156375536E-005
 -2.830000000000000E-002    7.171147657095489E-005
 -2.820000000000000E-002    7.610573660548795E-005
 -2.810000000000000E-002    8.075119384033793E-005
 -2.800000000000000E-002    8.566088187713202E-005
 -2.790000000000000E-002    9.084793357120415E-005
 -2.780000000000000E-002    9.632575426515679E-005
 -2.770000000000000E-002    1.021082804001571E-004
 -2.760000000000000E-002    1.082102223207739E-004
 -2.750000000000000E-002    1.146473043004581E-004
 -2.740000000000000E-002    1.214364722356039E-004
 -2.730000000000000E-002    1.285959474759034E-004
 -2.720000000000000E-002    1.361452720864622E-004
 -2.710000000000000E-002    1.441051691098174E-004
 -2.700000000000000E-002    1.524973479500227E-004
 -2.690000000000000E-002    1.613443042340207E-004
 -2.680000000000000E-002    1.706691497045494E-004
 -2.670000000000000E-002    1.804953509996709E-004
 -2.660000000000000E-002    1.908466021135892E-004
 -2.650000000000000E-002    2.017470717919561E-004
 -2.640000000000000E-002    2.132212111000062E-004
 -2.630000000000000E-002    2.252940849787666E-004
 -2.620000000000000E-002    2.379916936437209E-004
 -2.610000000000000E-002    2.513411765674658E-004
 -2.600000000000000E-002    2.653711686580419E-004
 -2.590000000000000E-002    2.801119289266137E-004
 -2.580000000000000E-002    2.955957179465989E-004
 -2.570000000000000E-002    3.118565759178114E-004
 -2.560000000000000E-002    3.289305488088708E-004
 -2.550000000000000E-002    3.468554270722662E-004
 -2.540000000000000E-002    3.656706209776269E-004
 -2.530000000000000E-002    3.854170217968493E-004
 -2.520000000000000E-002    4.061368280972742E-004
 -2.510000000000000E-002    4.278733486362339E-004
 -2.500000000000000E-002    4.506713790026240E-004
 -2.490000000000000E-002    4.745770154967988E-004
 -2.480000000000000E-002    4.996376802798032E-004
 -2.470000000000000E-002    5.259025151054381E-004
 -2.460000000000000E-002    5.534227805450632E-004
 -2.450000000000000E-002    5.822514921372026E-004
 -2.440000000000000E-002    6.124442425686243E-004
 -2.430000000000000E-002    6.440587323182689E-004
 -2.420000000000000E-002    6.771553091004312E-004
 -2.410000000000000E-002    7.117960178097812E-004
 -2.400000000000000E-002    7.480455528862272E-004
 -2.390000000000000E-002    7.859703807294631E-004
 -2.380000000000000E-002    8.256386005075657E-004
 -2.370000000000000E-002    8.671203197672699E-004
 -2.360000000000000E-002    9.104873772495079E-004
 -2.350000000000000E-002    9.558132115221183E-004
 -2.340000000000000E-002    1.003173571143808E-003
 -2.330000000000000E-002    1.052645834271518E-003
 -2.320000000000000E-002    1.104310197446801E-003
 -2.310000000000000E-002    1.158249289565079E-003
 -2.300000000000000E-002    1.214548909077268E-003
 -2.290000000000000E-002    1.273297697549143E-003
 -2.280000000000000E-002    1.334587603885674E-003
 -2.270000000000000E-002    1.398513740638121E-003
 -2.260000000000000E-002    1.465174512035861E-003
 -2.250000000000000E-002    1.534671265614543E-003
 -2.240000000000000E-002    1.607108049011394E-003
 -2.230000000000000E-002    1.682592158249780E-003
 -2.220000000000000E-002    1.761233182688153E-003
 -2.210000000000000E-002    1.843143396062068E-003
 -2.200000000000000E-002    1.928437801232145E-003
 -2.190000000000000E-002    2.017234467541119E-003
 -2.180000000000000E-002    2.109653654620242E-003
 -2.170000000000000E-002    2.205820040417527E-003
 -2.160000000000000E-002    2.305859938234913E-003
 -2.150000000000000E-002    2.409904479861384E-003
 -2.140000000000000E-002    2.518087752339821E-003
 -2.130000000000000E-002    2.630547895978704E-003
 -2.120000000000000E-002    2.747426561748407E-003
 -2.110000000000000E-002    2.868868843933081E-003
 -2.100000000000000E-002    2.995024077184748E-003
 -2.090000000000000E-002    3.126043688595228E-003
 -2.080000000000000E-002    3.262083584419000E-003
 -2.070000000000000E-002    3.403301815314209E-003
 -2.060000000000000E-002    3.549859707155074E-003
 -2.050000000000000E-002    3.701920976647345E-003
 -2.040000000000000E-002    3.859652879420367E-003
 -2.030000000000000E-002    4.023224090638851E-003
 -2.020000000000000E-002    4.192808112442752E-003
 -2.010000000000000E-002    4.368580488535582E-003
 -2.000000000000000E-002    4.550720459325660E-003
 -1.990000000000000E-002    4.739410170282901E-003
 -1.980000000000000E-002    4.934835926965224E-003
 -1.970000000000000E-002    5.137186948478323E-003
 -1.960000000000000E-002    5.346655783120536E-003
 -1.950000000000000E-002    5.563438238808908E-003
 -1.940000000000000E-002    5.787733699413529E-003
 -1.930000000000000E-002    6.019743208191698E-003
 -1.920000000000000E-002    6.259671899211887E-003
 -1.910000000000000E-002    6.507726527505578E-003
 -1.900000000000000E-002    6.764117627397854E-003
 -1.890000000000000E-002    7.029056190706343E-003
 -1.880000000000000E-002    7.302756526352414E-003
 -1.870000000000000E-002    7.585435700213058E-003
 -1.860000000000000E-002    7.877311716491722E-003
 -1.850000000000000E-002    8.178605695290936E-003
 -1.840000000000000E-002    8.489541225029004E-003
 -1.830000000000000E-002    8.810344130981185E-003
 -1.820000000000000E-002    9.141243249751994E-003
 -1.810000000000000E-002    9.482465168954721E-003
 -1.800000000000000E-002    9.834243159697872E-003
 -1.790000000000000E-002    1.019680915138576E-002
 -1.780000000000000E-002    1.057039628336108E-002
 -1.770000000000000E-002    1.095523873036399E-002
 -1.760000000000000E-002    1.135157001645781E-002
 -1.750000000000000E-002    1.175962583595408E-002
 -1.740000000000000E-002    1.217963882253684E-002
 -1.730000000000000E-002    1.261184389550190E-002
 -1.720000000000000E-002    1.305647412839396E-002
 -1.710000000000000E-002    1.351375801760098E-002
 -1.700000000000000E-002    1.398392961234667E-002
 -1.690000000000000E-002    1.446721866082566E-002
 -1.680000000000000E-002    1.496385360741330E-002
 -1.670000000000000E-002    1.547406110928445E-002
 -1.660000000000000E-002    1.599806513228726E-002
 -1.650000000000000E-002    1.653608849975638E-002
 -1.640000000000000E-002    1.708835321316085E-002
 -1.630000000000000E-002    1.765507396832978E-002
 -1.620000000000000E-002    1.823646824147142E-002
 -1.610000000000000E-002    1.883274587909206E-002
 -1.600000000000000E-002    1.944411347497776E-002
 -1.590000000000000E-002    2.007077418239713E-002
 -1.580000000000000E-002    2.071292394787148E-002
 -1.570000000000000E-002    2.137075675306532E-002
 -1.560000000000000E-002    2.204446288908554E-002
 -1.550000000000000E-002    2.273422022858022E-002
 -1.540000000000000E-002    2.344020415102321E-002
 -1.530000000000000E-002    2.416258197794317E-002
 -1.520000000000000E-002    2.490151879980374E-002
 -1.510000000000000E-002    2.565716758696016E-002
 -1.500000000000000E-002    2.642967643095043E-002
 -1.490000000000000E-002    2.721918096846181E-002
 -1.480000000000000E-002    2.802580967616814E-002
 -1.470000000000000E-002    2.884968206534438E-002
 -1.460000000000000E-002    2.969090495487605E-002
 -1.450000000000000E-002    3.054957581778879E-002
 -1.440000000000000E-002    3.142578002159326E-002
 -1.430000000000000E-002    3.231959178545690E-002
 -1.420000000000000E-002    3.323107950236397E-002
 -1.410000000000000E-002    3.416028595256445E-002
 -1.400000000000000E-002    3.510725260995501E-002
 -1.390000000000000E-002    3.607200854849882E-002
 -1.380000000000000E-002    3.705455959679525E-002
 -1.370000000000000E-002    3.805490512511953E-002
 -1.360000000000000E-002    3.907302633366997E-002
 -1.350000000000000E-002    4.010888436345594E-002
 -1.340000000000000E-002    4.116243598814488E-002
 -1.330000000000000E-002    4.223361324050771E-002
 -1.320000000000000E-002    4.332233542227003E-002
 -1.310000000000000E-002    4.442849886891850E-002
 -1.300000000000000E-002    4.555198869622377E-002
 -1.290000000000000E-002    4.669266547718116E-002
 -1.280000000000000E-002    4.785037443700423E-002
 -1.270000000000000E-002    4.902493940263108E-002
 -1.260000000000000E-002    5.021616330013077E-002
 -1.250000000000000E-002    5.142383284844259E-002
 -1.240000000000000E-002    5.264771144829781E-002
 -1.230000000000000E-002    5.388754424015345E-002
 -1.220000000000000E-002    5.514306083927258E-002
 -1.210000000000000E-002    5.641395209861967E-002
 -1.200000000000000E-002    5.769989456687805E-002
 -1.190000000000000E-002    5.900055329021701E-002
 -1.180000000000000E-002    6.031555757289305E-002
 -1.170000000000000E-002    6.164451778082655E-002
 -1.160000000000000E-002    6.298700814500693E-002
 -1.150000000000000E-002    6.434259490398259E-002
 -1.140000000000000E-002    6.571081539791127E-002
 -1.130000000000000E-002    6.709118171609477E-002
 -1.120000000000000E-002    6.848317027636247E-002
 -1.110000000000000E-002    6.988625137014984E-002
 -1.100000000000000E-002    7.129985423997257E-002
 -1.090000000000000E-002    7.272338381361042E-002
 -1.080000000000000E-002    7.415622665540053E-002
 -1.070000000000000E-002    7.559774054774501E-002
 -1.060000000000000E-002    7.704726133544257E-002
 -1.050000000000000E-002    7.850408964129521E-002
 -1.040000000000000E-002    7.996749398014205E-002
 -1.030000000000000E-002    8.143673871476112E-002
 -1.020000000000000E-002    8.291104692766789E-002
 -1.010000000000000E-002    8.438961691312430E-002
 -1.000000000000000E-002    8.587163054434864E-002
 -9.899999999999999E-003    8.735621759849463E-002
 -9.800000000000000E-003    8.884250461892527E-002
 -9.699999999999999E-003    9.032958828781587E-002
 -9.599999999999999E-003    9.181653110778443E-002
 -9.500000000000000E-003    9.330238281413010E-002
 -9.399999999999999E-003    9.478615698639468E-002
 -9.299999999999999E-003    9.626684919421602E-002
 -9.200000000000000E-003    9.774342181616855E-002
 -9.099999999999999E-003    9.921482600706596E-002
 -8.999999999999999E-003    0.100679976883836     
 -8.900000000000000E-003    0.102137778479604     
 -8.799999999999999E-003    0.103587102078413     
 -8.699999999999999E-003    0.105026815650384     
 -8.600000000000000E-003    0.106455726784082     
 -8.499999999999999E-003    0.107872649713035     
 -8.399999999999999E-003    0.109276376128180     
 -8.300000000000000E-003    0.110665679252406     
 -8.199999999999999E-003    0.112039298011520     
 -8.100000000000000E-003    0.113395964969583     
 -8.000000000000000E-003    0.114734381628345     
 -7.899999999999999E-003    0.116053257374864     
 -7.800000000000000E-003    0.117351278768078     
 -7.699999999999999E-003    0.118627102206633     
 -7.599999999999999E-003    0.119879382402703     
 -7.499999999999999E-003    0.121106760366283     
 -7.399999999999999E-003    0.122307861933201     
 -7.299999999999999E-003    0.123481311339014     
 -7.199999999999999E-003    0.124625713704187     
 -7.100000000000000E-003    0.125739674453863     
 -6.999999999999999E-003    0.126821783936939     
 -6.899999999999999E-003    0.127870620090831     
 -6.800000000000000E-003    0.128884777400525     
 -6.699999999999999E-003    0.129862824535890     
 -6.599999999999999E-003    0.130803329869084     
 -6.499999999999999E-003    0.131704886820743     
 -6.399999999999999E-003    0.132566059667146     
 -6.299999999999999E-003    0.133385431676005     
 -6.199999999999999E-003    0.134161570153735     
 -6.100000000000000E-003    0.134893090353351     
 -5.999999999999999E-003    0.135578565619378     
 -5.899999999999999E-003    0.136216614617925     
 -5.800000000000000E-003    0.136805839945594     
 -5.699999999999999E-003    0.137344871403634     
 -5.599999999999999E-003    0.137832339472439     
 -5.499999999999999E-003    0.138266894282850     
 -5.399999999999999E-003    0.138647207468090     
 -5.299999999999999E-003    0.138971959144203     
 -5.199999999999999E-003    0.139239861871570     
 -5.099999999999999E-003    0.139449639578489     
 -4.999999999999999E-003    0.139600036608817     
 -4.899999999999999E-003    0.139689839823209     
 -4.799999999999999E-003    0.139717837791059     
 -4.699999999999999E-003    0.139682872903159     
 -4.599999999999999E-003    0.139583793220036     
 -4.499999999999999E-003    0.139419496780423     
 -4.399999999999999E-003    0.139188911239705     
 -4.299999999999999E-003    0.138890981105346     
 -4.199999999999999E-003    0.138524705727318     
 -4.099999999999999E-003    0.138089111381669     
 -3.999999999999999E-003    0.137583271272454     
 -3.899999999999999E-003    0.137006294379932     
 -3.799999999999999E-003    0.136357334273037     
 -3.699999999999999E-003    0.135635581426493     
 -3.599999999999999E-003    0.134840277610375     
 -3.499999999999999E-003    0.133970708462484     
 -3.399999999999999E-003    0.133026222281583     
 -3.299999999999999E-003    0.132006195504968     
 -3.199999999999999E-003    0.130910074540692     
 -3.099999999999999E-003    0.129737358190136     
 -2.999999999999999E-003    0.128487582239607     
 -2.899999999999999E-003    0.127160358233434     
 -2.799999999999999E-003    0.125755347310178     
 -2.699999999999999E-003    0.124272270892172     
 -2.599999999999999E-003    0.122710888963500     
 -2.499999999999999E-003    0.121071039998519     
 -2.399999999999999E-003    0.119352630900842     
 -2.299999999999999E-003    0.117555602866652     
 -2.199999999999999E-003    0.115679987164494     
 -2.099999999999999E-003    0.113725864162761     
 -1.999999999999999E-003    0.111693373589420     
 -1.899999999999999E-003    0.109582740302360     
 -1.799999999999999E-003    0.107394235869279     
 -1.699999999999999E-003    0.105128215213316     
 -1.599999999999999E-003    0.102785080211091     
 -1.499999999999999E-003    0.100365324665183     
 -1.399999999999999E-003    9.786949415306206E-002
 -1.299999999999999E-003    9.529820319043483E-002
 -1.199999999999999E-003    9.265212903982542E-002
 -1.099999999999999E-003    8.993202464167542E-002
 -9.999999999999989E-004    8.713871048594102E-002
 -8.999999999999990E-004    8.427306355994586E-002
 -7.999999999999990E-004    8.133604244315679E-002
 -6.999999999999989E-004    7.832866318234481E-002
 -5.999999999999990E-004    7.525201940006394E-002
 -4.999999999999989E-004    7.210726500939055E-002
 -3.999999999999989E-004    6.889561888508797E-002
 -2.999999999999989E-004    6.561836918738448E-002
 -1.999999999999989E-004    6.227687160102828E-002
 -9.999999999999892E-005    5.887254909483495E-002
  1.084202172485504E-018    5.540687721834990E-002
  1.000000000000011E-004    5.188141042903084E-002
  2.000000000000011E-004    4.829776098867074E-002
  3.000000000000011E-004    4.465759373415050E-002
  4.000000000000011E-004    4.096263914177854E-002
  5.000000000000011E-004    3.721468886806765E-002
  6.000000000000011E-004    3.341559665800936E-002
  7.000000000000011E-004    2.956726086956720E-002
  8.000000000000011E-004    2.567163698125167E-002
  9.000000000000012E-004    2.173074898594152E-002
  1.000000000000001E-003    1.774665083204650E-002
  1.100000000000001E-003    1.372146261552878E-002
  1.200000000000001E-003    9.657339503401842E-003
  1.300000000000001E-003    5.556504553479169E-003
  1.400000000000001E-003    1.421206481248657E-003
  1.500000000000001E-003   -2.746260307900528E-003
  1.600000000000001E-003   -6.943561705441567E-003
  1.700000000000001E-003   -1.116830719871649E-002
  1.800000000000001E-003   -1.541808796219391E-002
  1.900000000000001E-003   -1.969044839118859E-002
  2.000000000000001E-003   -2.398291736116415E-002
  2.100000000000001E-003   -2.829296607712467E-002
  2.200000000000001E-003   -3.261805919354444E-002
  2.300000000000001E-003   -3.695563812907554E-002
  2.400000000000001E-003   -4.130310997643867E-002
  2.500000000000001E-003   -4.565785899398594E-002
  2.600000000000001E-003   -5.001725203850427E-002
  2.700000000000001E-003   -5.437865521294641E-002
  2.800000000000001E-003   -5.873940625422414E-002
  2.900000000000001E-003   -6.309683522902065E-002
  3.000000000000001E-003   -6.744826679047761E-002
  3.100000000000001E-003   -7.179102104090269E-002
  3.200000000000001E-003   -7.612240744495057E-002
  3.300000000000001E-003   -8.043972838669519E-002
  3.400000000000001E-003   -8.474030729377101E-002
  3.500000000000001E-003   -8.902146357433580E-002
  3.600000000000001E-003   -9.328051170278429E-002
  3.700000000000001E-003   -9.751481001807320E-002
  3.800000000000001E-003   -0.101721697704436     
  3.900000000000001E-003   -0.105898529526033     
  4.000000000000001E-003   -0.110042720969590     
  4.100000000000001E-003   -0.114151641326962     
  4.200000000000001E-003   -0.118222737190263     
  4.300000000000001E-003   -0.122253464516340     
  4.400000000000001E-003   -0.126241309899756     
  4.500000000000001E-003   -0.130183773177533     
  4.600000000000002E-003   -0.134078389803277     
  4.700000000000001E-003   -0.137922736036785     
  4.800000000000001E-003   -0.141714433035209     
  4.900000000000002E-003   -0.145451147753748     
  5.000000000000001E-003   -0.149130564899013     
  5.100000000000001E-003   -0.152750427127742     
  5.200000000000001E-003   -0.156308544650262     
  5.300000000000002E-003   -0.159802722844740     
  5.400000000000001E-003   -0.163230899638827     
  5.500000000000001E-003   -0.166590999639153     
  5.600000000000002E-003   -0.169881033873196     
  5.700000000000001E-003   -0.173099052675087     
  5.800000000000001E-003   -0.176243185974008     
  5.900000000000002E-003   -0.179311592355969     
  6.000000000000001E-003   -0.182302539364044     
  6.100000000000001E-003   -0.185214343907729     
  6.200000000000002E-003   -0.188045364069434     
  6.300000000000002E-003   -0.190794025674074     
  6.400000000000001E-003   -0.193458860087305     
  6.500000000000001E-003   -0.196038433838394     
  6.600000000000002E-003   -0.198531376726197     
  6.700000000000001E-003   -0.200936423689564     
  6.800000000000001E-003   -0.203252334416399     
  6.900000000000002E-003   -0.205478004103603     
  7.000000000000001E-003   -0.207612373303015     
  7.100000000000001E-003   -0.209654452777094     
  7.200000000000002E-003   -0.211603352806670     
  7.300000000000002E-003   -0.213458243303402     
  7.400000000000001E-003   -0.215218372107816     
  7.500000000000001E-003   -0.216883045692462     
  7.600000000000002E-003   -0.218451679356510     
  7.700000000000001E-003   -0.219923776844166     
  7.800000000000001E-003   -0.221298868517044     
  7.900000000000001E-003   -0.222576623149582     
  8.000000000000002E-003   -0.223756743528068     
  8.100000000000001E-003   -0.224839013220811     
  8.200000000000001E-003   -0.225823341980909     
  8.300000000000002E-003   -0.226709657335696     
  8.400000000000001E-003   -0.227497985837915     
  8.500000000000002E-003   -0.228188441531856     
  8.600000000000002E-003   -0.228781204141960     
  8.700000000000001E-003   -0.229276533103465     
  8.800000000000002E-003   -0.229674751628448     
  8.900000000000002E-003   -0.229976274158850     
  9.000000000000001E-003   -0.230181592380260     
  9.100000000000002E-003   -0.230291262565199     
  9.200000000000002E-003   -0.230305898037893     
  9.300000000000001E-003   -0.230226180408126     
  9.400000000000002E-003   -0.230052895560618     
  9.500000000000001E-003   -0.229786848563725     
  9.600000000000001E-003   -0.229428955491431     
  9.700000000000002E-003   -0.228980165521544     
  9.800000000000001E-003   -0.228441490581854     
  9.900000000000001E-003   -0.227814032995519     
  1.000000000000000E-002   -0.227098929834814     
  1.010000000000000E-002   -0.226297395365475     
  1.020000000000000E-002   -0.225410679035176     
  1.030000000000000E-002   -0.224440091008450     
  1.040000000000000E-002   -0.223387011892642     
  1.050000000000000E-002   -0.222252860564287     
  1.060000000000000E-002   -0.221039109227924     
  1.070000000000000E-002   -0.219747247365714     
  1.080000000000000E-002   -0.218378867336614     
  1.090000000000000E-002   -0.216935557824031     
  1.100000000000000E-002   -0.215418962818371     
  1.110000000000000E-002   -0.213830769448543     
  1.120000000000000E-002   -0.212172718616408     
  1.130000000000000E-002   -0.210446535986409     
  1.140000000000000E-002   -0.208654011529646     
  1.150000000000000E-002   -0.206796986023567     
  1.160000000000000E-002   -0.204877298959863     
  1.170000000000000E-002   -0.202896820796516     
  1.180000000000000E-002   -0.200857422279540     
  1.190000000000000E-002   -0.198761065729854     
  1.200000000000000E-002   -0.196609675341222     
  1.210000000000000E-002   -0.194405218090408     
  1.220000000000000E-002   -0.192149682280216     
  1.230000000000000E-002   -0.189845056143949     
  1.240000000000000E-002   -0.187493335546236     
  1.250000000000000E-002   -0.185096541674143     
  1.260000000000000E-002   -0.182656684633687     
  1.270000000000000E-002   -0.180175777423168     
  1.280000000000000E-002   -0.177655859135055     
  1.290000000000000E-002   -0.175098948348458     
  1.300000000000000E-002   -0.172507076410246     
  1.310000000000000E-002   -0.169882262669585     
  1.320000000000000E-002   -0.167226533216337     
  1.330000000000000E-002   -0.164541886403753     
  1.340000000000000E-002   -0.161830332082829     
  1.350000000000000E-002   -0.159093870875615     
  1.360000000000000E-002   -0.156334491833591     
  1.370000000000000E-002   -0.153554159157104     
  1.380000000000000E-002   -0.150754829540064     
  1.390000000000000E-002   -0.147938449453245     
  1.400000000000000E-002   -0.145106930190437     
  1.410000000000000E-002   -0.142262173219054     
  1.420000000000000E-002   -0.139406044212792     
  1.430000000000000E-002   -0.136540409675601     
  1.440000000000000E-002   -0.133667091701861     
  1.450000000000000E-002   -0.130787882149405     
  1.460000000000000E-002   -0.127904557991071     
  1.470000000000000E-002   -0.125018864568610     
  1.480000000000000E-002   -0.122132512854311     
  1.490000000000000E-002   -0.119247190112214     
  1.500000000000000E-002   -0.116364545462564     
  1.510000000000000E-002   -0.113486202294841     
  1.520000000000000E-002   -0.110613749399957     
  1.530000000000000E-002   -0.107748737198624     
  1.540000000000000E-002   -0.104892691769261     
  1.550000000000000E-002   -0.102047085676702     
  1.560000000000000E-002   -9.921335999734866E-002
  1.570000000000000E-002   -9.639291810573580E-002
  1.580000000000000E-002   -9.358712529220363E-002
  1.590000000000000E-002   -9.079729938161027E-002
  1.600000000000000E-002   -8.802472903847183E-002
  1.610000000000000E-002   -8.527065585954804E-002
  1.620000000000000E-002   -8.253628931617224E-002
  1.630000000000000E-002   -7.982279046988586E-002
  1.640000000000000E-002   -7.713129053985737E-002
  1.650000000000000E-002   -7.446286080353491E-002
  1.660000000000000E-002   -7.181854755391298E-002
  1.670000000000000E-002   -6.919935476179571E-002
  1.680000000000000E-002   -6.660623711405531E-002
  1.690000000000000E-002   -6.404010633530834E-002
  1.700000000000000E-002   -6.150184230561781E-002
  1.710000000000000E-002   -5.899226866597516E-002
  1.720000000000000E-002   -5.651217154775169E-002
  1.730000000000000E-002   -5.406229715002922E-002
  1.740000000000000E-002   -5.164334432960556E-002
  1.750000000000000E-002   -4.925597125990479E-002
  1.760000000000000E-002   -4.690080299316270E-002
  1.770000000000000E-002   -4.457841707887683E-002
  1.780000000000000E-002   -4.228935357781739E-002
  1.790000000000000E-002   -4.003412370825343E-002
  1.800000000000000E-002   -3.781318410638559E-002
  1.810000000000000E-002   -3.562696668477188E-002
  1.820000000000000E-002   -3.347586093176205E-002
  1.830000000000000E-002   -3.136022006274682E-002
  1.840000000000000E-002   -2.928035708132268E-002
  1.850000000000000E-002   -2.723654929822884E-002
  1.860000000000000E-002   -2.522903268181112E-002
  1.870000000000000E-002   -2.325801355434384E-002