 -4.000000000000000E-002    0.000000000000000E+000
 -3.990000000000000E-002    0.000000000000000E+000
 -3.980000000000000E-002    0.000000000000000E+000
 -3.970000000000000E-002    0.000000000000000E+000
 -3.960000000000000E-002    0.000000000000000E+000
 -3.950000000000000E-002    0.000000000000000E+000
 -3.940000000000000E-002    0.000000000000000E+000
 -3.930000000000000E-002    0.000000000000000E+000
 -3.920000000000000E-002    0.000000000000000E+000
 -3.910000000000000E-002    0.000000000000000E+000
 -3.900000000000000E-002    0.000000000000000E+000
 -3.890000000000000E-002    0.000000000000000E+000
 -3.880000000000000E-002    0.000000000000000E+000
 -3.870000000000000E-002    0.000000000000000E+000
 -3.860000000000000E-002    0.000000000000000E+000
 -3.850000000000000E-002    0.000000000000000E+000
 -3.840000000000000E-002    0.000000000000000E+000
 -3.830000000000000E-002    0.000000000000000E+000
 -3.820000000000000E-002    0.000000000000000E+000
 -3.810000000000000E-002    1.964880529635102E-046
 -3.800000000000000E-002    2.201739959447802E-045
 -3.790000000000000E-002    1.750190459598029E-044
 -3.780000000000000E-002    1.088620114225881E-043
 -3.770000000000000E-002    5.721638789245883E-043
 -3.760000000000000E-002    2.590305752572199E-042
 -3.750000000000000E-002    1.029417501346758E-041
 -3.740000000000000E-002    3.632994573005102E-041
 -3.730000000000000E-002    1.145596042805294E-040
 -3.720000000000000E-002    3.230608591273721E-040
 -3.710000000000000E-002    8.094134396374621E-040
 -3.700000000000000E-002    1.765277030290454E-039
 -3.690000000000000E-002    3.168246609083956E-039
 -3.680000000000000E-002    3.807992953023881E-039
 -3.670000000000000E-002   -1.476251074472010E-039
 -3.660000000000000E-002   -2.837367463252652E-038
 -3.650000000000000E-002   -1.166690928948147E-037
 -3.640000000000000E-002   -3.544712209421965E-037
 -3.630000000000000E-002   -9.144086999513854E-037
 -3.620000000000000E-002   -2.093412684008877E-036
 -3.610000000000000E-002   -4.323405565266029E-036
 -3.600000000000000E-002   -8.071988780536186E-036
 -3.590000000000000E-002   -1.347275081988121E-035
 -3.580000000000000E-002   -1.941867130891582E-035
 -3.570000000000000E-002   -2.175348715510647E-035
 -3.560000000000000E-002   -1.019472713357514E-035
 -3.550000000000000E-002    3.610821329779526E-035
 -3.540000000000000E-002    1.536659381159064E-034
 -3.530000000000000E-002    3.979832847551963E-034
 -3.520000000000000E-002    8.398652406980878E-034
 -3.510000000000000E-002    1.545403335259154E-033
 -3.500000000000000E-002    2.525907447645647E-033
 -3.490000000000000E-002    3.641187762284112E-033
 -3.480000000000000E-002    4.442156604400128E-033
 -3.470000000000000E-002    3.952582231473857E-033
 -3.460000000000000E-002    4.223840149912929E-034
 -3.450000000000000E-002   -8.857108390508022E-033
 -3.440000000000000E-002   -2.749977780291658E-032
 -3.430000000000000E-002   -5.945244330185516E-032
 -3.420000000000000E-002   -1.075271110768913E-031
 -3.410000000000000E-002   -1.706284150520288E-031
 -3.400000000000000E-002   -2.393810902963993E-031
 -3.390000000000000E-002   -2.902305558871305E-031
 -3.380000000000000E-002   -2.788192554541256E-031
 -3.370000000000000E-002   -1.345936052072881E-031
 -3.360000000000000E-002    2.398755807231378E-031
 -3.350000000000000E-002    9.597201641712447E-031
 -3.340000000000000E-002    2.132334745789894E-030
 -3.330000000000000E-002    3.809188129003693E-030
 -3.320000000000000E-002    5.910627390428751E-030
 -3.310000000000000E-002    8.125092476305362E-030
 -3.300000000000000E-002    9.794207440845682E-030
 -3.290000000000000E-002    9.809729994667813E-030
 -3.280000000000000E-002    6.566124609634713E-030
 -3.270000000000000E-002   -1.969699887563055E-030
 -3.260000000000000E-002   -1.799762326526653E-029
 -3.250000000000000E-002   -4.335936693223886E-029
 -3.240000000000000E-002   -7.869869647852518E-029
 -3.230000000000000E-002   -1.223082751082317E-028
 -3.220000000000000E-002   -1.687511764265616E-028
 -3.210000000000000E-002   -2.074639634945313E-028
 -3.200000000000000E-002   -2.216883168324171E-028
 -3.190000000000000E-002   -1.882176062273160E-028
 -3.180000000000000E-002   -7.855098268256906E-029
 -3.170000000000000E-002    1.379186619694212E-028
 -3.160000000000000E-002    4.881347530927714E-028
 -3.150000000000000E-002    9.867008722710480E-028
 -3.140000000000000E-002    1.624363998295491E-027
 -3.130000000000000E-002    2.354277684152249E-027
 -3.120000000000000E-002    3.077377726265055E-027
 -3.110000000000000E-002    3.629039810932465E-027
 -3.100000000000000E-002    3.770142190386491E-027
 -3.090000000000000E-002    3.186690879253122E-027
 -3.080000000000000E-002    1.503274613699351E-027
 -3.070000000000000E-002   -1.683300311722120E-027
 -3.060000000000000E-002   -6.742980199013717E-027
 -3.050000000000000E-002   -1.391664066817302E-026
 -3.040000000000000E-002   -2.317938317529616E-026
 -3.030000000000000E-002   -3.406090439109954E-026
 -3.020000000000000E-002   -4.542925859672940E-026
 -3.010000000000000E-002   -5.525868545325460E-026
 -3.000000000000000E-002   -6.042367391021014E-026
 -2.990000000000000E-002   -5.658968589467699E-026
 -2.980000000000000E-002   -3.830309296283888E-026
 -2.970000000000000E-002    5.880111090931369E-028
 -2.960000000000000E-002    6.603578491532288E-026
 -2.950000000000000E-002    1.622866696255865E-025
 -2.940000000000000E-002    2.897012873775829E-025
 -2.930000000000000E-002    4.419648151814016E-025
 -2.920000000000000E-002    6.029592660242078E-025
 -2.910000000000000E-002    7.438465876260833E-025
 -2.900000000000000E-002    8.212296318795193E-025
 -2.890000000000000E-002    7.775559565896350E-025
 -2.880000000000000E-002    5.451140713708934E-025
 -2.870000000000000E-002    5.492194777410849E-026
 -2.860000000000000E-002   -7.486055102514433E-025
 -2.850000000000000E-002   -1.887207471654971E-024
 -2.840000000000000E-002   -3.323944323889440E-024
 -2.830000000000000E-002   -4.937229585585070E-024
 -2.820000000000000E-002   -6.499060875694716E-024
 -2.810000000000000E-002   -7.664708941997232E-024
 -2.800000000000000E-002   -7.982333329572932E-024
 -2.790000000000000E-002   -6.930819869747568E-024
 -2.780000000000000E-002   -3.991933122735164E-024
 -2.770000000000000E-002    1.241824229472470E-024
 -2.760000000000000E-002    8.929539881648158E-024
 -2.750000000000000E-002    1.882965771438347E-023
 -2.740000000000000E-002    3.015863705165725E-023
 -2.730000000000000E-002    4.149502027552240E-023
 -2.720000000000000E-002    5.076876481831591E-023
 -2.710000000000000E-002    5.537452590853727E-023
 -2.700000000000000E-002    5.243745404556806E-023
 -2.690000000000000E-002    3.923964446547359E-023
 -2.680000000000000E-002    1.378522948654037E-023
 -2.670000000000000E-002   -2.455486953273509E-023
 -2.660000000000000E-002   -7.441552543723519E-023
 -2.650000000000000E-002   -1.319553790341561E-022
 -2.640000000000000E-002   -1.906628965223874E-022
 -2.630000000000000E-002   -2.415826575838856E-022
 -2.620000000000000E-002   -2.740518692714503E-022
 -2.610000000000000E-002   -2.769624128112545E-022
 -2.600000000000000E-002   -2.404630635523832E-022
 -2.590000000000000E-002   -1.579036114603948E-022
 -2.580000000000000E-002   -2.772033222519156E-023
 -2.570000000000000E-002    1.451036349672736E-022
 -2.560000000000000E-002    3.483721437917064E-022
 -2.550000000000000E-002    5.630945026802341E-022
 -2.540000000000000E-002    7.651124407202587E-022
 -2.530000000000000E-002    9.278226526451931E-022
 -2.520000000000000E-002    1.025610972748203E-021
 -2.510000000000000E-002    1.037370065321756E-021
 -2.500000000000000E-002    9.493249135347614E-022
 -2.490000000000000E-002    7.564111074582881E-022
 -2.480000000000000E-002    4.616856056466460E-022
 -2.470000000000000E-002    7.370553451640253E-023
 -2.460000000000000E-002   -3.975615426317872E-022
 -2.450000000000000E-002   -9.450548606052408E-022
 -2.440000000000000E-002   -1.567364887628893E-021
 -2.430000000000000E-002   -2.267876524706081E-021
 -2.420000000000000E-002   -3.048576432605271E-021
 -2.410000000000000E-002   -3.897733767614320E-021
 -2.400000000000000E-002   -4.772266080176289E-021
 -2.390000000000000E-002   -5.577674463961961E-021
 -2.380000000000000E-002   -6.150630943632036E-021
 -2.370000000000000E-002   -6.251061167114341E-021
 -2.360000000000000E-002   -5.571269687829390E-021
 -2.350000000000000E-002   -3.768686194219416E-021
 -2.340000000000000E-002   -5.257484691972230E-022
 -2.330000000000000E-002    4.364771985944433E-021
 -2.320000000000000E-002    1.089759831978036E-020
 -2.310000000000000E-002    1.875211919556014E-020
 -2.300000000000000E-002    2.721175593735111E-020
 -2.290000000000000E-002    3.513234154274786E-020
 -2.280000000000000E-002    4.098555102486136E-020
 -2.270000000000000E-002    4.299657778995666E-020
 -2.260000000000000E-002    3.938176127352902E-020
 -2.250000000000000E-002    2.867257488883326E-020
 -2.240000000000000E-002    1.008972753103698E-020
 -2.230000000000000E-002   -1.609100329282226E-020
 -2.220000000000000E-002   -4.825606367643263E-020
 -2.210000000000000E-002   -8.333499162626019E-020
 -2.200000000000000E-002   -1.169154895020032E-019
 -2.190000000000000E-002   -1.436358034373033E-019
 -2.180000000000000E-002   -1.578531109977981E-019
 -2.170000000000000E-002   -1.545303816542909E-019
 -2.160000000000000E-002   -1.302248380945054E-019
 -2.150000000000000E-002   -8.401107798049489E-020
 -2.140000000000000E-002   -1.814404856391639E-020
 -2.130000000000000E-002    6.172633727009238E-020
 -2.120000000000000E-002    1.469285539376868E-019
 -2.110000000000000E-002    2.267801526389544E-019
 -2.100000000000000E-002    2.901617928362790E-019
 -2.090000000000000E-002    3.274437722052884E-019
 -2.080000000000000E-002    3.324304331381542E-019
 -2.070000000000000E-002    3.039085935573542E-019
 -2.060000000000000E-002    2.463800089474285E-019
 -2.050000000000000E-002    1.696452210213582E-019
 -2.040000000000000E-002    8.709074155211778E-020
 -2.030000000000000E-002    1.279559474774825E-020
 -2.020000000000000E-002   -4.212226625743222E-020
 -2.010000000000000E-002   -7.321439971467925E-020
 -2.000000000000000E-002   -8.556461458814443E-020
 -1.990000000000000E-002   -9.486910292272453E-020
 -1.980000000000000E-002   -1.259663474191771E-019
 -1.970000000000000E-002   -2.084445757705273E-019
 -1.960000000000000E-002   -3.695381755078916E-019
 -1.950000000000000E-002   -6.252202134122010E-019
 -1.940000000000000E-002   -9.710724634485233E-019
 -1.930000000000000E-002   -1.375010874653551E-018
 -1.920000000000000E-002   -1.774106490626406E-018
 -1.910000000000000E-002   -2.077446251634747E-018
 -1.900000000000000E-002   -2.176171549104236E-018
 -1.890000000000000E-002   -1.960564817689046E-018
 -1.880000000000000E-002   -1.342490000185787E-018
 -1.870000000000000E-002   -2.798989055586988E-019
 -1.860000000000000E-002    1.201170062092504E-018
 -1.850000000000000E-002    2.992286238930176E-018
 -1.840000000000000E-002    4.900854013171264E-018
 -1.830000000000000E-002    6.664252243711799E-018
 -1.820000000000000E-002    7.980740596816696E-018
 -1.810000000000000E-002    8.554696837917748E-018
 -1.800000000000000E-002    8.150233717878983E-018
 -1.790000000000000E-002    6.644195495213309E-018
 -1.780000000000000E-002    4.067736188469102E-018
 -1.770000000000000E-002    6.257782685390993E-019
 -1.760000000000000E-002   -3.313917027377851E-018
 -1.750000000000000E-002   -7.265628185780741E-018
 -1.740000000000000E-002   -1.070153453262729E-017
 -1.730000000000000E-002   -1.314831099480359E-017
 -1.720000000000000E-002   -1.428756585685317E-017
 -1.710000000000000E-002   -1.403882664614848E-017
 -1.700000000000000E-002   -1.260307690479572E-017
 -1.690000000000000E-002   -1.044882645082241E-017
 -1.680000000000000E-002   -8.231557979874347E-018
 -1.670000000000000E-002   -6.650286632377775E-018
 -1.660000000000000E-002   -6.259993919489604E-018
 -1.650000000000000E-002   -7.273123283500035E-018
 -1.640000000000000E-002   -9.393789508594288E-018
 -1.630000000000000E-002   -1.173180859770787E-017
 -1.620000000000000E-002   -1.283764017500292E-017
 -1.610000000000000E-002   -1.088311450684576E-017
 -1.600000000000000E-002   -3.987362732125003E-018
 -1.590000000000000E-002    9.343880279699206E-018
 -1.580000000000000E-002    2.972929378106021E-017
 -1.570000000000000E-002    5.646301197560719E-017
 -1.560000000000000E-002    8.720886225562966E-017
 -1.550000000000000E-002    1.179364362290619E-016
 -1.540000000000000E-002    1.431722500001342E-016
 -1.530000000000000E-002    1.565937715131349E-016
 -1.520000000000000E-002    1.519336352955323E-016
 -1.510000000000000E-002    1.240947732382412E-016
 -1.500000000000000E-002    7.031671480830778E-017
 -1.490000000000000E-002   -8.807955897769903E-018
 -1.480000000000000E-002   -1.086786782448981E-016
 -1.470000000000000E-002   -2.205771850989557E-016
 -1.460000000000000E-002   -3.322191219414293E-016
 -1.450000000000000E-002   -4.289817446682347E-016
 -1.440000000000000E-002   -4.957020981703512E-016
 -1.430000000000000E-002   -5.188204212631748E-016
 -1.420000000000000E-002   -4.885489284856395E-016
 -1.410000000000000E-002   -4.006980672386271E-016
 -1.400000000000000E-002   -2.578083874519589E-016
 -1.390000000000000E-002   -6.932228248737202E-017
 -1.380000000000000E-002    1.493203398517930E-016
 -1.370000000000000E-002    3.785871102609571E-016
 -1.360000000000000E-002    5.974806049703273E-016
 -1.350000000000000E-002    7.864391051438438E-016
 -1.340000000000000E-002    9.299595797344354E-016
 -1.330000000000000E-002    1.018393306581059E-015
 -1.320000000000000E-002    1.048482234915055E-015
 -1.310000000000000E-002    1.022435041817963E-015
 -1.300000000000000E-002    9.456500463309076E-016
 -1.290000000000000E-002    8.235287880912981E-016
 -1.280000000000000E-002    6.581168782086376E-016
 -1.270000000000000E-002    4.454896831844524E-016
 -1.260000000000000E-002    1.748055059968361E-016
 -1.250000000000000E-002   -1.702512904484805E-016
 -1.240000000000000E-002   -6.073210575395715E-016
 -1.230000000000000E-002   -1.148760096627141E-015
 -1.220000000000000E-002   -1.793452216503361E-015
 -1.210000000000000E-002   -2.518501769736582E-015
 -1.200000000000000E-002   -3.272671648871090E-015
 -1.190000000000000E-002   -3.973533774874102E-015
 -1.180000000000000E-002   -4.510026553454862E-015
 -1.170000000000000E-002   -4.751442349910463E-015
 -1.160000000000000E-002   -4.562862704221317E-015
 -1.150000000000000E-002   -3.825846132172504E-015
 -1.140000000000000E-002   -2.461949158449054E-015
 -1.130000000000000E-002   -4.556601186116068E-016
 -1.120000000000000E-002    2.127235223806779E-015
 -1.110000000000000E-002    5.129774218101150E-015
 -1.100000000000000E-002    8.305585185775761E-015
 -1.090000000000000E-002    1.133402495798149E-014
 -1.080000000000000E-002    1.384848053904731E-014
 -1.070000000000000E-002    1.547547065283440E-014
 -1.060000000000000E-002    1.588015543730488E-014
 -1.050000000000000E-002    1.481236892296665E-014
 -1.040000000000000E-002    1.214660074175465E-014
 -1.030000000000000E-002    7.909754379739445E-015
 -1.020000000000000E-002    2.291949790913263E-015
 -1.010000000000000E-002   -4.361968501381903E-015
 -1.000000000000000E-002   -1.157963696709728E-014
 -9.899999999999999E-003   -1.880350783615365E-014
 -9.800000000000000E-003   -2.544224083550290E-014
 -9.699999999999999E-003   -3.092361346648218E-014
 -9.599999999999999E-003   -3.474132964875220E-014
 -9.500000000000000E-003   -3.648948121176066E-014
 -9.399999999999999E-003   -3.588121897999944E-014
 -9.299999999999999E-003   -3.275169680635341E-014
 -9.200000000000000E-003   -2.704917119122486E-014
 -9.099999999999999E-003   -1.882111919517308E-014
 -8.999999999999999E-003   -8.203912989891623E-015
 -8.900000000000000E-003    4.575928456325832E-015
 -8.799999999999999E-003    1.918346897174551E-014
 -8.699999999999999E-003    3.513938460211490E-014
 -8.600000000000000E-003    5.177150159943426E-014
 -8.499999999999999E-003    6.816517824053618E-014
 -8.399999999999999E-003    8.312881435064059E-014
 -8.300000000000000E-003    9.519310367221505E-014
 -8.199999999999999E-003    1.026615675459696E-013
 -8.100000000000000E-003    1.037245468974169E-013
 -8.000000000000000E-003    9.663982263403841E-014
 -7.899999999999999E-003    7.997096498851270E-014
 -7.800000000000000E-003    5.286141372716566E-014
 -7.699999999999999E-003    1.531041316581849E-014
 -7.599999999999999E-003   -3.159174272667565E-014
 -7.499999999999999E-003   -8.551434206996021E-014
 -7.399999999999999E-003   -1.428639497298957E-013
 -7.299999999999999E-003   -1.989186532622557E-013
 -7.199999999999999E-003   -2.481302408810311E-013
 -7.100000000000000E-003   -2.845830468416588E-013
 -6.999999999999999E-003   -3.025744674379650E-013
 -6.899999999999999E-003   -2.972604936971797E-013
 -6.800000000000000E-003   -2.652940618881505E-013
 -6.699999999999999E-003   -2.053779296332615E-013
 -6.599999999999999E-003   -1.186575093975084E-013
 -6.499999999999999E-003   -8.894505626000316E-015
 -6.399999999999999E-003    1.176134132802778E-013
 -6.299999999999999E-003    2.523722138415942E-013
 -6.199999999999999E-003    3.852639234505995E-013
 -6.100000000000000E-003    5.052975516666594E-013
 -5.999999999999999E-003    6.014646720978082E-013
 -5.899999999999999E-003    6.636164423235838E-013
 -5.800000000000000E-003    6.832818628339175E-013
 -5.699999999999999E-003    6.543622091169585E-013
 -5.599999999999999E-003    5.736577860032883E-013
 -5.499999999999999E-003    4.412092327572089E-013
 -5.399999999999999E-003    2.604586548747123E-013
 -5.299999999999999E-003    3.825192892262021E-014
 -5.199999999999999E-003   -2.152907467499096E-013
 -5.099999999999999E-003   -4.870160778016864E-013
 -4.999999999999999E-003   -7.610858732098465E-013
 -4.899999999999999E-003   -1.019450906931987E-012
 -4.799999999999999E-003   -1.242487498871297E-012
 -4.699999999999999E-003   -1.409848502409851E-012
 -4.599999999999999E-003   -1.501575468036834E-012
 -4.499999999999999E-003   -1.499496357917790E-012
 -4.399999999999999E-003   -1.388891644946118E-012
 -4.299999999999999E-003   -1.160349982611314E-012
 -4.199999999999999E-003   -8.116682411039222E-013
 -4.099999999999999E-003   -3.495860193625478E-013
 -3.999999999999999E-003    2.089036295883255E-013
 -3.899999999999999E-003    8.359419299754911E-013
 -3.799999999999999E-003    1.493143643231992E-012
 -3.699999999999999E-003    2.133073468647724E-012
 -3.599999999999999E-003    2.701935991632191E-012
 -3.499999999999999E-003    3.143412435576747E-012
 -3.399999999999999E-003    3.403419793916489E-012
 -3.299999999999999E-003    3.435414961289167E-012
 -3.199999999999999E-003    3.205743007585028E-012
 -3.099999999999999E-003    2.698452898977594E-012
 -2.999999999999999E-003    1.918999539938547E-012
 -2.899999999999999E-003    8.963136949618787E-013
 -2.799999999999999E-003   -3.171381279478074E-013
 -2.699999999999999E-003   -1.647490481723554E-012
 -2.599999999999999E-003   -3.003768681117986E-012
 -2.499999999999999E-003   -4.284052307271641E-012
 -2.399999999999999E-003   -5.383030266686291E-012
 -2.299999999999999E-003   -6.200298203760352E-012
 -2.199999999999999E-003   -6.648674297141932E-012
 -2.099999999999999E-003   -6.661804567361448E-012
 -1.999999999999999E-003   -6.200406922664578E-012
 -1.899999999999999E-003   -5.256649336259783E-012
 -1.799999999999999E-003   -3.856344885435871E-012
 -1.699999999999999E-003   -2.058842398342270E-012
 -1.599999999999999E-003    4.531623655333369E-014
 -1.499999999999999E-003    2.338758337601881E-012
 -1.399999999999999E-003    4.683343236509572E-012
 -1.299999999999999E-003    6.927567317584875E-012
 -1.199999999999999E-003    8.914946616491101E-012
 -1.099999999999999E-003    1.049303793554076E-011
 -9.999999999999989E-004    1.152277382572280E-011
 -8.999999999999990E-004    1.188780681320808E-011
 -7.999999999999990E-004    1.150350156740691E-011
 -6.999999999999989E-004    1.032516814449521E-011
 -5.999999999999990E-004    8.354999848467449E-012
 -4.999999999999989E-004    5.647108771197445E-012
 -3.999999999999989E-004    2.309949955558172E-012
 -2.999999999999989E-004   -1.494567027771909E-012
 -1.999999999999989E-004   -5.555885898873555E-012
 -9.999999999999892E-005   -9.623908755165695E-012
  1.084202172485504E-018   -1.342245496762057E-011
  1.000000000000011E-004   -1.666665163430110E-011
  2.000000000000011E-004   -1.908335422443174E-011
  3.000000000000011E-004   -2.043317326092693E-011
  4.000000000000011E-004   -2.053229240775993E-011
  5.000000000000011E-004   -1.927197527526266E-011
  6.000000000000011E-004   -1.663365100549127E-011
  7.000000000000011E-004   -1.269765706645055E-011
  8.000000000000011E-004   -7.644216008196211E-012
  9.000000000000012E-004   -1.745911760675519E-012
  1.000000000000001E-003    4.648219402661592E-012
  1.100000000000001E-003    1.113594379277444E-011
  1.200000000000001E-003    1.729058897171345E-011
  1.300000000000001E-003    2.269276395866565E-011
  1.400000000000001E-003    2.696213069121143E-011
  1.500000000000001E-003    2.978624049167372E-011
  1.600000000000001E-003    3.094375853350527E-011
  1.700000000000001E-003    3.031999425960446E-011
  1.800000000000001E-003    2.791352246373812E-011
  1.900000000000001E-003    2.383363614871860E-011
  2.000000000000001E-003    1.828935503760097E-011
  2.100000000000001E-003    1.157160154749006E-011
  2.200000000000001E-003    4.030703689309642E-012
  2.300000000000001E-003   -3.948275743233189E-012
  2.400000000000001E-003   -1.196989682077532E-011
  2.500000000000001E-003   -1.965029648093059E-011
  2.600000000000001E-003   -2.663516012249947E-011
  2.700000000000001E-003   -3.261288124788556E-011
  2.800000000000001E-003   -3.732281019081228E-011
  2.900000000000001E-003   -4.055910832719976E-011
  3.000000000000001E-003   -4.217120767784925E-011
  3.100000000000001E-003   -4.206208646015860E-011
  3.200000000000001E-003   -4.018563072174267E-011
  3.300000000000001E-003   -3.654405785439489E-011
  3.400000000000001E-003   -3.118613822616116E-011
  3.500000000000001E-003   -2.420651013833068E-011
  3.600000000000001E-003   -1.574604930353929E-011
  3.700000000000001E-003   -5.992976921926087E-012
  3.800000000000001E-003    4.815701344461284E-012
  3.900000000000001E-003    1.639292436887340E-011
  4.000000000000001E-003    2.840081707875704E-011
  4.100000000000001E-003    4.045078484138210E-011
  4.200000000000001E-003    5.210470057116746E-011
  4.300000000000001E-003    6.287754805317246E-011
  4.400000000000001E-003    7.224201712929316E-011
  4.500000000000001E-003    7.963595258683177E-011
  4.600000000000002E-003    8.447380101844495E-011
  4.700000000000001E-003    8.616365521534454E-011
  4.800000000000001E-003    8.413142005113874E-011
  4.900000000000002E-003    7.785357551268349E-011
  5.000000000000001E-003    6.689928684092117E-011
  5.100000000000001E-003    5.098156496593242E-011
  5.200000000000001E-003    3.001560429825671E-011
  5.300000000000002E-003    4.180685254184778E-012
  5.400000000000001E-003   -2.601988629017050E-011
  5.500000000000001E-003   -5.970804893251482E-011
  5.600000000000002E-003   -9.559783802464231E-011
  5.700000000000001E-003   -1.319885284463049E-010
  5.800000000000001E-003   -1.667921477471405E-010
  5.900000000000002E-003   -1.976014776985229E-010
  6.000000000000001E-003   -2.218016396093254E-010
  6.100000000000001E-003   -2.367244070369129E-010
  6.200000000000002E-003   -2.398395484155923E-010
  6.300000000000002E-003   -2.289727219549736E-010
  6.400000000000001E-003   -2.025348506162332E-010
  6.500000000000001E-003   -1.597442490519996E-010
  6.600000000000002E-003   -1.008206158723888E-010
  6.700000000000001E-003   -2.712947385724534E-011
  6.800000000000001E-003    5.874252476212717E-011
  6.900000000000002E-003    1.529974593565887E-010
  7.000000000000001E-003    2.507313599004378E-010
  7.100000000000001E-003    3.461380100367575E-010
  7.200000000000002E-003    4.328064437232889E-010
  7.300000000000002E-003    5.040989554351225E-010
  7.400000000000001E-003    5.535886872611611E-010
  7.500000000000001E-003    5.755291240588195E-010
  7.600000000000002E-003    5.653236465688216E-010
  7.700000000000001E-003    5.199597258878777E-010
  7.800000000000001E-003    4.383734824430301E-010
  7.900000000000001E-003    3.217126112828692E-010
  8.000000000000002E-003    1.734704162139752E-010
  8.100000000000001E-003   -5.279604429348088E-013
  8.200000000000001E-003   -1.922980608170686E-010
  8.300000000000002E-003   -3.920270712257920E-010
  8.400000000000001E-003   -5.885527723583840E-010
  8.500000000000002E-003   -7.699691122175421E-010
  8.600000000000002E-003   -9.243270338916199E-010
  8.700000000000001E-003   -1.040391158407246E-009
  8.800000000000002E-003   -1.108405912516251E-009
  8.900000000000002E-003   -1.120821004417798E-009
  9.000000000000001E-003   -1.072925364498381E-009
  9.100000000000002E-003   -9.633409528953633E-010
  9.200000000000002E-003   -7.943322359670783E-010
  9.300000000000001E-003   -5.718986301008759E-010
  9.400000000000002E-003   -3.056265770295447E-010
  9.500000000000001E-003   -8.295049872047682E-012
  9.600000000000001E-003    3.047563220003688E-010
  9.700000000000002E-003    6.164695436157262E-010
  9.800000000000001E-003    9.090754571949051E-010
  9.900000000000001E-003    1.165206584821334E-009
  1.000000000000000E-002    1.369041653728975E-009
  1.010000000000000E-002    1.507401000193506E-009
  1.020000000000000E-002    1.570708948009859E-009
  1.030000000000000E-002    1.553742007753658E-009
  1.040000000000000E-002    1.456093565925905E-009
  1.050000000000000E-002    1.282302681043264E-009
  1.060000000000000E-002    1.041615224867387E-009
  1.070000000000000E-002    7.473767122738180E-010
  1.080000000000000E-002    4.160813036665498E-010
  1.090000000000000E-002    6.613668146392601E-011
  1.100000000000000E-002   -2.835718729886809E-010
  1.110000000000000E-002   -6.152082752329140E-010
  1.120000000000000E-002   -9.134785797661481E-010
  1.130000000000000E-002   -1.166955905287167E-009
  1.140000000000000E-002   -1.369106610374098E-009
  1.150000000000000E-002   -1.518897877985736E-009
  1.160000000000000E-002   -1.620887776336264E-009
  1.170000000000000E-002   -1.684733760827198E-009
  1.180000000000000E-002   -1.724086762201149E-009
  1.190000000000000E-002   -1.754886324061537E-009
  1.200000000000000E-002   -1.793110965880918E-009
  1.210000000000000E-002   -1.852082810820223E-009
  1.220000000000000E-002   -1.939460345041141E-009
  1.230000000000000E-002   -2.054087996390002E-009
  1.240000000000000E-002   -2.182887987522918E-009
  1.250000000000000E-002   -2.297992739122529E-009
  1.260000000000000E-002   -2.354315764917869E-009
  1.270000000000000E-002   -2.287744005802688E-009
  1.280000000000000E-002   -2.014110797261466E-009
  1.290000000000000E-002   -1.429074985429188E-009
  1.300000000000000E-002   -4.089844452196113E-010
  1.310000000000000E-002    1.187242674830342E-009
  1.320000000000000E-002    3.515248619887041E-009
  1.330000000000000E-002    6.741449179059288E-009
  1.340000000000000E-002    1.103847780654106E-008
  1.350000000000000E-002    1.658004380184384E-008
  1.360000000000000E-002    2.353541298171671E-008
  1.370000000000000E-002    3.206381219768284E-008
  1.380000000000000E-002    4.230901453029670E-008
  1.390000000000000E-002    5.439438529643221E-008
  1.400000000000000E-002    6.841872884292734E-008
  1.410000000000000E-002    8.445309905230185E-008
  1.420000000000000E-002    1.025388908543777E-007
  1.430000000000000E-002    1.226873328986325E-007
  1.440000000000000E-002    1.448804360761977E-007
  1.450000000000000E-002    1.690734997554036E-007
  1.460000000000000E-002    1.951990473489062E-007
  1.470000000000000E-002    2.231721630745065E-007
  1.480000000000000E-002    2.528968403174560E-007
  1.490000000000000E-002    2.842732233165574E-007
  1.500000000000000E-002    3.172053454069145E-007
  1.510000000000000E-002    3.516090456582504E-007
  1.520000000000000E-002    3.874196711594512E-007
  1.530000000000000E-002    4.245991022338664E-007
  1.540000000000000E-002    4.631420383675460E-007
  1.550000000000000E-002    5.030809159359418E-007
  1.560000000000000E-002    5.444895011820307E-007
  1.570000000000000E-002    5.874847428266198E-007
  1.580000000000000E-002    6.322272947972659E-007
  1.590000000000000E-002    6.789199656355274E-007
  1.600000000000000E-002    7.278049148653894E-007
  1.610000000000000E-002    7.791595834174658E-007
  1.620000000000000E-002    8.332910052893555E-007
  1.630000000000000E-002    8.905299147056424E-007
  1.640000000000000E-002    9.512236782638273E-007
  1.650000000000000E-002    1.015729500778045E-006
  1.660000000000000E-002    1.084407784835111E-006
  1.670000000000000E-002    1.157615902155578E-006
  1.680000000000000E-002    1.235702724046309E-006
  1.690000000000000E-002    1.319004470059907E-006
  1.700000000000000E-002    1.407842043347606E-006
  1.710000000000000E-002    1.502519604448714E-006
  1.720000000000000E-002    1.603325057157660E-006
  1.730000000000000E-002    1.710532056388190E-006
  1.740000000000000E-002    1.824403611560826E-006
  1.750000000000000E-002    1.945197040101493E-006
  1.760000000000000E-002    2.073170631576621E-006
  1.770000000000000E-002    2.208590799304533E-006
  1.780000000000000E-002    2.351740010400594E-006
  1.790000000000000E-002    2.502924708963166E-006
  1.800000000000000E-002    2.662483186971149E-006
  1.810000000000000E-002    2.830793413138934E-006
  1.820000000000000E-002    3.008279171969898E-006
  1.830000000000000E-002    3.195415204399471E-006
  1.840000000000000E-002    3.392731131937809E-006
  1.850000000000000E-002    3.600813351552098E-006
  1.860000000000000E-002    3.820305668219742E-006
  1.870000000000000E-002    4.051908668481663E-006