 -4.000000000000000E-002    0.000000000000000E+000
 -3.990000000000000E-002    0.000000000000000E+000
 -3.980000000000000E-002    0.000000000000000E+000
 -3.970000000000000E-002    0.000000000000000E+000
 -3.960000000000000E-002    0.000000000000000E+000
 -3.950000000000000E-002    0.000000000000000E+000
 -3.940000000000000E-002    0.000000000000000E+000
 -3.930000000000000E-002    0.000000000000000E+000
 -3.920000000000000E-002    0.000000000000000E+000
 -3.910000000000000E-002    0.000000000000000E+000
 -3.900000000000000E-002    0.000000000000000E+000
 -3.890000000000000E-002    0.000000000000000E+000
 -3.880000000000000E-002    0.000000000000000E+000
 -3.870000000000000E-002    0.000000000000000E+000
 -3.860000000000000E-002    0.000000000000000E+000
 -3.850000000000000E-002    0.000000000000000E+000
 -3.840000000000000E-002    0.000000000000000E+000
 -3.830000000000000E-002    0.000000000000000E+000
 -3.820000000000000E-002    0.000000000000000E+000
 -3.810000000000000E-002    0.000000000000000E+000
 -3.800000000000000E-002    0.000000000000000E+000
 -3.790000000000000E-002    0.000000000000000E+000
 -3.780000000000000E-002    0.000000000000000E+000
 -3.770000000000000E-002    0.000000000000000E+000
 -3.760000000000000E-002    0.000000000000000E+000
 -3.750000000000000E-002    0.000000000000000E+000
 -3.740000000000000E-002    0.000000000000000E+000
 -3.730000000000000E-002    1.289600815988899E-047
 -3.720000000000000E-002    6.092542686763405E-047
 -3.710000000000000E-002    1.961666686678523E-046
 -3.700000000000000E-002    7.527541902981320E-046
 -3.690000000000000E-002    2.687707360422559E-045
 -3.680000000000000E-002    8.652753513878809E-045
 -3.670000000000000E-002    2.610337709845543E-044
 -3.660000000000000E-002    7.201850118210798E-044
 -3.650000000000000E-002    1.870143687887089E-043
 -3.640000000000000E-002    4.483725258384077E-043
 -3.630000000000000E-002    9.927079463147428E-043
 -3.620000000000000E-002    1.995961183091933E-042
 -3.610000000000000E-002    3.554492202194165E-042
 -3.600000000000000E-002    5.248389115158503E-042
 -3.590000000000000E-002    5.019737683922844E-042
 -3.580000000000000E-002   -3.292805413085881E-042
 -3.570000000000000E-002   -3.467591461481375E-041
 -3.560000000000000E-002   -1.208055863438948E-040
 -3.550000000000000E-002   -3.210197483110054E-040
 -3.540000000000000E-002   -7.334092437305663E-040
 -3.530000000000000E-002   -1.496451107903640E-039
 -3.520000000000000E-002   -2.759462963766779E-039
 -3.510000000000000E-002   -4.581536817022630E-039
 -3.500000000000000E-002   -6.695538351119667E-039
 -3.490000000000000E-002   -8.055271731625264E-039
 -3.480000000000000E-002   -6.090707209114299E-039
 -3.470000000000000E-002    4.334522871893343E-039
 -3.460000000000000E-002    3.208291745778247E-038
 -3.450000000000000E-002    9.047439786396540E-038
 -3.440000000000000E-002    1.964558388892737E-037
 -3.430000000000000E-002    3.662961237500566E-037
 -3.420000000000000E-002    6.051077514660914E-037
 -3.410000000000000E-002    8.871413516882665E-037
 -3.400000000000000E-002    1.124649609890860E-036
 -3.390000000000000E-002    1.126271651245623E-036
 -3.380000000000000E-002    5.525706880990690E-037
 -3.370000000000000E-002   -1.112581948132668E-036
 -3.360000000000000E-002   -4.541087078372748E-036
 -3.350000000000000E-002   -1.044051497203826E-035
 -3.340000000000000E-002   -1.927511895413390E-035
 -3.330000000000000E-002   -3.077575468211871E-035
 -3.320000000000000E-002   -4.322723167028283E-035
 -3.310000000000000E-002   -5.261192038397615E-035
 -3.300000000000000E-002   -5.183785292747033E-035
 -3.290000000000000E-002   -3.047865247604846E-035
 -3.280000000000000E-002    2.434179004296353E-035
 -3.270000000000000E-002    1.251666904252927E-034
 -3.260000000000000E-002    2.788815535521242E-034
 -3.250000000000000E-002    4.787249051955239E-034
 -3.240000000000000E-002    6.946168291224308E-034
 -3.230000000000000E-002    8.645407348545684E-034
 -3.220000000000000E-002    8.919435505190697E-034
 -3.210000000000000E-002    6.562486476824715E-034
 -3.200000000000000E-002    4.450799787320858E-035
 -3.190000000000000E-002   -9.896774205625581E-034
 -3.180000000000000E-002   -2.340531642482303E-033
 -3.170000000000000E-002   -3.651480149722573E-033
 -3.160000000000000E-002   -4.237336861240903E-033
 -3.150000000000000E-002   -3.085943022681926E-033
 -3.140000000000000E-002    9.788085953091090E-034
 -3.130000000000000E-002    8.880398037716020E-033
 -3.120000000000000E-002    2.054713642208148E-032
 -3.110000000000000E-002    3.384062996020287E-032
 -3.100000000000000E-002    4.328915300987138E-032
 -3.090000000000000E-002    3.897060834798314E-032
 -3.080000000000000E-002    6.157846513209514E-033
 -3.070000000000000E-002   -7.338882385399644E-032
 -3.060000000000000E-002   -2.174210093116889E-031
 -3.050000000000000E-002   -4.355009286559547E-031
 -3.040000000000000E-002   -7.171007657987522E-031
 -3.030000000000000E-002   -1.016100384041985E-030
 -3.020000000000000E-002   -1.234081289601930E-030
 -3.010000000000000E-002   -1.207262388619020E-030
 -3.000000000000000E-002   -7.046883710350660E-031
 -2.990000000000000E-002    5.523173983543458E-031
 -2.980000000000000E-002    2.838453307595678E-030
 -2.970000000000000E-002    6.331352461307610E-030
 -2.960000000000000E-002    1.097413573411415E-029
 -2.950000000000000E-002    1.630220984462685E-029
 -2.940000000000000E-002    2.126028956591568E-029
 -2.930000000000000E-002    2.405737174961922E-029
 -2.920000000000000E-002    2.213004397165875E-029
 -2.910000000000000E-002    1.230199227925110E-029
 -2.900000000000000E-002   -8.768779244035397E-030
 -2.890000000000000E-002   -4.378349114281322E-029
 -2.880000000000000E-002   -9.361837056425410E-029
 -2.870000000000000E-002   -1.558359488859789E-028
 -2.860000000000000E-002   -2.230935627135602E-028
 -2.850000000000000E-002   -2.818030088053821E-028
 -2.840000000000000E-002   -3.115442570291117E-028
 -2.830000000000000E-002   -2.858390080526554E-028
 -2.820000000000000E-002   -1.748959601153768E-028
 -2.810000000000000E-002    4.920960012634609E-029
 -2.800000000000000E-002    4.048058494904600E-028
 -2.790000000000000E-002    8.907906396222926E-028
 -2.780000000000000E-002    1.475888458547192E-027
 -2.770000000000000E-002    2.089031552994738E-027
 -2.760000000000000E-002    2.613670204477434E-027
 -2.750000000000000E-002    2.889288819528932E-027
 -2.740000000000000E-002    2.723338547513343E-027
 -2.730000000000000E-002    1.915934051535233E-027
 -2.720000000000000E-002    2.978718653816407E-028
 -2.710000000000000E-002   -2.220189538373716E-027
 -2.700000000000000E-002   -5.592938607434036E-027
 -2.690000000000000E-002   -9.589111896923166E-027
 -2.680000000000000E-002   -1.375574620286815E-026
 -2.670000000000000E-002   -1.741144787450484E-026
 -2.660000000000000E-002   -1.968112147338207E-026
 -2.650000000000000E-002   -1.958041263175859E-026
 -2.640000000000000E-002   -1.615062387255591E-026
 -2.630000000000000E-002   -8.634721106453906E-027
 -2.620000000000000E-002    3.326440500631853E-027
 -2.610000000000000E-002    1.950886140488769E-026
 -2.600000000000000E-002    3.896872667645200E-026
 -2.590000000000000E-002    5.999153780367760E-026
 -2.580000000000000E-002    8.015504114867320E-026
 -2.570000000000000E-002    9.651543011244468E-026
 -2.560000000000000E-002    1.059006945537899E-025
 -2.550000000000000E-002    1.052667667527875E-025
 -2.540000000000000E-002    9.204925625132141E-026
 -2.530000000000000E-002    6.443350974167080E-026
 -2.520000000000000E-002    2.147839514997230E-026
 -2.510000000000000E-002   -3.693258578964188E-026
 -2.500000000000000E-002   -1.102752995667698E-025
 -2.490000000000000E-002   -1.975876933282294E-025
 -2.480000000000000E-002   -2.974998509765423E-025
 -2.470000000000000E-002   -4.078565881877175E-025
 -2.460000000000000E-002   -5.247154678219435E-025
 -2.450000000000000E-002   -6.406114033350601E-025
 -2.440000000000000E-002   -7.421883449634845E-025
 -2.430000000000000E-002   -8.076016441462989E-025
 -2.420000000000000E-002   -8.044473042630994E-025
 -2.410000000000000E-002   -6.893038551085478E-025
 -2.400000000000000E-002   -4.101647533755310E-025
 -2.390000000000000E-002    8.701650189407848E-026
 -2.380000000000000E-002    8.468720553937306E-025
 -2.370000000000000E-002    1.888312648489437E-024
 -2.360000000000000E-002    3.184687356742265E-024
 -2.350000000000000E-002    4.643288594935968E-024
 -2.340000000000000E-002    6.088665516016464E-024
 -2.330000000000000E-002    7.255444887810273E-024
 -2.320000000000000E-002    7.796830814216134E-024
 -2.310000000000000E-002    7.314175480824122E-024
 -2.300000000000000E-002    5.410715404871121E-024
 -2.290000000000000E-002    1.768608057940334E-024
 -2.280000000000000E-002   -3.756923889249040E-024
 -2.270000000000000E-002   -1.103856049246192E-023
 -2.260000000000000E-002   -1.959088651178976E-023
 -2.250000000000000E-002   -2.851925266952830E-023
 -2.240000000000000E-002   -3.652605566262411E-023
 -2.230000000000000E-002   -4.199325685939501E-023
 -2.220000000000000E-002   -4.315103406580911E-023
 -2.210000000000000E-002   -3.832866642972928E-023
 -2.200000000000000E-002   -2.626643788907698E-023
 -2.190000000000000E-002   -6.449021922387931E-024
 -2.180000000000000E-002    2.059461277985214E-023
 -2.170000000000000E-002    5.308861196586478E-023
 -2.160000000000000E-002    8.796680509756570E-023
 -2.150000000000000E-002    1.210353809844707E-022
 -2.140000000000000E-002    1.473599731912357E-022
 -2.130000000000000E-002    1.618561511783678E-022
 -2.120000000000000E-002    1.600174228213730E-022
 -2.110000000000000E-002    1.386742416953400E-022
 -2.100000000000000E-002    9.664911468089662E-023
 -2.090000000000000E-002    3.516908470679736E-023
 -2.080000000000000E-002   -4.207770425443007E-023
 -2.070000000000000E-002   -1.292970187992146E-022
 -2.060000000000000E-002   -2.193267671174172E-022
 -2.050000000000000E-002   -3.046336833566194E-022
 -2.040000000000000E-002   -3.783544799777420E-022
 -2.030000000000000E-002   -4.351116082437077E-022
 -2.020000000000000E-002   -4.713337021953922E-022
 -2.010000000000000E-002   -4.848845521172563E-022
 -2.000000000000000E-002   -4.739553909788716E-022
 -1.990000000000000E-002   -4.353894287609487E-022
 -1.980000000000000E-002   -3.628482884089132E-022
 -1.970000000000000E-002   -2.454452638851790E-022
 -1.960000000000000E-002   -6.759253076888445E-023
 -1.950000000000000E-002    1.892225028363824E-022
 -1.940000000000000E-002    5.422535495990490E-022
 -1.930000000000000E-002    1.000879899969901E-021
 -1.920000000000000E-002    1.558168852259585E-021
 -1.910000000000000E-002    2.181957772271937E-021
 -1.900000000000000E-002    2.807473778011178E-021
 -1.890000000000000E-002    3.333966548439999E-021
 -1.880000000000000E-002    3.627870313982466E-021
 -1.870000000000000E-002    3.534499117134064E-021
 -1.860000000000000E-002    2.899134610939578E-021
 -1.850000000000000E-002    1.596643123417107E-021
 -1.840000000000000E-002   -4.333570344498112E-022
 -1.830000000000000E-002   -3.150919223508242E-021
 -1.820000000000000E-002   -6.386699339136391E-021
 -1.810000000000000E-002   -9.827195999990637E-021
 -1.800000000000000E-002   -1.302164127127978E-020
 -1.790000000000000E-002   -1.541582068041732E-020
 -1.780000000000000E-002   -1.641435731364677E-020
 -1.770000000000000E-002   -1.546794282603953E-020
 -1.760000000000000E-002   -1.217623306572342E-020
 -1.750000000000000E-002   -6.391770965069603E-021
 -1.740000000000000E-002    1.693649392043584E-021
 -1.730000000000000E-002    1.149995981751908E-020
 -1.720000000000000E-002    2.206455794214430E-020
 -1.710000000000000E-002    3.211392831792226E-020
 -1.700000000000000E-002    4.020227461299174E-020
 -1.690000000000000E-002    4.490592292367004E-020
 -1.680000000000000E-002    4.504932323527854E-020
 -1.670000000000000E-002    3.992754917730890E-020
 -1.660000000000000E-002    2.948397313532149E-020
 -1.650000000000000E-002    1.440259304191266E-020
 -1.640000000000000E-002   -3.916518674032732E-021
 -1.630000000000000E-002   -2.351277051941371E-020
 -1.620000000000000E-002   -4.214192303673490E-020
 -1.610000000000000E-002   -5.763812854414391E-020
 -1.600000000000000E-002   -6.830041460592943E-020
 -1.590000000000000E-002   -7.322660259452143E-020
 -1.580000000000000E-002   -7.251399474975696E-020
 -1.570000000000000E-002   -6.725967023369973E-020
 -1.560000000000000E-002   -5.932399444740596E-020
 -1.550000000000000E-002   -5.086672878361731E-020
 -1.540000000000000E-002   -4.371904117806103E-020
 -1.530000000000000E-002   -3.870695900976709E-020
 -1.520000000000000E-002   -3.508085442746932E-020
 -1.510000000000000E-002   -3.021924996827643E-020
 -1.500000000000000E-002   -1.975509210641656E-020
 -1.490000000000000E-002    1.785158769722761E-021
 -1.480000000000000E-002    3.983174268890067E-020
 -1.470000000000000E-002    9.822780935188643E-020
 -1.460000000000000E-002    1.775273542239211E-019
 -1.450000000000000E-002    2.734682957833262E-019
 -1.440000000000000E-002    3.760060975571806E-019
 -1.430000000000000E-002    4.692773916527682E-019
 -1.420000000000000E-002    5.327661715524436E-019
 -1.410000000000000E-002    5.437689027330028E-019
 -1.400000000000000E-002    4.810175578356307E-019
 -1.390000000000000E-002    3.290527130976566E-019
 -1.380000000000000E-002    8.269525064584781E-020
 -1.370000000000000E-002   -2.492100596323892E-019
 -1.360000000000000E-002   -6.416521458724742E-019
 -1.350000000000000E-002   -1.053676153619733E-018
 -1.340000000000000E-002   -1.431452376876630E-018
 -1.330000000000000E-002   -1.714240298875707E-018
 -1.320000000000000E-002   -1.842763775681632E-018
 -1.310000000000000E-002   -1.768973442145285E-018
 -1.300000000000000E-002   -1.465716101543334E-018
 -1.290000000000000E-002   -9.345730521221559E-019
 -1.280000000000000E-002   -2.101545105404709E-019
 -1.270000000000000E-002    6.405056441635674E-019
 -1.260000000000000E-002    1.524137104605587E-018
 -1.250000000000000E-002    2.332754375667606E-018
 -1.240000000000000E-002    2.959224624738514E-018
 -1.230000000000000E-002    3.314626033748064E-018
 -1.220000000000000E-002    3.344437260366719E-018
 -1.210000000000000E-002    3.040360691897537E-018
 -1.200000000000000E-002    2.444920255971782E-018
 -1.190000000000000E-002    1.646932719492416E-018
 -1.180000000000000E-002    7.674540339480202E-019
 -1.170000000000000E-002   -6.237131433077263E-020
 -1.160000000000000E-002   -7.282688719239419E-019
 -1.150000000000000E-002   -1.159783519750114E-018
 -1.140000000000000E-002   -1.351577901099150E-018
 -1.130000000000000E-002   -1.373593659390461E-018
 -1.120000000000000E-002   -1.365882243002048E-018
 -1.110000000000000E-002   -1.516268861995103E-018
 -1.100000000000000E-002   -2.022187642841969E-018
 -1.090000000000000E-002   -3.041492402117368E-018
 -1.080000000000000E-002   -4.640233774135264E-018
 -1.070000000000000E-002   -6.747545672729521E-018
 -1.060000000000000E-002   -9.128402614866614E-018
 -1.050000000000000E-002   -1.138358058195854E-017
 -1.040000000000000E-002   -1.298270800208135E-017
 -1.030000000000000E-002   -1.333106350355088E-017
 -1.020000000000000E-002   -1.186450063922100E-017
 -1.010000000000000E-002   -8.160567581865556E-018
 -1.000000000000000E-002   -2.048709995245331E-018
 -9.899999999999999E-003    6.300387583346335E-018
 -9.800000000000000E-003    1.632594185350897E-017
 -9.699999999999999E-003    2.708420653983913E-017
 -9.599999999999999E-003    3.731974145389506E-017
 -9.500000000000000E-003    4.559870448104312E-017
 -9.399999999999999E-003    5.049098591425738E-017
 -9.299999999999999E-003    5.077754514384918E-017
 -9.200000000000000E-003    4.565181571252075E-017
 -9.099999999999999E-003    3.488129539639533E-017
 -8.999999999999999E-003    1.889817379294266E-017
 -8.900000000000000E-003   -1.202776786290131E-018
 -8.799999999999999E-003   -2.376688519504825E-017
 -8.699999999999999E-003   -4.677332454933762E-017
 -8.600000000000000E-003   -6.809276450271804E-017
 -8.499999999999999E-003   -8.576753554097816E-017
 -8.399999999999999E-003   -9.826472161157102E-017
 -8.300000000000000E-003   -1.046534292427704E-016
 -8.199999999999999E-003   -1.046676174401841E-016
 -8.100000000000000E-003   -9.863603628846792E-017
 -8.000000000000000E-003   -8.728627749293039E-017
 -7.899999999999999E-003   -7.145839504741215E-017
 -7.800000000000000E-003   -5.178873318417488E-017
 -7.699999999999999E-003   -2.844040050471362E-017
 -7.599999999999999E-003   -9.599265257774606E-019
 -7.499999999999999E-003    3.167405815812402E-017
 -7.399999999999999E-003    7.077420305887662E-017
 -7.299999999999999E-003    1.174475268858797E-016
 -7.199999999999999E-003    1.719351817957376E-016
 -7.100000000000000E-003    2.328958835259757E-016
 -6.999999999999999E-003    2.967764447524307E-016
 -6.899999999999999E-003    3.574300676009013E-016
 -6.800000000000000E-003    4.061331289259511E-016
 -6.699999999999999E-003    4.321097286770619E-016
 -6.599999999999999E-003    4.236046448125622E-016
 -6.499999999999999E-003    3.694560341006288E-016
 -6.399999999999999E-003    2.610209436771730E-016
 -6.299999999999999E-003    9.421637985172151E-017
 -6.199999999999999E-003   -1.286260083889484E-016
 -6.100000000000000E-003   -3.974213959963768E-016
 -5.999999999999999E-003   -6.938151219617583E-016
 -5.899999999999999E-003   -9.917167810170587E-016
 -5.800000000000000E-003   -1.258993413392465E-015
 -5.699999999999999E-003   -1.460269430259064E-015
 -5.599999999999999E-003   -1.560616206032063E-015
 -5.499999999999999E-003   -1.529755769880888E-015
 -5.399999999999999E-003   -1.346289566886034E-015
 -5.299999999999999E-003   -1.001406259331626E-015
 -5.199999999999999E-003   -5.015486127852945E-016
 -5.099999999999999E-003    1.303860899187069E-016
 -4.999999999999999E-003    8.555653387855603E-016
 -4.899999999999999E-003    1.621502655927709E-015
 -4.799999999999999E-003    2.365914964011779E-015
 -4.699999999999999E-003    3.021758470373679E-015
 -4.599999999999999E-003    3.522897404714847E-015
 -4.499999999999999E-003    3.809796618298418E-015
 -4.399999999999999E-003    3.834636379095802E-015
 -4.299999999999999E-003    3.565381872648973E-015
 -4.199999999999999E-003    2.988519787625126E-015
 -4.099999999999999E-003    2.110395720630136E-015
 -3.999999999999999E-003    9.572996652597558E-016
 -3.899999999999999E-003   -4.253858110693802E-016
 -3.799999999999999E-003   -1.974601931209351E-015
 -3.699999999999999E-003   -3.611256175325151E-015
 -3.599999999999999E-003   -5.241906206789439E-015
 -3.499999999999999E-003   -6.760539829013044E-015
 -3.399999999999999E-003   -8.050769907807394E-015
 -3.299999999999999E-003   -8.989001739767983E-015
 -3.199999999999999E-003   -9.449256558525109E-015
 -3.099999999999999E-003   -9.310317872592875E-015
 -2.999999999999999E-003   -8.465631219212605E-015
 -2.899999999999999E-003   -6.835948884486758E-015
 -2.799999999999999E-003   -4.384122050696260E-015
 -2.699999999999999E-003   -1.130740273592155E-015
 -2.599999999999999E-003    2.831331197144525E-015
 -2.499999999999999E-003    7.325988730041227E-015
 -2.399999999999999E-003    1.208917141861831E-014
 -2.299999999999999E-003    1.677290680936963E-014
 -2.199999999999999E-003    2.096004157379551E-014
 -2.099999999999999E-003    2.419043742583189E-014
 -1.999999999999999E-003    2.599818281858510E-014
 -1.899999999999999E-003    2.595754158566851E-014
 -1.799999999999999E-003    2.373397334145977E-014
 -1.699999999999999E-003    1.913504729373219E-014
 -1.599999999999999E-003    1.215530139171039E-014
 -1.499999999999999E-003    3.008832884966148E-015
 -1.399999999999999E-003   -7.855952441995298E-015
 -1.299999999999999E-003   -1.976366834986827E-014
 -1.199999999999999E-003   -3.184349719925552E-014
 -1.099999999999999E-003   -4.308449586202576E-014
 -9.999999999999989E-004   -5.241151697115455E-014
 -8.999999999999990E-004   -5.877600699444820E-014
 -7.999999999999990E-004   -6.125366861889205E-014
 -6.999999999999989E-004   -5.914008759159603E-014
 -5.999999999999990E-004   -5.203470766758885E-014
 -4.999999999999989E-004   -3.990462576106550E-014
 -3.999999999999989E-004   -2.312121515406593E-014
 -2.999999999999989E-004   -2.465289226605720E-015
 -1.999999999999989E-004    2.090078670014934E-014
 -9.999999999999892E-005    4.549238718444974E-014
  1.084202172485504E-018    6.958924934859484E-014
  1.000000000000011E-004    9.134313256282710E-014
  2.000000000000011E-004    1.088992697416714E-013
  3.000000000000011E-004    1.205236138644108E-013
  4.000000000000011E-004    1.247286253023946E-013
  5.000000000000011E-004    1.203909306223481E-013
  6.000000000000011E-004    1.068554650794604E-013
  7.000000000000011E-004    8.402114666582185E-014
  8.000000000000011E-004    5.240408140655675E-014
  9.000000000000012E-004    1.317391354313354E-014
  1.000000000000001E-003   -3.184129583586883E-014
  1.100000000000001E-003   -8.018689403881659E-014
  1.200000000000001E-003   -1.288560127521414E-013
  1.300000000000001E-003   -1.744110135251849E-013
  1.400000000000001E-003   -2.131561125165962E-013
  1.500000000000001E-003   -2.413602509375727E-013
  1.600000000000001E-003   -2.555260476331312E-013
  1.700000000000001E-003   -2.526927488988107E-013
  1.800000000000001E-003   -2.307545167372097E-013
  1.900000000000001E-003   -1.887685803081260E-013
  2.000000000000001E-003   -1.272214149694550E-013
  2.100000000000001E-003   -4.821834321912776E-014
  2.200000000000001E-003    4.443744869906525E-014
  2.300000000000001E-003    1.453057864674012E-013
  2.400000000000001E-003    2.475291528353897E-013
  2.500000000000001E-003    3.432175239999727E-013
  2.600000000000001E-003    4.239855377503075E-013
  2.700000000000001E-003    4.816127110567745E-013
  2.800000000000001E-003    5.087779246229785E-013
  2.900000000000001E-003    4.998060116141686E-013
  3.000000000000001E-003    4.513544748574930E-013
  3.100000000000001E-003    3.629660264456505E-013
  3.200000000000001E-003    2.374190784151633E-013
  3.300000000000001E-003    8.082212349169688E-014
  3.400000000000001E-003   -9.757992493920019E-014
  3.500000000000001E-003   -2.858955677014552E-013
  3.600000000000001E-003   -4.703475262571083E-013
  3.700000000000001E-003   -6.362569235763349E-013
  3.800000000000001E-003   -7.691748344116759E-013
  3.900000000000001E-003   -8.560700187995953E-013
  4.000000000000001E-003   -8.864740468634382E-013
  4.100000000000001E-003   -8.534838830633257E-013
  4.200000000000001E-003   -7.545348404065516E-013
  4.300000000000001E-003   -5.918741335727700E-013
  4.400000000000001E-003   -3.726897228931144E-013
  4.500000000000001E-003   -1.088759111275394E-013
  4.600000000000002E-003    1.835552733109696E-013
  4.700000000000001E-003    4.853829024671447E-013
  4.800000000000001E-003    7.753523897598008E-013
  4.900000000000002E-003    1.031549653816918E-012
  5.000000000000001E-003    1.232889529962051E-012
  5.100000000000001E-003    1.360640032850598E-012
  5.200000000000001E-003    1.399888899993779E-012
  5.300000000000002E-003    1.340868543571016E-012
  5.400000000000001E-003    1.180050640731571E-012
  5.500000000000001E-003    9.209271503118747E-013
  5.600000000000002E-003    5.743994311529617E-013
  5.700000000000001E-003    1.587040932364097E-013
  5.800000000000001E-003   -3.011785964116666E-013
  5.900000000000002E-003   -7.746648002979445E-013
  6.000000000000001E-003   -1.227258222893509E-012
  6.100000000000001E-003   -1.622744926305225E-012
  6.200000000000002E-003   -1.925805088771002E-012
  6.300000000000002E-003   -2.104887927054826E-012
  6.400000000000001E-003   -2.135156442588835E-012
  6.500000000000001E-003   -2.001254812720224E-012
  6.600000000000002E-003   -1.699629081663931E-012
  6.700000000000001E-003   -1.240127094754704E-012
  6.800000000000001E-003   -6.466280136300047E-013
  6.900000000000002E-003    4.348895337819113E-014
  7.000000000000001E-003    7.811418694917032E-013
  7.100000000000001E-003    1.508600288259029E-012
  7.200000000000002E-003    2.163662564324151E-012
  7.300000000000002E-003    2.684686889453115E-012
  7.400000000000001E-003    3.016097385689880E-012
  7.500000000000001E-003    3.113887432744267E-012
  7.600000000000002E-003    2.950605846604899E-012
  7.700000000000001E-003    2.519298050775730E-012
  7.800000000000001E-003    1.835940755030296E-012
  7.900000000000001E-003    9.400128357695616E-013
  8.000000000000002E-003   -1.070029949237303E-013
  8.100000000000001E-003   -1.225211094978682E-012
  8.200000000000001E-003   -2.321805219725864E-012
  8.300000000000002E-003   -3.298132242179983E-012
  8.400000000000001E-003   -4.057777910147595E-012
  8.500000000000002E-003   -4.515041097080944E-012
  8.600000000000002E-003   -4.603085247626041E-012
  8.700000000000001E-003   -4.281058640865974E-012
  8.800000000000002E-003   -3.539538154970026E-012
  8.900000000000002E-003   -2.403767948466605E-012
  9.000000000000001E-003   -9.343143523233728E-013
  9.100000000000002E-003    7.750291139508793E-013
  9.200000000000002E-003    2.602080432670910E-012
  9.300000000000001E-003    4.403621490059200E-012
  9.400000000000002E-003    6.024865105936285E-012
  9.500000000000001E-003    7.310474956693280E-012
  9.600000000000001E-003    8.116461897056481E-012
  9.700000000000002E-003    8.322190502791569E-012
  9.800000000000001E-003    7.841689251555613E-012
  9.900000000000001E-003    6.633448645431527E-012
  1.000000000000000E-002    4.707933855538075E-012
  1.010000000000000E-002    2.132108609175051E-012
  1.020000000000000E-002   -9.696208693211314E-013
  1.030000000000000E-002   -4.418438099176956E-012
  1.040000000000000E-002   -7.988378709517310E-012
  1.050000000000000E-002   -1.141773730212888E-011
  1.060000000000000E-002   -1.442433021969613E-011
  1.070000000000000E-002   -1.672395376680788E-011
  1.080000000000000E-002   -1.805110246443436E-011
  1.090000000000000E-002   -1.818067788750950E-011
  1.100000000000000E-002   -1.694922098424666E-011
  1.110000000000000E-002   -1.427399156468122E-011
  1.120000000000000E-002   -1.016821070927227E-011
  1.130000000000000E-002   -4.750875736527463E-012
  1.140000000000000E-002    1.750260758551079E-012
  1.150000000000000E-002    9.003419790475066E-012
  1.160000000000000E-002    1.658578508801545E-011
  1.170000000000000E-002    2.400446774173893E-011
  1.180000000000000E-002    3.072462837289943E-011
  1.190000000000000E-002    3.620324066396852E-011
  1.200000000000000E-002    3.992637020915203E-011
  1.210000000000000E-002    4.144743928465747E-011
  1.220000000000000E-002    4.042366413102004E-011
  1.230000000000000E-002    3.664783149155980E-011
  1.240000000000000E-002    3.007283378164333E-011
  1.250000000000000E-002    2.082673381429380E-011
  1.260000000000000E-002    9.216959323444151E-012
  1.270000000000000E-002   -4.277321107210919E-012
  1.280000000000000E-002   -1.902421492618391E-011
  1.290000000000000E-002   -3.426881509935918E-011
  1.300000000000000E-002   -4.917166322176284E-011
  1.310000000000000E-002   -6.285362239462838E-011
  1.320000000000000E-002   -7.444435082615565E-011
  1.330000000000000E-002   -8.313129964867427E-011
  1.340000000000000E-002   -8.820629194504205E-011
  1.350000000000000E-002   -8.910683869916543E-011
  1.360000000000000E-002   -8.544998772355418E-011
  1.370000000000000E-002   -7.705682778891101E-011
  1.380000000000000E-002   -6.396667385346663E-011
  1.390000000000000E-002   -4.644040132572643E-011
  1.400000000000000E-002   -2.495327425979802E-011
  1.410000000000000E-002   -1.780419357251069E-013
  1.420000000000000E-002    2.704043749277642E-011
  1.430000000000000E-002    5.571719962582383E-011
  1.440000000000000E-002    8.476401905389626E-011
  1.450000000000000E-002    1.130289374410570E-010
  1.460000000000000E-002    1.393364601465961E-010
  1.470000000000000E-002    1.625264450300042E-010
  1.480000000000000E-002    1.814900360173236E-010
  1.490000000000000E-002    1.952012369538846E-010
  1.500000000000000E-002    2.027431774250847E-010
  1.510000000000000E-002    2.033288974703274E-010
  1.520000000000000E-002    1.963165371250256E-010
  1.530000000000000E-002    1.812200154372252E-010
  1.540000000000000E-002    1.577164190013494E-010
  1.550000000000000E-002    1.256522352997944E-010
  1.560000000000000E-002    8.505041677354026E-011
  1.570000000000000E-002    3.612068211380605E-011
  1.580000000000000E-002   -2.072447012253190E-011
  1.590000000000000E-002   -8.484676704089968E-011
  1.600000000000000E-002   -1.553509370161249E-010
  1.610000000000000E-002   -2.310458288650186E-010
  1.620000000000000E-002   -3.103994749771430E-010
  1.630000000000000E-002   -3.914914875121934E-010
  1.640000000000000E-002   -4.719676066646845E-010
  1.650000000000000E-002   -5.490030944970843E-010
  1.660000000000000E-002   -6.192821611800254E-010
  1.670000000000000E-002   -6.790019363021178E-010
  1.680000000000000E-002   -7.239093345495883E-010
  1.690000000000000E-002   -7.493783071980274E-010
  1.700000000000000E-002   -7.505337564925122E-010
  1.710000000000000E-002   -7.224263118727250E-010
  1.720000000000000E-002   -6.602591427975983E-010
  1.730000000000000E-002   -5.596642278845517E-010
  1.740000000000000E-002   -4.170230293715945E-010
  1.750000000000000E-002   -2.298207274502562E-010
  1.760000000000000E-002    2.978593851796068E-012
  1.770000000000000E-002    2.805539146303069E-010
  1.780000000000000E-002    5.998653937910365E-010
  1.790000000000000E-002    9.553318004633988E-010
  1.800000000000000E-002    1.338571143681762E-009
  1.810000000000000E-002    1.738228095624473E-009
  1.820000000000000E-002    2.139913279765216E-009
  1.830000000000000E-002    2.526275988061265E-009
  1.840000000000000E-002    2.877231448767608E-009
  1.850000000000000E-002    3.170358127167603E-009
  1.860000000000000E-002    3.381477598127454E-009
  1.870000000000000E-002    3.485423167997282E-009