 -4.000000000000000E-002    0.000000000000000E+000
 -3.990000000000000E-002    0.000000000000000E+000
 -3.980000000000000E-002    0.000000000000000E+000
 -3.970000000000000E-002    0.000000000000000E+000
 -3.960000000000000E-002    1.725583894584386E-019
 -3.950000000000000E-002    1.406931457838261E-017
 -3.940000000000000E-002    1.114989937425679E-016
 -3.930000000000000E-002    4.892553040886105E-016
 -3.920000000000000E-002    1.527957527690727E-015
 -3.910000000000000E-002    3.747031619350823E-015
 -3.900000000000000E-002    7.542393612184537E-015
 -3.890000000000000E-002    1.260953032269814E-014
 -3.880000000000000E-002    1.703693616807076E-014
 -3.870000000000000E-002    1.620198744303875E-014
 -3.860000000000000E-002    1.788677175156633E-015
 -3.850000000000000E-002   -3.857465667871939E-014
 -3.840000000000000E-002   -1.204578026103988E-013
 -3.830000000000000E-002   -2.599975667283996E-013
 -3.820000000000000E-002   -4.691864326109608E-013
 -3.810000000000000E-002   -7.492351665842481E-013
 -3.800000000000000E-002   -1.082793165338526E-012
 -3.790000000000000E-002   -1.426502471571962E-012
 -3.780000000000000E-002   -1.705943587998336E-012
 -3.770000000000000E-002   -1.815328485896178E-012
 -3.760000000000000E-002   -1.624110098626681E-012
 -3.750000000000000E-002   -9.919113866688813E-013
 -3.740000000000000E-002    2.081889444156519E-013
 -3.730000000000000E-002    2.059787393083057E-012
 -3.720000000000000E-002    4.570493269856070E-012
 -3.710000000000000E-002    7.642033978616200E-012
 -3.700000000000000E-002    1.104983154747399E-011
 -3.690000000000000E-002    1.443880364582768E-011
 -3.680000000000000E-002    1.734084560607987E-011
 -3.670000000000000E-002    1.921673482556680E-011
 -3.660000000000000E-002    1.952128838900528E-011
 -3.650000000000000E-002    1.778599116697715E-011
 -3.640000000000000E-002    1.370872804240913E-011
 -3.630000000000000E-002    7.236687904653568E-012
 -3.620000000000000E-002   -1.373392848573196E-012
 -3.610000000000000E-002   -1.153273933395601E-011
 -3.600000000000000E-002   -2.234740474895886E-011
 -3.590000000000000E-002   -3.269979187470913E-011
 -3.580000000000000E-002   -4.138189498489324E-011
 -3.570000000000000E-002   -4.726781746380437E-011
 -3.560000000000000E-002   -4.950440556479572E-011
 -3.550000000000000E-002   -4.769188108963325E-011
 -3.540000000000000E-002   -4.202312122296469E-011
 -3.530000000000000E-002   -3.335143298579928E-011
 -3.520000000000000E-002   -2.316305042667141E-011
 -3.510000000000000E-002   -1.344160099382989E-011
 -3.500000000000000E-002   -6.426558942852605E-012
 -3.490000000000000E-002   -4.284155285882264E-012
 -3.480000000000000E-002   -8.725465839166283E-012
 -3.470000000000000E-002   -2.061938614883737E-011
 -3.460000000000000E-002   -3.965615939308433E-011
 -3.450000000000000E-002   -6.411831757887416E-011
 -3.440000000000000E-002   -9.080861736343668E-011
 -3.430000000000000E-002   -1.151705123227277E-010
 -3.420000000000000E-002   -1.316154512943195E-010
 -3.410000000000000E-002   -1.340462637831024E-010
 -3.400000000000000E-002   -1.165398777673164E-010
 -3.390000000000000E-002   -7.412799926881680E-011
 -3.380000000000000E-002   -3.596113462542911E-012
 -3.370000000000000E-002    9.578987493454036E-011
 -3.360000000000000E-002    2.217207920105692E-010
 -3.350000000000000E-002    3.685267603342565E-010
 -3.340000000000000E-002    5.271674191469780E-010
 -3.330000000000000E-002    6.855639978289931E-010
 -3.320000000000000E-002    8.292752712760515E-010
 -3.310000000000000E-002    9.424839835392413E-010
 -3.300000000000000E-002    1.009228357221923E-009
 -3.290000000000000E-002    1.014786545105536E-009
 -3.280000000000000E-002    9.471015931703273E-010
 -3.270000000000000E-002    7.981281786053325E-010
 -3.260000000000000E-002    5.649825581537059E-010
 -3.250000000000000E-002    2.507911985357876E-010
 -3.240000000000000E-002   -1.348465822558497E-010
 -3.230000000000000E-002   -5.758369019655596E-010
 -3.220000000000000E-002   -1.050036098297546E-009
 -3.210000000000000E-002   -1.530155593506191E-009
 -3.200000000000000E-002   -1.985089876335280E-009
 -3.190000000000000E-002   -2.381606173500365E-009
 -3.180000000000000E-002   -2.686313534335345E-009
 -3.170000000000000E-002   -2.867815854543626E-009
 -3.160000000000000E-002   -2.898940494147098E-009
 -3.150000000000000E-002   -2.758931797035775E-009
 -3.140000000000000E-002   -2.435495970222283E-009
 -3.130000000000000E-002   -1.926579397264247E-009
 -3.120000000000000E-002   -1.241766109878378E-009
 -3.110000000000000E-002   -4.031800143177376E-010
 -3.100000000000000E-002    5.542178048156549E-010
 -3.090000000000000E-002    1.583039803159578E-009
 -3.080000000000000E-002    2.624676368128617E-009
 -3.070000000000000E-002    3.611354941131100E-009
 -3.060000000000000E-002    4.469080203001207E-009
 -3.050000000000000E-002    5.121427142725704E-009
 -3.040000000000000E-002    5.494097498549272E-009
 -3.030000000000000E-002    5.520082041779532E-009
 -3.020000000000000E-002    5.145176962957825E-009
 -3.010000000000000E-002    4.333539918935028E-009
 -3.000000000000000E-002    3.072891903361896E-009
 -2.990000000000000E-002    1.378925245010948E-009
 -2.980000000000000E-002   -7.015426448518779E-010
 -2.970000000000000E-002   -3.089112277217762E-009
 -2.960000000000000E-002   -5.672423902805364E-009
 -2.950000000000000E-002   -8.311128380531879E-009
 -2.940000000000000E-002   -1.084133340249997E-008
 -2.930000000000000E-002   -1.308345755367787E-008
 -2.920000000000000E-002   -1.485222082536284E-008
 -2.910000000000000E-002   -1.596829338293835E-008
 -2.900000000000000E-002   -1.627092363823190E-008
 -2.890000000000000E-002   -1.563072902938335E-008
 -2.880000000000000E-002   -1.396173131269536E-008
 -2.870000000000000E-002   -1.123171642459937E-008
 -2.860000000000000E-002   -7.470091189813985E-009
 -2.850000000000000E-002   -2.772558796832510E-009
 -2.840000000000000E-002    2.697779199752681E-009
 -2.830000000000000E-002    8.712999620723523E-009
 -2.820000000000000E-002    1.498635268072169E-008
 -2.810000000000000E-002    2.118107879889119E-008
 -2.800000000000000E-002    2.692116180756941E-008
 -2.790000000000000E-002    3.180291616110291E-008
 -2.780000000000000E-002    3.540621152266566E-008
 -2.770000000000000E-002    3.730421564604935E-008
 -2.760000000000000E-002    3.707066331408903E-008
 -2.750000000000000E-002    3.428404565252855E-008
 -2.740000000000000E-002    2.852846655625268E-008
 -2.730000000000000E-002    1.939141136948739E-008
 -2.720000000000000E-002    6.459124920142614E-009
 -2.710000000000000E-002   -1.068933746903972E-008
 -2.700000000000000E-002   -3.248804814039787E-008
 -2.690000000000000E-002   -5.938869832805860E-008
 -2.680000000000000E-002   -9.186235182787127E-008
 -2.670000000000000E-002   -1.303974168320841E-007
 -2.660000000000000E-002   -1.754932755846723E-007
 -2.650000000000000E-002   -2.276496329182862E-007
 -2.640000000000000E-002   -2.873521087416558E-007
 -2.630000000000000E-002   -3.550555914154718E-007
 -2.620000000000000E-002   -4.311666344221090E-007
 -2.610000000000000E-002   -5.160272919623298E-007
 -2.600000000000000E-002   -6.099019868919009E-007
 -2.590000000000000E-002   -7.129698115113238E-007
 -2.580000000000000E-002   -8.253229558444605E-007
 -2.570000000000000E-002   -9.469725284802972E-007
 -2.560000000000000E-002   -1.077861879640814E-006
 -2.550000000000000E-002   -1.217885973429057E-006
 -2.540000000000000E-002   -1.366916543143186E-006
 -2.530000000000000E-002   -1.524830350671878E-006
 -2.520000000000000E-002   -1.691538535966796E-006
 -2.510000000000000E-002   -1.867014900096303E-006
 -2.500000000000000E-002   -2.051321468926115E-006
 -2.490000000000000E-002   -2.244629485731795E-006
 -2.480000000000000E-002   -2.447234323004994E-006
 -2.470000000000000E-002   -2.659564270569983E-006
 -2.460000000000000E-002   -2.882184500426136E-006
 -2.450000000000000E-002   -3.115794588191917E-006
 -2.440000000000000E-002   -3.361222269253558E-006
 -2.430000000000000E-002   -3.619413206727996E-006
 -2.420000000000000E-002   -3.891420506519762E-006
 -2.410000000000000E-002   -4.178390392351428E-006
 -2.400000000000000E-002   -4.481549610011840E-006
 -2.390000000000000E-002   -4.802192054278843E-006
 -2.380000000000000E-002   -5.141664619304629E-006
 -2.370000000000000E-002   -5.501355768382876E-006
 -2.360000000000000E-002   -5.882683525160088E-006
 -2.350000000000000E-002   -6.287084938935229E-006
 -2.340000000000000E-002   -6.716008143581070E-006
 -2.330000000000000E-002   -7.170907907747545E-006
 -2.320000000000000E-002   -7.653242777674445E-006
 -2.310000000000000E-002   -8.164479635835409E-006
 -2.300000000000000E-002   -8.706100256691937E-006
 -2.290000000000000E-002   -9.279618029010898E-006
 -2.280000000000000E-002   -9.886595325481015E-006
 -2.270000000000000E-002   -1.052866592184383E-005
 -2.260000000000000E-002   -1.120756177447133E-005
 -2.250000000000000E-002   -1.192514112357134E-005
 -2.240000000000000E-002   -1.268340963352088E-005
 -2.230000000000000E-002   -1.348454458927004E-005
 -2.220000000000000E-002   -1.433090661969983E-005
 -2.210000000000000E-002   -1.522504879216872E-005
 -2.200000000000000E-002   -1.616971429219688E-005
 -2.190000000000000E-002   -1.716783063162634E-005
 -2.180000000000000E-002   -1.822249509614513E-005
 -2.170000000000000E-002   -1.933695309622624E-005
 -2.160000000000000E-002   -2.051458408928427E-005
 -2.150000000000000E-002   -2.175888387275328E-005
 -2.140000000000000E-002   -2.307344872952900E-005
 -2.130000000000000E-002   -2.446197261693929E-005
 -2.120000000000000E-002   -2.592825155700578E-005
 -2.110000000000000E-002   -2.747618963556300E-005
 -2.100000000000000E-002   -2.910981852489117E-005
 -2.090000000000000E-002   -3.083332513626330E-005
 -2.080000000000000E-002   -3.265107355993917E-005
 -2.070000000000000E-002   -3.456763858906002E-005
 -2.060000000000000E-002   -3.658782151931852E-005
 -2.050000000000000E-002   -3.871668820907866E-005
 -2.040000000000000E-002   -4.095957083795962E-005
 -2.030000000000000E-002   -4.332209138896813E-005
 -2.020000000000000E-002   -4.581016073252295E-005
 -2.010000000000000E-002   -4.842998282647843E-005
 -2.000000000000000E-002   -5.118804817387943E-005
 -1.990000000000000E-002   -5.409114904213240E-005
 -1.980000000000000E-002   -5.714635773276869E-005
 -1.970000000000000E-002   -6.036104731512412E-005
 -1.960000000000000E-002   -6.374290136472217E-005
 -1.950000000000000E-002   -6.729991188064106E-005
 -1.940000000000000E-002   -7.104041202826244E-005
 -1.930000000000000E-002   -7.497309893478044E-005
 -1.920000000000000E-002   -7.910704234763390E-005
 -1.910000000000000E-002   -8.345172861581636E-005
 -1.900000000000000E-002   -8.801707623525457E-005
 -1.890000000000000E-002   -9.281344313025681E-005
 -1.880000000000000E-002   -9.785165252912508E-005
 -1.870000000000000E-002   -1.031430047176852E-004
 -1.860000000000000E-002   -1.086992702122521E-004
 -1.850000000000000E-002   -1.145327007658665E-004
 -1.840000000000000E-002   -1.206560063982359E-004
 -1.830000000000000E-002   -1.270823661957137E-004
 -1.820000000000000E-002   -1.338254267655269E-004
 -1.810000000000000E-002   -1.408992764983353E-004
 -1.800000000000000E-002   -1.483184692414381E-004
 -1.790000000000000E-002   -1.560980123678427E-004
 -1.780000000000000E-002   -1.642533896101468E-004
 -1.770000000000000E-002   -1.728005795496258E-004
 -1.760000000000000E-002   -1.817560942032867E-004
 -1.750000000000000E-002   -1.911370069331687E-004
 -1.740000000000000E-002   -2.009610086418941E-004
 -1.730000000000000E-002   -2.112464291096072E-004
 -1.720000000000000E-002   -2.220123012091320E-004
 -1.710000000000000E-002   -2.332784252727003E-004
 -1.700000000000000E-002   -2.450653586836509E-004
 -1.690000000000000E-002   -2.573945381462056E-004
 -1.680000000000000E-002   -2.702882630322436E-004
 -1.670000000000000E-002   -2.837697294718895E-004
 -1.660000000000000E-002   -2.978630271171985E-004
 -1.650000000000000E-002   -3.125931921381685E-004
 -1.640000000000000E-002   -3.279861529515475E-004
 -1.630000000000000E-002   -3.440687939469124E-004
 -1.620000000000000E-002   -3.608688808752197E-004
 -1.610000000000000E-002   -3.784150436605242E-004
 -1.600000000000000E-002   -3.967367811271419E-004
 -1.590000000000000E-002   -4.158644858717108E-004
 -1.580000000000000E-002   -4.358293666050199E-004
 -1.570000000000000E-002   -4.566635130464605E-004
 -1.560000000000000E-002   -4.783998348941737E-004
 -1.550000000000000E-002   -5.010722121231664E-004
 -1.540000000000000E-002   -5.247153489156845E-004
 -1.530000000000000E-002   -5.493649945052452E-004
 -1.520000000000000E-002   -5.750578197359363E-004
 -1.510000000000000E-002   -6.018316248398338E-004
 -1.500000000000000E-002   -6.297252427838500E-004
 -1.490000000000000E-002   -6.587787642101932E-004
 -1.480000000000000E-002   -6.890334051102426E-004
 -1.470000000000000E-002   -7.205316506610983E-004
 -1.460000000000000E-002   -7.533172415220167E-004
 -1.450000000000000E-002   -7.874352753139281E-004
 -1.440000000000000E-002   -8.229320863317733E-004
 -1.430000000000000E-002   -8.598553413611087E-004
 -1.420000000000000E-002   -8.982539896507785E-004
 -1.410000000000000E-002   -9.381782318300177E-004
 -1.400000000000000E-002   -9.796794600235976E-004
 -1.390000000000000E-002   -1.022810390470674E-003
 -1.380000000000000E-002   -1.067624928721551E-003
 -1.370000000000000E-002   -1.114178159769338E-003
 -1.360000000000000E-002   -1.162526309700911E-003
 -1.350000000000000E-002   -1.212726634994832E-003
 -1.340000000000000E-002   -1.264837825670826E-003
 -1.330000000000000E-002   -1.318919591578297E-003
 -1.320000000000000E-002   -1.375032852194512E-003
 -1.310000000000000E-002   -1.433239650757678E-003
 -1.300000000000000E-002   -1.493603478215300E-003
 -1.290000000000000E-002   -1.556188807949456E-003
 -1.280000000000000E-002   -1.621061483872851E-003
 -1.270000000000000E-002   -1.688288491608948E-003
 -1.260000000000000E-002   -1.757938225649029E-003
 -1.250000000000000E-002   -1.830080202368243E-003
 -1.240000000000000E-002   -1.904785078605371E-003
 -1.230000000000000E-002   -1.982124822649384E-003
 -1.220000000000000E-002   -2.062172521654092E-003
 -1.210000000000000E-002   -2.145002407616952E-003
 -1.200000000000000E-002   -2.230689573868244E-003
 -1.190000000000000E-002   -2.319310597607123E-003
 -1.180000000000000E-002   -2.410943063161656E-003
 -1.170000000000000E-002   -2.505665368942920E-003
 -1.160000000000000E-002   -2.603557122600068E-003
 -1.150000000000000E-002   -2.704698670799476E-003
 -1.140000000000000E-002   -2.809171742964308E-003
 -1.130000000000000E-002   -2.917058454370696E-003
 -1.120000000000000E-002   -3.028442032477615E-003
 -1.110000000000000E-002   -3.143406368729714E-003
 -1.100000000000000E-002   -3.262035976608858E-003
 -1.090000000000000E-002   -3.384416028097104E-003
 -1.080000000000000E-002   -3.510632488094403E-003
 -1.070000000000000E-002   -3.640771265488309E-003
 -1.060000000000000E-002   -3.774918865166545E-003
 -1.050000000000000E-002   -3.913162397795234E-003
 -1.040000000000000E-002   -4.055588363503382E-003
 -1.030000000000000E-002   -4.202284539280898E-003
 -1.020000000000000E-002   -4.353337980556496E-003
 -1.010000000000000E-002   -4.508835774123882E-003
 -1.000000000000000E-002   -4.668864850179156E-003
 -9.899999999999999E-003   -4.833511844376078E-003
 -9.800000000000000E-003   -5.002862891523416E-003
 -9.699999999999999E-003   -5.177003831972822E-003
 -9.599999999999999E-003   -5.356019665305986E-003
 -9.500000000000000E-003   -5.539994385014372E-003
 -9.399999999999999E-003   -5.729011675690661E-003
 -9.299999999999999E-003   -5.923153756973911E-003
 -9.200000000000000E-003   -6.122501612575664E-003
 -9.099999999999999E-003   -6.327135517927484E-003
 -8.999999999999999E-003   -6.537133470667157E-003
 -8.900000000000000E-003   -6.752572571024243E-003
 -8.799999999999999E-003   -6.973528429009717E-003
 -8.699999999999999E-003   -7.200074330670970E-003
 -8.600000000000000E-003   -7.432281724916304E-003
 -8.499999999999999E-003   -7.670220307660114E-003
 -8.399999999999999E-003   -7.913957072188681E-003
 -8.300000000000000E-003   -8.163556612286365E-003
 -8.199999999999999E-003   -8.419079836821327E-003
 -8.100000000000000E-003   -8.680586894444795E-003
 -8.000000000000000E-003   -8.948132599319650E-003
 -7.899999999999999E-003   -9.221769253403215E-003
 -7.800000000000000E-003   -9.501546574096593E-003
 -7.699999999999999E-003   -9.787508673451756E-003
 -7.599999999999999E-003   -1.007969676059096E-002
 -7.499999999999999E-003   -1.037814725994131E-002
 -7.399999999999999E-003   -1.068289267670831E-002
 -7.299999999999999E-003   -1.099396027413547E-002
 -7.199999999999999E-003   -1.131137311599937E-002
 -7.100000000000000E-003   -1.163514822585280E-002
 -6.999999999999999E-003   -1.196529705573401E-002
 -6.899999999999999E-003   -1.230182685664027E-002
 -6.800000000000000E-003   -1.264473732154169E-002
 -6.699999999999999E-003   -1.299402329178869E-002
 -6.599999999999999E-003   -1.334967320474843E-002
 -6.499999999999999E-003   -1.371166725458587E-002
 -6.399999999999999E-003   -1.407997956952441E-002
 -6.299999999999999E-003   -1.445457849479151E-002
 -6.199999999999999E-003   -1.483542374860388E-002
 -6.100000000000000E-003   -1.522246654758382E-002
 -5.999999999999999E-003   -1.561565167475915E-002
 -5.899999999999999E-003   -1.601491483615662E-002
 -5.800000000000000E-003   -1.642018363806570E-002
 -5.699999999999999E-003   -1.683137857863597E-002
 -5.599999999999999E-003   -1.724840826819331E-002
 -5.499999999999999E-003   -1.767117247970366E-002
 -5.399999999999999E-003   -1.809956396487715E-002
 -5.299999999999999E-003   -1.853346287000935E-002
 -5.199999999999999E-003   -1.897274121701147E-002
 -5.099999999999999E-003   -1.941725835226534E-002
 -4.999999999999999E-003   -1.986686589864830E-002
 -4.899999999999999E-003   -2.032140160148211E-002
 -4.799999999999999E-003   -2.078069513719147E-002
 -4.699999999999999E-003   -2.124456231478328E-002
 -4.599999999999999E-003   -2.171280970575988E-002
 -4.499999999999999E-003   -2.218522934817167E-002
 -4.399999999999999E-003   -2.266160395864635E-002
 -4.299999999999999E-003   -2.314170166858941E-002
 -4.199999999999999E-003   -2.362528048968111E-002
 -4.099999999999999E-003   -2.411208450900161E-002
 -3.999999999999999E-003   -2.460184406260098E-002
 -3.899999999999999E-003   -2.509427939995493E-002
 -3.799999999999999E-003   -2.558909408025830E-002
 -3.699999999999999E-003   -2.608598021072917E-002
 -3.599999999999999E-003   -2.658461562749664E-002
 -3.499999999999999E-003   -2.708466473754723E-002
 -3.399999999999999E-003   -2.758577766037403E-002
 -3.299999999999999E-003   -2.808758934786071E-002
 -3.199999999999999E-003   -2.858972362619236E-002
 -3.099999999999999E-003   -2.909178743204274E-002
 -2.999999999999999E-003   -2.959337431031487E-002
 -2.899999999999999E-003   -3.009406215381087E-002
 -2.799999999999999E-003   -3.059341470329192E-002
 -2.699999999999999E-003   -3.109098347081769E-002
 -2.599999999999999E-003   -3.158630421801592E-002
 -2.499999999999999E-003   -3.207889828687787E-002
 -2.399999999999999E-003   -3.256826921577927E-002
 -2.299999999999999E-003   -3.305390770579750E-002
 -2.199999999999999E-003   -3.353529256499639E-002
 -2.099999999999999E-003   -3.401188659856818E-002
 -1.999999999999999E-003   -3.448313367282677E-002
 -1.899999999999999E-003   -3.494846956192583E-002
 -1.799999999999999E-003   -3.540731416125614E-002
 -1.699999999999999E-003   -3.585907099469582E-002
 -1.599999999999999E-003   -3.630313207987815E-002
 -1.499999999999999E-003   -3.673887217579316E-002
 -1.399999999999999E-003   -3.716566048058308E-002
 -1.299999999999999E-003   -3.758284269283716E-002
 -1.199999999999999E-003   -3.798975551439299E-002
 -1.099999999999999E-003   -3.838572553359976E-002
 -9.999999999999989E-004   -3.877006696170529E-002
 -8.999999999999990E-004   -3.914207493611066E-002
 -7.999999999999990E-004   -3.950103760040177E-002
 -6.999999999999989E-004   -3.984623336652440E-002
 -5.999999999999990E-004   -4.017692305894395E-002
 -4.999999999999989E-004   -4.049236429390619E-002
 -3.999999999999989E-004   -4.079179761404118E-002
 -2.999999999999989E-004   -4.107445449659609E-002
 -1.999999999999989E-004   -4.133956072181758E-002
 -9.999999999999892E-005   -4.158633125995387E-002
  1.084202172485504E-018   -4.181397193674372E-002
  1.000000000000011E-004   -4.202168351766009E-002
  2.000000000000011E-004   -4.220865351042259E-002
  3.000000000000011E-004   -4.237407062475300E-002
  4.000000000000011E-004   -4.251711149189764E-002
  5.000000000000011E-004   -4.263695142984787E-002
  6.000000000000011E-004   -4.273275999443371E-002
  7.000000000000011E-004   -4.280369831719901E-002
  8.000000000000011E-004   -4.284893299717458E-002
  9.000000000000012E-004   -4.286762048569617E-002
  1.000000000000001E-003   -4.285891880876264E-002
  1.100000000000001E-003   -4.282198245748031E-002
  1.200000000000001E-003   -4.275597070065833E-002
  1.300000000000001E-003   -4.266004071313376E-002
  1.400000000000001E-003   -4.253335152773018E-002
  1.500000000000001E-003   -4.237506611438464E-002
  1.600000000000001E-003   -4.218435096547153E-002
  1.700000000000001E-003   -4.196037749481449E-002
  1.800000000000001E-003   -4.170231840900343E-002
  1.900000000000001E-003   -4.140936203923742E-002
  2.000000000000001E-003   -4.108069548801655E-002
  2.100000000000001E-003   -4.071552059027721E-002
  2.200000000000001E-003   -4.031304518541624E-002
  2.300000000000001E-003   -3.987248818856100E-002
  2.400000000000001E-003   -3.939308406506424E-002
  2.500000000000001E-003   -3.887407225086798E-002
  2.600000000000001E-003   -3.831471164729632E-002
  2.700000000000001E-003   -3.771427583511222E-002
  2.800000000000001E-003   -3.707205531342674E-002
  2.900000000000001E-003   -3.638735267511738E-002
  3.000000000000001E-003   -3.565949482005112E-002
  3.100000000000001E-003   -3.488782393106922E-002
  3.200000000000001E-003   -3.407170424578787E-002
  3.300000000000001E-003   -3.321052237711559E-002
  3.400000000000001E-003   -3.230368719429374E-002
  3.500000000000001E-003   -3.135063426528550E-002
  3.600000000000001E-003   -3.035082048955612E-002
  3.700000000000001E-003   -2.930373226674242E-002
  3.800000000000001E-003   -2.820888324373834E-002
  3.900000000000001E-003   -2.706581515910723E-002
  4.000000000000001E-003   -2.587409979565432E-002
  4.100000000000001E-003   -2.463333944909869E-002
  4.200000000000001E-003   -2.334317011683639E-002
  4.300000000000001E-003   -2.200326093618545E-002
  4.400000000000001E-003   -2.061331314183441E-002
  4.500000000000001E-003   -1.917306476455258E-002
  4.600000000000002E-003   -1.768228971092202E-002
  4.700000000000001E-003   -1.614079967680726E-002
  4.800000000000001E-003   -1.454844651381739E-002
  4.900000000000002E-003   -1.290511954130681E-002
  5.000000000000001E-003   -1.121075044229874E-002
  5.100000000000001E-003   -9.465311070708023E-003
  5.200000000000001E-003   -7.668817004737608E-003
  5.300000000000002E-003   -5.821326470685699E-003
  5.400000000000001E-003   -3.922943247882536E-003
  5.500000000000001E-003   -1.973814057071253E-003
  5.600000000000002E-003    2.586690074244768E-005
  5.700000000000001E-003    2.075859434549642E-003
  5.800000000000001E-003    4.175876165736702E-003
  5.900000000000002E-003    6.325581028809446E-003
  6.000000000000001E-003    8.524589682262201E-003
  6.100000000000001E-003    1.077246776423874E-002
  6.200000000000002E-003    1.306873171004213E-002
  6.300000000000002E-003    1.541284639548077E-002
  6.400000000000001E-003    1.780422835656405E-002
  6.500000000000001E-003    2.024224023922023E-002
  6.600000000000002E-003    2.272619421096356E-002
  6.700000000000001E-003    2.525535119796033E-002
  6.800000000000001E-003    2.782891735051771E-002
  6.900000000000002E-003    3.044604711012770E-002
  7.000000000000001E-003    3.310584597736817E-002
  7.100000000000001E-003    3.580735953260088E-002
  7.200000000000002E-003    3.854958620161819E-002
  7.300000000000002E-003    4.133146951245453E-002
  7.400000000000001E-003    4.415190233711463E-002
  7.500000000000001E-003    4.700972109822674E-002
  7.600000000000002E-003    4.990371328810415E-002
  7.700000000000001E-003    5.283261144811158E-002
  7.800000000000001E-003    5.579509625875552E-002
  7.900000000000001E-003    5.878979938409968E-002
  8.000000000000002E-003    6.181529861952138E-002
  8.100000000000001E-003    6.487011580094744E-002
  8.200000000000001E-003    6.795273556636049E-002
  8.300000000000002E-003    7.106158320894833E-002
  8.400000000000001E-003    7.419503577371740E-002
  8.500000000000002E-003    7.735142787406041E-002
  8.600000000000002E-003    8.052904250259685E-002
  8.700000000000001E-003    8.372611499971058E-002
  8.800000000000002E-003    8.694084230003907E-002
  8.900000000000002E-003    9.017137703053987E-002
  9.000000000000001E-003    9.341582037942915E-002
  9.100000000000002E-003    9.667223691291477E-002
  9.200000000000002E-003    9.993865044083883E-002
  9.300000000000001E-003    0.103213041422144     
  9.400000000000002E-003    0.106493355751880     
  9.500000000000001E-003    0.109777501011357     
  9.600000000000001E-003    0.113063350713687     
  9.700000000000002E-003    0.116348740935792     
  9.800000000000001E-003    0.119631476885236     
  9.900000000000001E-003    0.122909323829537     
  1.000000000000000E-002    0.126180035596782     
  1.010000000000000E-002    0.129441333255790     
  1.020000000000000E-002    0.132690904934119     
  1.030000000000000E-002    0.135926431307728     
  1.040000000000000E-002    0.139145548815260     
  1.050000000000000E-002    0.142345884791511     
  1.060000000000000E-002    0.145525051366254     
  1.070000000000000E-002    0.148680654507213     
  1.080000000000000E-002    0.151810262943622     
  1.090000000000000E-002    0.154911448730197     
  1.100000000000000E-002    0.157981775879409     
  1.110000000000000E-002    0.161018792584754     
  1.120000000000000E-002    0.164020048428800     
  1.130000000000000E-002    0.166983080950190     
  1.140000000000000E-002    0.169905431479641     
  1.150000000000000E-002    0.172784655982081     
  1.160000000000000E-002    0.175618288409181     
  1.170000000000000E-002    0.178403896218964     
  1.180000000000000E-002    0.181139034224434     
  1.190000000000000E-002    0.183821268955862     
  1.200000000000000E-002    0.186448198842199     
  1.210000000000000E-002    0.189017427428640     
  1.220000000000000E-002    0.191526582894418     
  1.230000000000000E-002    0.193973308575850     
  1.240000000000000E-002    0.196355273787368     
  1.250000000000000E-002    0.198670169757205     
  1.260000000000000E-002    0.200915709039973     
  1.270000000000000E-002    0.203089654556912     
  1.280000000000000E-002    0.205189785787505     
  1.290000000000000E-002    0.207213918063376     
  1.300000000000000E-002    0.209159908844335     
  1.310000000000000E-002    0.211025651488033     
  1.320000000000000E-002    0.212809090952436     
  1.330000000000000E-002    0.214508204996513     
  1.340000000000000E-002    0.216121030499007     
  1.350000000000000E-002    0.217645649756929     
  1.360000000000000E-002    0.219080180055687     
  1.370000000000000E-002    0.220422814500114     
  1.380000000000000E-002    0.221671783421565     
  1.390000000000000E-002    0.222825388885124     
  1.400000000000000E-002    0.223881985989531     
  1.410000000000000E-002    0.224839993731321     
  1.420000000000000E-002    0.225697888119758     
  1.430000000000000E-002    0.226454223449315     
  1.440000000000000E-002    0.227107599698859     
  1.450000000000000E-002    0.227656699885403     
  1.460000000000000E-002    0.228100278336627     
  1.470000000000000E-002    0.228437159903271     
  1.480000000000000E-002    0.228666232116012     
  1.490000000000000E-002    0.228786475884110     
  1.500000000000000E-002    0.228796943205363     
  1.510000000000000E-002    0.228696757380887     
  1.520000000000000E-002    0.228485144395723     
  1.530000000000000E-002    0.228161377888170     
  1.540000000000000E-002    0.227724836718837     
  1.550000000000000E-002    0.227174965624057     
  1.560000000000000E-002    0.226511321579323     
  1.570000000000000E-002    0.225733515609898     
  1.580000000000000E-002    0.224841249597457     
  1.590000000000000E-002    0.223834324000127     
  1.600000000000000E-002    0.222712610460498     
  1.610000000000000E-002    0.221476071270678     
  1.620000000000000E-002    0.220124765258435     
  1.630000000000000E-002    0.218658835488506     
  1.640000000000000E-002    0.217078515176574     
  1.650000000000000E-002    0.215384117019241     
  1.660000000000000E-002    0.213576062979515     
  1.670000000000000E-002    0.211654837793664     
  1.680000000000000E-002    0.209621038187969     
  1.690000000000000E-002    0.207475335332144     
  1.700000000000000E-002    0.205218488190844     
  1.710000000000000E-002    0.202851347538737     
  1.720000000000000E-002    0.200374856008374     
  1.730000000000000E-002    0.197790022939306     
  1.740000000000000E-002    0.195097959564662     
  1.750000000000000E-002    0.192299867724212     
  1.760000000000000E-002    0.189397008320449     
  1.770000000000000E-002    0.186390747919254     
  1.780000000000000E-002    0.183282536313823     
  1.790000000000000E-002    0.180073884252679     
  1.800000000000000E-002    0.176766401595529     
  1.810000000000000E-002    0.173361771399030     
  1.820000000000000E-002    0.169861749821731     
  1.830000000000000E-002    0.166268175272823     
  1.840000000000000E-002    0.162582961993488     
  1.850000000000000E-002    0.158808092475399     
  1.860000000000000E-002    0.154945618523048     
  1.870000000000000E-002    0.150997667952007     