 -4.000000000000000E-002    0.000000000000000E+000
 -3.990000000000000E-002    0.000000000000000E+000
 -3.980000000000000E-002   -2.026744201058786E-010
 -3.970000000000000E-002   -9.110099768443544E-010
 -3.960000000000000E-002   -2.425831497296115E-009
 -3.950000000000000E-002   -4.956667645010160E-009
 -3.940000000000000E-002   -8.556901942430602E-009
 -3.930000000000000E-002   -1.309052836271428E-008
 -3.920000000000000E-002   -1.823338262919081E-008
 -3.910000000000000E-002   -2.350710064637989E-008
 -3.900000000000000E-002   -2.833985426199813E-008
 -3.890000000000000E-002   -3.214453191316528E-008
 -3.880000000000000E-002   -3.440292581028547E-008
 -3.870000000000000E-002   -3.474344941049233E-008
 -3.860000000000000E-002   -3.300150252383788E-008
 -3.850000000000000E-002   -2.925430422783997E-008
 -3.840000000000000E-002   -2.382302882128091E-008
 -3.830000000000000E-002   -1.724398630401206E-008
 -3.820000000000000E-002   -1.020769239297112E-008
 -3.810000000000000E-002   -3.478713902679431E-009
 -3.800000000000000E-002    2.199502147323964E-009
 -3.790000000000000E-002    6.199677221721074E-009
 -3.780000000000000E-002    8.093663962180434E-009
 -3.770000000000000E-002    7.714976163915029E-009
 -3.760000000000000E-002    5.188199276329690E-009
 -3.750000000000000E-002    9.265624329564358E-010
 -3.740000000000000E-002   -4.408857220457114E-009
 -3.730000000000000E-002   -9.978088482677530E-009
 -3.720000000000000E-002   -1.485663478169238E-008
 -3.710000000000000E-002   -1.813953347079333E-008
 -3.700000000000000E-002   -1.904591343696328E-008
 -3.690000000000000E-002   -1.700739362469277E-008
 -3.680000000000000E-002   -1.173383429904006E-008
 -3.670000000000000E-002   -3.242735669773029E-009
 -3.660000000000000E-002    8.151669337906956E-009
 -3.650000000000000E-002    2.188778430168974E-008
 -3.640000000000000E-002    3.724219255269619E-008
 -3.630000000000000E-002    5.343574931953827E-008
 -3.620000000000000E-002    6.976154192349873E-008
 -3.610000000000000E-002    8.570544542723117E-008
 -3.600000000000000E-002    1.010510526467809E-007
 -3.590000000000000E-002    1.159526424450830E-007
 -3.580000000000000E-002    1.309734546735273E-007
 -3.570000000000000E-002    1.470668955986546E-007
 -3.560000000000000E-002    1.655155988046470E-007
 -3.550000000000000E-002    1.878163996204076E-007
 -3.540000000000000E-002    2.155435407176468E-007
 -3.530000000000000E-002    2.501782169583139E-007
 -3.520000000000000E-002    2.929355096531481E-007
 -3.510000000000000E-002    3.446106704878596E-007
 -3.500000000000000E-002    4.054566449463785E-007
 -3.490000000000000E-002    4.751010413454461E-007
 -3.480000000000000E-002    5.525271998467503E-007
 -3.470000000000000E-002    6.361164231679994E-007
 -3.460000000000000E-002    7.237560911408910E-007
 -3.450000000000000E-002    8.129849293843915E-007
 -3.440000000000000E-002    9.011994735988142E-007
 -3.430000000000000E-002    9.858685786599254E-007
 -3.420000000000000E-002    1.064753036582611E-006
 -3.410000000000000E-002    1.136099643631986E-006
 -3.400000000000000E-002    1.198806377363281E-006
 -3.390000000000000E-002    1.252513080636406E-006
 -3.380000000000000E-002    1.297647202155297E-006
 -3.370000000000000E-002    1.335393819605846E-006
 -3.360000000000000E-002    1.367576516707109E-006
 -3.350000000000000E-002    1.396522540815222E-006
 -3.340000000000000E-002    1.424862641793283E-006
 -3.330000000000000E-002    1.455314101184202E-006
 -3.320000000000000E-002    1.490464473433064E-006
 -3.310000000000000E-002    1.532599696298594E-006
 -3.300000000000000E-002    1.583558193990225E-006
 -3.290000000000000E-002    1.644648512950372E-006
 -3.280000000000000E-002    1.716619546618437E-006
 -3.270000000000000E-002    1.799723839396822E-006
 -3.260000000000000E-002    1.893799826563762E-006
 -3.250000000000000E-002    1.998441298217468E-006
 -3.240000000000000E-002    2.113172830076637E-006
 -3.230000000000000E-002    2.237593414723500E-006
 -3.220000000000000E-002    2.371581028426210E-006
 -3.210000000000000E-002    2.515386329492809E-006
 -3.200000000000000E-002    2.669713913136626E-006
 -3.190000000000000E-002    2.835720872306722E-006
 -3.180000000000000E-002    3.014997163360423E-006
 -3.170000000000000E-002    3.209431279368510E-006
 -3.160000000000000E-002    3.421010345405847E-006
 -3.150000000000000E-002    3.651709957503468E-006
 -3.140000000000000E-002    3.903249903398078E-006
 -3.130000000000000E-002    4.176943901578001E-006
 -3.120000000000000E-002    4.473558051993101E-006
 -3.110000000000000E-002    4.793204371802481E-006
 -3.100000000000000E-002    5.135364473788800E-006
 -3.090000000000000E-002    5.498910751791238E-006
 -3.080000000000000E-002    5.882211521775480E-006
 -3.070000000000000E-002    6.283331190549683E-006
 -3.060000000000000E-002    6.700231524384232E-006
 -3.050000000000000E-002    7.131007116365843E-006
 -3.040000000000000E-002    7.574062724466130E-006
 -3.030000000000000E-002    8.028371502609625E-006
 -3.020000000000000E-002    8.493543392862243E-006
 -3.010000000000000E-002    8.969989355728258E-006
 -3.000000000000000E-002    9.458901965759300E-006
 -2.990000000000000E-002    9.962183990978158E-006
 -2.980000000000000E-002    1.048243025489221E-005
 -2.970000000000000E-002    1.102261524785932E-005
 -2.960000000000000E-002    1.158604391301085E-005
 -2.950000000000000E-002    1.217609819754217E-005
 -2.940000000000000E-002    1.279620898913205E-005
 -2.930000000000000E-002    1.344949809351274E-005
 -2.920000000000000E-002    1.413875068721881E-005
 -2.910000000000000E-002    1.486661695873688E-005
 -2.900000000000000E-002    1.563524139234595E-005
 -2.890000000000000E-002    1.644672063480052E-005
 -2.880000000000000E-002    1.730282013777602E-005
 -2.870000000000000E-002    1.820555714739528E-005
 -2.860000000000000E-002    1.915691357270904E-005
 -2.850000000000000E-002    2.015922385844977E-005
 -2.840000000000000E-002    2.121506244053001E-005
 -2.830000000000000E-002    2.232740023833178E-005
 -2.820000000000000E-002    2.349961111305798E-005
 -2.810000000000000E-002    2.473531032355268E-005
 -2.800000000000000E-002    2.603818420275048E-005
 -2.790000000000000E-002    2.741203659017771E-005
 -2.780000000000000E-002    2.886035810785589E-005
 -2.770000000000000E-002    3.038646020665705E-005
 -2.760000000000000E-002    3.199296192803592E-005
 -2.750000000000000E-002    3.368203254178951E-005
 -2.740000000000000E-002    3.545522533437566E-005
 -2.730000000000000E-002    3.731356231493488E-005
 -2.720000000000000E-002    3.925739456389827E-005
 -2.710000000000000E-002    4.128683880444823E-005
 -2.700000000000000E-002    4.340191151172980E-005
 -2.690000000000000E-002    4.560271774371207E-005
 -2.680000000000000E-002    4.788987732031288E-005
 -2.670000000000000E-002    5.026440978757134E-005
 -2.660000000000000E-002    5.272816983281333E-005
 -2.650000000000000E-002    5.528412146737181E-005
 -2.640000000000000E-002    5.793614424465276E-005
 -2.630000000000000E-002    6.068902308486470E-005
 -2.620000000000000E-002    6.354899394340222E-005
 -2.610000000000000E-002    6.652267446471114E-005
 -2.600000000000000E-002    6.961728952467150E-005
 -2.590000000000000E-002    7.284088709221025E-005
 -2.580000000000000E-002    7.620173931962106E-005
 -2.570000000000000E-002    7.970753807852362E-005
 -2.560000000000000E-002    8.336656182702303E-005
 -2.550000000000000E-002    8.718617659301371E-005
 -2.540000000000000E-002    9.117337559886771E-005
 -2.530000000000000E-002    9.533509692004208E-005
 -2.520000000000000E-002    9.967718703843970E-005
 -2.510000000000000E-002    1.042057223992652E-004
 -2.500000000000000E-002    1.089265859467329E-004
 -2.490000000000000E-002    1.138454838957045E-004
 -2.480000000000000E-002    1.189676308578074E-004
 -2.470000000000000E-002    1.242991240188148E-004
 -2.460000000000000E-002    1.298462106503898E-004
 -2.450000000000000E-002    1.356152521371800E-004
 -2.440000000000000E-002    1.416131318579827E-004
 -2.430000000000000E-002    1.478468446304780E-004
 -2.420000000000000E-002    1.543240993485140E-004
 -2.410000000000000E-002    1.610523389458532E-004
 -2.400000000000000E-002    1.680394366475994E-004
 -2.390000000000000E-002    1.752933020109006E-004
 -2.380000000000000E-002    1.828205112241956E-004
 -2.370000000000000E-002    1.906283946378614E-004
 -2.360000000000000E-002    1.987240989129453E-004
 -2.350000000000000E-002    2.071140930751491E-004
 -2.340000000000000E-002    2.158043553542217E-004
 -2.330000000000000E-002    2.248018544715213E-004
 -2.320000000000000E-002    2.341127242003740E-004
 -2.310000000000000E-002    2.437437168676094E-004
 -2.300000000000000E-002    2.537025888638500E-004
 -2.290000000000000E-002    2.639972477551584E-004
 -2.280000000000000E-002    2.746366572714731E-004
 -2.270000000000000E-002    2.856304848850846E-004
 -2.260000000000000E-002    2.969893375185714E-004
 -2.250000000000000E-002    3.087241210180092E-004
 -2.240000000000000E-002    3.208470460868663E-004
 -2.230000000000000E-002    3.333708934693735E-004
 -2.220000000000000E-002    3.463081081958030E-004
 -2.210000000000000E-002    3.596724060181940E-004
 -2.200000000000000E-002    3.734764598655165E-004
 -2.190000000000000E-002    3.877341664524333E-004
 -2.180000000000000E-002    4.024572360334750E-004
 -2.170000000000000E-002    4.176563017516733E-004
 -2.160000000000000E-002    4.333428069018116E-004
 -2.150000000000000E-002    4.495289877757113E-004
 -2.140000000000000E-002    4.662233509267477E-004
 -2.130000000000000E-002    4.834363287589483E-004
 -2.120000000000000E-002    5.011767500313425E-004
 -2.110000000000000E-002    5.194545150574905E-004
 -2.100000000000000E-002    5.382794678157740E-004
 -2.090000000000000E-002    5.576607187035352E-004
 -2.080000000000000E-002    5.776090513364262E-004
 -2.070000000000000E-002    5.981328447849836E-004
 -2.060000000000000E-002    6.192442127335206E-004
 -2.050000000000000E-002    6.409555716779475E-004
 -2.040000000000000E-002    6.632755838146959E-004
 -2.030000000000000E-002    6.862161090238957E-004
 -2.020000000000000E-002    7.097883750264312E-004
 -2.010000000000000E-002    7.340025547041551E-004
 -2.000000000000000E-002    7.588694600397933E-004
 -1.990000000000000E-002    7.843977722590042E-004
 -1.980000000000000E-002    8.105990421322946E-004
 -1.970000000000000E-002    8.374816725096792E-004
 -1.960000000000000E-002    8.650531060461252E-004
 -1.950000000000000E-002    8.933204378876033E-004
 -1.940000000000000E-002    9.222923251712275E-004
 -1.930000000000000E-002    9.519765253840733E-004
 -1.920000000000000E-002    9.823777961007847E-004
 -1.910000000000000E-002    1.013504392197578E-003
 -1.900000000000000E-002    1.045364851831845E-003
 -1.890000000000000E-002    1.077964332981789E-003
 -1.880000000000000E-002    1.111311712441072E-003
 -1.870000000000000E-002    1.145413571232904E-003
 -1.860000000000000E-002    1.180280750986275E-003
 -1.850000000000000E-002    1.215917692627171E-003
 -1.840000000000000E-002    1.252331938729536E-003
 -1.830000000000000E-002    1.289533439328078E-003
 -1.820000000000000E-002    1.327523892598801E-003
 -1.810000000000000E-002    1.366310816111292E-003
 -1.800000000000000E-002    1.405897747350731E-003
 -1.790000000000000E-002    1.446289902446253E-003
 -1.780000000000000E-002    1.487485454688481E-003
 -1.770000000000000E-002    1.529490784099162E-003
 -1.760000000000000E-002    1.572301477517290E-003
 -1.750000000000000E-002    1.615920088776538E-003
 -1.740000000000000E-002    1.660344734473657E-003
 -1.730000000000000E-002    1.705571195105036E-003
 -1.720000000000000E-002    1.751600234261508E-003
 -1.710000000000000E-002    1.798424058331936E-003
 -1.700000000000000E-002    1.846042505349407E-003
 -1.690000000000000E-002    1.894444499284579E-003
 -1.680000000000000E-002    1.943629026707311E-003
 -1.670000000000000E-002    1.993591230485519E-003
 -1.660000000000000E-002    2.044320956794805E-003
 -1.650000000000000E-002    2.095810119895004E-003
 -1.640000000000000E-002    2.148052167006293E-003
 -1.630000000000000E-002    2.201032842349470E-003
 -1.620000000000000E-002    2.254744397145297E-003
 -1.610000000000000E-002    2.309175373729190E-003
 -1.600000000000000E-002    2.364310362959369E-003
 -1.590000000000000E-002    2.420138383166896E-003
 -1.580000000000000E-002    2.476635997639774E-003
 -1.570000000000000E-002    2.533793026299115E-003
 -1.560000000000000E-002    2.591585704999944E-003
 -1.550000000000000E-002    2.649996787869847E-003
 -1.540000000000000E-002    2.709001148632083E-003
 -1.530000000000000E-002    2.768578225811516E-003
 -1.520000000000000E-002    2.828701265757377E-003
 -1.510000000000000E-002    2.889350781999249E-003
 -1.500000000000000E-002    2.950499829972864E-003
 -1.490000000000000E-002    3.012115696774160E-003
 -1.480000000000000E-002    3.074181559834910E-003
 -1.470000000000000E-002    3.136658949716297E-003
 -1.460000000000000E-002    3.199529753297738E-003
 -1.450000000000000E-002    3.262755911486797E-003
 -1.440000000000000E-002    3.326315027478287E-003
 -1.430000000000000E-002    3.390159507228447E-003
 -1.420000000000000E-002    3.454264667105996E-003
 -1.410000000000000E-002    3.518586495411547E-003
 -1.400000000000000E-002    3.583087958713066E-003
 -1.390000000000000E-002    3.647734272861067E-003
 -1.380000000000000E-002    3.712481536441443E-003
 -1.370000000000000E-002    3.777282440500213E-003
 -1.360000000000000E-002    3.842096252524886E-003
 -1.350000000000000E-002    3.906874140368909E-003
 -1.340000000000000E-002    3.971568072150860E-003
 -1.330000000000000E-002    4.036134204985865E-003
 -1.320000000000000E-002    4.100518985585513E-003
 -1.310000000000000E-002    4.164673766704544E-003
 -1.300000000000000E-002    4.228534534522065E-003
 -1.290000000000000E-002    4.292057241785871E-003
 -1.280000000000000E-002    4.355185830934187E-003
 -1.270000000000000E-002    4.417870770027629E-003
 -1.260000000000000E-002    4.480042816904777E-003
 -1.250000000000000E-002    4.541644957315516E-003
 -1.240000000000000E-002    4.602623642411305E-003
 -1.230000000000000E-002    4.662915553420612E-003
 -1.220000000000000E-002    4.722469664903511E-003
 -1.210000000000000E-002    4.781206952657532E-003
 -1.200000000000000E-002    4.839070646248823E-003
 -1.190000000000000E-002    4.895997887469944E-003
 -1.180000000000000E-002    4.951909320772156E-003
 -1.170000000000000E-002    5.006750666733034E-003
 -1.160000000000000E-002    5.060454255502559E-003
 -1.150000000000000E-002    5.112937692811678E-003
 -1.140000000000000E-002    5.164132935294580E-003
 -1.130000000000000E-002    5.213974273266066E-003
 -1.120000000000000E-002    5.262394345329317E-003
 -1.110000000000000E-002    5.309312310560893E-003
 -1.100000000000000E-002    5.354667500627595E-003
 -1.090000000000000E-002    5.398378257378940E-003
 -1.080000000000000E-002    5.440379886651456E-003
 -1.070000000000000E-002    5.480605917750594E-003
 -1.060000000000000E-002    5.518977771526004E-003
 -1.050000000000000E-002    5.555422785138597E-003
 -1.040000000000000E-002    5.589876551245303E-003
 -1.030000000000000E-002    5.622264625116856E-003
 -1.020000000000000E-002    5.652515987686849E-003
 -1.010000000000000E-002    5.680556949847863E-003
 -1.000000000000000E-002    5.706311002551874E-003
 -9.899999999999999E-003    5.729705666607961E-003
 -9.800000000000000E-003    5.750676013804308E-003
 -9.699999999999999E-003    5.769141760430467E-003
 -9.599999999999999E-003    5.785035099916552E-003
 -9.500000000000000E-003    5.798284554608117E-003
 -9.399999999999999E-003    5.808820063662967E-003
 -9.299999999999999E-003    5.816566688469839E-003
 -9.200000000000000E-003    5.821453153844143E-003
 -9.099999999999999E-003    5.823414336614666E-003
 -8.999999999999999E-003    5.822394985742572E-003
 -8.900000000000000E-003    5.818320508016499E-003
 -8.799999999999999E-003    5.811125392753472E-003
 -8.699999999999999E-003    5.800756408802652E-003
 -8.600000000000000E-003    5.787152861313125E-003
 -8.499999999999999E-003    5.770253712566242E-003
 -8.399999999999999E-003    5.750010309329773E-003
 -8.300000000000000E-003    5.726361689172486E-003
 -8.199999999999999E-003    5.699255525450128E-003
 -8.100000000000000E-003    5.668643135237444E-003
 -8.000000000000000E-003    5.634470664573083E-003
 -7.899999999999999E-003    5.596694420942436E-003
 -7.800000000000000E-003    5.555259560992478E-003
 -7.699999999999999E-003    5.510122566841223E-003
 -7.599999999999999E-003    5.461243665908357E-003
 -7.499999999999999E-003    5.408584163968964E-003
 -7.399999999999999E-003    5.352105752429333E-003
 -7.299999999999999E-003    5.291779998892278E-003
 -7.199999999999999E-003    5.227577474402674E-003
 -7.100000000000000E-003    5.159469596457881E-003
 -6.999999999999999E-003    5.087439042799595E-003
 -6.899999999999999E-003    5.011468512714669E-003
 -6.800000000000000E-003    4.931547551872095E-003
 -6.699999999999999E-003    4.847656509380981E-003
 -6.599999999999999E-003    4.759789314321611E-003
 -6.499999999999999E-003    4.667945122475682E-003
 -6.399999999999999E-003    4.572116558488765E-003
 -6.299999999999999E-003    4.472308989248292E-003
 -6.199999999999999E-003    4.368520108827977E-003
 -6.100000000000000E-003    4.260760089792367E-003
 -5.999999999999999E-003    4.149036224039730E-003
 -5.899999999999999E-003    4.033359523638940E-003
 -5.800000000000000E-003    3.913748444723607E-003
 -5.699999999999999E-003    3.790220621138938E-003
 -5.599999999999999E-003    3.662799706370875E-003
 -5.499999999999999E-003    3.531507886887475E-003
 -5.399999999999999E-003    3.396379444643122E-003
 -5.299999999999999E-003    3.257447082426071E-003
 -5.199999999999999E-003    3.114751246524808E-003
 -5.099999999999999E-003    2.968333566338875E-003
 -4.999999999999999E-003    2.818244768836766E-003
 -4.899999999999999E-003    2.664535745381925E-003
 -4.799999999999999E-003    2.507261028309899E-003
 -4.699999999999999E-003    2.346484587570490E-003
 -4.599999999999999E-003    2.182270026762992E-003
 -4.499999999999999E-003    2.014687356089916E-003
 -4.399999999999999E-003    1.843808839589718E-003
 -4.299999999999999E-003    1.669711946438470E-003
 -4.199999999999999E-003    1.492473706549396E-003
 -4.099999999999999E-003    1.312182746253812E-003
 -3.999999999999999E-003    1.128920004634629E-003
 -3.899999999999999E-003    9.427821113985220E-004
 -3.799999999999999E-003    7.538575483141303E-004
 -3.699999999999999E-003    5.622506167283995E-004
 -3.599999999999999E-003    3.680561622087172E-004
 -3.499999999999999E-003    1.713801227213908E-004
 -3.399999999999999E-003   -2.766471152359021E-005
 -3.299999999999999E-003   -2.289691147773290E-004
 -3.199999999999999E-003   -4.324160600429582E-004
 -3.099999999999999E-003   -6.378923956768430E-004
 -2.999999999999999E-003   -8.452717242767478E-004
 -2.899999999999999E-003   -1.054435461689334E-003
 -2.799999999999999E-003   -1.265251438961855E-003
 -2.699999999999999E-003   -1.477591846927789E-003
 -2.599999999999999E-003   -1.691320703568720E-003
 -2.499999999999999E-003   -1.906308473591870E-003
 -2.399999999999999E-003   -2.122416191986196E-003
 -2.299999999999999E-003   -2.339503266774647E-003
 -2.199999999999999E-003   -2.557422332936096E-003
 -2.099999999999999E-003   -2.776043995049394E-003
 -1.999999999999999E-003   -2.995205673926357E-003
 -1.899999999999999E-003   -3.214777693735000E-003
 -1.799999999999999E-003   -3.434595263989947E-003
 -1.699999999999999E-003   -3.654521397332874E-003
 -1.599999999999999E-003   -3.874401014366619E-003
 -1.499999999999999E-003   -4.094080041386127E-003
 -1.399999999999999E-003   -4.313403100768221E-003
 -1.299999999999999E-003   -4.532226522870695E-003
 -1.199999999999999E-003   -4.750379864309106E-003
 -1.099999999999999E-003   -4.967712085536685E-003
 -9.999999999999989E-004   -5.184070937146242E-003
 -8.999999999999990E-004   -5.399288465801975E-003
 -7.999999999999990E-004   -5.613214902312931E-003
 -6.999999999999989E-004   -5.825683503462627E-003
 -5.999999999999990E-004   -6.036557581419126E-003
 -4.999999999999989E-004   -6.245657867226178E-003
 -3.999999999999989E-004   -6.452844760874973E-003
 -2.999999999999989E-004   -6.657945311073402E-003
 -1.999999999999989E-004   -6.860811864477970E-003
 -9.999999999999892E-005   -7.061290719977804E-003
  1.084202172485504E-018   -7.259239322105919E-003
  1.000000000000011E-004   -7.454507098999377E-003
  2.000000000000011E-004   -7.646943254249319E-003
  3.000000000000011E-004   -7.836399390561688E-003
  4.000000000000011E-004   -8.022735830383515E-003
  5.000000000000011E-004   -8.205805360315066E-003
  6.000000000000011E-004   -8.385461833903360E-003
  7.000000000000011E-004   -8.561566475415568E-003
  8.000000000000011E-004   -8.733997694664056E-003
  9.000000000000012E-004   -8.902610154694936E-003
  1.000000000000001E-003   -9.067273127057657E-003
  1.100000000000001E-003   -9.227853883171086E-003
  1.200000000000001E-003   -9.384233852370291E-003
  1.300000000000001E-003   -9.536284177641366E-003
  1.400000000000001E-003   -9.683894292878102E-003
  1.500000000000001E-003   -9.826950331193005E-003
  1.600000000000001E-003   -9.965330039713650E-003
  1.700000000000001E-003   -1.009892537367028E-002
  1.800000000000001E-003   -1.022764709168061E-002
  1.900000000000001E-003   -1.035138194492655E-002
  2.000000000000001E-003   -1.047004018703331E-002
  2.100000000000001E-003   -1.058354542781523E-002
  2.200000000000001E-003   -1.069180024593086E-002
  2.300000000000001E-003   -1.079472844514004E-002
  2.400000000000001E-003   -1.089225511595705E-002
  2.500000000000001E-003   -1.098430756996337E-002
  2.600000000000001E-003   -1.107082954612644E-002
  2.700000000000001E-003   -1.115172970516205E-002
  2.800000000000001E-003   -1.122697816747507E-002
  2.900000000000001E-003   -1.129652086090673E-002
  3.000000000000001E-003   -1.136028788787689E-002
  3.100000000000001E-003   -1.141824905481728E-002
  3.200000000000001E-003   -1.147035287302930E-002
  3.300000000000001E-003   -1.151656023099744E-002
  3.400000000000001E-003   -1.155685265241328E-002
  3.500000000000001E-003   -1.159120768223563E-002
  3.600000000000001E-003   -1.161959124664638E-002
  3.700000000000001E-003   -1.164200454718088E-002
  3.800000000000001E-003   -1.165843424394918E-002
  3.900000000000001E-003   -1.166888813671038E-002
  4.000000000000001E-003   -1.167336085829222E-002
  4.100000000000001E-003   -1.167185336344770E-002
  4.200000000000001E-003   -1.166438735223696E-002
  4.300000000000001E-003   -1.165098224680695E-002
  4.400000000000001E-003   -1.163165205170827E-002
  4.500000000000001E-003   -1.160642419373419E-002
  4.600000000000002E-003   -1.157534467390328E-002
  4.700000000000001E-003   -1.153844090348006E-002
  4.800000000000001E-003   -1.149574773392413E-002
  4.900000000000002E-003   -1.144732538411390E-002
  5.000000000000001E-003   -1.139321837981370E-002
  5.100000000000001E-003   -1.133348281551562E-002
  5.200000000000001E-003   -1.126818895964384E-002
  5.300000000000002E-003   -1.119739349947689E-002
  5.400000000000001E-003   -1.112116115987075E-002
  5.500000000000001E-003   -1.103957970451132E-002
  5.600000000000002E-003   -1.095272839306625E-002
  5.700000000000001E-003   -1.086068977762893E-002
  5.800000000000001E-003   -1.076354638084684E-002
  5.900000000000002E-003   -1.066140159458794E-002
  6.000000000000001E-003   -1.055435013711717E-002
  6.100000000000001E-003   -1.044248103784885E-002
  6.200000000000002E-003   -1.032590367202410E-002
  6.300000000000002E-003   -1.020471986039839E-002
  6.400000000000001E-003   -1.007903120702677E-002
  6.500000000000001E-003   -9.948961661289869E-003
  6.600000000000002E-003   -9.814615223557838E-003
  6.700000000000001E-003   -9.676123447010090E-003
  6.800000000000001E-003   -9.533596217678030E-003
  6.900000000000002E-003   -9.387166946750174E-003
  7.000000000000001E-003   -9.236943893777196E-003
  7.100000000000001E-003   -9.083067213060091E-003
  7.200000000000002E-003   -8.925663490736216E-003
  7.300000000000002E-003   -8.764858592567346E-003
  7.400000000000001E-003   -8.600792981782256E-003
  7.500000000000001E-003   -8.433603202346297E-003
  7.600000000000002E-003   -8.263424219029845E-003
  7.700000000000001E-003   -8.090402068908983E-003
  7.800000000000001E-003   -7.914674518546359E-003
  7.900000000000001E-003   -7.736380689121452E-003
  8.000000000000002E-003   -7.555672909532581E-003
  8.100000000000001E-003   -7.372693145546328E-003
  8.200000000000001E-003   -7.187577829370208E-003
  8.300000000000002E-003   -7.000480638876434E-003
  8.400000000000001E-003   -6.811545169518582E-003
  8.500000000000002E-003   -6.620910759596581E-003
  8.600000000000002E-003   -6.428732042111789E-003
  8.700000000000001E-003   -6.235149782280031E-003
  8.800000000000002E-003   -6.040306768646787E-003
  8.900000000000002E-003   -5.844354819258678E-003
  9.000000000000001E-003   -5.647435410339942E-003
  9.100000000000002E-003   -5.449694485250119E-003
  9.200000000000002E-003   -5.251277303357421E-003
  9.300000000000001E-003   -5.052330932119594E-003
  9.400000000000002E-003   -4.852996863505463E-003
  9.500000000000001E-003   -4.653416036190468E-003
  9.600000000000001E-003   -4.453728506642832E-003
  9.700000000000002E-003   -4.254074735540729E-003
  9.800000000000001E-003   -4.054586907668609E-003
  9.900000000000001E-003   -3.855404627217483E-003
  1.000000000000000E-002   -3.656658182280115E-003
  1.010000000000000E-002   -3.458473674657309E-003
  1.020000000000000E-002   -3.260981352164315E-003
  1.030000000000000E-002   -3.064300945630146E-003
  1.040000000000000E-002   -2.868559075347197E-003
  1.050000000000000E-002   -2.673868229485604E-003
  1.060000000000000E-002   -2.480349731148711E-003
  1.070000000000000E-002   -2.288116623421262E-003
  1.080000000000000E-002   -2.097284487179538E-003
  1.090000000000000E-002   -1.907958476226834E-003
  1.100000000000000E-002   -1.720246948028945E-003
  1.110000000000000E-002   -1.534260175444951E-003
  1.120000000000000E-002   -1.350105303613470E-003
  1.130000000000000E-002   -1.167885588184352E-003
  1.140000000000000E-002   -9.877025822152500E-004
  1.150000000000000E-002   -8.096539834381265E-004
  1.160000000000000E-002   -6.338337150222483E-004
  1.170000000000000E-002   -4.603312245711547E-004
  1.180000000000000E-002   -2.892369454088554E-004
  1.190000000000000E-002   -1.206288847944784E-004
  1.200000000000000E-002    4.541673298294469E-005
  1.210000000000000E-002    2.088261123030510E-004
  1.220000000000000E-002    3.695262202560046E-004
  1.230000000000000E-002    5.274553966117534E-004
  1.240000000000000E-002    6.825519100654778E-004
  1.250000000000000E-002    8.347502846492907E-004
  1.260000000000000E-002    9.839952275326191E-004
  1.270000000000000E-002    1.130230908974381E-003
  1.280000000000000E-002    1.273406277924757E-003
  1.290000000000000E-002    1.413473388087233E-003
  1.300000000000000E-002    1.550378131854210E-003
  1.310000000000000E-002    1.684081958383564E-003
  1.320000000000000E-002    1.814539702765414E-003
  1.330000000000000E-002    1.941718367224517E-003
  1.340000000000000E-002    2.065583469636798E-003
  1.350000000000000E-002    2.186103554123887E-003
  1.360000000000000E-002    2.303252316493847E-003
  1.370000000000000E-002    2.417005968006869E-003
  1.380000000000000E-002    2.527347578911786E-003
  1.390000000000000E-002    2.634263238710089E-003
  1.400000000000000E-002    2.737744309972676E-003
  1.410000000000000E-002    2.837787761264612E-003
  1.420000000000000E-002    2.934379819283744E-003
  1.430000000000000E-002    3.027530588424542E-003
  1.440000000000000E-002    3.117232920339126E-003
  1.450000000000000E-002    3.203492152066300E-003
  1.460000000000000E-002    3.286318707579757E-003
  1.470000000000000E-002    3.365716317658961E-003
  1.480000000000000E-002    3.441698741667590E-003
  1.490000000000000E-002    3.514270575276660E-003
  1.500000000000000E-002    3.583451016976547E-003
  1.510000000000000E-002    3.649254505217631E-003
  1.520000000000000E-002    3.711706001589894E-003
  1.530000000000000E-002    3.770816205098308E-003
  1.540000000000000E-002    3.826615905444405E-003
  1.550000000000000E-002    3.879136835381575E-003
  1.560000000000000E-002    3.928395903487737E-003
  1.570000000000000E-002    3.974436383810603E-003
  1.580000000000000E-002    4.017283461162775E-003
  1.590000000000000E-002    4.056980720526581E-003
  1.600000000000000E-002    4.093565733221914E-003
  1.610000000000000E-002    4.127079700364609E-003
  1.620000000000000E-002    4.157565648211063E-003
  1.630000000000000E-002    4.185061065124195E-003
  1.640000000000000E-002    4.209617575144289E-003
  1.650000000000000E-002    4.231274245048936E-003
  1.660000000000000E-002    4.250084461773648E-003
  1.670000000000000E-002    4.266098177712216E-003
  1.680000000000000E-002    4.279360470954025E-003
  1.690000000000000E-002    4.289929313654219E-003
  1.700000000000000E-002    4.297855672060327E-003
  1.710000000000000E-002    4.303196023724955E-003
  1.720000000000000E-002    4.306000831483633E-003
  1.730000000000000E-002    4.306332950850700E-003
  1.740000000000000E-002    4.304244399854877E-003
  1.750000000000000E-002    4.299791643625268E-003
  1.760000000000000E-002    4.293035621328267E-003
  1.770000000000000E-002    4.284034598572115E-003
  1.780000000000000E-002    4.272851136604788E-003
  1.790000000000000E-002    4.259543652885979E-003
  1.800000000000000E-002    4.244163262591645E-003
  1.810000000000000E-002    4.226781569625495E-003
  1.820000000000000E-002    4.207455407139283E-003
  1.830000000000000E-002    4.186244183510886E-003
  1.840000000000000E-002    4.163212445686675E-003
  1.850000000000000E-002    4.138419174425707E-003
  1.860000000000000E-002    4.111928903068178E-003
  1.870000000000000E-002    4.083808001760203E-003