 -4.000000000000000E-002    0.000000000000000E+000
 -3.990000000000000E-002    0.000000000000000E+000
 -3.980000000000000E-002    0.000000000000000E+000
 -3.970000000000000E-002    0.000000000000000E+000
 -3.960000000000000E-002    0.000000000000000E+000
 -3.950000000000000E-002    0.000000000000000E+000
 -3.940000000000000E-002    0.000000000000000E+000
 -3.930000000000000E-002    0.000000000000000E+000
 -3.920000000000000E-002    0.000000000000000E+000
 -3.910000000000000E-002    0.000000000000000E+000
 -3.900000000000000E-002    0.000000000000000E+000
 -3.890000000000000E-002    0.000000000000000E+000
 -3.880000000000000E-002    0.000000000000000E+000
 -3.870000000000000E-002    0.000000000000000E+000
 -3.860000000000000E-002    0.000000000000000E+000
 -3.850000000000000E-002    0.000000000000000E+000
 -3.840000000000000E-002    0.000000000000000E+000
 -3.830000000000000E-002    0.000000000000000E+000
 -3.820000000000000E-002    0.000000000000000E+000
 -3.810000000000000E-002    0.000000000000000E+000
 -3.800000000000000E-002    0.000000000000000E+000
 -3.790000000000000E-002    0.000000000000000E+000
 -3.780000000000000E-002    0.000000000000000E+000
 -3.770000000000000E-002    0.000000000000000E+000
 -3.760000000000000E-002    0.000000000000000E+000
 -3.750000000000000E-002    0.000000000000000E+000
 -3.740000000000000E-002    0.000000000000000E+000
 -3.730000000000000E-002    0.000000000000000E+000
 -3.720000000000000E-002    0.000000000000000E+000
 -3.710000000000000E-002    0.000000000000000E+000
 -3.700000000000000E-002    0.000000000000000E+000
 -3.690000000000000E-002    0.000000000000000E+000
 -3.680000000000000E-002    0.000000000000000E+000
 -3.670000000000000E-002    0.000000000000000E+000
 -3.660000000000000E-002    0.000000000000000E+000
 -3.650000000000000E-002    0.000000000000000E+000
 -3.640000000000000E-002    0.000000000000000E+000
 -3.630000000000000E-002    0.000000000000000E+000
 -3.620000000000000E-002    0.000000000000000E+000
 -3.610000000000000E-002    0.000000000000000E+000
 -3.600000000000000E-002    0.000000000000000E+000
 -3.590000000000000E-002    0.000000000000000E+000
 -3.580000000000000E-002    0.000000000000000E+000
 -3.570000000000000E-002    0.000000000000000E+000
 -3.560000000000000E-002    0.000000000000000E+000
 -3.550000000000000E-002    0.000000000000000E+000
 -3.540000000000000E-002    0.000000000000000E+000
 -3.530000000000000E-002    0.000000000000000E+000
 -3.520000000000000E-002    0.000000000000000E+000
 -3.510000000000000E-002    0.000000000000000E+000
 -3.500000000000000E-002    0.000000000000000E+000
 -3.490000000000000E-002    0.000000000000000E+000
 -3.480000000000000E-002    0.000000000000000E+000
 -3.470000000000000E-002    0.000000000000000E+000
 -3.460000000000000E-002    0.000000000000000E+000
 -3.450000000000000E-002    0.000000000000000E+000
 -3.440000000000000E-002    0.000000000000000E+000
 -3.430000000000000E-002    0.000000000000000E+000
 -3.420000000000000E-002    0.000000000000000E+000
 -3.410000000000000E-002    0.000000000000000E+000
 -3.400000000000000E-002    0.000000000000000E+000
 -3.390000000000000E-002    0.000000000000000E+000
 -3.380000000000000E-002    0.000000000000000E+000
 -3.370000000000000E-002    0.000000000000000E+000
 -3.360000000000000E-002    0.000000000000000E+000
 -3.350000000000000E-002    0.000000000000000E+000
 -3.340000000000000E-002    0.000000000000000E+000
 -3.330000000000000E-002    0.000000000000000E+000
 -3.320000000000000E-002    0.000000000000000E+000
 -3.310000000000000E-002    0.000000000000000E+000
 -3.300000000000000E-002    0.000000000000000E+000
 -3.290000000000000E-002    0.000000000000000E+000
 -3.280000000000000E-002    0.000000000000000E+000
 -3.270000000000000E-002    0.000000000000000E+000
 -3.260000000000000E-002    0.000000000000000E+000
 -3.250000000000000E-002    0.000000000000000E+000
 -3.240000000000000E-002    0.000000000000000E+000
 -3.230000000000000E-002    0.000000000000000E+000
 -3.220000000000000E-002    0.000000000000000E+000
 -3.210000000000000E-002    0.000000000000000E+000
 -3.200000000000000E-002    0.000000000000000E+000
 -3.190000000000000E-002    0.000000000000000E+000
 -3.180000000000000E-002    0.000000000000000E+000
 -3.170000000000000E-002    0.000000000000000E+000
 -3.160000000000000E-002    0.000000000000000E+000
 -3.150000000000000E-002    0.000000000000000E+000
 -3.140000000000000E-002    0.000000000000000E+000
 -3.130000000000000E-002    0.000000000000000E+000
 -3.120000000000000E-002    0.000000000000000E+000
 -3.110000000000000E-002    0.000000000000000E+000
 -3.100000000000000E-002    0.000000000000000E+000
 -3.090000000000000E-002    0.000000000000000E+000
 -3.080000000000000E-002    0.000000000000000E+000
 -3.070000000000000E-002    0.000000000000000E+000
 -3.060000000000000E-002    0.000000000000000E+000
 -3.050000000000000E-002    0.000000000000000E+000
 -3.040000000000000E-002    0.000000000000000E+000
 -3.030000000000000E-002    0.000000000000000E+000
 -3.020000000000000E-002    0.000000000000000E+000
 -3.010000000000000E-002    0.000000000000000E+000
 -3.000000000000000E-002    0.000000000000000E+000
 -2.990000000000000E-002    0.000000000000000E+000
 -2.980000000000000E-002    0.000000000000000E+000
 -2.970000000000000E-002    0.000000000000000E+000
 -2.960000000000000E-002    0.000000000000000E+000
 -2.950000000000000E-002    0.000000000000000E+000
 -2.940000000000000E-002    0.000000000000000E+000
 -2.930000000000000E-002    0.000000000000000E+000
 -2.920000000000000E-002    0.000000000000000E+000
 -2.910000000000000E-002    0.000000000000000E+000
 -2.900000000000000E-002    0.000000000000000E+000
 -2.890000000000000E-002    0.000000000000000E+000
 -2.880000000000000E-002    0.000000000000000E+000
 -2.870000000000000E-002    0.000000000000000E+000
 -2.860000000000000E-002    0.000000000000000E+000
 -2.850000000000000E-002    0.000000000000000E+000
 -2.840000000000000E-002    0.000000000000000E+000
 -2.830000000000000E-002    0.000000000000000E+000
 -2.820000000000000E-002    0.000000000000000E+000
 -2.810000000000000E-002    0.000000000000000E+000
 -2.800000000000000E-002    0.000000000000000E+000
 -2.790000000000000E-002    0.000000000000000E+000
 -2.780000000000000E-002    0.000000000000000E+000
 -2.770000000000000E-002    0.000000000000000E+000
 -2.760000000000000E-002    0.000000000000000E+000
 -2.750000000000000E-002    0.000000000000000E+000
 -2.740000000000000E-002    0.000000000000000E+000
 -2.730000000000000E-002    0.000000000000000E+000
 -2.720000000000000E-002    0.000000000000000E+000
 -2.710000000000000E-002    0.000000000000000E+000
 -2.700000000000000E-002    0.000000000000000E+000
 -2.690000000000000E-002    0.000000000000000E+000
 -2.680000000000000E-002    0.000000000000000E+000
 -2.670000000000000E-002    0.000000000000000E+000
 -2.660000000000000E-002    0.000000000000000E+000
 -2.650000000000000E-002    0.000000000000000E+000
 -2.640000000000000E-002    0.000000000000000E+000
 -2.630000000000000E-002    0.000000000000000E+000
 -2.620000000000000E-002    0.000000000000000E+000
 -2.610000000000000E-002    0.000000000000000E+000
 -2.600000000000000E-002    0.000000000000000E+000
 -2.590000000000000E-002    0.000000000000000E+000
 -2.580000000000000E-002    0.000000000000000E+000
 -2.570000000000000E-002    0.000000000000000E+000
 -2.560000000000000E-002    0.000000000000000E+000
 -2.550000000000000E-002    0.000000000000000E+000
 -2.540000000000000E-002    0.000000000000000E+000
 -2.530000000000000E-002    0.000000000000000E+000
 -2.520000000000000E-002    0.000000000000000E+000
 -2.510000000000000E-002    0.000000000000000E+000
 -2.500000000000000E-002    0.000000000000000E+000
 -2.490000000000000E-002    0.000000000000000E+000
 -2.480000000000000E-002    0.000000000000000E+000
 -2.470000000000000E-002    0.000000000000000E+000
 -2.460000000000000E-002    0.000000000000000E+000
 -2.450000000000000E-002    0.000000000000000E+000
 -2.440000000000000E-002    0.000000000000000E+000
 -2.430000000000000E-002    0.000000000000000E+000
 -2.420000000000000E-002    0.000000000000000E+000
 -2.410000000000000E-002    0.000000000000000E+000
 -2.400000000000000E-002    0.000000000000000E+000
 -2.390000000000000E-002    0.000000000000000E+000
 -2.380000000000000E-002    0.000000000000000E+000
 -2.370000000000000E-002    0.000000000000000E+000
 -2.360000000000000E-002    0.000000000000000E+000
 -2.350000000000000E-002    0.000000000000000E+000
 -2.340000000000000E-002    0.000000000000000E+000
 -2.330000000000000E-002    0.000000000000000E+000
 -2.320000000000000E-002    0.000000000000000E+000
 -2.310000000000000E-002    0.000000000000000E+000
 -2.300000000000000E-002    0.000000000000000E+000
 -2.290000000000000E-002    0.000000000000000E+000
 -2.280000000000000E-002    0.000000000000000E+000
 -2.270000000000000E-002    0.000000000000000E+000
 -2.260000000000000E-002    0.000000000000000E+000
 -2.250000000000000E-002    0.000000000000000E+000
 -2.240000000000000E-002    0.000000000000000E+000
 -2.230000000000000E-002    0.000000000000000E+000
 -2.220000000000000E-002    0.000000000000000E+000
 -2.210000000000000E-002    2.138211768073757E-048
 -2.200000000000000E-002    4.276423536147513E-048
 -2.190000000000000E-002    6.414635304221270E-048
 -2.180000000000000E-002    1.503421992796275E-047
 -2.170000000000000E-002    2.365380455170423E-047
 -2.160000000000000E-002    3.227338917544571E-047
 -2.150000000000000E-002    3.661655026303968E-047
 -2.140000000000000E-002    4.530287243822762E-047
 -2.130000000000000E-002    5.819888059811661E-047
 -2.120000000000000E-002    5.819888059811661E-047
 -2.110000000000000E-002   -1.164029814398076E-047
 -2.100000000000000E-002   -1.008568579016349E-046
 -2.090000000000000E-002   -2.839021717129700E-046
 -2.080000000000000E-002   -5.206697299319348E-046
 -2.070000000000000E-002   -8.466538479085538E-046
 -2.060000000000000E-002   -1.211392727916286E-045
 -2.050000000000000E-002   -1.637551414696714E-045
 -2.040000000000000E-002   -2.036499599990979E-045
 -2.030000000000000E-002   -2.183497623546845E-045
 -2.020000000000000E-002   -2.040727654080453E-045
 -2.010000000000000E-002   -1.523449768024635E-045
 -2.000000000000000E-002   -5.699083827520355E-046
 -1.990000000000000E-002    1.781325763945691E-045
 -1.980000000000000E-002    4.767676577171919E-045
 -1.970000000000000E-002    8.447541067176457E-045
 -1.960000000000000E-002    1.287207354124260E-044
 -1.950000000000000E-002    1.815455761956910E-044
 -1.940000000000000E-002    2.382151209268876E-044
 -1.930000000000000E-002    2.970856482583211E-044
 -1.920000000000000E-002    3.532244294386265E-044
 -1.910000000000000E-002    3.878038088994514E-044
 -1.900000000000000E-002    3.768829905879486E-044
 -1.890000000000000E-002    3.073894378137674E-044
 -1.880000000000000E-002    1.511052742057293E-044
 -1.870000000000000E-002   -1.149142768051141E-044
 -1.860000000000000E-002   -5.076501586813785E-044
 -1.850000000000000E-002   -1.055457529411916E-043
 -1.840000000000000E-002   -1.745678325998513E-043
 -1.830000000000000E-002   -2.549232329670000E-043
 -1.820000000000000E-002   -3.427349561502957E-043
 -1.810000000000000E-002   -4.274581732790920E-043
 -1.800000000000000E-002   -4.950163297197505E-043
 -1.790000000000000E-002   -5.271787622143663E-043
 -1.780000000000000E-002   -5.013394285793614E-043
 -1.770000000000000E-002   -3.903675324535791E-043
 -1.760000000000000E-002   -1.644361208234179E-043
 -1.750000000000000E-002    2.016202662260471E-043
 -1.740000000000000E-002    7.296411930068313E-043
 -1.730000000000000E-002    1.427419227030111E-042
 -1.720000000000000E-002    2.283499567668265E-042
 -1.710000000000000E-002    3.260375678914086E-042
 -1.700000000000000E-002    4.282653492647523E-042
 -1.690000000000000E-002    5.234349775591753E-042
 -1.680000000000000E-002    5.950617088700944E-042
 -1.670000000000000E-002    6.222348743739151E-042
 -1.660000000000000E-002    5.796791347105353E-042
 -1.650000000000000E-002    4.397203797902343E-042
 -1.640000000000000E-002    1.743919656205887E-042
 -1.630000000000000E-002   -2.411237685918946E-042
 -1.620000000000000E-002   -8.235862157546891E-042
 -1.610000000000000E-002   -1.576157728505269E-041
 -1.600000000000000E-002   -2.482233677817313E-041
 -1.590000000000000E-002   -3.498484237202931E-041
 -1.580000000000000E-002   -4.548902723856595E-041
 -1.570000000000000E-002   -5.519892475202206E-041
 -1.560000000000000E-002   -6.257802158144775E-041
 -1.550000000000000E-002   -6.570052068726269E-041
 -1.540000000000000E-002   -6.231229800330086E-041
 -1.530000000000000E-002   -4.995341922573904E-041
 -1.520000000000000E-002   -2.614319760942579E-041
 -1.510000000000000E-002    1.134858749976324E-041
 -1.500000000000000E-002    6.416077091775965E-041
 -1.490000000000000E-002    1.329250394864982E-040
 -1.480000000000000E-002    2.167885964355693E-040
 -1.470000000000000E-002    3.129041760425072E-040
 -1.460000000000000E-002    4.159080072551143E-040
 -1.450000000000000E-002    5.174387271478592E-040
 -1.440000000000000E-002    6.057461096846221E-040
 -1.430000000000000E-002    6.654657764692025E-040
 -1.420000000000000E-002    6.776462780975673E-040
 -1.410000000000000E-002    6.201325991273010E-040
 -1.400000000000000E-002    4.684294420383030E-040
 -1.390000000000000E-002    1.971994649139189E-040
 -1.380000000000000E-002   -2.174669819614825E-040
 -1.370000000000000E-002   -7.948481592664720E-040
 -1.360000000000000E-002   -1.545329096818574E-039
 -1.350000000000000E-002   -2.465012599629973E-039
 -1.340000000000000E-002   -3.529251349355294E-039
 -1.330000000000000E-002   -4.685311772714093E-039
 -1.320000000000000E-002   -5.844643226027142E-039
 -1.310000000000000E-002   -6.875540695754629E-039
 -1.300000000000000E-002   -7.597415827581070E-039
 -1.290000000000000E-002   -7.778317995947104E-039
 -1.280000000000000E-002   -7.137840821510312E-039
 -1.270000000000000E-002   -5.357905341871846E-039
 -1.260000000000000E-002   -2.104159401761052E-039
 -1.250000000000000E-002    2.939364431015836E-039
 -1.240000000000000E-002    1.002021684394603E-038
 -1.230000000000000E-002    1.925113585946721E-038
 -1.220000000000000E-002    3.052818237069736E-038
 -1.210000000000000E-002    4.343697987846645E-038
 -1.200000000000000E-002    5.715416824781782E-038
 -1.190000000000000E-002    7.035541000551303E-038
 -1.180000000000000E-002    8.114594679717454E-038
 -1.170000000000000E-002    8.703430408985183E-038
 -1.160000000000000E-002    8.497356152722832E-038
 -1.150000000000000E-002    7.149680175273038E-038
 -1.140000000000000E-002    4.297280570926537E-038
 -1.130000000000000E-002   -3.996471739025576E-039
 -1.120000000000000E-002   -7.202454567152034E-038
 -1.110000000000000E-002   -1.622385714259319E-037
 -1.100000000000000E-002   -2.734523532446510E-037
 -1.090000000000000E-002   -4.012676878833993E-037
 -1.080000000000000E-002   -5.371910121321791E-037
 -1.070000000000000E-002   -6.678883511299944E-037
 -1.060000000000000E-002   -7.747374232174509E-037
 -1.050000000000000E-002   -8.338653795073614E-037
 -1.040000000000000E-002   -8.168783687814683E-037
 -1.030000000000000E-002   -6.924878250701389E-037
 -1.020000000000000E-002   -4.292084877882803E-037
 -1.010000000000000E-002    7.596209693755720E-040
 -1.000000000000000E-002    6.164588567762782E-037
 -9.899999999999999E-003    1.422053290382071E-036
 -9.800000000000000E-003    2.399994829941008E-036
 -9.699999999999999E-003    3.504038872488353E-036
 -9.599999999999999E-003    4.652926240011805E-036
 -9.500000000000000E-003    5.725793646840705E-036
 -9.399999999999999E-003    6.560601159251582E-036
 -9.299999999999999E-003    6.957001642804609E-036
 -9.200000000000000E-003    6.685113050034143E-036
 -9.099999999999999E-003    5.501503632636823E-036
 -8.999999999999999E-003    3.173341666456427E-036
 -8.900000000000000E-003   -4.889757455061799E-037
 -8.799999999999999E-003   -5.591303822261357E-036
 -8.699999999999999E-003   -1.210914031517272E-035
 -8.600000000000000E-003   -1.983819641500211E-035
 -8.499999999999999E-003   -2.834703826658519E-035
 -8.399999999999999E-003   -3.693836816962167E-035
 -8.300000000000000E-003   -4.462707390027711E-035
 -8.199999999999999E-003   -5.014427278422636E-035
 -8.100000000000000E-003   -5.197706114634457E-035
 -8.000000000000000E-003   -4.845311175999680E-035
 -7.899999999999999E-003   -3.787740936655821E-035
 -7.800000000000000E-003   -1.872488971956159E-035
 -7.699999999999999E-003    1.011252856440203E-035
 -7.599999999999999E-003    4.903312060927856E-035
 -7.499999999999999E-003    9.740426423111493E-035
 -7.399999999999999E-003    1.532405483277292E-034
 -7.299999999999999E-003    2.129192742600723E-034
 -7.199999999999999E-003    2.709813546076267E-034
 -7.100000000000000E-003    3.200737058132082E-034
 -6.999999999999999E-003    3.510934741759561E-034
 -6.899999999999999E-003    3.535926630092651E-034
 -6.800000000000000E-003    3.164931594705190E-034
 -6.699999999999999E-003    2.291432231345009E-034
 -6.599999999999999E-003    8.271812404673964E-035
 -6.499999999999999E-003   -1.280730817442039E-034
 -6.399999999999999E-003   -4.030619723378736E-034
 -6.299999999999999E-003   -7.346224156277721E-034
 -6.199999999999999E-003   -1.105807295016207E-033
 -6.100000000000000E-003   -1.488887487373222E-033
 -5.999999999999999E-003   -1.844610878831753E-033
 -5.899999999999999E-003   -2.122527437846301E-033
 -5.800000000000000E-003   -2.262729034453190E-033
 -5.699999999999999E-003   -2.199307763981666E-033
 -5.599999999999999E-003   -1.865747570346450E-033
 -5.499999999999999E-003   -1.202312952609074E-033
 -5.399999999999999E-003   -1.652878885868001E-034
 -5.299999999999999E-003    1.262346694255411E-033
 -5.199999999999999E-003    3.059522087380347E-033
 -5.099999999999999E-003    5.156040607838049E-033
 -4.999999999999999E-003    7.423267861909184E-033
 -4.899999999999999E-003    9.668232874461143E-033
 -4.799999999999999E-003    1.163299121321190E-032
 -4.699999999999999E-003    1.300113151424305E-032
 -4.599999999999999E-003    1.341314022349080E-032
 -4.499999999999999E-003    1.249189914576869E-032
 -4.399999999999999E-003    9.878875526404916E-033
 -4.299999999999999E-003    5.280523691137414E-033
 -4.199999999999999E-003   -1.476899959818988E-033
 -4.099999999999999E-003   -1.038746932093418E-032
 -3.999999999999999E-003   -2.120569130304361E-032
 -3.899999999999999E-003   -3.339332748196144E-032
 -3.799999999999999E-003   -4.608108472148606E-032
 -3.699999999999999E-003   -5.805436677488589E-032
 -3.599999999999999E-003   -6.777259255812722E-032
 -3.499999999999999E-003   -7.343086366823277E-032
 -3.399999999999999E-003   -7.307094891956566E-032
 -3.299999999999999E-003   -6.474526513146002E-032
 -3.199999999999999E-003   -4.673280805054375E-032
 -3.099999999999999E-003   -1.779994393222693E-032
 -2.999999999999999E-003    2.250832357966994E-032
 -2.899999999999999E-003    7.356881306005704E-032
 -2.799999999999999E-003    1.334025508974139E-031
 -2.699999999999999E-003    1.984562392836505E-031
 -2.599999999999999E-003    2.634853366373036E-031
 -2.499999999999999E-003    3.215828714813799E-031
 -2.399999999999999E-003    3.643965109120533E-031
 -2.299999999999999E-003    3.825685806916409E-031
 -2.199999999999999E-003    3.664201968690911E-031
 -2.099999999999999E-003    3.068808864095690E-031
 -1.999999999999999E-003    1.966389515156141E-031
 -1.899999999999999E-003    3.145640714967209E-032
 -1.799999999999999E-003   -1.884423132771201E-031
 -1.699999999999999E-003   -4.570331228594762E-031
 -1.599999999999999E-003   -7.613649506313869E-031
 -1.499999999999999E-003   -1.080823681859315E-030
 -1.399999999999999E-003   -1.386982406705087E-030
 -1.299999999999999E-003   -1.644226917167495E-030
 -1.199999999999999E-003   -1.811318836086827E-030
 -1.099999999999999E-003   -1.844007850278072E-030
 -9.999999999999989E-004   -1.698725501343625E-030
 -8.999999999999990E-004   -1.337288681841364E-030
 -7.999999999999990E-004   -7.324151589856586E-031
 -6.999999999999989E-004    1.262894301676138E-031
 -5.999999999999990E-004    1.226358147098522E-030
 -4.999999999999989E-004    2.527126295515846E-030
 -3.999999999999989E-004    3.955763629054876E-030
 -2.999999999999989E-004    5.405471292918590E-030
 -1.999999999999989E-004    6.736641872964023E-030
 -9.999999999999892E-005    7.781689964669466E-030
  1.084202172485504E-018    8.354090851251907E-030
  1.000000000000011E-004    8.261869865713032E-030
  2.000000000000011E-004    7.325405180778304E-030
  3.000000000000011E-004    5.398924794563130E-030
  4.000000000000011E-004    2.394528666217093E-030
  5.000000000000011E-004   -1.692997000337993E-030
  6.000000000000011E-004   -6.762867897976573E-030
  7.000000000000011E-004   -1.258924180934285E-029
  8.000000000000011E-004   -1.880947345336784E-029
  9.000000000000012E-004   -2.492282591507180E-029
  1.000000000000001E-003   -3.030257041521500E-029
  1.100000000000001E-003   -3.422381743373012E-029
  1.200000000000001E-003   -3.590850185042263E-029
  1.300000000000001E-003   -3.458756470442985E-029
  1.400000000000001E-003   -2.957868724937216E-029
  1.500000000000001E-003   -2.037598601932982E-029
  1.600000000000001E-003   -6.745897943883393E-030
  1.700000000000001E-003    1.117853546693468E-029
  1.800000000000001E-003    3.281470912491249E-029
  1.900000000000001E-003    5.706983292345462E-029
  2.000000000000001E-003    8.231430903510618E-029
  2.100000000000001E-003    1.064003692586769E-028
  2.200000000000001E-003    1.267356707435641E-028
  2.300000000000001E-003    1.404185603520593E-028
  2.400000000000001E-003    1.444374422284856E-028
  2.500000000000001E-003    1.359309415780325E-028
  2.600000000000001E-003    1.124989762029283E-028
  2.700000000000001E-003    7.254737311071820E-029
  2.800000000000001E-003    1.564105106458539E-029
  2.900000000000001E-003   -5.716577961339059E-029
  3.000000000000001E-003   -1.430600547819266E-028
  3.100000000000001E-003   -2.373011507587175E-028
  3.200000000000001E-003   -3.331940134043101E-028
  3.300000000000001E-003   -4.222405707221710E-028
  3.400000000000001E-003   -4.944984052518776E-028
  3.500000000000001E-003   -5.391622264141398E-028
  3.600000000000001E-003   -5.453660526493699E-028
  3.700000000000001E-003   -5.031828908661299E-028
  3.800000000000001E-003   -4.047743500486084E-028
  3.900000000000001E-003   -2.456169280331360E-028
  4.000000000000001E-003   -2.570786197513070E-029
  4.100000000000001E-003    2.493675512573596E-028
  4.200000000000001E-003    5.676392852662241E-028
  4.300000000000001E-003    9.103641075227242E-028
  4.400000000000001E-003    1.252174824023635E-027
  4.500000000000001E-003    1.561877771550006E-027
  4.600000000000002E-003    1.803970598964011E-027
  4.700000000000001E-003    1.940905417207282E-027
  4.800000000000001E-003    1.936052956986944E-027
  4.900000000000002E-003    1.757254139325770E-027
  5.000000000000001E-003    1.380759527545201E-027
  5.100000000000001E-003    7.952820353090512E-028
  5.200000000000001E-003    5.812725831402310E-030
  5.300000000000002E-003   -9.632013707519258E-028
  5.400000000000001E-003   -2.065751166863749E-027
  5.500000000000001E-003   -3.233659096406039E-027
  5.600000000000002E-003   -4.377850266146916E-027
  5.700000000000001E-003   -5.391795987910706E-027
  5.800000000000001E-003   -6.157281036092291E-027
  5.900000000000002E-003   -6.552468528500906E-027
  6.000000000000001E-003   -6.462017802737136E-027
  6.100000000000001E-003   -5.788774273431395E-027
  6.200000000000002E-003   -4.466301287008305E-027
  6.300000000000002E-003   -2.471298260814537E-027
  6.400000000000001E-003    1.652390700792394E-028
  6.500000000000001E-003    3.349388190121835E-027
  6.600000000000002E-003    6.919498677146366E-027
  6.700000000000001E-003    1.064642860888756E-026
  6.800000000000001E-003    1.423984762661689E-026
  6.900000000000002E-003    1.736125158504244E-026
  7.000000000000001E-003    1.964389575725749E-026
  7.100000000000001E-003    2.071924477981838E-026
  7.200000000000002E-003    2.024889962585963E-026
  7.300000000000002E-003    1.796021371859514E-026
  7.400000000000001E-003    1.368318765620077E-026
  7.500000000000001E-003    7.385598454065279E-027
  7.600000000000002E-003   -7.970912475485267E-028
  7.700000000000001E-003   -1.054069404829879E-026
  7.800000000000001E-003   -2.132373585322611E-026
  7.900000000000001E-003   -3.243445667335334E-026
  8.000000000000002E-003   -4.299578634719960E-026
  8.100000000000001E-003   -5.200944521557389E-026
  8.200000000000001E-003   -5.841889205711311E-026
  8.300000000000002E-003   -6.118914200954592E-026
  8.400000000000001E-003   -5.939955756100660E-026
  8.500000000000002E-003   -5.234388891126354E-026
  8.600000000000002E-003   -3.963012877737782E-026
  8.700000000000001E-003   -2.127147371902855E-026
  8.800000000000002E-003    2.241168601047478E-027
  8.900000000000002E-003    2.989475030960401E-026
  9.000000000000001E-003    6.014650620757936E-026
  9.100000000000002E-003    9.096046907465068E-026
  9.200000000000002E-003    1.198926342495450E-025
  9.300000000000001E-003    1.442256723207124E-025
  9.400000000000002E-003    1.611503653081140E-025
  9.500000000000001E-003    1.679858651553449E-025
  9.600000000000001E-003    1.624265086436562E-025
  9.700000000000002E-003    1.427983598933998E-025
  9.800000000000001E-003    1.083051057263990E-025
  9.900000000000001E-003    5.924050445971611E-026
  1.000000000000000E-002   -2.856397811441143E-027
  1.010000000000000E-002   -7.512562272118385E-026
  1.020000000000000E-002   -1.534096646748739E-025
  1.030000000000000E-002   -2.323894460746915E-025
  1.040000000000000E-002   -3.058391207729711E-025
  1.050000000000000E-002   -3.669965595111442E-025
  1.060000000000000E-002   -4.090357852695659E-025
  1.070000000000000E-002   -4.256170999633780E-025
  1.080000000000000E-002   -4.114798309501446E-025
  1.090000000000000E-002   -3.630340991671262E-025
  1.100000000000000E-002   -2.789015192729605E-025
  1.110000000000000E-002   -1.603519107048575E-025
  1.120000000000000E-002   -1.158412574738675E-026
  1.130000000000000E-002    1.601944644144168E-025
  1.140000000000000E-002    3.449248261032244E-025
  1.150000000000000E-002    5.301089176223006E-025
  1.160000000000000E-002    7.014783751879164E-025
  1.170000000000000E-002    8.438977058554270E-025
  1.180000000000000E-002    9.424576745199218E-025
  1.190000000000000E-002    9.836923067807012E-025
  1.200000000000000E-002    9.568341538935331E-025
  1.210000000000000E-002    8.550078217375643E-025
  1.220000000000000E-002    6.762561682040225E-025
  1.230000000000000E-002    4.242922876696026E-025
  1.240000000000000E-002    1.088841732142923E-025
  1.250000000000000E-002   -2.542034400013309E-025
  1.260000000000000E-002   -6.437547146978331E-025
  1.270000000000000E-002   -1.034145041581612E-024
  1.280000000000000E-002   -1.396846481779739E-024
  1.290000000000000E-002   -1.702322006826161E-024
  1.300000000000000E-002   -1.922190146422597E-024
  1.310000000000000E-002   -2.031509504171731E-024
  1.320000000000000E-002   -2.011005419697202E-024
  1.330000000000000E-002   -1.849050092450691E-024
  1.340000000000000E-002   -1.543211299371977E-024
  1.350000000000000E-002   -1.101204783340923E-024
  1.360000000000000E-002   -5.411247582792254E-025
  1.370000000000000E-002    1.091220836852613E-025
  1.380000000000000E-002    8.131897009594158E-025
  1.390000000000000E-002    1.528411157956852E-024
  1.400000000000000E-002    2.208531909451513E-024
  1.410000000000000E-002    2.806864543678591E-024
  1.420000000000000E-002    3.279617848014629E-024
  1.430000000000000E-002    3.589125418249941E-024
  1.440000000000000E-002    3.706692389452448E-024
  1.450000000000000E-002    3.614799977912584E-024
  1.460000000000000E-002    3.308457462119427E-024
  1.470000000000000E-002    2.795566534455540E-024
  1.480000000000000E-002    2.096253507039337E-024
  1.490000000000000E-002    1.241235104043935E-024
  1.500000000000000E-002    2.693844940839574E-025
  1.510000000000000E-002   -7.752408517900267E-025
  1.520000000000000E-002   -1.846573486457932E-024
  1.530000000000000E-002   -2.899544845688575E-024
  1.540000000000000E-002   -3.892560520369774E-024
  1.550000000000000E-002   -4.789129434772942E-024
  1.560000000000000E-002   -5.558429932994514E-024
  1.570000000000000E-002   -6.174729058185980E-024
  1.580000000000000E-002   -6.615748019650685E-024
  1.590000000000000E-002   -6.860228444878603E-024
  1.600000000000000E-002   -6.885135463663611E-024
  1.610000000000000E-002   -6.663065422698959E-024
  1.620000000000000E-002   -6.160507275679722E-024
  1.630000000000000E-002   -5.337619988741366E-024
  1.640000000000000E-002   -4.150104560567588E-024
  1.650000000000000E-002   -2.553577868598983E-024
  1.660000000000000E-002   -5.105923397223589E-025
  1.670000000000000E-002    1.999911937417993E-024
  1.680000000000000E-002    4.971296580827280E-024
  1.690000000000000E-002    8.357078585292900E-024
  1.700000000000000E-002    1.205929985814210E-023
  1.710000000000000E-002    1.591907907671718E-023
  1.720000000000000E-002    1.971117553361100E-023
  1.730000000000000E-002    2.314435661379994E-023
  1.740000000000000E-002    2.586914678180186E-023
  1.750000000000000E-002    2.749406686442742E-023
  1.760000000000000E-002    2.761084989758458E-023
  1.770000000000000E-002    2.582814662759731E-023
  1.780000000000000E-002    2.181237869389925E-023
  1.790000000000000E-002    1.533319147598624E-023
  1.800000000000000E-002    6.310095715369612E-024
  1.810000000000000E-002   -5.144117867084150E-024
  1.820000000000000E-002   -1.868808016903951E-023
  1.830000000000000E-002   -3.372979996911847E-023
  1.840000000000000E-002   -4.942273569607042E-023
  1.850000000000000E-002   -6.468410772015595E-023
  1.860000000000000E-002   -7.823813710959056E-023
  1.870000000000000E-002   -8.868518215162260E-023