 -4.000000000000000E-002    0.000000000000000E+000
 -3.990000000000000E-002    0.000000000000000E+000
 -3.980000000000000E-002    0.000000000000000E+000
 -3.970000000000000E-002    0.000000000000000E+000
 -3.960000000000000E-002    0.000000000000000E+000
 -3.950000000000000E-002    0.000000000000000E+000
 -3.940000000000000E-002    0.000000000000000E+000
 -3.930000000000000E-002    0.000000000000000E+000
 -3.920000000000000E-002    0.000000000000000E+000
 -3.910000000000000E-002    0.000000000000000E+000
 -3.900000000000000E-002    0.000000000000000E+000
 -3.890000000000000E-002    0.000000000000000E+000
 -3.880000000000000E-002    0.000000000000000E+000
 -3.870000000000000E-002    0.000000000000000E+000
 -3.860000000000000E-002    0.000000000000000E+000
 -3.850000000000000E-002    0.000000000000000E+000
 -3.840000000000000E-002    0.000000000000000E+000
 -3.830000000000000E-002    0.000000000000000E+000
 -3.820000000000000E-002    0.000000000000000E+000
 -3.810000000000000E-002    0.000000000000000E+000
 -3.800000000000000E-002    0.000000000000000E+000
 -3.790000000000000E-002    0.000000000000000E+000
 -3.780000000000000E-002    0.000000000000000E+000
 -3.770000000000000E-002    0.000000000000000E+000
 -3.760000000000000E-002    0.000000000000000E+000
 -3.750000000000000E-002    0.000000000000000E+000
 -3.740000000000000E-002    0.000000000000000E+000
 -3.730000000000000E-002    0.000000000000000E+000
 -3.720000000000000E-002    0.000000000000000E+000
 -3.710000000000000E-002    0.000000000000000E+000
 -3.700000000000000E-002    0.000000000000000E+000
 -3.690000000000000E-002    0.000000000000000E+000
 -3.680000000000000E-002    0.000000000000000E+000
 -3.670000000000000E-002    0.000000000000000E+000
 -3.660000000000000E-002    0.000000000000000E+000
 -3.650000000000000E-002    0.000000000000000E+000
 -3.640000000000000E-002    0.000000000000000E+000
 -3.630000000000000E-002    0.000000000000000E+000
 -3.620000000000000E-002    0.000000000000000E+000
 -3.610000000000000E-002    0.000000000000000E+000
 -3.600000000000000E-002    0.000000000000000E+000
 -3.590000000000000E-002    0.000000000000000E+000
 -3.580000000000000E-002    0.000000000000000E+000
 -3.570000000000000E-002    0.000000000000000E+000
 -3.560000000000000E-002    0.000000000000000E+000
 -3.550000000000000E-002    0.000000000000000E+000
 -3.540000000000000E-002    0.000000000000000E+000
 -3.530000000000000E-002    0.000000000000000E+000
 -3.520000000000000E-002    0.000000000000000E+000
 -3.510000000000000E-002    0.000000000000000E+000
 -3.500000000000000E-002    0.000000000000000E+000
 -3.490000000000000E-002    0.000000000000000E+000
 -3.480000000000000E-002    0.000000000000000E+000
 -3.470000000000000E-002    0.000000000000000E+000
 -3.460000000000000E-002    0.000000000000000E+000
 -3.450000000000000E-002    0.000000000000000E+000
 -3.440000000000000E-002    0.000000000000000E+000
 -3.430000000000000E-002    0.000000000000000E+000
 -3.420000000000000E-002    0.000000000000000E+000
 -3.410000000000000E-002    0.000000000000000E+000
 -3.400000000000000E-002    0.000000000000000E+000
 -3.390000000000000E-002    0.000000000000000E+000
 -3.380000000000000E-002    0.000000000000000E+000
 -3.370000000000000E-002    0.000000000000000E+000
 -3.360000000000000E-002    0.000000000000000E+000
 -3.350000000000000E-002    0.000000000000000E+000
 -3.340000000000000E-002    0.000000000000000E+000
 -3.330000000000000E-002    0.000000000000000E+000
 -3.320000000000000E-002    0.000000000000000E+000
 -3.310000000000000E-002    0.000000000000000E+000
 -3.300000000000000E-002    0.000000000000000E+000
 -3.290000000000000E-002    0.000000000000000E+000
 -3.280000000000000E-002    0.000000000000000E+000
 -3.270000000000000E-002   -2.138211768073757E-048
 -3.260000000000000E-002   -4.276423536147513E-048
 -3.250000000000000E-002   -5.480495881413462E-047
 -3.240000000000000E-002   -1.053334940921217E-046
 -3.230000000000000E-002   -1.537238176020351E-046
 -3.220000000000000E-002   -1.494473940658876E-046
 -3.210000000000000E-002   -8.181316464331041E-047
 -3.200000000000000E-002    5.138381998521661E-047
 -3.190000000000000E-002    3.996576914370275E-046
 -3.180000000000000E-002    1.030642679134699E-045
 -3.170000000000000E-002    2.041252905200952E-045
 -3.160000000000000E-002    3.608799254238078E-045
 -3.150000000000000E-002    5.916352174099702E-045
 -3.140000000000000E-002    8.900754071553733E-045
 -3.130000000000000E-002    1.238097667801037E-044
 -3.120000000000000E-002    1.526571884276786E-044
 -3.110000000000000E-002    1.767932509272271E-044
 -3.100000000000000E-002    1.607115346091538E-044
 -3.090000000000000E-002    6.210517722496403E-045
 -3.080000000000000E-002   -1.899817062572644E-044
 -3.070000000000000E-002   -6.767658136189297E-044
 -3.060000000000000E-002   -1.502402859052823E-043
 -3.050000000000000E-002   -2.791865632634519E-043
 -3.040000000000000E-002   -4.646953735243176E-043
 -3.030000000000000E-002   -7.094828117002841E-043
 -3.020000000000000E-002   -1.001575237813671E-042
 -3.010000000000000E-002   -1.302942143064090E-042
 -3.000000000000000E-002   -1.529854692805924E-042
 -2.990000000000000E-002   -1.534099115221883E-042
 -2.980000000000000E-002   -1.082132981431677E-042
 -2.970000000000000E-002    1.645133129898166E-043
 -2.960000000000000E-002    2.656845829599210E-042
 -2.950000000000000E-002    6.939683579747536E-042
 -2.940000000000000E-002    1.358920859828611E-041
 -2.930000000000000E-002    2.308446375787212E-041
 -2.920000000000000E-002    3.558212148526718E-041
 -2.910000000000000E-002    5.056993171300538E-041
 -2.900000000000000E-002    6.638393113131101E-041
 -2.890000000000000E-002    7.958785032184890E-041
 -2.880000000000000E-002    8.425623467675382E-041
 -2.870000000000000E-002    7.126904759733426E-041
 -2.860000000000000E-002    2.780167706352116E-041
 -2.850000000000000E-002   -6.269028406592799E-041
 -2.840000000000000E-002   -2.195564616683022E-040
 -2.830000000000000E-002   -4.625666297799336E-040
 -2.820000000000000E-002   -8.073904541220936E-040
 -2.810000000000000E-002   -1.258301019466004E-039
 -2.800000000000000E-002   -1.797582651977089E-039
 -2.790000000000000E-002   -2.371512783735714E-039
 -2.780000000000000E-002   -2.873504628228773E-039
 -2.770000000000000E-002   -3.126108560812212E-039
 -2.760000000000000E-002   -2.865193699418582E-039
 -2.750000000000000E-002   -1.731609292707677E-039
 -2.740000000000000E-002    7.219884225861322E-040
 -2.730000000000000E-002    4.999220254971886E-039
 -2.720000000000000E-002    1.159125858331944E-038
 -2.710000000000000E-002    2.085921925468319E-038
 -2.700000000000000E-002    3.285757780622799E-038
 -2.690000000000000E-002    4.709415446139187E-038
 -2.680000000000000E-002    6.223269637933382E-038
 -2.670000000000000E-002    7.576058368803061E-038
 -2.660000000000000E-002    8.366699369110722E-038
 -2.650000000000000E-002    8.020573424707382E-038
 -2.640000000000000E-002    5.784929060051308E-038
 -2.630000000000000E-002    7.572647674117575E-039
 -2.620000000000000E-002   -8.037027318515919E-038
 -2.610000000000000E-002   -2.150072136735117E-037
 -2.600000000000000E-002   -4.023968375289666E-037
 -2.590000000000000E-002   -6.424827399779997E-037
 -2.580000000000000E-002   -9.250889353845510E-037
 -2.570000000000000E-002   -1.225279917640052E-036
 -2.560000000000000E-002   -1.498565090466125E-036
 -2.550000000000000E-002   -1.676744814831314E-036
 -2.540000000000000E-002   -1.665551438959209E-036
 -2.530000000000000E-002   -1.345588717108689E-036
 -2.520000000000000E-002   -5.783494510602045E-037
 -2.510000000000000E-002    7.807939384141241E-037
 -2.500000000000000E-002    2.860887814838660E-036
 -2.490000000000000E-002    5.743793337763509E-036
 -2.480000000000000E-002    9.422533984876988E-036
 -2.470000000000000E-002    1.375107610761005E-035
 -2.460000000000000E-002    1.838926110671251E-035
 -2.450000000000000E-002    2.274939537511625E-035
 -2.440000000000000E-002    2.595413225271532E-035
 -2.430000000000000E-002    2.681847663737700E-035
 -2.420000000000000E-002    2.387144074887419E-035
 -2.410000000000000E-002    1.543451208682266E-035
 -2.400000000000000E-002   -2.262080673841714E-037
 -2.390000000000000E-002   -2.466030110194195E-035
 -2.380000000000000E-002   -5.889843477587792E-035
 -2.370000000000000E-002   -1.030262191026600E-034
 -2.360000000000000E-002   -1.556851986429052E-034
 -2.350000000000000E-002   -2.135389964514374E-034
 -2.340000000000000E-002   -2.707658653993892E-034
 -2.330000000000000E-002   -3.186634563811719E-034
 -2.320000000000000E-002   -3.454753076231173E-034
 -2.310000000000000E-002   -3.365678781318105E-034
 -2.300000000000000E-002   -2.750963819903979E-034
 -2.290000000000000E-002   -1.432936181114400E-034
 -2.280000000000000E-002    7.550939306136233E-035
 -2.270000000000000E-002    3.940711725457142E-034
 -2.260000000000000E-002    8.176561774617882E-034
 -2.250000000000000E-002    1.339809988723757E-033
 -2.240000000000000E-002    1.937765665434091E-033
 -2.230000000000000E-002    2.567918857010280E-033
 -2.220000000000000E-002    3.161992748284553E-033
 -2.210000000000000E-002    3.624693263492141E-033
 -2.200000000000000E-002    3.833811803746627E-033
 -2.190000000000000E-002    3.643834837305899E-033
 -2.180000000000000E-002    2.894132952160431E-033
 -2.170000000000000E-002    1.422687847241716E-033
 -2.160000000000000E-002   -9.139727276168070E-034
 -2.150000000000000E-002   -4.214444726369466E-033
 -2.140000000000000E-002   -8.500260165538868E-033
 -2.130000000000000E-002   -1.367933543905377E-032
 -2.120000000000000E-002   -1.950773990431846E-032
 -2.110000000000000E-002   -2.555379928577306E-032
 -2.100000000000000E-002   -3.117000240730443E-032
 -2.090000000000000E-002   -3.547948277472262E-032
 -2.080000000000000E-002   -3.738494993194442E-032
 -2.070000000000000E-002   -3.560845269773986E-032
 -2.060000000000000E-002   -2.877005700016109E-032
 -2.050000000000000E-002   -1.551212636674775E-032
 -2.040000000000000E-002    5.327017238631062E-033
 -2.030000000000000E-002    3.449075430032480E-032
 -2.020000000000000E-002    7.204018042629595E-032
 -2.010000000000000E-002    1.170635201051339E-031
 -2.000000000000000E-002    1.673833893355970E-031
 -1.990000000000000E-002    2.192965876287919E-031
 -1.980000000000000E-002    2.673911269976656E-031
 -1.970000000000000E-002    3.044936164340325E-031
 -1.960000000000000E-002    3.218055842949042E-031
 -1.950000000000000E-002    3.092873010423219E-031
 -1.940000000000000E-002    2.563408609748705E-031
 -1.930000000000000E-002    1.528283239318312E-031
 -1.920000000000000E-002   -9.566106247056288E-033
 -1.910000000000000E-002   -2.356581727161259E-031
 -1.900000000000000E-002   -5.248475033349956E-031
 -1.890000000000000E-002   -8.690982223309761E-031
 -1.880000000000000E-002   -1.251014363432688E-030
 -1.870000000000000E-002   -1.642271067176886E-030
 -1.860000000000000E-002   -2.002716497009532E-030
 -1.850000000000000E-002   -2.280497399935406E-030
 -1.840000000000000E-002   -2.413570127342044E-030
 -1.830000000000000E-002   -2.332927606630048E-030
 -1.820000000000000E-002   -1.967793756183835E-030
 -1.810000000000000E-002   -1.252899206071454E-030
 -1.800000000000000E-002   -1.377521472499273E-031
 -1.790000000000000E-002    1.402438553638734E-030
 -1.780000000000000E-002    3.354839724357655E-030
 -1.770000000000000E-002    5.657059983636723E-030
 -1.760000000000000E-002    8.186535900107473E-030
 -1.750000000000000E-002    1.075287651678288E-029
 -1.740000000000000E-002    1.309502132661702E-029
 -1.730000000000000E-002    1.488516220385850E-029
 -1.720000000000000E-002    1.574127845310883E-029
 -1.710000000000000E-002    1.524978837987534E-029
 -1.700000000000000E-002    1.299921736678756E-029
 -1.690000000000000E-002    8.624864432236409E-030
 -1.680000000000000E-002    1.863251840616147E-030
 -1.670000000000000E-002   -7.386315661813836E-030
 -1.660000000000000E-002   -1.899736147661480E-029
 -1.650000000000000E-002   -3.255500154158324E-029
 -1.640000000000000E-002   -4.730534284604887E-029
 -1.630000000000000E-002   -6.212428236315019E-029
 -1.620000000000000E-002   -7.551514457893901E-029
 -1.610000000000000E-002   -8.564446300651268E-029
 -1.600000000000000E-002   -9.042418401930077E-029
 -1.590000000000000E-002   -8.764613746392834E-029
 -1.580000000000000E-002   -7.517114146824229E-029
 -1.570000000000000E-002   -5.117005927206458E-029
 -1.560000000000000E-002   -1.440793532513807E-029
 -1.550000000000000E-002    3.544461754263515E-029
 -1.540000000000000E-002    9.749645965483675E-029
 -1.530000000000000E-002    1.693482967536605E-028
 -1.520000000000000E-002    2.468700868125857E-028
 -1.510000000000000E-002    3.240855965372892E-028
 -1.500000000000000E-002    3.932083872253357E-028
 -1.490000000000000E-002    4.448711366461422E-028
 -1.480000000000000E-002    4.685835906506130E-028
 -1.470000000000000E-002    4.534417198608079E-028
 -1.460000000000000E-002    3.890926073061613E-028
 -1.450000000000000E-002    2.669351060534967E-028
 -1.440000000000000E-002    8.150697099068826E-029
 -1.430000000000000E-002   -1.680241980492069E-028
 -1.420000000000000E-002   -4.763834390435168E-028
 -1.410000000000000E-002   -8.308759039859108E-028
 -1.400000000000000E-002   -1.210418502190351E-027
 -1.390000000000000E-002   -1.585115784639163E-027
 -1.380000000000000E-002   -1.916583413528580E-027
 -1.370000000000000E-002   -2.159212320288353E-027
 -1.360000000000000E-002   -2.262527246001391E-027
 -1.350000000000000E-002   -2.174734629893004E-027
 -1.340000000000000E-002   -1.847461054160141E-027
 -1.330000000000000E-002   -1.241570388749309E-027
 -1.320000000000000E-002   -3.338023918904786E-028
 -1.310000000000000E-002    8.761787376883648E-028
 -1.300000000000000E-002    2.358905875165099E-027
 -1.290000000000000E-002    4.049129824380783E-027
 -1.280000000000000E-002    5.841609245934282E-027
 -1.270000000000000E-002    7.589611208828509E-027
 -1.260000000000000E-002    9.107084881685561E-027
 -1.250000000000000E-002    1.017538858945294E-026
 -1.240000000000000E-002    1.055526361109802E-026
 -1.230000000000000E-002    1.000442390854432E-026
 -1.220000000000000E-002    8.300695385023937E-027
 -1.210000000000000E-002    5.270042583253729E-027
 -1.200000000000000E-002    8.181627267153543E-028
 -1.190000000000000E-002   -5.036443330920585E-027
 -1.180000000000000E-002   -1.213078692470024E-026
 -1.170000000000000E-002   -2.013063416565926E-026
 -1.160000000000000E-002   -2.851282680322436E-026
 -1.150000000000000E-002   -3.656109872895878E-026
 -1.140000000000000E-002   -4.337981538169604E-026
 -1.130000000000000E-002   -4.792952616595823E-026
 -1.120000000000000E-002   -4.908723482319623E-026
 -1.110000000000000E-002   -4.573265642096222E-026
 -1.100000000000000E-002   -3.685952851800340E-026
 -1.090000000000000E-002   -2.170824899901806E-026
 -1.080000000000000E-002    8.701763529643295E-029
 -1.070000000000000E-002    2.834713197041730E-026
 -1.060000000000000E-002    6.220635946190186E-026
 -1.050000000000000E-002    9.999701857115709E-026
 -1.040000000000000E-002    1.391793772927912E-025
 -1.030000000000000E-002    1.763364855412662E-025
 -1.020000000000000E-002    2.072532111765909E-025
 -1.010000000000000E-002    2.270954904162100E-025
 -1.000000000000000E-002    2.307009713037947E-025
 -9.899999999999999E-003    2.129841631824653E-025
 -9.800000000000000E-003    1.694490311266735E-025
 -9.699999999999999E-003    9.678969367700208E-026
 -9.599999999999999E-003   -6.454181561194706E-027
 -9.500000000000000E-003   -1.392350239607071E-025
 -9.399999999999999E-003   -2.973895347815269E-025
 -9.299999999999999E-003   -4.731586282190776E-025
 -9.200000000000000E-003   -6.549157858385622E-025
 -9.099999999999999E-003   -8.271863459078062E-025
 -8.999999999999999E-003   -9.710353300484111E-025
 -8.900000000000000E-003   -1.064886863086335E-024
 -8.799999999999999E-003   -1.085814194130937E-024
 -8.699999999999999E-003   -1.011306105657903E-024
 -8.600000000000000E-003   -8.214724986224174E-025
 -8.499999999999999E-003   -5.016002792040857E-025
 -8.399999999999999E-003   -4.491641180255677E-026
 -8.300000000000000E-003    5.446417764218177E-025
 -8.199999999999999E-003    1.249901560590277E-024
 -8.100000000000000E-003    2.038469628116233E-024
 -8.000000000000000E-003    2.861607396197199E-024
 -7.899999999999999E-003    3.654291158132197E-024
 -7.800000000000000E-003    4.336757082168722E-024
 -7.699999999999999E-003    4.817770909708517E-024
 -7.599999999999999E-003    4.999771551770829E-024
 -7.499999999999999E-003    4.785907593837635E-024
 -7.399999999999999E-003    4.088815504761708E-024
 -7.299999999999999E-003    2.840810268382634E-024
 -7.199999999999999E-003    1.004941106806128E-024
 -7.100000000000000E-003   -1.413838334848863E-024
 -6.999999999999999E-003   -4.358332904293149E-024
 -6.899999999999999E-003   -7.710707250236782E-024
 -6.800000000000000E-003   -1.128723479118247E-023
 -6.699999999999999E-003   -1.483742287889467E-023
 -6.599999999999999E-003   -1.804866041465599E-023
 -6.499999999999999E-003   -2.055736459105435E-023
 -6.399999999999999E-003   -2.196724247521206E-023
 -6.299999999999999E-003   -2.187486238452188E-023
 -6.199999999999999E-003   -1.990213696630278E-023
 -6.100000000000000E-003   -1.573467769489941E-023
 -5.999999999999999E-003   -9.164168023340314E-024
 -5.899999999999999E-003   -1.322004404810005E-025
 -5.800000000000000E-003    1.122776343986527E-023
 -5.699999999999999E-003    2.455426562758682E-023
 -5.599999999999999E-003    3.923197293060879E-023
 -5.499999999999999E-003    5.438064519403147E-023
 -5.399999999999999E-003    6.886347542146763E-023
 -5.299999999999999E-003    8.131865985532361E-023
 -5.199999999999999E-003    9.021721168457986E-023
 -5.099999999999999E-003    9.394842119906397E-023
 -4.999999999999999E-003    9.093258423282565E-023
 -4.899999999999999E-003    7.975805265318207E-023
 -4.799999999999999E-003    5.933726639998424E-023
 -4.699999999999999E-003    2.907328810793712E-023
 -4.599999999999999E-003   -1.097420719317584E-023
 -4.499999999999999E-003   -5.993726758013093E-023
 -4.399999999999999E-003   -1.160181015442719E-022
 -4.299999999999999E-003   -1.764145184354735E-022
 -4.199999999999999E-003   -2.373095168164450E-022
 -4.099999999999999E-003   -2.939407219636255E-022
 -3.999999999999999E-003   -3.407625681333546E-022
 -3.899999999999999E-003   -3.717097035003423E-022
 -3.799999999999999E-003   -3.805631196510401E-022
 -3.699999999999999E-003   -3.614134902002529E-022
 -3.599999999999999E-003   -3.092062578031943E-022
 -3.499999999999999E-003   -2.203427470376124E-022
 -3.399999999999999E-003   -9.330203921890672E-023
 -3.299999999999999E-003    7.076219193710365E-023
 -3.199999999999999E-003    2.675035248636516E-022
 -3.099999999999999E-003    4.890025373613655E-022
 -2.999999999999999E-003    7.235860234396725E-022
 -2.899999999999999E-003    9.559047222627347E-022
 -2.799999999999999E-003    1.167319698246712E-021
 -2.699999999999999E-003    1.336636893421030E-021
 -2.599999999999999E-003    1.441204916534385E-021
 -2.499999999999999E-003    1.458370501490289E-021
 -2.399999999999999E-003    1.367253059204780E-021
 -2.299999999999999E-003    1.150766651408086E-021
 -2.199999999999999E-003    7.977828340543344E-022
 -2.099999999999999E-003    3.052944789634690E-022
 -1.999999999999999E-003   -3.195905451783977E-022
 -1.899999999999999E-003   -1.058018588301721E-021
 -1.799999999999999E-003   -1.878325548208261E-021
 -1.699999999999999E-003   -2.735744176105371E-021
 -1.599999999999999E-003   -3.573064005116445E-021
 -1.499999999999999E-003   -4.322393942644905E-021
 -1.399999999999999E-003   -4.908118395569588E-021
 -1.299999999999999E-003   -5.251063977443580E-021
 -1.199999999999999E-003   -5.273803516291508E-021
 -1.099999999999999E-003   -4.906921212252543E-021
 -9.999999999999989E-004   -4.095950473442350E-021
 -8.999999999999990E-004   -2.808591915563135E-021
 -7.999999999999990E-004   -1.041708233800979E-021
 -6.999999999999989E-004    1.172476019292533E-021
 -5.999999999999990E-004    3.761606562134236E-021
 -4.999999999999989E-004    6.610509336594993E-021
 -3.999999999999989E-004    9.561193490813515E-021
 -2.999999999999989E-004    1.241608174633081E-020
 -1.999999999999989E-004    1.494485359387790E-020
 -9.999999999999892E-005    1.689509750145144E-020
  1.084202172485504E-018    1.800670512239163E-020
  1.000000000000011E-004    1.802966605680138E-020
  2.000000000000011E-004    1.674457906712351E-020
  3.000000000000011E-004    1.398487481883668E-020
  4.000000000000011E-004    9.659414064696539E-021
  5.000000000000011E-004    3.773865986082624E-021
  6.000000000000011E-004   -3.550957347389992E-021
  7.000000000000011E-004   -1.206576107310111E-020
  8.000000000000011E-004   -2.138633379909406E-020
  9.000000000000012E-004   -3.099578662604776E-020
  1.000000000000001E-003   -4.025697774314726E-020
  1.100000000000001E-003   -4.843604730161631E-020
  1.200000000000001E-003   -5.473744823228307E-020
  1.300000000000001E-003   -5.835004038079765E-020
  1.400000000000001E-003   -5.850290688468829E-020
  1.500000000000001E-003   -5.452861542795101E-020
  1.600000000000001E-003   -4.593069529456617E-020
  1.700000000000001E-003   -3.245115667444838E-020
  1.800000000000001E-003   -1.413319282623009E-020
  1.900000000000001E-003    8.626404030232606E-021
  2.000000000000001E-003    3.504076447014081E-020
  2.100000000000001E-003    6.391791849214885E-020
  2.200000000000001E-003    9.367220044074577E-020
  2.300000000000001E-003    1.223659532414172E-019
  2.400000000000001E-003    1.477840779983208E-019
  2.500000000000001E-003    1.675416772035764E-019
  2.600000000000001E-003    1.792232533391225E-019
  2.700000000000001E-003    1.805486551051263E-019
  2.800000000000001E-003    1.695589703955789E-019
  2.900000000000001E-003    1.448121650440194E-019
  3.000000000000001E-003    1.055764587916361E-019
  3.100000000000001E-003    5.200703056981952E-020
  3.200000000000001E-003   -1.470944494844865E-020
  3.300000000000001E-003   -9.225826986354311E-020
  3.400000000000001E-003   -1.771634062048251E-019
  3.500000000000001E-003   -2.648305945993237E-019
  3.600000000000001E-003   -3.496767969567101E-019
  3.700000000000001E-003   -4.253516735088420E-019
  3.800000000000001E-003   -4.850505423484460E-019
  3.900000000000001E-003   -5.219126020642812E-019
  4.000000000000001E-003   -5.294899761680885E-019
  4.100000000000001E-003   -5.022667236375028E-019
  4.200000000000001E-003   -4.361989853824894E-019
  4.300000000000001E-003   -3.292420411210651E-019
  4.400000000000001E-003   -1.818249083271657E-019
  4.500000000000001E-003    2.769636758926664E-021
  4.600000000000002E-003    2.181618000329433E-019
  4.700000000000001E-003    4.548070573420836E-019
  4.800000000000001E-003    7.001375033803685E-019
  4.900000000000002E-003    9.389361339689577E-019
  5.000000000000001E-003    1.153954552049446E-018
  5.100000000000001E-003    1.326770151217647E-018
  5.200000000000001E-003    1.438860656965058E-018
  5.300000000000002E-003    1.472856492530472E-018
  5.400000000000001E-003    1.413910485021849E-018
  5.500000000000001E-003    1.251109185726140E-018
  5.600000000000002E-003    9.788349196582431E-019
  5.700000000000001E-003    5.979758649095467E-019
  5.800000000000001E-003    1.168782762480833E-019
  5.900000000000002E-003   -4.480644042047418E-019
  6.000000000000001E-003   -1.072280189039799E-018
  6.100000000000001E-003   -1.723425295781695E-018
  6.200000000000002E-003   -2.362379240230980E-018
  6.300000000000002E-003   -2.944851263469829E-018
  6.400000000000001E-003   -3.423575851465355E-018
  6.500000000000001E-003   -3.751037759956989E-018
  6.600000000000002E-003   -3.882619834680594E-018
  6.700000000000001E-003   -3.780018007547788E-018
  6.800000000000001E-003   -3.414735426228282E-018
  6.900000000000002E-003   -2.771429365607887E-018
  7.000000000000001E-003   -1.850863414078626E-018
  7.100000000000001E-003   -6.722089334806666E-019
  7.200000000000002E-003    7.255502396673703E-019
  7.300000000000002E-003    2.283332979910079E-018
  7.400000000000001E-003    3.922974038431016E-018
  7.500000000000001E-003    5.549644679508116E-018
  7.600000000000002E-003    7.055730647198252E-018
  7.700000000000001E-003    8.326090830319835E-018
  7.800000000000001E-003    9.244559582088987E-018
  7.900000000000001E-003    9.701418829779370E-018
  8.000000000000002E-003    9.601484962621648E-018
  8.100000000000001E-003    8.872353599550529E-018
  8.200000000000001E-003    7.472282896088099E-018
  8.300000000000002E-003    5.397147961613317E-018
  8.400000000000001E-003    2.685876607913458E-018
  8.500000000000002E-003   -5.761896452175485E-019
  8.600000000000002E-003   -4.256514035408337E-018
  8.700000000000001E-003   -8.177549820869191E-018
  8.800000000000002E-003   -1.212214363899726E-017
  8.900000000000002E-003   -1.584224364944359E-017
  9.000000000000001E-003   -1.907075082257363E-017
  9.100000000000002E-003   -2.153618218919129E-017
  9.200000000000002E-003   -2.297953578175719E-017
  9.300000000000001E-003   -2.317255345601559E-017
  9.400000000000002E-003   -2.193638513732928E-017
  9.500000000000001E-003   -1.915948061197952E-017
  9.600000000000001E-003   -1.481346352477446E-017
  9.700000000000002E-003   -8.965699480867066E-018
  9.800000000000001E-003   -1.787328282988788E-018
  9.900000000000001E-003    6.444319928797881E-018
  1.000000000000000E-002    1.534981193895990E-017
  1.010000000000000E-002    2.445871904476252E-017
  1.020000000000000E-002    3.322792784181663E-017
  1.030000000000000E-002    4.106686187064377E-017
  1.040000000000000E-002    4.736884547501692E-017
  1.050000000000000E-002    5.154737042260076E-017
  1.060000000000000E-002    5.307553252832758E-017
  1.070000000000000E-002    5.152652444855900E-017
  1.080000000000000E-002    4.661269490848207E-017
  1.090000000000000E-002    3.822058364595339E-017
  1.100000000000000E-002    2.643915566947377E-017
  1.110000000000000E-002    1.157868958970328E-017
  1.120000000000000E-002   -5.821999639243547E-018
  1.130000000000000E-002   -2.500182832178598E-017
  1.140000000000000E-002   -4.499840301870753E-017
  1.150000000000000E-002   -6.468398288123580E-017
  1.160000000000000E-002   -8.281603871803864E-017
  1.170000000000000E-002   -9.810076783687731E-017
  1.180000000000000E-002   -1.092671953574054E-016
  1.190000000000000E-002   -1.151482936301545E-016
  1.200000000000000E-002   -1.147649862079715E-016
  1.210000000000000E-002   -1.074079688155342E-016
  1.220000000000000E-002   -9.271213011345816E-017
  1.230000000000000E-002   -7.071803979540952E-017
  1.240000000000000E-002   -4.191529899861942E-017
  1.250000000000000E-002   -7.263067649038094E-018
  1.260000000000000E-002    3.181601823628132E-017
  1.270000000000000E-002    7.347103997558936E-017
  1.280000000000000E-002    1.154880355333391E-016
  1.290000000000000E-002    1.553846308819812E-016
  1.300000000000000E-002    1.905312553707935E-016
  1.310000000000000E-002    2.182944087265585E-016
  1.320000000000000E-002    2.361955224208386E-016
  1.330000000000000E-002    2.420774349603631E-016
  1.340000000000000E-002    2.342690282723798E-016
  1.350000000000000E-002    2.117378387574062E-016
  1.360000000000000E-002    1.742202028172970E-016
  1.370000000000000E-002    1.223186232827946E-016
  1.380000000000000E-002    5.755714843495022E-017
  1.390000000000000E-002   -1.761298246333906E-017
  1.400000000000000E-002   -9.986256018732349E-017
  1.410000000000000E-002   -1.850914839282092E-016
  1.420000000000000E-002   -2.685928959991151E-016
  1.430000000000000E-002   -3.452702748006694E-016
  1.440000000000000E-002   -4.098998678512961E-016
  1.450000000000000E-002   -4.574273214574409E-016
  1.460000000000000E-002   -4.832841261412943E-016
  1.470000000000000E-002   -4.837070504217652E-016
  1.480000000000000E-002   -4.560419985347255E-016
  1.490000000000000E-002   -3.990123429965534E-016
  1.500000000000000E-002   -3.129326856282677E-016
  1.510000000000000E-002   -1.998498934569502E-016
  1.520000000000000E-002   -6.359598730596447E-017
  1.530000000000000E-002    9.025901785099007E-017
  1.540000000000000E-002    2.545607637813195E-016
  1.550000000000000E-002    4.208325477542605E-016
  1.560000000000000E-002    5.796404137526316E-016
  1.570000000000000E-002    7.210497975574395E-016
  1.580000000000000E-002    8.351557863657519E-016
  1.590000000000000E-002    9.126630413832196E-016
  1.600000000000000E-002    9.454860513300919E-016
  1.610000000000000E-002    9.273363856800072E-016
  1.620000000000000E-002    8.542618921502796E-016
  1.630000000000000E-002    7.251009928146097E-016
  1.640000000000000E-002    5.418182295470566E-016
  1.650000000000000E-002    3.096899475157033E-016
  1.660000000000000E-002    3.731468604766906E-017
  1.670000000000000E-002   -2.635674581305241E-016
  1.680000000000000E-002   -5.784556915784127E-016
  1.690000000000000E-002   -8.906645175022115E-016
  1.700000000000000E-002   -1.182080971597257E-015
  1.710000000000000E-002   -1.434074519812278E-015
  1.720000000000000E-002   -1.628522694987923E-015
  1.730000000000000E-002   -1.748901646867014E-015
  1.740000000000000E-002   -1.781386244493746E-015
  1.750000000000000E-002   -1.715895190355823E-015
  1.760000000000000E-002   -1.547016768910095E-015
  1.770000000000000E-002   -1.274750401391576E-015
  1.780000000000000E-002   -9.050029180543272E-016
  1.790000000000000E-002   -4.497914446545437E-016
  1.800000000000000E-002    7.288809968375230E-017
  1.810000000000000E-002    6.395480470744885E-016
  1.820000000000000E-002    1.222055675145169E-015
  1.830000000000000E-002    1.788823495510158E-015
  1.840000000000000E-002    2.306303458149238E-015
  1.850000000000000E-002    2.740728139008023E-015
  1.860000000000000E-002    3.060019615918255E-015
  1.870000000000000E-002    3.235769958231485E-015