 -4.000000000000000E-002    0.000000000000000E+000
 -3.990000000000000E-002    0.000000000000000E+000
 -3.980000000000000E-002    0.000000000000000E+000
 -3.970000000000000E-002    0.000000000000000E+000
 -3.960000000000000E-002    0.000000000000000E+000
 -3.950000000000000E-002   -1.390561141081602E-020
 -3.940000000000000E-002   -1.322248268486681E-019
 -3.930000000000000E-002   -6.729443905824129E-019
 -3.920000000000000E-002   -2.420202264244822E-018
 -3.910000000000000E-002   -6.850073958753342E-018
 -3.900000000000000E-002   -1.609072946083652E-017
 -3.890000000000000E-002   -3.220054646196204E-017
 -3.880000000000000E-002   -5.524026382520837E-017
 -3.870000000000000E-002   -7.964561169070358E-017
 -3.860000000000000E-002   -8.864775153617514E-017
 -3.850000000000000E-002   -4.697997151588550E-017
 -3.840000000000000E-002    1.071683260804607E-016
 -3.830000000000000E-002    4.691232193077984E-016
 -3.820000000000000E-002    1.170948348376296E-015
 -3.810000000000000E-002    2.377627288137745E-015
 -3.800000000000000E-002    4.272770672103329E-015
 -3.790000000000000E-002    7.030951042041465E-015
 -3.780000000000000E-002    1.077512882431396E-014
 -3.770000000000000E-002    1.551983415792774E-014
 -3.760000000000000E-002    2.110365687294186E-014
 -3.750000000000000E-002    2.711789609850512E-014
 -3.740000000000000E-002    3.284141345898824E-014
 -3.730000000000000E-002    3.719435847885326E-014
 -3.720000000000000E-002    3.872472490859504E-014
 -3.710000000000000E-002    3.564141310343638E-014
 -3.700000000000000E-002    2.590490620314097E-014
 -3.690000000000000E-002    7.382032840244978E-015
 -3.680000000000000E-002   -2.193548620859013E-014
 -3.670000000000000E-002   -6.365711653517703E-014
 -3.660000000000000E-002   -1.186815660378715E-013
 -3.650000000000000E-002   -1.868725702646098E-013
 -3.640000000000000E-002   -2.667549409703586E-013
 -3.630000000000000E-002   -3.552679326542882E-013
 -3.620000000000000E-002   -4.476133224739831E-013
 -3.610000000000000E-002   -5.372322798437389E-013
 -3.600000000000000E-002   -6.159377032211293E-013
 -3.590000000000000E-002   -6.742170750366834E-013
 -3.580000000000000E-002   -7.017067824752126E-013
 -3.570000000000000E-002   -6.878232783712408E-013
 -3.560000000000000E-002   -6.225210432710465E-013
 -3.550000000000000E-002   -4.971333474559390E-013
 -3.540000000000000E-002   -3.052411387312829E-013
 -3.530000000000000E-002   -4.350984418321951E-014
 -3.520000000000000E-002    2.875673963020970E-013
 -3.510000000000000E-002    6.830778203935412E-013
 -3.500000000000000E-002    1.133296691601706E-012
 -3.490000000000000E-002    1.623530962835425E-012
 -3.480000000000000E-002    2.134221208433714E-012
 -3.470000000000000E-002    2.641308751242509E-012
 -3.460000000000000E-002    3.116861986768541E-012
 -3.450000000000000E-002    3.529943365131095E-012
 -3.440000000000000E-002    3.847691174990981E-012
 -3.430000000000000E-002    4.036586089848659E-012
 -3.420000000000000E-002    4.063868333629734E-012
 -3.410000000000000E-002    3.899073506997819E-012
 -3.400000000000000E-002    3.515655330832836E-012
 -3.390000000000000E-002    2.892662629851084E-012
 -3.380000000000000E-002    2.016437618304028E-012
 -3.370000000000000E-002    8.822964563439411E-013
 -3.360000000000000E-002   -5.038594070560416E-013
 -3.350000000000000E-002   -2.124056997601201E-012
 -3.340000000000000E-002   -3.946974299434093E-012
 -3.330000000000000E-002   -5.926963185630969E-012
 -3.320000000000000E-002   -8.003482314764355E-012
 -3.310000000000000E-002   -1.010106253209583E-011
 -3.300000000000000E-002   -1.212993942307903E-011
 -3.290000000000000E-002   -1.398746952930690E-011
 -3.280000000000000E-002   -1.556044969719081E-011
 -3.270000000000000E-002   -1.672841607144892E-011
 -3.260000000000000E-002   -1.736797376529818E-011
 -3.250000000000000E-002   -1.735812932907460E-011
 -3.240000000000000E-002   -1.658656457147656E-011
 -3.230000000000000E-002   -1.495667268735300E-011
 -3.220000000000000E-002   -1.239513447457415E-011
 -3.210000000000000E-002   -8.859698113714537E-012
 -3.200000000000000E-002   -4.346766752042753E-012
 -3.190000000000000E-002    1.101675781639713E-012
 -3.180000000000000E-002    7.392326019796374E-012
 -3.170000000000000E-002    1.437653108448390E-011
 -3.160000000000000E-002    2.184852245716599E-011
 -3.150000000000000E-002    2.954637439256465E-011
 -3.140000000000000E-002    3.715610655330905E-011
 -3.130000000000000E-002    4.431919346741116E-011
 -3.120000000000000E-002    5.064359778542943E-011
 -3.110000000000000E-002    5.571824118919766E-011
 -3.100000000000000E-002    5.913061071836388E-011
 -3.090000000000000E-002    6.048694670347528E-011
 -3.080000000000000E-002    5.943426113360564E-011
 -3.070000000000000E-002    5.568319368383039E-011
 -3.060000000000000E-002    4.903055963202126E-011
 -3.050000000000000E-002    3.938031423454167E-011
 -3.040000000000000E-002    2.676158788292438E-011
 -3.030000000000000E-002    1.134251503732178E-011
 -3.020000000000000E-002   -6.561378668933049E-012
 -3.010000000000000E-002   -2.648515868150012E-011
 -3.000000000000000E-002   -4.781966623902450E-011
 -2.990000000000000E-002   -6.982419656541390E-011
 -2.980000000000000E-002   -9.164670985301974E-011
 -2.970000000000000E-002   -1.123511857065130E-010
 -2.960000000000000E-002   -1.309512604907342E-010
 -2.950000000000000E-002   -1.464489840441255E-010
 -2.940000000000000E-002   -1.578771477379568E-010
 -2.930000000000000E-002   -1.643434137730447E-010
 -2.920000000000000E-002   -1.650743329642923E-010
 -2.910000000000000E-002   -1.594572408631060E-010
 -2.900000000000000E-002   -1.470781221825113E-010
 -2.890000000000000E-002   -1.277536462866048E-010
 -2.880000000000000E-002   -1.015558498654473E-010
 -2.870000000000000E-002   -6.882819743370238E-011
 -2.860000000000000E-002   -3.019216272723029E-011
 -2.850000000000000E-002    1.345623150158344E-011
 -2.840000000000000E-002    6.095999323439365E-011
 -2.830000000000000E-002    1.109248142095179E-010
 -2.820000000000000E-002    1.617521396607866E-010
 -2.810000000000000E-002    2.116809722623579E-010
 -2.800000000000000E-002    2.588375807791302E-010
 -2.790000000000000E-002    3.012917155120026E-010
 -2.780000000000000E-002    3.371182859404769E-010
 -2.770000000000000E-002    3.644630354288798E-010
 -2.760000000000000E-002    3.816107032308458E-010
 -2.750000000000000E-002    3.870539911814873E-010
 -2.740000000000000E-002    3.795615423485324E-010
 -2.730000000000000E-002    3.582429825875449E-010
 -2.720000000000000E-002    3.226086921606173E-010
 -2.710000000000000E-002    2.726220028255238E-010
 -2.700000000000000E-002    2.087411725443799E-010
 -2.690000000000000E-002    1.319483267723668E-010
 -2.680000000000000E-002    4.376288562955216E-011
 -2.670000000000000E-002   -5.376331529930290E-011
 -2.660000000000000E-002   -1.580713544923231E-010
 -2.650000000000000E-002   -2.661425704457374E-010
 -2.640000000000000E-002   -3.745689283975473E-010
 -2.630000000000000E-002   -4.796460820157908E-010
 -2.620000000000000E-002   -5.774880043423376E-010
 -2.610000000000000E-002   -6.641601288523187E-010
 -2.600000000000000E-002   -7.358270770246886E-010
 -2.590000000000000E-002   -7.889095370367083E-010
 -2.580000000000000E-002   -8.202435669449174E-010
 -2.570000000000000E-002   -8.272347788972423E-010
 -2.560000000000000E-002   -8.079995618612553E-010
 -2.550000000000000E-002   -7.614852753444392E-010
 -2.540000000000000E-002   -6.875620494714753E-010
 -2.530000000000000E-002   -5.870797302588279E-010
 -2.520000000000000E-002   -4.618857975932898E-010
 -2.510000000000000E-002   -3.148009174172977E-010
 -2.500000000000000E-002   -1.495526570530058E-010
 -2.490000000000000E-002    2.933087998420671E-011
 -2.480000000000000E-002    2.166624359976474E-010
 -2.470000000000000E-002    4.067657559657452E-010
 -2.460000000000000E-002    5.936653910643416E-010
 -2.450000000000000E-002    7.712872226424743E-010
 -2.440000000000000E-002    9.336601261759126E-010
 -2.430000000000000E-002    1.075109305310086E-009
 -2.420000000000000E-002    1.190433618987084E-009
 -2.410000000000000E-002    1.275061263391227E-009
 -2.400000000000000E-002    1.325179959192818E-009
 -2.390000000000000E-002    1.337840514933582E-009
 -2.380000000000000E-002    1.311035028271867E-009
 -2.370000000000000E-002    1.243753307958065E-009
 -2.360000000000000E-002    1.136022106710196E-009
 -2.350000000000000E-002    9.889318192105496E-010
 -2.340000000000000E-002    8.046560189551404E-010
 -2.330000000000000E-002    5.864674833994920E-010
 -2.320000000000000E-002    3.387509910555985E-010
 -2.310000000000000E-002    6.701271548505913E-011
 -2.300000000000000E-002   -2.221189151395824E-010
 -2.290000000000000E-002   -5.209076233129025E-010
 -2.280000000000000E-002   -8.205489865389358E-010
 -2.270000000000000E-002   -1.111246188586361E-009
 -2.260000000000000E-002   -1.382333080985964E-009
 -2.250000000000000E-002   -1.622455166825918E-009
 -2.240000000000000E-002   -1.819815084242870E-009
 -2.230000000000000E-002   -1.962487329095634E-009
 -2.220000000000000E-002   -2.038800018001113E-009
 -2.210000000000000E-002   -2.037775938652322E-009
 -2.200000000000000E-002   -1.949618517534048E-009
 -2.190000000000000E-002   -1.766225633251818E-009
 -2.180000000000000E-002   -1.481703646097242E-009
 -2.170000000000000E-002   -1.092855677017217E-009
 -2.160000000000000E-002   -5.996137311521177E-010
 -2.150000000000000E-002   -5.387794383446578E-012
 -2.140000000000000E-002    6.826980149344184E-010
 -2.130000000000000E-002    1.453696919127535E-009
 -2.120000000000000E-002    2.292876639007220E-009
 -2.110000000000000E-002    3.181904915227973E-009
 -2.100000000000000E-002    4.099179591701567E-009
 -2.090000000000000E-002    5.020289912363677E-009
 -2.080000000000000E-002    5.918588008256942E-009
 -2.070000000000000E-002    6.765845096555178E-009
 -2.060000000000000E-002    7.532960511749394E-009
 -2.050000000000000E-002    8.190692393631245E-009
 -2.040000000000000E-002    8.710384931496816E-009
 -2.030000000000000E-002    9.064666537440190E-009
 -2.020000000000000E-002    9.228112206668670E-009
 -2.010000000000000E-002    9.177861557521498E-009
 -2.000000000000000E-002    8.894206914400270E-009
 -1.990000000000000E-002    8.361178814908604E-009
 -1.980000000000000E-002    7.567152031831230E-009
 -1.970000000000000E-002    6.505524681875461E-009
 -1.960000000000000E-002    5.175508400037143E-009
 -1.950000000000000E-002    3.583079747321141E-009
 -1.940000000000000E-002    1.742128805997948E-009
 -1.930000000000000E-002   -3.241636299179715E-010
 -1.920000000000000E-002   -2.581728343345089E-009
 -1.910000000000000E-002   -4.983780684835075E-009
 -1.900000000000000E-002   -7.468829679636616E-009
 -1.890000000000000E-002   -9.958560984686940E-009
 -1.880000000000000E-002   -1.235572710217872E-008
 -1.870000000000000E-002   -1.454212402443677E-008
 -1.860000000000000E-002   -1.637681414566551E-008
 -1.850000000000000E-002   -1.769474533386275E-008
 -1.840000000000000E-002   -1.830584482989618E-008
 -1.830000000000000E-002   -1.799484558993758E-008
 -1.820000000000000E-002   -1.652177770042292E-008
 -1.810000000000000E-002   -1.362334594620598E-008
 -1.800000000000000E-002   -9.015160602540809E-009
 -1.790000000000000E-002   -2.394774832385162E-009
 -1.780000000000000E-002    6.554558661508425E-009
 -1.770000000000000E-002    1.815945305880199E-008
 -1.760000000000000E-002    3.275157608294558E-008
 -1.750000000000000E-002    5.066257325483051E-008
 -1.740000000000000E-002    7.221914569614615E-008
 -1.730000000000000E-002    9.773825074316986E-008
 -1.720000000000000E-002    1.275229596375673E-007
 -1.710000000000000E-002    1.618590182926744E-007
 -1.700000000000000E-002    2.010123273866213E-007
 -1.690000000000000E-002    2.452275008843645E-007
 -1.680000000000000E-002    2.947274177330806E-007
 -1.670000000000000E-002    3.497140026447559E-007
 -1.660000000000000E-002    4.103697869213438E-007
 -1.650000000000000E-002    4.768605831928248E-007
 -1.640000000000000E-002    5.493383976642072E-007
 -1.630000000000000E-002    6.279451855263419E-007
 -1.620000000000000E-002    7.128165967646054E-007
 -1.610000000000000E-002    8.040857100531529E-007
 -1.600000000000000E-002    9.018869338476866E-007
 -1.590000000000000E-002    1.006358983582301E-006
 -1.580000000000000E-002    1.117648273306964E-006
 -1.570000000000000E-002    1.235911423223281E-006
 -1.560000000000000E-002    1.361318209494961E-006
 -1.550000000000000E-002    1.494054062398775E-006
 -1.540000000000000E-002    1.634322507228074E-006
 -1.530000000000000E-002    1.782348787833287E-006
 -1.520000000000000E-002    1.938383175653423E-006
 -1.510000000000000E-002    2.102705414241790E-006
 -1.500000000000000E-002    2.275630035758016E-006
 -1.490000000000000E-002    2.457512462247009E-006
 -1.480000000000000E-002    2.648755096248203E-006
 -1.470000000000000E-002    2.849815414484630E-006
 -1.460000000000000E-002    3.061213077317556E-006
 -1.450000000000000E-002    3.283536558452766E-006
 -1.440000000000000E-002    3.517451508233177E-006
 -1.430000000000000E-002    3.763705464944473E-006
 -1.420000000000000E-002    4.023132625638501E-006
 -1.410000000000000E-002    4.296657565849189E-006
 -1.400000000000000E-002    4.585294840149152E-006
 -1.390000000000000E-002    4.890148908003965E-006
 -1.380000000000000E-002    5.212411804007818E-006
 -1.370000000000000E-002    5.553356391014815E-006
 -1.360000000000000E-002    5.914332112378860E-006
 -1.350000000000000E-002    6.296756217431641E-006
 -1.340000000000000E-002    6.702105198152326E-006
 -1.330000000000000E-002    7.131907777739682E-006
 -1.320000000000000E-002    7.587738133599259E-006
 -1.310000000000000E-002    8.071208227721283E-006
 -1.300000000000000E-002    8.583964144120973E-006
 -1.290000000000000E-002    9.127684255166041E-006
 -1.280000000000000E-002    9.704078040514794E-006
 -1.270000000000000E-002    1.031489147995119E-005
 -1.260000000000000E-002    1.096190927773451E-005
 -1.250000000000000E-002    1.164696402974048E-005
 -1.240000000000000E-002    1.237194465575328E-005
 -1.230000000000000E-002    1.313881016699660E-005
 -1.220000000000000E-002    1.394959708230352E-005
 -1.210000000000000E-002    1.480643656789760E-005
 -1.200000000000000E-002    1.571156383459720E-005
 -1.190000000000000E-002    1.666733359094431E-005
 -1.180000000000000E-002    1.767622659850973E-005
 -1.170000000000000E-002    1.874086302085482E-005
 -1.160000000000000E-002    1.986401069299563E-005
 -1.150000000000000E-002    2.104859268553148E-005
 -1.140000000000000E-002    2.229768867728742E-005
 -1.130000000000000E-002    2.361454717674812E-005
 -1.120000000000000E-002    2.500258435229087E-005
 -1.110000000000000E-002    2.646538588005624E-005
 -1.100000000000000E-002    2.800671547544824E-005
 -1.090000000000000E-002    2.963051421557971E-005
 -1.080000000000000E-002    3.134090313331032E-005
 -1.070000000000000E-002    3.314219337899383E-005
 -1.060000000000000E-002    3.503888307334065E-005
 -1.050000000000000E-002    3.703566961564127E-005
 -1.040000000000000E-002    3.913745220440300E-005
 -1.030000000000000E-002    4.134934291003102E-005
 -1.020000000000000E-002    4.367667365811604E-005
 -1.010000000000000E-002    4.612501176579291E-005
 -1.000000000000000E-002    4.870016536055287E-005
 -9.899999999999999E-003    5.140819981583445E-005
 -9.800000000000000E-003    5.425544092283104E-005
 -9.699999999999999E-003    5.724849714191755E-005
 -9.599999999999999E-003    6.039426955550412E-005
 -9.500000000000000E-003    6.369996215858359E-005
 -9.399999999999999E-003    6.717308974119636E-005
 -9.299999999999999E-003    7.082150017260454E-005
 -9.200000000000000E-003    7.465337986303529E-005
 -9.099999999999999E-003    7.867726630255599E-005
 -8.999999999999999E-003    8.290204651842411E-005
 -8.900000000000000E-003    8.733698692317515E-005
 -8.799999999999999E-003    9.199172066715293E-005
 -8.699999999999999E-003    9.687627627456978E-005
 -8.600000000000000E-003    1.020010647324082E-004
 -8.499999999999999E-003    1.073768950706519E-004
 -8.399999999999999E-003    1.130149828133696E-004
 -8.300000000000000E-003    1.189269492607909E-004
 -8.199999999999999E-003    1.251248273810586E-004
 -8.100000000000000E-003    1.316210740063312E-004
 -8.000000000000000E-003    1.384285726202645E-004
 -7.899999999999999E-003    1.455606383651821E-004
 -7.800000000000000E-003    1.530310274403650E-004
 -7.699999999999999E-003    1.608539757528654E-004
 -7.599999999999999E-003    1.690441484207793E-004
 -7.499999999999999E-003    1.776167284677095E-004
 -7.399999999999999E-003    1.865873793173625E-004
 -7.299999999999999E-003    1.959722988672377E-004
 -7.199999999999999E-003    2.057882528981373E-004
 -7.100000000000000E-003    2.160525411016162E-004
 -6.999999999999999E-003    2.267830822393398E-004
 -6.899999999999999E-003    2.379984286848110E-004
 -6.800000000000000E-003    2.497177611370075E-004
 -6.699999999999999E-003    2.619609598238690E-004
 -6.599999999999999E-003    2.747486175294471E-004
 -6.499999999999999E-003    2.881020226678037E-004
 -6.399999999999999E-003    3.020432645957040E-004
 -6.299999999999999E-003    3.165951534270517E-004
 -6.199999999999999E-003    3.317813604175745E-004
 -6.100000000000000E-003    3.476263154495720E-004
 -5.999999999999999E-003    3.641553074371057E-004
 -5.899999999999999E-003    3.813944254551525E-004
 -5.800000000000000E-003    3.993706326074348E-004
 -5.699999999999999E-003    4.181117201046026E-004
 -5.599999999999999E-003    4.376463207765053E-004
 -5.499999999999999E-003    4.580039622910073E-004
 -5.399999999999999E-003    4.792150196601687E-004
 -5.299999999999999E-003    5.013106953505784E-004
 -5.199999999999999E-003    5.243230769171042E-004
 -5.099999999999999E-003    5.482851312098120E-004
 -4.999999999999999E-003    5.732306801221410E-004
 -4.899999999999999E-003    5.991943599981327E-004
 -4.799999999999999E-003    6.262116841309626E-004
 -4.699999999999999E-003    6.543191379672138E-004
 -4.599999999999999E-003    6.835539572090329E-004
 -4.499999999999999E-003    7.139543558744133E-004
 -4.399999999999999E-003    7.455594077040139E-004
 -4.299999999999999E-003    7.784090675723615E-004
 -4.199999999999999E-003    8.125443243839771E-004
 -4.099999999999999E-003    8.480069685139835E-004
 -3.999999999999999E-003    8.848398725385202E-004
 -3.899999999999999E-003    9.230868570757356E-004
 -3.799999999999999E-003    9.627927531095145E-004
 -3.699999999999999E-003    1.004003435497905E-003
 -3.599999999999999E-003    1.046765815662274E-003
 -3.499999999999999E-003    1.091127952451390E-003
 -3.399999999999999E-003    1.137138995586647E-003
 -3.299999999999999E-003    1.184849179431384E-003
 -3.199999999999999E-003    1.234309869796525E-003
 -3.099999999999999E-003    1.285573691986486E-003
 -2.999999999999999E-003    1.338694272658330E-003
 -2.899999999999999E-003    1.393726361506623E-003
 -2.799999999999999E-003    1.450725943129979E-003
 -2.699999999999999E-003    1.509749919958893E-003
 -2.599999999999999E-003    1.570856432755387E-003
 -2.499999999999999E-003    1.634104542779465E-003
 -2.399999999999999E-003    1.699554094795269E-003
 -2.299999999999999E-003    1.767266182847868E-003
 -2.199999999999999E-003    1.837302655156645E-003
 -2.099999999999999E-003    1.909726464828017E-003
 -1.999999999999999E-003    1.984600908434314E-003
 -1.899999999999999E-003    2.061990472935408E-003
 -1.799999999999999E-003    2.141960326190325E-003
 -1.699999999999999E-003    2.224576271979216E-003
 -1.599999999999999E-003    2.309905154319307E-003
 -1.499999999999999E-003    2.398014061448490E-003
 -1.399999999999999E-003    2.488970991732204E-003
 -1.299999999999999E-003    2.582844703493028E-003
 -1.199999999999999E-003    2.679704669768543E-003
 -1.099999999999999E-003    2.779620662387925E-003
 -9.999999999999989E-004    2.882663228578883E-003
 -8.999999999999990E-004    2.988903699181020E-003
 -7.999999999999990E-004    3.098413487607968E-003
 -6.999999999999989E-004    3.211264931392949E-003
 -5.999999999999990E-004    3.327530492577909E-003
 -4.999999999999989E-004    3.447283104087185E-003
 -3.999999999999989E-004    3.570595826025297E-003
 -2.999999999999989E-004    3.697542147557349E-003
 -1.999999999999989E-004    3.828195694300908E-003
 -9.999999999999892E-005    3.962630375301864E-003
  1.084202172485504E-018    4.100919674782814E-003
  1.000000000000011E-004    4.243137063563160E-003
  2.000000000000011E-004    4.389356247675754E-003
  3.000000000000011E-004    4.539650361398224E-003
  4.000000000000011E-004    4.694092248707533E-003
  5.000000000000011E-004    4.852754279848785E-003
  6.000000000000011E-004    5.015708675681928E-003
  7.000000000000011E-004    5.183026204017854E-003
  8.000000000000011E-004    5.354777963118739E-003
  9.000000000000012E-004    5.531033346875217E-003
  1.000000000000001E-003    5.711861595660180E-003
  1.100000000000001E-003    5.897330389756732E-003
  1.200000000000001E-003    6.087506325159918E-003
  1.300000000000001E-003    6.282454540559857E-003
  1.400000000000001E-003    6.482239389010436E-003
  1.500000000000001E-003    6.686923418500827E-003
  1.600000000000001E-003    6.896567233904092E-003
  1.700000000000001E-003    7.111229896708832E-003
  1.800000000000001E-003    7.330968169449876E-003
  1.900000000000001E-003    7.555837830739303E-003
  2.000000000000001E-003    7.785891449528192E-003
  2.100000000000001E-003    8.021179811563318E-003
  2.200000000000001E-003    8.261750759151140E-003
  2.300000000000001E-003    8.507650077567349E-003
  2.400000000000001E-003    8.758920970723656E-003
  2.500000000000001E-003    9.015603298522376E-003
  2.600000000000001E-003    9.277734359646820E-003
  2.700000000000001E-003    9.545347062040811E-003
  2.800000000000001E-003    9.818472570232538E-003
  2.900000000000001E-003    1.009713841521587E-002
  3.000000000000001E-003    1.038136830202897E-002
  3.100000000000001E-003    1.067118238171170E-002
  3.200000000000001E-003    1.096659604511427E-002
  3.300000000000001E-003    1.126762126117334E-002
  3.400000000000001E-003    1.157426643285061E-002
  3.500000000000001E-003    1.188653453712515E-002
  3.600000000000001E-003    1.220442405813802E-002
  3.700000000000001E-003    1.252792985493589E-002
  3.800000000000001E-003    1.285703967125076E-002
  3.900000000000001E-003    1.319173829326397E-002
  4.000000000000001E-003    1.353200302026420E-002
  4.100000000000001E-003    1.387780804889680E-002
  4.200000000000001E-003    1.422912016999563E-002
  4.300000000000001E-003    1.458590042665148E-002
  4.400000000000001E-003    1.494810505683144E-002
  4.500000000000001E-003    1.531568376788703E-002
  4.600000000000002E-003    1.568857857104634E-002
  4.700000000000001E-003    1.606672574583791E-002
  4.800000000000001E-003    1.645005546269150E-002
  4.900000000000002E-003    1.683849007853021E-002
  5.000000000000001E-003    1.723194602402035E-002
  5.100000000000001E-003    1.763033069298400E-002
  5.200000000000001E-003    1.803354602786270E-002
  5.300000000000002E-003    1.844148667054611E-002
  5.400000000000001E-003    1.885403921068369E-002
  5.500000000000001E-003    1.927108171830417E-002
  5.600000000000002E-003    1.969248576310387E-002
  5.700000000000001E-003    2.011811404622210E-002
  5.800000000000001E-003    2.054782250522475E-002
  5.900000000000002E-003    2.098145675730329E-002
  6.000000000000001E-003    2.141885545269756E-002
  6.100000000000001E-003    2.185984996114352E-002
  6.200000000000002E-003    2.230426010288576E-002
  6.300000000000002E-003    2.275190117998334E-002
  6.400000000000001E-003    2.320257558945735E-002
  6.500000000000001E-003    2.365608007013820E-002
  6.600000000000002E-003    2.411220200604376E-002
  6.700000000000001E-003    2.457071884745582E-002
  6.800000000000001E-003    2.503139862388133E-002
  6.900000000000002E-003    2.549400434435493E-002
  7.000000000000001E-003    2.595828467998820E-002
  7.100000000000001E-003    2.642398239757552E-002
  7.200000000000002E-003    2.689083048022104E-002
  7.300000000000002E-003    2.735855427234908E-002
  7.400000000000001E-003    2.782686767163964E-002
  7.500000000000001E-003    2.829547478429057E-002
  7.600000000000002E-003    2.876407300295710E-002
  7.700000000000001E-003    2.923235196430918E-002
  7.800000000000001E-003    2.969998677898071E-002
  7.900000000000001E-003    3.016664981905208E-002
  8.000000000000002E-003    3.063200268454998E-002
  8.100000000000001E-003    3.109569529731316E-002
  8.200000000000001E-003    3.155737167494434E-002
  8.300000000000002E-003    3.201666575966605E-002
  8.400000000000001E-003    3.247320428801000E-002
  8.500000000000002E-003    3.292660694632892E-002
  8.600000000000002E-003    3.337648372748754E-002
  8.700000000000001E-003    3.382243548549779E-002
  8.800000000000002E-003    3.426405599318611E-002
  8.900000000000002E-003    3.470093199354665E-002
  9.000000000000001E-003    3.513264516627948E-002
  9.100000000000002E-003    3.555876670666870E-002
  9.200000000000002E-003    3.597886152998915E-002
  9.300000000000001E-003    3.639248984814523E-002
  9.400000000000002E-003    3.679920443061983E-002
  9.500000000000001E-003    3.719855079029599E-002
  9.600000000000001E-003    3.759006715614913E-002
  9.700000000000002E-003    3.797329237855071E-002
  9.800000000000001E-003    3.834775312915138E-002
  9.900000000000001E-003    3.871297676584104E-002
  1.000000000000000E-002    3.906848380180229E-002
  1.010000000000000E-002    3.941379099811354E-002
  1.020000000000000E-002    3.974840985844893E-002
  1.030000000000000E-002    4.007184941081807E-002
  1.040000000000000E-002    4.038361566049574E-002
  1.050000000000000E-002    4.068321633373462E-002
  1.060000000000000E-002    4.097014952756341E-002
  1.070000000000000E-002    4.124391601704413E-002
  1.080000000000000E-002    4.150401312240134E-002
  1.090000000000000E-002    4.174994195667472E-002
  1.100000000000000E-002    4.198119896824284E-002
  1.110000000000000E-002    4.219727835655415E-002
  1.120000000000000E-002    4.239767922557814E-002
  1.130000000000000E-002    4.258190428161553E-002
  1.140000000000000E-002    4.274945533023387E-002
  1.150000000000000E-002    4.289983157860650E-002
  1.160000000000000E-002    4.303254357157396E-002
  1.170000000000000E-002    4.314709930684194E-002
  1.180000000000000E-002    4.324301538281926E-002
  1.190000000000000E-002    4.331980742553034E-002
  1.200000000000000E-002    4.337700158133488E-002
  1.210000000000000E-002    4.341412513452089E-002
  1.220000000000000E-002    4.343071674127458E-002
  1.230000000000000E-002    4.342631660231626E-002
  1.240000000000000E-002    4.340047781799423E-002
  1.250000000000000E-002    4.335275502783496E-002
  1.260000000000000E-002    4.328271872943287E-002
  1.270000000000000E-002    4.318994134014231E-002
  1.280000000000000E-002    4.307401076513904E-002
  1.290000000000000E-002    4.293452299433450E-002
  1.300000000000000E-002    4.277108747933216E-002
  1.310000000000000E-002    4.258332035811700E-002
  1.320000000000000E-002    4.237085457078470E-002
  1.330000000000000E-002    4.213333422308588E-002
  1.340000000000000E-002    4.187041581547007E-002
  1.350000000000000E-002    4.158176878026887E-002
  1.360000000000000E-002    4.126708145526802E-002
  1.370000000000000E-002    4.092605239094894E-002
  1.380000000000000E-002    4.055839939514844E-002
  1.390000000000000E-002    4.016385465487786E-002
  1.400000000000000E-002    3.974216707706919E-002
  1.410000000000000E-002    3.929310294074828E-002
  1.420000000000000E-002    3.881644732586442E-002
  1.430000000000000E-002    3.831200531011992E-002
  1.440000000000000E-002    3.777959421264334E-002
  1.450000000000000E-002    3.721905477514384E-002
  1.460000000000000E-002    3.663024897934518E-002
  1.470000000000000E-002    3.601305668958221E-002
  1.480000000000000E-002    3.536737747504824E-002
  1.490000000000000E-002    3.469313380001446E-002
  1.500000000000000E-002    3.399026957010855E-002
  1.510000000000000E-002    3.325874964223193E-002
  1.520000000000000E-002    3.249856327918745E-002
  1.530000000000000E-002    3.170971980833204E-002
  1.540000000000000E-002    3.089225134663512E-002
  1.550000000000000E-002    3.004621285090006E-002
  1.560000000000000E-002    2.917168555008341E-002
  1.570000000000000E-002    2.826877066772512E-002
  1.580000000000000E-002    2.733759515497567E-002
  1.590000000000000E-002    2.637830993331869E-002
  1.600000000000000E-002    2.539108994423409E-002
  1.610000000000000E-002    2.437613516003032E-002
  1.620000000000000E-002    2.333366719102196E-002
  1.630000000000000E-002    2.226393327285900E-002
  1.640000000000000E-002    2.116720579990913E-002
  1.650000000000000E-002    2.004378003360226E-002
  1.660000000000000E-002    1.889397635205988E-002
  1.670000000000000E-002    1.771813787051890E-002
  1.680000000000000E-002    1.651663576573902E-002
  1.690000000000000E-002    1.528986101182613E-002
  1.700000000000000E-002    1.403822992194107E-002
  1.710000000000000E-002    1.276218479435311E-002
  1.720000000000000E-002    1.146218848112947E-002
  1.730000000000000E-002    1.013872963353889E-002
  1.740000000000000E-002    8.792317917613032E-003
  1.750000000000000E-002    7.423487127052301E-003
  1.760000000000000E-002    6.032793287659896E-003
  1.770000000000000E-002    4.620814252144146E-003
  1.780000000000000E-002    3.188150216067789E-003
  1.790000000000000E-002    1.735421412204704E-003
  1.800000000000000E-002    2.632695686907023E-004
  1.810000000000000E-002   -1.227643605815501E-003
  1.820000000000000E-002   -2.736636989136577E-003
  1.830000000000000E-002   -4.263009505630996E-003
  1.840000000000000E-002   -5.806042652739916E-003
  1.850000000000000E-002   -7.364999464665191E-003
  1.860000000000000E-002   -8.939125681584784E-003
  1.870000000000000E-002   -1.052765100421488E-002