 -4.000000000000000E-002    0.000000000000000E+000
 -3.990000000000000E-002    0.000000000000000E+000
 -3.980000000000000E-002    0.000000000000000E+000
 -3.970000000000000E-002    0.000000000000000E+000
 -3.960000000000000E-002    0.000000000000000E+000
 -3.950000000000000E-002    0.000000000000000E+000
 -3.940000000000000E-002    0.000000000000000E+000
 -3.930000000000000E-002    0.000000000000000E+000
 -3.920000000000000E-002    0.000000000000000E+000
 -3.910000000000000E-002    0.000000000000000E+000
 -3.900000000000000E-002    0.000000000000000E+000
 -3.890000000000000E-002    0.000000000000000E+000
 -3.880000000000000E-002    0.000000000000000E+000
 -3.870000000000000E-002    0.000000000000000E+000
 -3.860000000000000E-002    0.000000000000000E+000
 -3.850000000000000E-002    0.000000000000000E+000
 -3.840000000000000E-002    0.000000000000000E+000
 -3.830000000000000E-002    0.000000000000000E+000
 -3.820000000000000E-002    0.000000000000000E+000
 -3.810000000000000E-002    0.000000000000000E+000
 -3.800000000000000E-002    0.000000000000000E+000
 -3.790000000000000E-002    0.000000000000000E+000
 -3.780000000000000E-002    0.000000000000000E+000
 -3.770000000000000E-002    0.000000000000000E+000
 -3.760000000000000E-002    0.000000000000000E+000
 -3.750000000000000E-002    0.000000000000000E+000
 -3.740000000000000E-002    0.000000000000000E+000
 -3.730000000000000E-002    0.000000000000000E+000
 -3.720000000000000E-002    0.000000000000000E+000
 -3.710000000000000E-002    0.000000000000000E+000
 -3.700000000000000E-002    0.000000000000000E+000
 -3.690000000000000E-002    0.000000000000000E+000
 -3.680000000000000E-002    0.000000000000000E+000
 -3.670000000000000E-002    0.000000000000000E+000
 -3.660000000000000E-002    0.000000000000000E+000
 -3.650000000000000E-002    0.000000000000000E+000
 -3.640000000000000E-002    0.000000000000000E+000
 -3.630000000000000E-002    0.000000000000000E+000
 -3.620000000000000E-002    0.000000000000000E+000
 -3.610000000000000E-002    0.000000000000000E+000
 -3.600000000000000E-002    0.000000000000000E+000
 -3.590000000000000E-002    0.000000000000000E+000
 -3.580000000000000E-002    0.000000000000000E+000
 -3.570000000000000E-002    0.000000000000000E+000
 -3.560000000000000E-002    0.000000000000000E+000
 -3.550000000000000E-002    0.000000000000000E+000
 -3.540000000000000E-002    0.000000000000000E+000
 -3.530000000000000E-002    0.000000000000000E+000
 -3.520000000000000E-002    0.000000000000000E+000
 -3.510000000000000E-002    0.000000000000000E+000
 -3.500000000000000E-002    0.000000000000000E+000
 -3.490000000000000E-002    0.000000000000000E+000
 -3.480000000000000E-002    0.000000000000000E+000
 -3.470000000000000E-002    0.000000000000000E+000
 -3.460000000000000E-002    0.000000000000000E+000
 -3.450000000000000E-002    0.000000000000000E+000
 -3.440000000000000E-002    0.000000000000000E+000
 -3.430000000000000E-002    0.000000000000000E+000
 -3.420000000000000E-002    0.000000000000000E+000
 -3.410000000000000E-002    0.000000000000000E+000
 -3.400000000000000E-002    0.000000000000000E+000
 -3.390000000000000E-002    0.000000000000000E+000
 -3.380000000000000E-002    0.000000000000000E+000
 -3.370000000000000E-002   -6.414635304221270E-048
 -3.360000000000000E-002   -1.282927060844254E-047
 -3.350000000000000E-002   -1.900734176592889E-046
 -3.340000000000000E-002   -3.224151175805865E-046
 -3.330000000000000E-002   -6.063424233358453E-046
 -3.320000000000000E-002   -1.009782158403959E-045
 -3.310000000000000E-002   -1.387563352255188E-045
 -3.300000000000000E-002   -1.691495894033958E-045
 -3.290000000000000E-002   -1.673013318232141E-045
 -3.280000000000000E-002    3.583064978329495E-046
 -3.270000000000000E-002    3.989994866105545E-045
 -3.260000000000000E-002    1.188696196497661E-044
 -3.250000000000000E-002    2.584767207137999E-044
 -3.240000000000000E-002    4.890215133950362E-044
 -3.230000000000000E-002    8.522947110053151E-044
 -3.220000000000000E-002    1.373249532003250E-043
 -3.210000000000000E-002    2.045779072322859E-043
 -3.200000000000000E-002    2.806949052474314E-043
 -3.190000000000000E-002    3.457658725066973E-043
 -3.180000000000000E-002    3.596087204530661E-043
 -3.170000000000000E-002    2.498199846818276E-043
 -3.160000000000000E-002   -1.025324431719255E-043
 -3.150000000000000E-002   -8.708926657592499E-043
 -3.140000000000000E-002   -2.293416213880465E-042
 -3.130000000000000E-002   -4.657926069771841E-042
 -3.120000000000000E-002   -8.264698685051077E-042
 -3.110000000000000E-002   -1.333622122633309E-041
 -3.100000000000000E-002   -1.985504407989860E-041
 -3.090000000000000E-002   -2.729683062507151E-041
 -3.080000000000000E-002   -3.425371314555972E-041
 -3.070000000000000E-002   -3.791894344618615E-041
 -3.060000000000000E-002   -3.347631574969357E-041
 -3.050000000000000E-002   -1.347556097809124E-041
 -3.040000000000000E-002    3.263661575494243E-041
 -3.030000000000000E-002    1.185299838583733E-040
 -3.020000000000000E-002    2.600927776416032E-040
 -3.010000000000000E-002    4.730069227015806E-040
 -3.000000000000000E-002    7.680078364195323E-040
 -2.990000000000000E-002    1.142960665465337E-039
 -2.980000000000000E-002    1.570982726145635E-039
 -2.970000000000000E-002    1.984180826063453E-039
 -2.960000000000000E-002    2.253418496352147E-039
 -2.950000000000000E-002    2.165931925376491E-039
 -2.940000000000000E-002    1.404843673233896E-039
 -2.930000000000000E-002   -4.623214594055868E-040
 -2.920000000000000E-002   -3.975141041132945E-039
 -2.910000000000000E-002   -9.736488779061323E-039
 -2.900000000000000E-002   -1.831400926388677E-038
 -2.890000000000000E-002   -3.006484193435185E-038
 -2.880000000000000E-002   -4.486236374153086E-038
 -2.870000000000000E-002   -6.171045936914540E-038
 -2.860000000000000E-002   -7.824663608929406E-038
 -2.850000000000000E-002   -9.016363358862537E-038
 -2.840000000000000E-002   -9.062277501383172E-038
 -2.830000000000000E-002   -6.979298434301719E-038
 -2.820000000000000E-002   -1.472519140357845E-038
 -2.810000000000000E-002    9.014301399094664E-038
 -2.800000000000000E-002    2.614767175798239E-037
 -2.790000000000000E-002    5.140963750313015E-037
 -2.780000000000000E-002    8.561664568555354E-037
 -2.770000000000000E-002    1.282195870470252E-036
 -2.760000000000000E-002    1.763777966818339E-036
 -2.750000000000000E-002    2.238448407423347E-036
 -2.740000000000000E-002    2.597727138246313E-036
 -2.730000000000000E-002    2.676352238992718E-036
 -2.720000000000000E-002    2.245872968471303E-036
 -2.710000000000000E-002    1.017050321523971E-036
 -2.700000000000000E-002   -1.343285226365344E-036
 -2.690000000000000E-002   -5.174446124715894E-036
 -2.680000000000000E-002   -1.075668098992171E-035
 -2.670000000000000E-002   -1.821337214351687E-035
 -2.660000000000000E-002   -2.737867923673450E-035
 -2.650000000000000E-002   -3.763434616597719E-035
 -2.640000000000000E-002   -4.772790756307079E-035
 -2.630000000000000E-002   -5.559592395189901E-035
 -2.620000000000000E-002   -5.822967559440920E-035
 -2.610000000000000E-002   -5.163569026635379E-035
 -2.600000000000000E-002   -3.095729830319338E-035
 -2.590000000000000E-002    9.167004229600321E-036
 -2.580000000000000E-002    7.393175118401928E-035
 -2.570000000000000E-002    1.673153223599782E-034
 -2.560000000000000E-002    2.906210830906396E-034
 -2.550000000000000E-002    4.406319291094083E-034
 -2.540000000000000E-002    6.074828928782558E-034
 -2.530000000000000E-002    7.724645801005830E-034
 -2.520000000000000E-002    9.060991247257092E-034
 -2.510000000000000E-002    9.669689281304065E-034
 -2.500000000000000E-002    9.019087423662689E-034
 -2.490000000000000E-002    6.482652101727881E-034
 -2.480000000000000E-002    1.389546339641073E-034
 -2.470000000000000E-002   -6.890326446894988E-034
 -2.460000000000000E-002   -1.882258160128836E-033
 -2.450000000000000E-002   -3.454575445700695E-033
 -2.440000000000000E-002   -5.367571486337723E-033
 -2.430000000000000E-002   -7.509101013631343E-033
 -2.420000000000000E-002   -9.672272960294120E-033
 -2.410000000000000E-002   -1.153830993929198E-032
 -2.400000000000000E-002   -1.266774465941851E-032
 -2.390000000000000E-002   -1.250527191876322E-032
 -2.380000000000000E-002   -1.040403897838749E-032
 -2.370000000000000E-002   -5.674998056794797E-033
 -2.360000000000000E-002    2.334078185898383E-033
 -2.350000000000000E-002    1.412745520605313E-032
 -2.340000000000000E-002    2.991906930703206E-032
 -2.330000000000000E-002    4.946457039474005E-032
 -2.320000000000000E-002    7.187934776283342E-032
 -2.310000000000000E-002    9.546104647029158E-032
 -2.300000000000000E-002    1.175424980037201E-031
 -2.290000000000000E-002    1.344080391989628E-031
 -2.280000000000000E-002    1.413120238780251E-031
 -2.270000000000000E-002    1.326414726518235E-031
 -2.260000000000000E-002    1.022640776905750E-031
 -2.250000000000000E-002    4.409637147009490E-032
 -2.240000000000000E-002   -4.708644090349007E-032
 -2.230000000000000E-002   -1.745988684580735E-031
 -2.220000000000000E-002   -3.385819558653289E-031
 -2.210000000000000E-002   -5.345977765233280E-031
 -2.200000000000000E-002   -7.521973961782168E-031
 -2.190000000000000E-002   -9.736294551952822E-031
 -2.180000000000000E-002   -1.172908994087365E-030
 -2.170000000000000E-002   -1.315512859706408E-030
 -2.160000000000000E-002   -1.359001191771275E-030
 -2.150000000000000E-002   -1.254875960880124E-030
 -2.140000000000000E-002   -9.519628313304646E-031
 -2.130000000000000E-002   -4.015356926209228E-031
 -2.120000000000000E-002    4.357223240849469E-031
 -2.110000000000000E-002    1.581012337978299E-030
 -2.100000000000000E-002    3.027313204937383E-030
 -2.090000000000000E-002    4.728532618205725E-030
 -2.080000000000000E-002    6.588935687869561E-030
 -2.070000000000000E-002    8.454252500278984E-030
 -2.060000000000000E-002    1.010622757105375E-029
 -2.050000000000000E-002    1.126266700683003E-029
 -2.040000000000000E-002    1.158518980547198E-029
 -2.030000000000000E-002    1.069682061828898E-029
 -2.020000000000000E-002    8.211219584538815E-030
 -2.010000000000000E-002    3.774611115155053E-030
 -2.000000000000000E-002   -2.879651089774979E-030
 -1.990000000000000E-002   -1.186551367783514E-029
 -1.980000000000000E-002   -2.307126164214037E-029
 -1.970000000000000E-002   -3.608505272466882E-029
 -1.960000000000000E-002   -5.012728063361995E-029
 -1.950000000000000E-002   -6.400042877912714E-029
 -1.940000000000000E-002   -7.606896096157087E-029
 -1.930000000000000E-002   -8.428289825759545E-029
 -1.920000000000000E-002   -8.625850354883520E-029
 -1.910000000000000E-002   -7.942766041440278E-029
 -1.900000000000000E-002   -6.126350962058666E-029
 -1.890000000000000E-002   -2.958364139226814E-029
 -1.880000000000000E-002    1.707653023944291E-029
 -1.870000000000000E-002    7.903853522507179E-029
 -1.860000000000000E-002    1.550345587557317E-028
 -1.850000000000000E-002    2.417841317436461E-028
 -1.840000000000000E-002    3.336504644406310E-028
 -1.830000000000000E-002    4.224432794939914E-028
 -1.820000000000000E-002    4.974411094501008E-028
 -1.810000000000000E-002    5.457051573460583E-028
 -1.800000000000000E-002    5.527482402036571E-028
 -1.790000000000000E-002    5.036024331663935E-028
 -1.780000000000000E-002    3.842987299230565E-028
 -1.770000000000000E-002    1.837297721103533E-028
 -1.760000000000000E-002   -1.041862200669841E-028
 -1.750000000000000E-002   -4.781816967376161E-028
 -1.740000000000000E-002   -9.273617127352401E-028
 -1.730000000000000E-002   -1.429236499648834E-027
 -1.720000000000000E-002   -1.948380240928533E-027
 -1.710000000000000E-002   -2.436060909800998E-027
 -1.700000000000000E-002   -2.831188066450164E-027
 -1.690000000000000E-002   -3.062888054873147E-027
 -1.680000000000000E-002   -3.054936379924310E-027
 -1.670000000000000E-002   -2.732142826055066E-027
 -1.660000000000000E-002   -2.028606641937639E-027
 -1.650000000000000E-002   -8.975316222684734E-028
 -1.640000000000000E-002    6.779717425478960E-028
 -1.630000000000000E-002    2.673942476402163E-027
 -1.620000000000000E-002    5.015599311863959E-027
 -1.610000000000000E-002    7.569688695343518E-027
 -1.600000000000000E-002    1.014064245062502E-026
 -1.590000000000000E-002    1.247208140775015E-026
 -1.580000000000000E-002    1.425508687068363E-026
 -1.570000000000000E-002    1.514436963001914E-026
 -1.560000000000000E-002    1.478298079190948E-026
 -1.550000000000000E-002    1.283550362689869E-026
 -1.540000000000000E-002    9.028773903832862E-027
 -1.530000000000000E-002    3.198132373578971E-027
 -1.520000000000000E-002   -4.663936584463955E-027
 -1.510000000000000E-002   -1.436106179813071E-026
 -1.500000000000000E-002   -2.545346541271728E-026
 -1.490000000000000E-002   -3.723177101443069E-026
 -1.480000000000000E-002   -4.871065282671141E-026
 -1.470000000000000E-002   -5.864866689990849E-026
 -1.460000000000000E-002   -6.559981219887158E-026
 -1.450000000000000E-002   -6.800069306205518E-026
 -1.440000000000000E-002   -6.429475323395566E-026
 -1.430000000000000E-002   -5.309167034445140E-026
 -1.420000000000000E-002   -3.335597892544630E-026
 -1.410000000000000E-002   -4.614318034397565E-027
 -1.400000000000000E-002    3.283415292917414E-026
 -1.390000000000000E-002    7.772448870384221E-026
 -1.380000000000000E-002    1.276741062420334E-025
 -1.370000000000000E-002    1.790996598088467E-025
 -1.360000000000000E-002    2.272307869857596E-025
 -1.350000000000000E-002    2.662473683233861E-025
 -1.340000000000000E-002    2.895623324635763E-025
 -1.330000000000000E-002    2.902636726872841E-025
 -1.320000000000000E-002    2.617176657758235E-025
 -1.310000000000000E-002    1.983193894047535E-025
 -1.300000000000000E-002    9.635817295455865E-026
 -1.290000000000000E-002   -4.505569273039380E-026
 -1.280000000000000E-002   -2.230780318235774E-025
 -1.270000000000000E-002   -4.303274149773539E-025
 -1.260000000000000E-002   -6.543038839401265E-025
 -1.250000000000000E-002   -8.771529060258811E-025
 -1.240000000000000E-002   -1.075899128171930E-024
 -1.230000000000000E-002   -1.223262847740204E-024
 -1.220000000000000E-002   -1.289147857867641E-024
 -1.210000000000000E-002   -1.242846276369062E-024
 -1.200000000000000E-002   -1.055948586013440E-024
 -1.190000000000000E-002   -7.058717022873872E-025
 -1.180000000000000E-002   -1.798319165543624E-025
 -1.170000000000000E-002    5.210067590072748E-025
 -1.160000000000000E-002    1.377572078151144E-024
 -1.150000000000000E-002    2.349562404677710E-024
 -1.140000000000000E-002    3.373279735236558E-024
 -1.130000000000000E-002    4.361167660999729E-024
 -1.120000000000000E-002    5.203589253273990E-024
 -1.110000000000000E-002    5.773312183673145E-024
 -1.100000000000000E-002    5.933031397406703E-024
 -1.090000000000000E-002    5.546048263597657E-024
 -1.080000000000000E-002    4.489950502073412E-024
 -1.070000000000000E-002    2.672794158127191E-024
 -1.060000000000000E-002    5.089385483967173E-026
 -1.050000000000000E-002   -3.353066966407804E-024
 -1.040000000000000E-002   -7.433299769500130E-024
 -1.030000000000000E-002   -1.198756759529665E-023
 -1.020000000000000E-002   -1.670948663737062E-023
 -1.010000000000000E-002   -2.118878486131350E-023
 -1.000000000000000E-002   -2.492169173568137E-023
 -9.899999999999999E-003   -2.733324499119007E-023
 -9.800000000000000E-003   -2.781260893307154E-023
 -9.699999999999999E-003   -2.576156685786187E-023
 -9.599999999999999E-003   -2.065509750913776E-023
 -9.500000000000000E-003   -1.211151060209004E-023
 -9.399999999999999E-003    3.198640572847739E-026
 -9.299999999999999E-003    1.564399174343968E-023
 -9.200000000000000E-003    3.423109276940119E-023
 -9.099999999999999E-003    5.488589337556491E-023
 -8.999999999999999E-003    7.625990608314825E-023
 -8.900000000000000E-003    9.657036217997678E-023
 -8.799999999999999E-003    1.136491227332344E-022
 -8.699999999999999E-003    1.250400025612235E-022
 -8.600000000000000E-003    1.281480094778352E-022
 -8.499999999999999E-003    1.204400331822155E-022
 -8.399999999999999E-003    9.969168814815971E-023
 -8.300000000000000E-003    6.426951396724373E-023
 -8.199999999999999E-003    1.343179387360508E-023
 -8.100000000000000E-003   -5.237447717228075E-023
 -8.000000000000000E-003   -1.312481434071951E-022
 -7.899999999999999E-003   -2.196314773295604E-022
 -7.800000000000000E-003   -3.122044393786153E-022
 -7.699999999999999E-003   -4.019084963063504E-022
 -7.599999999999999E-003   -4.801296171768007E-022
 -7.499999999999999E-003   -5.370628482326248E-022
 -7.399999999999999E-003   -5.622705553602357E-022
 -7.299999999999999E-003   -5.454320395582338E-022
 -7.199999999999999E-003   -4.772656298357530E-022
 -7.100000000000000E-003   -3.505843924749309E-022
 -6.999999999999999E-003   -1.614269361037347E-022
 -6.899999999999999E-003    8.981614465235570E-023
 -6.800000000000000E-003    3.973771362229752E-022
 -6.699999999999999E-003    7.492975208954033E-022
 -6.599999999999999E-003    1.126944837271216E-021
 -6.499999999999999E-003    1.504977449715358E-021
 -6.399999999999999E-003    1.851864050226391E-021
 -6.299999999999999E-003    2.131043210431519E-021
 -6.199999999999999E-003    2.302774686202532E-021
 -6.100000000000000E-003    2.326687268205695E-021
 -5.999999999999999E-003    2.164972889907506E-021
 -5.899999999999999E-003    1.786112676866785E-021
 -5.800000000000000E-003    1.168946688666778E-021
 -5.699999999999999E-003    3.068352856668966E-022
 -5.599999999999999E-003   -7.884110689100813E-022
 -5.499999999999999E-003   -2.083206257234893E-021
 -5.399999999999999E-003   -3.519876239535245E-021
 -5.299999999999999E-003   -5.015779218171537E-021
 -5.199999999999999E-003   -6.464253651404255E-021
 -5.099999999999999E-003   -7.737729801532536E-021
 -4.999999999999999E-003   -8.693240373082321E-021
 -4.899999999999999E-003   -9.180424558903436E-021
 -4.799999999999999E-003   -9.051937527543923E-021
 -4.699999999999999E-003   -8.175962539698554E-021
 -4.599999999999999E-003   -6.450285250400727E-021
 -4.499999999999999E-003   -3.817145000075526E-021
 -4.399999999999999E-003   -2.778368538631702E-022
 -4.299999999999999E-003    4.094168081900095E-021
 -4.199999999999999E-003    9.142959776127244E-021
 -4.099999999999999E-003    1.462425002636587E-020
 -3.999999999999999E-003    2.020517190718659E-020
 -3.899999999999999E-003    2.547109748781694E-020
 -3.799999999999999E-003    2.994045615256829E-020
 -3.699999999999999E-003    3.308810671625617E-020
 -3.599999999999999E-003    3.437723214355918E-020
 -3.499999999999999E-003    3.329906627775097E-020
 -3.399999999999999E-003    2.941893792410962E-020
 -3.299999999999999E-003    2.242633062041255E-020
 -3.199999999999999E-003    1.218581265814413E-020
 -3.099999999999999E-003   -1.215028521160326E-021
 -2.999999999999999E-003   -1.742506689155160E-020
 -2.899999999999999E-003   -3.580130365277483E-020
 -2.799999999999999E-003   -5.539750581515353E-020
 -2.699999999999999E-003   -7.497420317442361E-020
 -2.599999999999999E-003   -9.303367870710592E-020
 -2.499999999999999E-003   -1.078822892943722E-019
 -2.399999999999999E-003   -1.177207969329722E-019
 -2.299999999999999E-003   -1.207612891104215E-019
 -2.199999999999999E-003   -1.153669011560052E-019
 -2.099999999999999E-003   -1.002079999691438E-019
 -1.999999999999999E-003   -7.442594022780797E-020
 -1.899999999999999E-003   -3.779317252862485E-020
 -1.799999999999999E-003    9.143433765930664E-021
 -1.699999999999999E-003    6.495035806633675E-020
 -1.599999999999999E-003    1.272409846791699E-019
 -1.499999999999999E-003    1.926689222079701E-019
 -1.399999999999999E-003    2.569930038651480E-019
 -1.299999999999999E-003    3.152227549996587E-019
 -1.199999999999999E-003    3.618483328291679E-019
 -1.099999999999999E-003    3.911535565449346E-019
 -9.999999999999989E-004    3.976037751843005E-019
 -8.999999999999990E-004    3.762931042238444E-019
 -7.999999999999990E-004    3.234284799076233E-019
 -6.999999999999989E-004    2.368208729044495E-019
 -5.999999999999990E-004    1.163479093205404E-019
 -4.999999999999989E-004   -3.565146267488458E-020
 -3.999999999999989E-004   -2.140925548293970E-019
 -2.999999999999989E-004   -4.110114290782463E-019
 -1.999999999999989E-004   -6.156195881676803E-019
 -9.999999999999892E-005   -8.145762523701586E-019
  1.084202172485504E-018   -9.924972630453359E-019
  1.000000000000011E-004   -1.132704547723923E-018
  2.000000000000011E-004   -1.218204248150553E-018
  3.000000000000011E-004   -1.232861443651651E-018
  4.000000000000011E-004   -1.162720561106158E-018
  5.000000000000011E-004   -9.974001737603936E-019
  6.000000000000011E-004   -7.314738507775353E-019
  7.000000000000011E-004   -3.657348269145441E-019
  8.000000000000011E-004    9.176765299026095E-020
  9.000000000000012E-004    6.250346294991088E-019
  1.000000000000001E-003    1.209874178368872E-018
  1.100000000000001E-003    1.814203358992064E-018
  1.200000000000001E-003    2.398966625666386E-018
  1.300000000000001E-003    2.919708256165451E-018
  1.400000000000001E-003    3.328797700997798E-018
  1.500000000000001E-003    3.578257417973059E-018
  1.600000000000001E-003    3.623093160217600E-018
  1.700000000000001E-003    3.424972324843976E-018
  1.800000000000001E-003    2.956046615473935E-018
  1.900000000000001E-003    2.202672995115551E-018
  2.000000000000001E-003    1.168748103743847E-018
  2.100000000000001E-003   -1.216396736265052E-019
  2.200000000000001E-003   -1.622543720690024E-018
  2.300000000000001E-003   -3.265754595472075E-018
  2.400000000000001E-003   -4.961893372067318E-018
  2.500000000000001E-003   -6.603168058911299E-018
  2.600000000000001E-003   -8.067867481542402E-018
  2.700000000000001E-003   -9.226552974015257E-018
  2.800000000000001E-003   -9.949790984202987E-018
  2.900000000000001E-003   -1.011712139697095E-017
  3.000000000000001E-003   -9.626832193571045E-018
  3.100000000000001E-003   -8.405980096025205E-018
  3.200000000000001E-003   -6.420000007031090E-018
  3.300000000000001E-003   -3.681153213536994E-018
  3.400000000000001E-003   -2.550573384930757E-019
  3.500000000000001E-003    3.735464419479153E-018
  3.600000000000001E-003    8.109896817974851E-018
  3.700000000000001E-003    1.263345188862565E-017
  3.800000000000001E-003    1.702476107118592E-017
  3.900000000000001E-003    2.096794877306898E-017
  4.000000000000001E-003    2.412891321475473E-017
  4.100000000000001E-003    2.617531339312144E-017
  4.200000000000001E-003    2.679944130373619E-017
  4.300000000000001E-003    2.574281623475855E-017
  4.400000000000001E-003    2.282106543544625E-017
  4.500000000000001E-003    1.794741274407897E-017
  4.600000000000002E-003    1.115296958391278E-017
  4.700000000000001E-003    2.601954902023144E-018
  4.800000000000001E-003   -7.399909931783381E-018
  4.900000000000002E-003   -1.840539793333183E-017
  5.000000000000001E-003   -2.983533828923305E-017
  5.100000000000001E-003   -4.099846240806263E-017
  5.200000000000001E-003   -5.112161085318388E-017
  5.300000000000002E-003   -5.938969261775365E-017
  5.400000000000001E-003   -6.499404999179843E-017
  5.500000000000001E-003   -6.718710391811047E-017
  5.600000000000002E-003   -6.534048744220328E-017
  5.700000000000001E-003   -5.900315336696151E-017
  5.800000000000001E-003   -4.795565547072682E-017
  5.900000000000002E-003   -3.225635792413718E-017
  6.000000000000001E-003   -1.227547797218805E-017
  6.100000000000001E-003    1.128695729231820E-017
  6.200000000000002E-003    3.740252986422858E-017
  6.300000000000002E-003    6.473766535350540E-017
  6.400000000000001E-003    9.169998466924093E-017
  6.500000000000001E-003    1.165077054082071E-016
  6.600000000000002E-003    1.372804543901042E-016
  6.700000000000001E-003    1.521483121406668E-016
  6.800000000000001E-003    1.593741683802266E-016
  6.900000000000002E-003    1.574831593742895E-016
  7.000000000000001E-003    1.453915911234005E-016
  7.100000000000001E-003    1.225268874546731E-016
  7.200000000000002E-003    8.892961206969799E-017
  7.300000000000002E-003    4.532888118921525E-017
  7.400000000000001E-003   -6.817157530485030E-018
  7.500000000000001E-003   -6.532257235916074E-017
  7.600000000000002E-003   -1.273217047582216E-016
  7.700000000000001E-003   -1.893665390855929E-016
  7.800000000000001E-003   -2.475731926105901E-016
  7.900000000000001E-003   -2.978141165946972E-016
  8.000000000000002E-003   -3.359490713232955E-016
  8.100000000000001E-003   -3.580849603429638E-016
  8.200000000000001E-003   -3.608512524525709E-016
  8.300000000000002E-003   -3.416755444764445E-016
  8.400000000000001E-003   -2.990415293522696E-016
  8.500000000000002E-003   -2.327113150644222E-016
  8.600000000000002E-003   -1.438934104171899E-016
  8.700000000000001E-003   -3.533979041416338E-017
  8.800000000000002E-003    8.864262208189697E-017
  8.900000000000002E-003    2.222765541047206E-016
  9.000000000000001E-003    3.585009606714104E-016
  9.100000000000002E-003    4.892596123119625E-016
  9.200000000000002E-003    6.058852464788487E-016
  9.300000000000001E-003    6.995661183406198E-016
  9.400000000000002E-003    7.618751336746362E-016
  9.500000000000001E-003    7.853355062635696E-016
  9.600000000000001E-003    7.639915248611392E-016
  9.700000000000002E-003    6.939497937093551E-016
  9.800000000000001E-003    5.738530318366426E-016
  9.900000000000001E-003    4.052501793057620E-016
  1.000000000000000E-002    1.928276352968966E-016
  1.010000000000000E-002   -5.552782533755803E-017
  1.020000000000000E-002   -3.288570124067854E-016
  1.030000000000000E-002   -6.134599026884167E-016
  1.040000000000000E-002   -8.934323075369500E-016
  1.050000000000000E-002   -1.151396900629180E-015
  1.060000000000000E-002   -1.369403428237028E-015
  1.070000000000000E-002   -1.529960691625373E-015
  1.080000000000000E-002   -1.617150969881928E-015
  1.090000000000000E-002   -1.617765806054280E-015
  1.100000000000000E-002   -1.522395787409929E-015
  1.110000000000000E-002   -1.326402536406582E-015
  1.120000000000000E-002   -1.030700799147545E-015
  1.130000000000000E-002   -6.422831049704131E-016
  1.140000000000000E-002   -1.744282658821880E-016
  1.150000000000000E-002    3.534496546844549E-016
  1.160000000000000E-002    9.163402561636043E-016
  1.170000000000000E-002    1.484568650913035E-015
  1.180000000000000E-002    2.025102092131639E-015
  1.190000000000000E-002    2.503189287531382E-015
  1.200000000000000E-002    2.884265182086675E-015
  1.210000000000000E-002    3.136031677344403E-015
  1.220000000000000E-002    3.230605155015231E-015
  1.230000000000000E-002    3.146608609595006E-015
  1.240000000000000E-002    2.871076454474003E-015
  1.250000000000000E-002    2.401040261224410E-015
  1.260000000000000E-002    1.744671365223778E-015
  1.270000000000000E-002    9.218697173079155E-016
  1.280000000000000E-002   -3.578711582584849E-017
  1.290000000000000E-002   -1.085790568511934E-015
  1.300000000000000E-002   -2.176161827817288E-015
  1.310000000000000E-002   -3.247608575297858E-015
  1.320000000000000E-002   -4.236307858774393E-015
  1.330000000000000E-002   -5.077214956651707E-015
  1.340000000000000E-002   -5.707742624860286E-015
  1.350000000000000E-002   -6.071636310647604E-015
  1.360000000000000E-002   -6.122828716487290E-015
  1.370000000000000E-002   -5.829049300468099E-015
  1.380000000000000E-002   -5.174957184924721E-015
  1.390000000000000E-002   -4.164570585135348E-015
  1.400000000000000E-002   -2.822789364481030E-015
  1.410000000000000E-002   -1.195843955375042E-015
  1.420000000000000E-002    6.494540868186750E-016
  1.430000000000000E-002    2.627715253947502E-015
  1.440000000000000E-002    4.638228452991249E-015
  1.450000000000000E-002    6.569390903783221E-015
  1.460000000000000E-002    8.304154874521922E-015
  1.470000000000000E-002    9.726267244934173E-015
  1.480000000000000E-002    1.072701218742161E-014
  1.490000000000000E-002    1.121210888197843E-014
  1.500000000000000E-002    1.110838045380795E-014
  1.510000000000000E-002    1.036978892988246E-014
  1.520000000000000E-002    8.982433303217291E-015
  1.530000000000000E-002    6.968135349050408E-015
  1.540000000000000E-002    4.386279045042024E-015
  1.550000000000000E-002    1.333649053387299E-015
  1.560000000000000E-002   -2.057890949298895E-015
  1.570000000000000E-002   -5.625934771230852E-015
  1.580000000000000E-002   -9.184211878212317E-015
  1.590000000000000E-002   -1.253120626846379E-014
  1.600000000000000E-002   -1.546037432415825E-014
  1.610000000000000E-002   -1.777151587592748E-014
  1.620000000000000E-002   -1.928273303410847E-014
  1.630000000000000E-002   -1.984233339486119E-014
  1.640000000000000E-002   -1.933998893993372E-014
  1.650000000000000E-002   -1.771643693654600E-014
  1.660000000000000E-002   -1.497104512814922E-014
  1.670000000000000E-002   -1.116662806581681E-014
  1.680000000000000E-002   -6.431008028819907E-015
  1.690000000000000E-002   -9.549711743740961E-016
  1.700000000000000E-002    5.013553698293835E-015
  1.710000000000000E-002    1.117906573819901E-014
  1.720000000000000E-002    1.721153951064398E-014
  1.730000000000000E-002    2.276248969413635E-014
  1.740000000000000E-002    2.748333662873197E-014
  1.750000000000000E-002    3.104520780242844E-014
  1.760000000000000E-002    3.315913708475387E-014
  1.770000000000000E-002    3.359552434752860E-014
  1.780000000000000E-002    3.220167985082903E-014
  1.790000000000000E-002    2.891630691168202E-014
  1.800000000000000E-002    2.377984593443500E-014
  1.810000000000000E-002    1.693979360053200E-014
  1.820000000000000E-002    8.650327596128175E-015
  1.830000000000000E-002   -7.341720065527491E-016
  1.840000000000000E-002   -1.077176628682436E-014
  1.850000000000000E-002   -2.095147912759023E-014
  1.860000000000000E-002   -3.071707871118175E-014
  1.870000000000000E-002   -3.949511690788122E-014