 -4.000000000000000E-002    0.000000000000000E+000
 -3.990000000000000E-002    0.000000000000000E+000
 -3.980000000000000E-002    0.000000000000000E+000
 -3.970000000000000E-002    0.000000000000000E+000
 -3.960000000000000E-002    0.000000000000000E+000
 -3.950000000000000E-002    0.000000000000000E+000
 -3.940000000000000E-002    0.000000000000000E+000
 -3.930000000000000E-002    0.000000000000000E+000
 -3.920000000000000E-002    0.000000000000000E+000
 -3.910000000000000E-002    0.000000000000000E+000
 -3.900000000000000E-002    0.000000000000000E+000
 -3.890000000000000E-002    0.000000000000000E+000
 -3.880000000000000E-002    0.000000000000000E+000
 -3.870000000000000E-002   -6.914768740796844E-042
 -3.860000000000000E-002   -1.692310810346082E-040
 -3.850000000000000E-002   -2.136921168763004E-039
 -3.840000000000000E-002   -1.853181327672545E-038
 -3.830000000000000E-002   -1.239700330921421E-037
 -3.820000000000000E-002   -6.812808034574780E-037
 -3.810000000000000E-002   -3.198868835573424E-036
 -3.800000000000000E-002   -1.317906951645625E-035
 -3.790000000000000E-002   -4.855800404089565E-035
 -3.780000000000000E-002   -1.622781929752407E-034
 -3.770000000000000E-002   -4.972114096953561E-034
 -3.760000000000000E-002   -1.408252564829908E-033
 -3.750000000000000E-002   -3.710379642655404E-033
 -3.740000000000000E-002   -9.137008929787988E-033
 -3.730000000000000E-002   -2.109949266749492E-032
 -3.720000000000000E-002   -4.577736902734211E-032
 -3.710000000000000E-002   -9.334591984726700E-032
 -3.700000000000000E-002   -1.786075146199905E-031
 -3.690000000000000E-002   -3.192174966468745E-031
 -3.680000000000000E-002   -5.278347472724170E-031
 -3.670000000000000E-002   -7.916975170699061E-031
 -3.660000000000000E-002   -1.029409619137549E-030
 -3.650000000000000E-002   -1.010789734230835E-030
 -3.640000000000000E-002   -2.232019955179617E-031
 -3.630000000000000E-002    2.329871489573391E-030
 -3.620000000000000E-002    8.399883719035128E-030
 -3.610000000000000E-002    2.080605725023917E-029
 -3.600000000000000E-002    4.370657295462889E-029
 -3.590000000000000E-002    8.265536757807955E-029
 -3.580000000000000E-002    1.441458263251490E-028
 -3.570000000000000E-002    2.341873891974396E-028
 -3.560000000000000E-002    3.553032127528881E-028
 -3.550000000000000E-002    5.012288129238495E-028
 -3.540000000000000E-002    6.486225740669494E-028
 -3.530000000000000E-002    7.453911843610413E-028
 -3.520000000000000E-002    6.959390591939418E-028
 -3.510000000000000E-002    3.449273864963226E-028
 -3.500000000000000E-002   -5.369089873114952E-028
 -3.490000000000000E-002   -2.258681373693269E-027
 -3.480000000000000E-002   -5.197630356676329E-027
 -3.470000000000000E-002   -9.757193329423263E-027
 -3.460000000000000E-002   -1.627987806725242E-026
 -3.450000000000000E-002   -2.489964304887997E-026
 -3.440000000000000E-002   -3.532184223083811E-026
 -3.430000000000000E-002   -4.652774255911781E-026
 -3.420000000000000E-002   -5.641677754527059E-026
 -3.410000000000000E-002   -6.142433158324433E-026
 -3.400000000000000E-002   -5.618567619836106E-026
 -3.390000000000000E-002   -3.335568392929592E-026
 -3.380000000000000E-002    1.626589745481011E-026
 -3.370000000000000E-002    1.031202031538058E-025
 -3.360000000000000E-002    2.375872583806257E-025
 -3.350000000000000E-002    4.278136139032985E-025
 -3.340000000000000E-002    6.765495380533552E-025
 -3.330000000000000E-002    9.769986199892915E-025
 -3.320000000000000E-002    1.307872488776526E-024
 -3.310000000000000E-002    1.628101187755095E-024
 -3.300000000000000E-002    1.871960818892770E-024
 -3.290000000000000E-002    1.945715212850498E-024
 -3.280000000000000E-002    1.727176318511380E-024
 -3.270000000000000E-002    1.069811124582305E-024
 -3.260000000000000E-002   -1.869236631239354E-025
 -3.250000000000000E-002   -2.199527283991600E-024
 -3.240000000000000E-002   -5.093693218680828E-024
 -3.230000000000000E-002   -8.928723886822618E-024
 -3.220000000000000E-002   -1.365424152538146E-023
 -3.210000000000000E-002   -1.906188409792811E-023
 -3.200000000000000E-002   -2.473646806365194E-023
 -3.190000000000000E-002   -3.001295478046024E-023
 -3.180000000000000E-002   -3.394727898235678E-023
 -3.170000000000000E-002   -3.531039793098874E-023
 -3.160000000000000E-002   -3.261563968098951E-023
 -3.150000000000000E-002   -2.418923927666495E-023
 -3.140000000000000E-002   -8.292779289885611E-024
 -3.130000000000000E-002    1.669608092781075E-023
 -3.120000000000000E-002    5.204172163319055E-023
 -3.110000000000000E-002    9.834935655585944E-023
 -3.100000000000000E-002    1.552122168071754E-022
 -3.090000000000000E-002    2.208221618149657E-022
 -3.080000000000000E-002    2.915671512669604E-022
 -3.070000000000000E-002    3.616493129502670E-022
 -3.060000000000000E-002    4.227693046597615E-022
 -3.050000000000000E-002    4.639364141199133E-022
 -3.040000000000000E-002    4.714790035885143E-022
 -3.030000000000000E-002    4.293452842561836E-022
 -3.020000000000000E-002    3.197977680604905E-022
 -3.010000000000000E-002    1.246120676639958E-022
 -3.000000000000000E-002   -1.731123747031763E-022
 -2.990000000000000E-002   -5.864445494616839E-022
 -2.980000000000000E-002   -1.121378385589695E-021
 -2.970000000000000E-002   -1.772895404051650E-021
 -2.960000000000000E-002   -2.520494748381988E-021
 -2.950000000000000E-002   -3.323509225454319E-021
 -2.940000000000000E-002   -4.116720857456296E-021
 -2.930000000000000E-002   -4.807001938579328E-021
 -2.920000000000000E-002   -5.271915977129988E-021
 -2.910000000000000E-002   -5.361380476258074E-021
 -2.900000000000000E-002   -4.903571084995449E-021
 -2.890000000000000E-002   -3.716183564374383E-021
 -2.880000000000000E-002   -1.623909263945146E-021
 -2.870000000000000E-002    1.517513555205945E-021
 -2.860000000000000E-002    5.791077787065938E-021
 -2.850000000000000E-002    1.118353437268909E-020
 -2.840000000000000E-002    1.754830352794151E-020
 -2.830000000000000E-002    2.457023293499311E-020
 -2.820000000000000E-002    3.173742996068261E-020
 -2.810000000000000E-002    3.832638835797383E-020
 -2.800000000000000E-002    4.340715002700917E-020
 -2.790000000000000E-002    4.587501467812178E-020
 -2.780000000000000E-002    4.451408398931726E-020
 -2.770000000000000E-002    3.809568086293498E-020
 -2.760000000000000E-002    2.551122695173035E-020
 -2.750000000000000E-002    5.934748747296763E-021
 -2.740000000000000E-002   -2.099499416986772E-020
 -2.730000000000000E-002   -5.498811595774525E-020
 -2.720000000000000E-002   -9.493322371916945E-020
 -2.710000000000000E-002   -1.387671093735130E-019
 -2.700000000000000E-002   -1.834102881029501E-019
 -2.690000000000000E-002   -2.247931100958060E-019
 -2.680000000000000E-002   -2.579929311668650E-019
 -2.670000000000000E-002   -2.774950146337678E-019
 -2.660000000000000E-002   -2.775788024918723E-019
 -2.650000000000000E-002   -2.528175140855584E-019
 -2.640000000000000E-002   -1.986639925695606E-019
 -2.630000000000000E-002   -1.120810125851866E-019
 -2.620000000000000E-002    7.838422320209103E-021
 -2.610000000000000E-002    1.593237319180472E-019
 -2.600000000000000E-002    3.375177771448263E-019
 -2.590000000000000E-002    5.342672027080984E-019
 -2.580000000000000E-002    7.381607810657617E-019
 -2.570000000000000E-002    9.348453291105354E-019
 -2.560000000000000E-002    1.107624203331594E-018
 -2.550000000000000E-002    1.238315968477654E-018
 -2.540000000000000E-002    1.308324808305730E-018
 -2.530000000000000E-002    1.299852186507883E-018
 -2.520000000000000E-002    1.197165585792372E-018
 -2.510000000000000E-002    9.878383835509138E-019
 -2.500000000000000E-002    6.638834822819877E-019
 -2.490000000000000E-002    2.227256768418912E-019
 -2.480000000000000E-002   -3.320143728425705E-019
 -2.470000000000000E-002   -9.899171256277468E-019
 -2.460000000000000E-002   -1.733308722265883E-018
 -2.450000000000000E-002   -2.536900239222958E-018
 -2.440000000000000E-002   -3.367473214224794E-018
 -2.430000000000000E-002   -4.183587585353008E-018
 -2.420000000000000E-002   -4.935343855667529E-018
 -2.410000000000000E-002   -5.564303879760477E-018
 -2.400000000000000E-002   -6.003767217610297E-018
 -2.390000000000000E-002   -6.179692438536090E-018
 -2.380000000000000E-002   -6.012623060384963E-018
 -2.370000000000000E-002   -5.421010169072297E-018
 -2.360000000000000E-002   -4.326297851357258E-018
 -2.350000000000000E-002   -2.660024796472597E-018
 -2.340000000000000E-002   -3.729986181276548E-019
 -2.330000000000000E-002    2.553685525884548E-018
 -2.320000000000000E-002    6.096367900970780E-018
 -2.310000000000000E-002    1.017628645088501E-017
 -2.300000000000000E-002    1.464815338838953E-017
 -2.290000000000000E-002    1.929156043455232E-017
 -2.280000000000000E-002    2.380713758518232E-017
 -2.270000000000000E-002    2.781940047998258E-017
 -2.260000000000000E-002    3.088799083779130E-017
 -2.250000000000000E-002    3.252851562859254E-017
 -2.240000000000000E-002    3.224342326774344E-017
 -2.230000000000000E-002    2.956233687887515E-017
 -2.220000000000000E-002    2.409005795968716E-017
 -2.210000000000000E-002    1.555926471992591E-017
 -2.200000000000000E-002    3.883679122484085E-018
 -2.190000000000000E-002   -1.079335427894387E-017
 -2.180000000000000E-002   -2.806058287288826E-017
 -2.170000000000000E-002   -4.721648288095054E-017
 -2.160000000000000E-002   -6.726792622020663E-017
 -2.150000000000000E-002   -8.695370190122628E-017
 -2.140000000000000E-002   -1.047948832212982E-016
 -2.130000000000000E-002   -1.191717158323791E-016
 -2.120000000000000E-002   -1.284240460630977E-016
 -2.110000000000000E-002   -1.309697367347620E-016
 -2.100000000000000E-002   -1.254330866118668E-016
 -2.090000000000000E-002   -1.107735483076195E-016
 -2.080000000000000E-002   -8.640399425745652E-017
 -2.070000000000000E-002   -5.228806648535015E-017
 -2.060000000000000E-002   -9.007050252521684E-018
 -2.050000000000000E-002    4.221066865104890E-017
 -2.040000000000000E-002    9.950160873340355E-017
 -2.030000000000000E-002    1.604208464709180E-016
 -2.020000000000000E-002    2.220337721386975E-016
 -2.010000000000000E-002    2.810388070743670E-016
 -2.000000000000000E-002    3.339115284728312E-016
 -1.990000000000000E-002    3.770591127943296E-016
 -1.980000000000000E-002    4.069743096795980E-016
 -1.970000000000000E-002    4.203799896345345E-016
 -1.960000000000000E-002    4.143585229459283E-016
 -1.950000000000000E-002    3.864643560694851E-016
 -1.940000000000000E-002    3.348231313656239E-016
 -1.930000000000000E-002    2.582248319530849E-016
 -1.920000000000000E-002    1.562208230311957E-016
 -1.910000000000000E-002    2.923701903954940E-017
 -1.900000000000000E-002   -1.212883665242911E-016
 -1.890000000000000E-002   -2.927371282060254E-016
 -1.880000000000000E-002   -4.811170143537990E-016
 -1.870000000000000E-002   -6.808541997405583E-016
 -1.860000000000000E-002   -8.845975281533504E-016
 -1.850000000000000E-002   -1.083069625866275E-015
 -1.840000000000000E-002   -1.265011411812861E-015
 -1.830000000000000E-002   -1.417269455428144E-015
 -1.820000000000000E-002   -1.525078337411386E-015
 -1.810000000000000E-002   -1.572580694311912E-015
 -1.800000000000000E-002   -1.543615246041384E-015
 -1.790000000000000E-002   -1.422778794585080E-015
 -1.780000000000000E-002   -1.196741394909198E-015
 -1.770000000000000E-002   -8.557592556910410E-016
 -1.760000000000000E-002   -3.952953937750038E-016
 -1.750000000000000E-002    1.823737932351433E-016
 -1.740000000000000E-002    8.667145711771338E-016
 -1.730000000000000E-002    1.637820731182238E-015
 -1.720000000000000E-002    2.465792761165256E-015
 -1.710000000000000E-002    3.310768414435338E-015
 -1.700000000000000E-002    4.123726137991357E-015
 -1.690000000000000E-002    4.848138061606549E-015
 -1.680000000000000E-002    5.422487970754470E-015
 -1.670000000000000E-002    5.783598092872732E-015
 -1.660000000000000E-002    5.870630381392682E-015
 -1.650000000000000E-002    5.629562196402560E-015
 -1.640000000000000E-002    5.017862654855155E-015
 -1.630000000000000E-002    4.009056925125091E-015
 -1.620000000000000E-002    2.596839192568131E-015
 -1.610000000000000E-002    7.983955190620402E-016
 -1.600000000000000E-002   -1.343376260317559E-015
 -1.590000000000000E-002   -3.758998126811172E-015
 -1.580000000000000E-002   -6.353078635503009E-015
 -1.570000000000000E-002   -9.006592443768343E-015
 -1.560000000000000E-002   -1.158075741890476E-014
 -1.550000000000000E-002   -1.392238332614731E-014
 -1.540000000000000E-002   -1.587049132548788E-014
 -1.530000000000000E-002   -1.726390965936894E-014
 -1.520000000000000E-002   -1.794951819590448E-014
 -1.510000000000000E-002   -1.779077845809672E-014
 -1.500000000000000E-002   -1.667619122688005E-014
 -1.490000000000000E-002   -1.452735418223294E-014
 -1.480000000000000E-002   -1.130630228005539E-014
 -1.470000000000000E-002   -7.021878939563650E-015
 -1.460000000000000E-002   -1.734918910616213E-015
 -1.450000000000000E-002    4.437971779882323E-015
 -1.440000000000000E-002    1.132224436022875E-014
 -1.430000000000000E-002    1.868503368489716E-014
 -1.420000000000000E-002    2.623688020210829E-014
 -1.410000000000000E-002    3.363580850389719E-014
 -1.400000000000000E-002    4.049414767926933E-014
 -1.390000000000000E-002    4.638841671654182E-014
 -1.380000000000000E-002    5.087264907570801E-014
 -1.370000000000000E-002    5.349542899983431E-014
 -1.360000000000000E-002    5.382073803061506E-014
 -1.350000000000000E-002    5.145247875454390E-014
 -1.340000000000000E-002    4.606223293578958E-014
 -1.330000000000000E-002    3.741942912050739E-014
 -1.320000000000000E-002    2.542256843477698E-014
 -1.310000000000000E-002    1.012981434809460E-014
 -1.300000000000000E-002   -8.213324344167330E-015
 -1.290000000000000E-002   -2.915168551114824E-014
 -1.280000000000000E-002   -5.200629620075360E-014
 -1.270000000000000E-002   -7.587118238487888E-014
 -1.260000000000000E-002   -9.962364315877758E-014
 -1.250000000000000E-002   -1.219501313828857E-013
 -1.240000000000000E-002   -1.413890689069457E-013
 -1.230000000000000E-002   -1.563909612465667E-013
 -1.220000000000000E-002   -1.653949935766449E-013
 -1.210000000000000E-002   -1.669198973418038E-013
 -1.200000000000000E-002   -1.596655612889050E-013
 -1.190000000000000E-002   -1.426203967386189E-013
 -1.180000000000000E-002   -1.151684031909865E-013
 -1.170000000000000E-002   -7.718883986818536E-014
 -1.160000000000000E-002   -2.914102204418478E-014
 -1.150000000000000E-002    2.787332836867103E-014
 -1.140000000000000E-002    9.207747602470818E-014
 -1.130000000000000E-002    1.610228116797892E-013
 -1.120000000000000E-002    2.316323862235108E-013
 -1.110000000000000E-002    3.002874583435376E-013
 -1.100000000000000E-002    3.629573402706705E-013
 -1.090000000000000E-002    4.153700598225253E-013
 -1.080000000000000E-002    4.532190492315062E-013
 -1.070000000000000E-002    4.723977802756115E-013
 -1.060000000000000E-002    4.692524537394511E-013
 -1.050000000000000E-002    4.408409878423549E-013
 -1.040000000000000E-002    3.851838362077918E-013
 -1.030000000000000E-002    3.014932353548968E-013
 -1.020000000000000E-002    1.903658315402972E-013
 -1.010000000000000E-002    5.392472551775378E-014
 -1.000000000000000E-002   -1.041016459917244E-013
 -9.899999999999999E-003   -2.783742821474296E-013
 -9.800000000000000E-003   -4.620202268247184E-013
 -9.699999999999999E-003   -6.467956530796302E-013
 -9.599999999999999E-003   -8.233369084701372E-013
 -9.500000000000000E-003   -9.814967842017082E-013
 -9.399999999999999E-003   -1.110759468738595E-012
 -9.299999999999999E-003   -1.200722804304248E-012
 -9.200000000000000E-003   -1.241633435905385E-012
 -9.099999999999999E-003   -1.224955943324300E-012
 -8.999999999999999E-003   -1.143952478308214E-012
 -8.900000000000000E-003   -9.942484402507260E-013
 -8.799999999999999E-003   -7.743540810836690E-013
 -8.699999999999999E-003   -4.861125029044227E-013
 -8.600000000000000E-003   -1.350434556130141E-013
 -8.499999999999999E-003    2.694489598996824E-013
 -8.399999999999999E-003    7.140325586305640E-013
 -8.300000000000000E-003    1.181593189238687E-012
 -8.199999999999999E-003    1.651590309288913E-012
 -8.100000000000000E-003    2.100633672299075E-012
 -8.000000000000000E-003    2.503285289894763E-012
 -7.899999999999999E-003    2.833076547414910E-012
 -7.800000000000000E-003    3.063720910239174E-012
 -7.699999999999999E-003    3.170486512490568E-012
 -7.599999999999999E-003    3.131678808235699E-012
 -7.499999999999999E-003    2.930172804245628E-012
 -7.399999999999999E-003    2.554914474996522E-012
 -7.299999999999999E-003    2.002311842761329E-012
 -7.199999999999999E-003    1.277418893064265E-012
 -7.100000000000000E-003    3.948198871690219E-013
 -6.999999999999999E-003   -6.208737227228353E-013
 -6.899999999999999E-003   -1.735001125776129E-012
 -6.800000000000000E-003   -2.903362520091629E-012
 -6.699999999999999E-003   -4.073315672314526E-012
 -6.599999999999999E-003   -5.185461901949976E-012
 -6.499999999999999E-003   -6.175919985946372E-012
 -6.399999999999999E-003   -6.979124771728393E-012
 -6.299999999999999E-003   -7.531067304810009E-012
 -6.199999999999999E-003   -7.772852785065104E-012
 -6.100000000000000E-003   -7.654416020348351E-012
 -5.999999999999999E-003   -7.138208328659023E-012
 -5.899999999999999E-003   -6.202654225155912E-012
 -5.800000000000000E-003   -4.845159277165105E-012
 -5.699999999999999E-003   -3.084458411680781E-012
 -5.599999999999999E-003   -9.620944723075067E-013
 -5.499999999999999E-003    1.457131641984119E-012
 -5.399999999999999E-003    4.085892106865343E-012
 -5.299999999999999E-003    6.816312046235691E-012
 -5.199999999999999E-003    9.523249681873221E-012
 -5.099999999999999E-003    1.206880518483874E-011
 -4.999999999999999E-003    1.430797642653780E-011
 -4.899999999999999E-003    1.609526932977685E-011
 -4.799999999999999E-003    1.729201297218830E-011
 -4.699999999999999E-003    1.777408788070752E-011
 -4.599999999999999E-003    1.743969086482960E-011
 -4.499999999999999E-003    1.621676995639486E-011
 -4.399999999999999E-003    1.406970415514619E-011
 -4.299999999999999E-003    1.100483332085699E-011
 -4.199999999999999E-003    7.074438454528878E-012
 -4.099999999999999E-003    2.378845940787486E-012
 -3.999999999999999E-003   -2.933647338394889E-012
 -3.899999999999999E-003   -8.669215625265004E-012
 -3.799999999999999E-003   -1.459344106326160E-011
 -3.699999999999999E-003   -2.043870614517206E-011
 -3.599999999999999E-003   -2.591394993946259E-011
 -3.499999999999999E-003   -3.071652576193472E-011
 -3.399999999999999E-003   -3.454579326229157E-011
 -3.299999999999999E-003   -3.711794163164158E-011
 -3.199999999999999E-003   -3.818146170782312E-011
 -3.099999999999999E-003   -3.753255529940540E-011
 -2.999999999999999E-003   -3.502975309234387E-011
 -2.899999999999999E-003   -3.060693335020064E-011
 -2.799999999999999E-003   -2.428396097298335E-011
 -2.699999999999999E-003   -1.617419280609034E-011
 -2.599999999999999E-003   -6.488167440048567E-012
 -2.499999999999999E-003    4.467092915315691E-012
 -2.399999999999999E-003    1.629350789973072E-011
 -2.299999999999999E-003    2.851240116013171E-011
 -2.199999999999999E-003    4.057986636718055E-011
 -2.099999999999999E-003    5.190684185613781E-011
 -1.999999999999999E-003    6.188333518851171E-011
 -1.899999999999999E-003    6.990600461022635E-011
 -1.799999999999999E-003    7.540805307721719E-011
 -1.699999999999999E-003    7.789016298865978E-011
 -1.599999999999999E-003    7.695105766552237E-011
 -1.499999999999999E-003    7.231608670248976E-011
 -1.399999999999999E-003    6.386224345373158E-011
 -1.299999999999999E-003    5.163803712725279E-011
 -1.199999999999999E-003    3.587668122022196E-011
 -1.099999999999999E-003    1.700142587666106E-011
 -9.999999999999989E-004   -4.378020530853544E-012
 -8.999999999999990E-004   -2.747860286320435E-011
 -7.999999999999990E-004   -5.136664399358624E-011
 -6.999999999999989E-004   -7.499001580050045E-011
 -5.999999999999990E-004   -9.721882593906000E-011
 -4.999999999999989E-004   -1.168933369853195E-010
 -3.999999999999989E-004   -1.328773614779403E-010
 -2.999999999999989E-004   -1.441147635954195E-010
 -1.999999999999989E-004   -1.496866243753817E-010
 -9.999999999999892E-005   -1.488661969914934E-010
  1.084202172485504E-018   -1.411687169233966E-010
  1.000000000000011E-004   -1.263932567828923E-010
  2.000000000000011E-004   -1.046539209677453E-010
  3.000000000000011E-004   -7.639808849954225E-011
  4.000000000000011E-004   -4.240984173528471E-011
  5.000000000000011E-004   -3.797442999983046E-012
  6.000000000000011E-004    3.803553447611364E-011
  7.000000000000011E-004    8.143531967101085E-011
  8.000000000000011E-004    1.245578293393903E-010
  9.000000000000012E-004    1.654416077102177E-010
  1.000000000000001E-003    2.020908912991915E-010
  1.100000000000001E-003    2.325655849786018E-010
  1.200000000000001E-003    2.550740136002789E-010
  1.300000000000001E-003    2.680643688977930E-010
  1.400000000000001E-003    2.703103464748824E-010
  1.500000000000001E-003    2.609865747884854E-010
  1.600000000000001E-003    2.397297063035341E-010
  1.700000000000001E-003    2.066816869451727E-010
  1.800000000000001E-003    1.625120797176615E-010
  1.900000000000001E-003    1.084175899906591E-010
  2.000000000000001E-003    4.609740702101210E-011
  2.100000000000001E-003   -2.229551303080168E-011
  2.200000000000001E-003   -9.422579079437917E-011
  2.300000000000001E-003   -1.668680293215174E-010
  2.400000000000001E-003   -2.372163614111983E-010
  2.500000000000001E-003   -3.022072623205752E-010
  2.600000000000001E-003   -3.588502560932059E-010
  2.700000000000001E-003   -4.043611787138163E-010
  2.800000000000001E-003   -4.362918073092965E-010
  2.900000000000001E-003   -4.526496872654499E-010
  3.000000000000001E-003   -4.520025030119621E-010
  3.100000000000001E-003   -4.335611938098606E-010
  3.200000000000001E-003   -3.972376650103783E-010
  3.300000000000001E-003   -3.436727357897084E-010
  3.400000000000001E-003   -2.742325926785399E-010
  3.500000000000001E-003   -1.909724927324245E-010
  3.600000000000001E-003   -9.656828339825149E-011
  3.700000000000001E-003    5.782087240006091E-012
  3.800000000000001E-003    1.124830035226838E-010
  3.900000000000001E-003    2.196866490225471E-010
  4.000000000000001E-003    3.234528446652146E-010
  4.100000000000001E-003    4.199153103513100E-010
  4.200000000000001E-003    5.054469880701328E-010
  4.300000000000001E-003    5.768149048639656E-010
  4.400000000000001E-003    6.313172799009580E-010
  4.500000000000001E-003    6.668945036513691E-010
  4.600000000000002E-003    6.822083049649370E-010
  4.700000000000001E-003    6.766833927488290E-010
  4.800000000000001E-003    6.505097436752932E-010
  4.900000000000002E-003    6.046040629000992E-010
  5.000000000000001E-003    5.405325531568117E-010
  5.100000000000001E-003    4.603992257798945E-010
  5.200000000000001E-003    3.667065831887112E-010
  5.300000000000002E-003    2.621967930050884E-010
  5.400000000000001E-003    1.496842329789080E-010
  5.500000000000001E-003    3.189032581017482E-011
  5.600000000000002E-003   -8.870732310874825E-011
  5.700000000000001E-003   -2.099999574650805E-010
  5.800000000000001E-003   -3.303360415062814E-010
  5.900000000000002E-003   -4.485652031307488E-010
  6.000000000000001E-003   -5.640304950740935E-010
  6.100000000000001E-003   -6.765070720371840E-010
  6.200000000000002E-003   -7.860863402696625E-010
  6.300000000000002E-003   -8.930110026726013E-010
  6.400000000000001E-003   -9.974682652089405E-010
  6.500000000000001E-003   -1.099353344710365E-009
  6.600000000000002E-003   -1.198017234297174E-009
  6.700000000000001E-003   -1.292016792476081E-009
  6.800000000000001E-003   -1.378886483363349E-009
  6.900000000000002E-003   -1.454951152548571E-009
  7.000000000000001E-003   -1.515199289168704E-009
  7.100000000000001E-003   -1.553236102581033E-009
  7.200000000000002E-003   -1.561331240530931E-009
  7.300000000000002E-003   -1.530573360769098E-009
  7.400000000000001E-003   -1.451139549677357E-009
  7.500000000000001E-003   -1.312681935709951E-009
  7.600000000000002E-003   -1.104825949287181E-009
  7.700000000000001E-003   -8.177731897203661E-010
  7.800000000000001E-003   -4.429893943161984E-010
  7.900000000000001E-003    2.604337990397209E-011
  8.000000000000002E-003    5.930401833465183E-010
  8.100000000000001E-003    1.258125805873779E-009
  8.200000000000001E-003    2.017084159635302E-009
  8.300000000000002E-003    2.860685534147269E-009
  8.400000000000001E-003    3.774133793708804E-009
  8.500000000000002E-003    4.736676791386005E-009
  8.600000000000002E-003    5.721419881408373E-009
  8.700000000000001E-003    6.695378863681525E-009
  8.800000000000002E-003    7.619805366309945E-009
  8.900000000000002E-003    8.450808930077691E-009
  9.000000000000001E-003    9.140291605102210E-009
  9.100000000000002E-003    9.637200528655775E-009
  9.200000000000002E-003    9.889098600922437E-009
  9.300000000000001E-003    9.844028097891615E-009
  9.400000000000002E-003    9.452643379379243E-009
  9.500000000000001E-003    8.670575479889824E-009
  9.600000000000001E-003    7.460968185132196E-009
  9.700000000000002E-003    5.797122871628031E-009
  9.800000000000001E-003    3.665189280589151E-009
  9.900000000000001E-003    1.066811801477208E-009
  1.000000000000000E-002   -1.978349771227090E-009
  1.010000000000000E-002   -5.430302443956108E-009
  1.020000000000000E-002   -9.226707048373438E-009
  1.030000000000000E-002   -1.328122220507487E-008
  1.040000000000000E-002   -1.748231312568757E-008
  1.050000000000000E-002   -2.169255576898941E-008
  1.060000000000000E-002   -2.574848853343026E-008
  1.070000000000000E-002   -2.946106944996576E-008
  1.080000000000000E-002   -3.261673158960112E-008
  1.090000000000000E-002   -3.497901400289358E-008
  1.100000000000000E-002   -3.629077988166698E-008
  1.110000000000000E-002   -3.627695652340950E-008
  1.120000000000000E-002   -3.464776489384258E-008
  1.130000000000000E-002   -3.110227922527669E-008
  1.140000000000000E-002   -2.533235318714228E-008
  1.150000000000000E-002   -1.702669384564266E-008
  1.160000000000000E-002   -5.875014965455427E-009
  1.170000000000000E-002    8.427843985190401E-009
  1.180000000000000E-002    2.617791502760961E-008
  1.190000000000000E-002    4.765846575904855E-008
  1.200000000000000E-002    7.313664068688953E-008
  1.210000000000000E-002    1.028606410155758E-007
  1.220000000000000E-002    1.370575438315227E-007
  1.230000000000000E-002    1.759316131054982E-007
  1.240000000000000E-002    2.196634688751151E-007
  1.250000000000000E-002    2.684099458052359E-007
  1.260000000000000E-002    3.223046205258264E-007
  1.270000000000000E-002    3.814593715019057E-007
  1.280000000000000E-002    4.459664410701502E-007
  1.290000000000000E-002    5.159013640069125E-007
  1.300000000000000E-002    5.913264812020347E-007
  1.310000000000000E-002    6.722950386322453E-007
  1.320000000000000E-002    7.588560402476477E-007
  1.330000000000000E-002    8.510590354168438E-007
  1.340000000000000E-002    9.489598790743485E-007
  1.350000000000000E-002    1.052625948111074E-006
  1.360000000000000E-002    1.162142061516498E-006
  1.370000000000000E-002    1.277615891809877E-006
  1.380000000000000E-002    1.399183586427484E-006
  1.390000000000000E-002    1.527014837040087E-006
  1.400000000000000E-002    1.661318003381085E-006
  1.410000000000000E-002    1.802344216008141E-006
  1.420000000000000E-002    1.950391242427914E-006
  1.430000000000000E-002    2.105807021999887E-006
  1.440000000000000E-002    2.268992349733155E-006
  1.450000000000000E-002    2.440402698458507E-006
  1.460000000000000E-002    2.620550184600715E-006
  1.470000000000000E-002    2.810004419244750E-006
  1.480000000000000E-002    3.009392949248780E-006
  1.490000000000000E-002    3.219401249866317E-006
  1.500000000000000E-002    3.440772544329152E-006
  1.510000000000000E-002    3.674306933947941E-006
  1.520000000000000E-002    3.920861668230692E-006
  1.530000000000000E-002    4.181349393511717E-006
  1.540000000000000E-002    4.456737076780877E-006
  1.550000000000000E-002    4.748046944327146E-006
  1.560000000000000E-002    5.056354112249346E-006
  1.570000000000000E-002    5.382788156314006E-006
  1.580000000000000E-002    5.728531608254042E-006
  1.590000000000000E-002    6.094822227307801E-006
  1.600000000000000E-002    6.482951434855792E-006
  1.610000000000000E-002    6.894267364859822E-006
  1.620000000000000E-002    7.330175593223466E-006
  1.630000000000000E-002    7.792140550989276E-006
  1.640000000000000E-002    8.281687729116181E-006
  1.650000000000000E-002    8.800406065048391E-006
  1.660000000000000E-002    9.349950161076766E-006
  1.670000000000000E-002    9.932043615062702E-006
  1.680000000000000E-002    1.054847901991171E-005
  1.690000000000000E-002    1.120112492209146E-005
  1.700000000000000E-002    1.189192426769857E-005
  1.710000000000000E-002    1.262290100459267E-005
  1.720000000000000E-002    1.339615983027843E-005
  1.730000000000000E-002    1.421389123609407E-005
  1.740000000000000E-002    1.507837492262255E-005
  1.750000000000000E-002    1.599198309074951E-005
  1.760000000000000E-002    1.695718415258604E-005
  1.770000000000000E-002    1.797654768802793E-005
  1.780000000000000E-002    1.905274574893028E-005
  1.790000000000000E-002    2.018856239100839E-005
  1.800000000000000E-002    2.138689815016744E-005
  1.810000000000000E-002    2.265077645684521E-005
  1.820000000000000E-002    2.398334601784876E-005
  1.830000000000000E-002    2.538789491492191E-005
  1.840000000000000E-002    2.686785758116149E-005
  1.850000000000000E-002    2.842681955394481E-005
  1.860000000000000E-002    3.006853452940894E-005
  1.870000000000000E-002    3.179692631995797E-005