 -4.000000000000000E-002    0.000000000000000E+000
 -3.990000000000000E-002    0.000000000000000E+000
 -3.980000000000000E-002    0.000000000000000E+000
 -3.970000000000000E-002    0.000000000000000E+000
 -3.960000000000000E-002    0.000000000000000E+000
 -3.950000000000000E-002    0.000000000000000E+000
 -3.940000000000000E-002    0.000000000000000E+000
 -3.930000000000000E-002    0.000000000000000E+000
 -3.920000000000000E-002    0.000000000000000E+000
 -3.910000000000000E-002    0.000000000000000E+000
 -3.900000000000000E-002    0.000000000000000E+000
 -3.890000000000000E-002    0.000000000000000E+000
 -3.880000000000000E-002    0.000000000000000E+000
 -3.870000000000000E-002    0.000000000000000E+000
 -3.860000000000000E-002    0.000000000000000E+000
 -3.850000000000000E-002    0.000000000000000E+000
 -3.840000000000000E-002    0.000000000000000E+000
 -3.830000000000000E-002    0.000000000000000E+000
 -3.820000000000000E-002    0.000000000000000E+000
 -3.810000000000000E-002    0.000000000000000E+000
 -3.800000000000000E-002    0.000000000000000E+000
 -3.790000000000000E-002    0.000000000000000E+000
 -3.780000000000000E-002    0.000000000000000E+000
 -3.770000000000000E-002    0.000000000000000E+000
 -3.760000000000000E-002    0.000000000000000E+000
 -3.750000000000000E-002    0.000000000000000E+000
 -3.740000000000000E-002    0.000000000000000E+000
 -3.730000000000000E-002    0.000000000000000E+000
 -3.720000000000000E-002    0.000000000000000E+000
 -3.710000000000000E-002    0.000000000000000E+000
 -3.700000000000000E-002    0.000000000000000E+000
 -3.690000000000000E-002    0.000000000000000E+000
 -3.680000000000000E-002    0.000000000000000E+000
 -3.670000000000000E-002    0.000000000000000E+000
 -3.660000000000000E-002    0.000000000000000E+000
 -3.650000000000000E-002    0.000000000000000E+000
 -3.640000000000000E-002    0.000000000000000E+000
 -3.630000000000000E-002    0.000000000000000E+000
 -3.620000000000000E-002    0.000000000000000E+000
 -3.610000000000000E-002    0.000000000000000E+000
 -3.600000000000000E-002    0.000000000000000E+000
 -3.590000000000000E-002    0.000000000000000E+000
 -3.580000000000000E-002    0.000000000000000E+000
 -3.570000000000000E-002    0.000000000000000E+000
 -3.560000000000000E-002    0.000000000000000E+000
 -3.550000000000000E-002    0.000000000000000E+000
 -3.540000000000000E-002    0.000000000000000E+000
 -3.530000000000000E-002    0.000000000000000E+000
 -3.520000000000000E-002    0.000000000000000E+000
 -3.510000000000000E-002    0.000000000000000E+000
 -3.500000000000000E-002    0.000000000000000E+000
 -3.490000000000000E-002    0.000000000000000E+000
 -3.480000000000000E-002    0.000000000000000E+000
 -3.470000000000000E-002    0.000000000000000E+000
 -3.460000000000000E-002    0.000000000000000E+000
 -3.450000000000000E-002    0.000000000000000E+000
 -3.440000000000000E-002    0.000000000000000E+000
 -3.430000000000000E-002    0.000000000000000E+000
 -3.420000000000000E-002    0.000000000000000E+000
 -3.410000000000000E-002    0.000000000000000E+000
 -3.400000000000000E-002    0.000000000000000E+000
 -3.390000000000000E-002    0.000000000000000E+000
 -3.380000000000000E-002    2.138211768073757E-048
 -3.370000000000000E-002    5.266674704606087E-047
 -3.360000000000000E-002    1.096099176282692E-046
 -3.350000000000000E-002    1.430327587616663E-046
 -3.340000000000000E-002    1.173742175447812E-046
 -3.330000000000000E-002    3.256755642616755E-047
 -3.320000000000000E-002   -2.381695739184805E-046
 -3.310000000000000E-002   -8.164210770186451E-046
 -3.300000000000000E-002   -2.107992324315007E-045
 -3.290000000000000E-002   -4.186838231032764E-045
 -3.280000000000000E-002   -7.073324943092378E-045
 -3.270000000000000E-002   -1.057407699264431E-044
 -3.260000000000000E-002   -1.371061124220894E-044
 -3.250000000000000E-002   -1.555521812691454E-044
 -3.240000000000000E-002   -1.074924033600048E-044
 -3.230000000000000E-002    7.129153516754578E-045
 -3.220000000000000E-002    4.843740835573595E-044
 -3.210000000000000E-002    1.269848802269980E-043
 -3.200000000000000E-002    2.578351372995017E-043
 -3.190000000000000E-002    4.500398221631757E-043
 -3.180000000000000E-002    6.966756584393977E-043
 -3.170000000000000E-002    9.547505180172327E-043
 -3.160000000000000E-002    1.120407127323129E-042
 -3.150000000000000E-002    9.993146731683585E-043
 -3.140000000000000E-002    2.751357228256835E-043
 -3.130000000000000E-002   -1.501681228794129E-042
 -3.120000000000000E-002   -4.888165602225275E-042
 -3.110000000000000E-002   -1.044627338871897E-041
 -3.100000000000000E-002   -1.852626964908023E-041
 -3.090000000000000E-002   -2.889170296197600E-041
 -3.080000000000000E-002   -4.015535696828707E-041
 -3.070000000000000E-002   -4.904115883288449E-041
 -3.060000000000000E-002   -4.954880389322512E-041
 -3.050000000000000E-002   -3.221847659392780E-041
 -3.040000000000000E-002    1.614866854419486E-041
 -3.030000000000000E-002    1.117827847663701E-040
 -3.020000000000000E-002    2.715010003937328E-040
 -3.010000000000000E-002    5.076958396716762E-040
 -3.000000000000000E-002    8.198661492426459E-040
 -2.990000000000000E-002    1.182134253387772E-039
 -2.980000000000000E-002    1.526837248489885E-039
 -2.970000000000000E-002    1.725569764283013E-039
 -2.960000000000000E-002    1.571016987120257E-039
 -2.950000000000000E-002    7.657151786078557E-040
 -2.940000000000000E-002   -1.072668878569611E-039
 -2.930000000000000E-002   -4.376060647808040E-039
 -2.920000000000000E-002   -9.543791649888770E-039
 -2.910000000000000E-002   -1.679483145695441E-038
 -2.900000000000000E-002   -2.593782765926268E-038
 -2.890000000000000E-002   -3.605102890761874E-038
 -2.880000000000000E-002   -4.508310224451512E-038
 -2.870000000000000E-002   -4.941884728842566E-038
 -2.860000000000000E-002   -4.350394849408638E-038
 -2.850000000000000E-002   -1.969092395766729E-038
 -2.840000000000000E-002    3.145017428698583E-038
 -2.830000000000000E-002    1.200304506946772E-037
 -2.820000000000000E-002    2.545663613925932E-037
 -2.810000000000000E-002    4.381509984149026E-037
 -2.800000000000000E-002    6.628195237143698E-037
 -2.790000000000000E-002    9.021680388827344E-037
 -2.780000000000000E-002    1.102852379806008E-036
 -2.770000000000000E-002    1.176462340269207E-036
 -2.760000000000000E-002    9.944292824968927E-037
 -2.750000000000000E-002    3.899756692583823E-037
 -2.740000000000000E-002   -8.275984130786133E-037
 -2.730000000000000E-002   -2.840212395655665E-036
 -2.720000000000000E-002   -5.764163941261136E-036
 -2.710000000000000E-002   -9.565724468115114E-036
 -2.700000000000000E-002   -1.395083764086657E-035
 -2.690000000000000E-002   -1.823913815326401E-035
 -2.680000000000000E-002   -2.124468989979587E-035
 -2.670000000000000E-002   -2.120089113245782E-035
 -2.660000000000000E-002   -1.578277987563976E-035
 -2.650000000000000E-002   -2.292587195178204E-036
 -2.640000000000000E-002    2.192189202707569E-035
 -2.630000000000000E-002    5.875901766738370E-035
 -2.620000000000000E-002    1.083444177813374E-034
 -2.610000000000000E-002    1.677476751093971E-034
 -2.600000000000000E-002    2.295805004805681E-034
 -2.590000000000000E-002    2.807503785705164E-034
 -2.580000000000000E-002    3.017845210415135E-034
 -2.570000000000000E-002    2.672649051151632E-034
 -2.560000000000000E-002    1.479832258057301E-034
 -2.550000000000000E-002   -8.461672612976090E-035
 -2.540000000000000E-002   -4.513500258048751E-034
 -2.530000000000000E-002   -9.556174632961717E-034
 -2.520000000000000E-002   -1.571867997931789E-033
 -2.510000000000000E-002   -2.233783132755680E-033
 -2.500000000000000E-002   -2.824753752978920E-033
 -2.490000000000000E-002   -3.174151205392418E-033
 -2.480000000000000E-002   -3.063518673187353E-033
 -2.470000000000000E-002   -2.246813730809935E-033
 -2.460000000000000E-002   -4.878876515128100E-034
 -2.450000000000000E-002    2.383782960960901E-033
 -2.440000000000000E-002    6.401619126229533E-033
 -2.430000000000000E-002    1.138197412682739E-032
 -2.420000000000000E-002    1.684842726080212E-032
 -2.410000000000000E-002    2.197846581080362E-032
 -2.400000000000000E-002    2.559464992767486E-032
 -2.390000000000000E-002    2.622343986801883E-032
 -2.380000000000000E-002    2.224141965312395E-032
 -2.370000000000000E-002    1.211950178211037E-032
 -2.360000000000000E-002   -5.239740897422266E-033
 -2.350000000000000E-002   -3.009750455171135E-032
 -2.340000000000000E-002   -6.145733046342239E-032
 -2.330000000000000E-002   -9.670141290416745E-032
 -2.320000000000000E-002   -1.313777027681561E-031
 -2.310000000000000E-002   -1.592378376119845E-031
 -2.300000000000000E-002   -1.726153491791288E-031
 -2.290000000000000E-002   -1.632012236311119E-031
 -2.280000000000000E-002   -1.232189607641655E-031
 -2.270000000000000E-002   -4.692700937528933E-032
 -2.260000000000000E-002    6.770796174116795E-032
 -2.250000000000000E-002    2.174039535311368E-031
 -2.240000000000000E-002    3.923185473114312E-031
 -2.230000000000000E-002    5.754799979513525E-031
 -2.220000000000000E-002    7.431714418785135E-031
 -2.210000000000000E-002    8.664436578399403E-031
 -2.200000000000000E-002    9.137743727893646E-031
 -2.190000000000000E-002    8.546930673650995E-031
 -2.180000000000000E-002    6.639907532264121E-031
 -2.170000000000000E-002    3.259745622991460E-031
 -2.160000000000000E-002   -1.618424939161420E-031
 -2.150000000000000E-002   -7.861691558486634E-031
 -2.140000000000000E-002   -1.516833188442781E-030
 -2.130000000000000E-002   -2.307184357292027E-030
 -2.120000000000000E-002   -3.095659998572874E-030
 -2.110000000000000E-002   -3.807847383490350E-030
 -2.100000000000000E-002   -4.358222174813796E-030
 -2.090000000000000E-002   -4.650894536160756E-030
 -2.080000000000000E-002   -4.579231085737774E-030
 -2.070000000000000E-002   -4.025132254076354E-030
 -2.060000000000000E-002   -2.859928380695816E-030
 -2.050000000000000E-002   -9.500101600146833E-031
 -2.040000000000000E-002    1.828908073005742E-030
 -2.030000000000000E-002    5.565115004835058E-030
 -2.020000000000000E-002    1.026942427266238E-029
 -2.010000000000000E-002    1.581947426325508E-029
 -2.000000000000000E-002    2.189493574448510E-029
 -1.990000000000000E-002    2.791434172070138E-029
 -1.980000000000000E-002    3.298999264976157E-029
 -1.970000000000000E-002    3.592181783015530E-029
 -1.960000000000000E-002    3.525247532004862E-029
 -1.950000000000000E-002    2.940267919507279E-029
 -1.940000000000000E-002    1.689651903237901E-029
 -1.930000000000000E-002   -3.328892636104372E-030
 -1.920000000000000E-002   -3.155557020516038E-029
 -1.910000000000000E-002   -6.690763337933609E-029
 -1.900000000000000E-002   -1.070349451386636E-028
 -1.890000000000000E-002   -1.479405330600922E-028
 -1.880000000000000E-002   -1.840352995421910E-028
 -1.870000000000000E-002   -2.084860423688962E-028
 -1.860000000000000E-002   -2.138855705951185E-028
 -1.850000000000000E-002   -1.932190614358354E-028
 -1.840000000000000E-002   -1.410350546251265E-028
 -1.830000000000000E-002   -5.466431241609068E-029
 -1.820000000000000E-002    6.471922075521716E-029
 -1.810000000000000E-002    2.114187930974660E-028
 -1.800000000000000E-002    3.751112285395622E-028
 -1.790000000000000E-002    5.414347957738334E-028
 -1.780000000000000E-002    6.932559107018871E-028
 -1.770000000000000E-002    8.124460085356560E-028
 -1.760000000000000E-002    8.818466103661970E-028
 -1.750000000000000E-002    8.869903051187326E-028
 -1.740000000000000E-002    8.171279472283108E-028
 -1.730000000000000E-002    6.652163595369139E-028
 -1.720000000000000E-002    4.267712556524526E-028
 -1.710000000000000E-002    9.786157056520573E-029
 -1.700000000000000E-002   -3.270379821833556E-028
 -1.690000000000000E-002   -8.562134697411233E-028
 -1.680000000000000E-002   -1.499531392133938E-027
 -1.670000000000000E-002   -2.263610277443062E-027
 -1.660000000000000E-002   -3.142524127599308E-027
 -1.650000000000000E-002   -4.104185696261801E-027
 -1.640000000000000E-002   -5.073954270839826E-027
 -1.630000000000000E-002   -5.918671585307826E-027
 -1.620000000000000E-002   -6.435925375797995E-027
 -1.610000000000000E-002   -6.354478097453376E-027
 -1.600000000000000E-002   -5.351946502551873E-027
 -1.590000000000000E-002   -3.094580180568477E-027
 -1.580000000000000E-002    6.989572756880540E-028
 -1.570000000000000E-002    6.172552564565823E-027
 -1.560000000000000E-002    1.323506345884470E-026
 -1.550000000000000E-002    2.146540691434522E-026
 -1.540000000000000E-002    3.004124789585386E-026
 -1.530000000000000E-002    3.771575051864934E-026
 -1.520000000000000E-002    4.286653071763297E-026
 -1.510000000000000E-002    4.363548190871076E-026
 -1.500000000000000E-002    3.816696662270350E-026
 -1.490000000000000E-002    2.493519629176801E-026
 -1.480000000000000E-002    3.131097583676770E-027
 -1.470000000000000E-002   -2.694256257829127E-026
 -1.460000000000000E-002   -6.353742707735905E-026
 -1.450000000000000E-002   -1.032677473883764E-025
 -1.440000000000000E-002   -1.411399753072345E-025
 -1.430000000000000E-002   -1.708664746065771E-025
 -1.420000000000000E-002   -1.854929228145291E-025
 -1.410000000000000E-002   -1.783207716458420E-025
 -1.400000000000000E-002   -1.440479880530131E-025
 -1.390000000000000E-002   -7.999183069845631E-026
 -1.380000000000000E-002    1.279245328926689E-026
 -1.370000000000000E-002    1.287121500147456E-025
 -1.360000000000000E-002    2.573685597053878E-025
 -1.350000000000000E-002    3.839885316791304E-025
 -1.340000000000000E-002    4.906430667866596E-025
 -1.330000000000000E-002    5.582228436064463E-025
 -1.320000000000000E-002    5.690048414381899E-025
 -1.310000000000000E-002    5.095098824866901E-025
 -1.300000000000000E-002    3.732439377279434E-025
 -1.290000000000000E-002    1.628623790102273E-025
 -1.280000000000000E-002   -1.086830225324134E-025
 -1.270000000000000E-002   -4.183522090675237E-025
 -1.260000000000000E-002   -7.347340615531359E-025
 -1.250000000000000E-002   -1.021187366940404E-024
 -1.240000000000000E-002   -1.240061168992544E-024
 -1.230000000000000E-002   -1.357418797759560E-024
 -1.220000000000000E-002   -1.347540422780017E-024
 -1.210000000000000E-002   -1.196455542905563E-024
 -1.200000000000000E-002   -9.038842208588046E-025
 -1.190000000000000E-002   -4.832404136385880E-025
 -1.180000000000000E-002    4.025861628430688E-026
 -1.170000000000000E-002    6.329071294001435E-025
 -1.160000000000000E-002    1.256399026316786E-024
 -1.150000000000000E-002    1.871224195617625E-024
 -1.140000000000000E-002    2.438531721460749E-024
 -1.130000000000000E-002    2.919745415594236E-024
 -1.120000000000000E-002    3.273838931384383E-024
 -1.110000000000000E-002    3.452999117181552E-024
 -1.100000000000000E-002    3.398291234492291E-024
 -1.090000000000000E-002    3.037654532082285E-024
 -1.080000000000000E-002    2.288876381410365E-024
 -1.070000000000000E-002    1.069895466243712E-024
 -1.060000000000000E-002   -6.822511595899938E-025
 -1.050000000000000E-002   -2.984328646603968E-024
 -1.040000000000000E-002   -5.774470901837276E-024
 -1.030000000000000E-002   -8.879835672909149E-024
 -1.020000000000000E-002   -1.199200429132114E-023
 -1.010000000000000E-002   -1.465915922439517E-023
 -1.000000000000000E-002   -1.630390405809885E-023
 -9.899999999999999E-003   -1.627350964862454E-023
 -9.800000000000000E-003   -1.392513856869824E-023
 -9.699999999999999E-003   -8.742501046123834E-024
 -9.599999999999999E-003   -4.730356928960087E-025
 -9.500000000000000E-003    1.073280941339726E-023
 -9.399999999999999E-003    2.420477534010254E-023
 -9.299999999999999E-003    3.868651288034147E-023
 -9.200000000000000E-003    5.234702704358763E-023
 -9.099999999999999E-003    6.289106434519704E-023
 -8.999999999999999E-003    6.777836696626417E-023
 -8.900000000000000E-003    6.454561547051547E-023
 -8.799999999999999E-003    5.120615559952350E-023
 -8.699999999999999E-003    2.668338909615154E-023
 -8.600000000000000E-003   -8.782340236510184E-024
 -8.499999999999999E-003   -5.332307436221504E-023
 -8.399999999999999E-003   -1.032987365694852E-022
 -8.300000000000000E-003   -1.533776221490551E-022
 -8.199999999999999E-003   -1.968778317420538E-022
 -8.100000000000000E-003   -2.263732032613133E-022
 -8.000000000000000E-003   -2.345281737741420E-022
 -7.899999999999999E-003   -2.150863318451915E-022
 -7.800000000000000E-003   -1.639029744766005E-022
 -7.699999999999999E-003   -7.988895317916054E-023
 -7.599999999999999E-003    3.427286164255455E-023
 -7.499999999999999E-003    1.717634132453405E-022
 -7.399999999999999E-003    3.217073871447873E-022
 -7.299999999999999E-003    4.697393295410263E-022
 -7.199999999999999E-003    5.990391492803000E-022
 -7.100000000000000E-003    6.917595719088928E-022
 -6.999999999999999E-003    7.307178006480938E-022
 -6.899999999999999E-003    7.011887978078862E-022
 -6.800000000000000E-003    5.926277574497467E-022
 -6.699999999999999E-003    4.001632101804415E-022
 -6.599999999999999E-003    1.257384506543639E-022
 -6.499999999999999E-003   -2.211737095456385E-022
 -6.399999999999999E-003   -6.233045700836306E-022
 -6.299999999999999E-003   -1.055758925262411E-021
 -6.199999999999999E-003   -1.486585687798444E-021
 -6.100000000000000E-003   -1.877734045695801E-021
 -5.999999999999999E-003   -2.186413764256884E-021
 -5.899999999999999E-003   -2.366940077073596E-021
 -5.800000000000000E-003   -2.373198154969534E-021
 -5.699999999999999E-003   -2.161894707566972E-021
 -5.599999999999999E-003   -1.696743505130703E-021
 -5.499999999999999E-003   -9.536407772159824E-022
 -5.399999999999999E-003    7.328829692853687E-023
 -5.299999999999999E-003    1.365143120300713E-021
 -5.199999999999999E-003    2.871879130666040E-021
 -5.099999999999999E-003    4.507099891000852E-021
 -4.999999999999999E-003    6.145249198477566E-021
 -4.899999999999999E-003    7.622571822435759E-021
 -4.799999999999999E-003    8.743136883093753E-021
 -4.699999999999999E-003    9.290916278123174E-021
 -4.599999999999999E-003    9.048323855584493E-021
 -4.499999999999999E-003    7.820798587761191E-021
 -4.399999999999999E-003    5.466019011397221E-021
 -4.299999999999999E-003    1.925263843406775E-021
 -4.199999999999999E-003   -2.746545903886019E-021
 -4.099999999999999E-003   -8.356328478392089E-021
 -3.999999999999999E-003   -1.455836034845966E-020
 -3.899999999999999E-003   -2.085411241012064E-020
 -3.799999999999999E-003   -2.660983414978218E-020
 -3.699999999999999E-003   -3.109385327593901E-020
 -3.599999999999999E-003   -3.353351904456414E-020
 -3.499999999999999E-003   -3.318933219372711E-020
 -3.399999999999999E-003   -2.944141381489947E-020
 -3.299999999999999E-003   -2.188104625275873E-020
 -3.199999999999999E-003   -1.039831087076521E-020
 -3.099999999999999E-003    4.744246099753176E-021
 -2.999999999999999E-003    2.286206107736888E-020
 -2.899999999999999E-003    4.283224975101844E-020
 -2.799999999999999E-003    6.311769930395990E-020
 -2.699999999999999E-003    8.183564039770578E-020
 -2.599999999999999E-003    9.687131214974116E-020
 -2.499999999999999E-003    1.060330628033954E-019
 -2.399999999999999E-003    1.072413719075586E-019
 -2.299999999999999E-003    9.874027400600656E-020
 -2.199999999999999E-003    7.931656099299913E-020
 -2.099999999999999E-003    4.850948896640203E-020
 -1.999999999999999E-003    6.792467872921804E-021
 -1.899999999999999E-003   -4.429263590461677E-020
 -1.799999999999999E-003   -1.020670144973548E-019
 -1.699999999999999E-003   -1.627289877333711E-019
 -1.599999999999999E-003   -2.214644054507665E-019
 -1.499999999999999E-003   -2.726625673372039E-019
 -1.399999999999999E-003   -3.102406973159562E-019
 -1.299999999999999E-003   -3.280731521913430E-019
 -1.199999999999999E-003   -3.205114897500394E-019
 -1.099999999999999E-003   -2.829721315848825E-019
 -9.999999999999989E-004   -2.125561591173314E-019
 -8.999999999999990E-004   -1.086554674570331E-019
 -7.999999999999990E-004    2.651161120312427E-020
 -6.999999999999989E-004    1.874984865052125E-019
 -5.999999999999990E-004    3.654295762455055E-019
 -4.999999999999989E-004    5.480648935725135E-019
 -3.999999999999989E-004    7.201845208465063E-019
 -2.999999999999989E-004    8.643288132529851E-019
 -1.999999999999989E-004    9.619043329691752E-019
 -9.999999999999892E-005    9.946315144948048E-019
  1.084202172485504E-018    9.462711841824384E-019
  1.000000000000011E-004    8.045255194157017E-019
  2.000000000000011E-004    5.629698085802078E-019
  3.000000000000011E-004    2.228375780734060E-019
  4.000000000000011E-004   -2.055394782112675E-019
  5.000000000000011E-004   -7.018428938137674E-019
  6.000000000000011E-004   -1.235623071677939E-018
  7.000000000000011E-004   -1.767056416786771E-018
  8.000000000000011E-004   -2.248709435103779E-018
  9.000000000000012E-004   -2.628335157759941E-018
  1.000000000000001E-003   -2.852639058051852E-018
  1.100000000000001E-003   -2.871849957572753E-018
  1.200000000000001E-003   -2.644826850181567E-018
  1.300000000000001E-003   -2.144339526921251E-018
  1.400000000000001E-003   -1.362077936067826E-018
  1.500000000000001E-003   -3.128976535593914E-019
  1.600000000000001E-003    9.622118905130174E-019
  1.700000000000001E-003    2.394930256932440E-018
  1.800000000000001E-003    3.890588886296988E-018
  1.900000000000001E-003    5.331639664842471E-018
  2.000000000000001E-003    6.583744244313885E-018
  2.100000000000001E-003    7.504411345494952E-018
  2.200000000000001E-003    7.953883232732402E-018
  2.300000000000001E-003    7.807719600677758E-018
  2.400000000000001E-003    6.970289818862794E-018
  2.500000000000001E-003    5.388161743208198E-018
  2.600000000000001E-003    3.062207907901596E-018
  2.700000000000001E-003    5.715979146011674E-020
  2.800000000000001E-003   -3.492677612515827E-018
  2.900000000000001E-003   -7.382704758424472E-018
  3.000000000000001E-003   -1.134324542211569E-017
  3.100000000000001E-003   -1.505128274322817E-017
  3.200000000000001E-003   -1.814882070091673E-017
  3.300000000000001E-003   -2.026743231497001E-017
  3.400000000000001E-003   -2.105791630228606E-017
  3.500000000000001E-003   -2.022337671409610E-017
  3.600000000000001E-003   -1.755344007816809E-017
  3.700000000000001E-003   -1.295684599907989E-017
  3.800000000000001E-003   -6.489340919334102E-018
  3.900000000000001E-003    1.626319533681191E-018
  4.000000000000001E-003    1.099125026284207E-017
  4.100000000000001E-003    2.103477889824160E-017
  4.200000000000001E-003    3.103405336194853E-017
  4.300000000000001E-003    4.014970008098669E-017
  4.400000000000001E-003    4.747712239169834E-017
  4.500000000000001E-003    5.211157959732890E-017
  4.600000000000002E-003    5.322375463540037E-017
  4.700000000000001E-003    5.014115647891955E-017
  4.800000000000001E-003    4.242948870532612E-017
  4.900000000000002E-003    2.996717867853238E-017
  5.000000000000001E-003    1.300578698437753E-017
  5.100000000000001E-003   -7.790871411747775E-018
  5.200000000000001E-003   -3.133553991194336E-017
  5.300000000000002E-003   -5.613959145477574E-017
  5.400000000000001E-003   -8.037172081422670E-017
  5.500000000000001E-003   -1.019543193010129E-016
  5.600000000000002E-003   -1.186954831754425E-016
  5.700000000000001E-003   -1.284514520219878E-016
  5.800000000000001E-003   -1.293109750714527E-016
  5.900000000000002E-003   -1.197897724763845E-016
  6.000000000000001E-003   -9.902068565245948E-017
  6.100000000000001E-003   -6.692303144817840E-017
  6.200000000000002E-003   -2.433369490813360E-017
  6.300000000000002E-003    2.691701382772172E-017
  6.400000000000001E-003    8.400001809222207E-017
  6.500000000000001E-003    1.431644389635800E-016
  6.600000000000002E-003    1.999032985903272E-016
  6.700000000000001E-003    2.492085575536395E-016
  6.800000000000001E-003    2.859078366865240E-016
  6.900000000000002E-003    3.050675557861705E-016
  7.000000000000001E-003    3.024385200270869E-016
  7.100000000000001E-003    2.749133276893193E-016
  7.200000000000002E-003    2.209583114961030E-016
  7.300000000000002E-003    1.409797659964594E-016
  7.400000000000001E-003    3.758332392713798E-017
  7.500000000000001E-003   -8.431151450272738E-017
  7.600000000000002E-003   -2.175333196791636E-016
  7.700000000000001E-003   -3.529176565026029E-016
  7.800000000000001E-003   -4.797707140535389E-016
  7.900000000000001E-003   -5.865278188784241E-016
  8.000000000000002E-003   -6.615803235633135E-016
  8.100000000000001E-003   -6.942254531055910E-016
  8.200000000000001E-003   -6.756768771075772E-016
  8.300000000000002E-003   -6.000607626055166E-016
  8.400000000000001E-003   -4.653126522225977E-016
  8.500000000000002E-003   -2.738868420800457E-016
  8.600000000000002E-003   -3.319350976621455E-017
  8.700000000000001E-003    2.443091598739915E-016
  8.800000000000002E-003    5.414230517768955E-016
  8.900000000000002E-003    8.369481815903800E-016
  9.000000000000001E-003    1.106848317590787E-015
  9.100000000000002E-003    1.325807457525485E-015
  9.200000000000002E-003    1.469104923550671E-015
  9.300000000000001E-003    1.514698807498634E-015
  9.400000000000002E-003    1.445378660780372E-015
  9.500000000000001E-003    1.250822422754236E-015
  9.600000000000001E-003    9.293783471268361E-016
  9.700000000000002E-003    4.893906885469952E-016
  9.800000000000001E-003   -5.009915842106982E-017
  9.900000000000001E-003   -6.594202884936173E-016
  1.000000000000000E-002   -1.299207171051088E-015
  1.010000000000000E-002   -1.922246067657002E-015
  1.020000000000000E-002   -2.476210416334076E-015
  1.030000000000000E-002   -2.907185818607489E-015
  1.040000000000000E-002   -3.163809331187167E-015
  1.050000000000000E-002   -3.201771329087997E-015
  1.060000000000000E-002   -2.988365959763040E-015
  1.070000000000000E-002   -2.506725196518552E-015
  1.080000000000000E-002   -1.759348996963280E-015
  1.090000000000000E-002   -7.705441094552009E-016
  1.100000000000000E-002    4.125763467379759E-016
  1.110000000000000E-002    1.720816104983941E-015
  1.120000000000000E-002    3.065518169309124E-015
  1.130000000000000E-002    4.343130058984911E-015
  1.140000000000000E-002    5.441608436753093E-015
  1.150000000000000E-002    6.248386345133346E-015
  1.160000000000000E-002    6.659456156088934E-015
  1.170000000000000E-002    6.588979007930021E-015
  1.180000000000000E-002    5.978699936501963E-015
  1.190000000000000E-002    4.806368482484239E-015
  1.200000000000000E-002    3.092340417817121E-015
  1.210000000000000E-002    9.035758241400244E-016
  1.220000000000000E-002   -1.645638729676978E-015
  1.230000000000000E-002   -4.396730078697668E-015
  1.240000000000000E-002   -7.153896377761201E-015
  1.250000000000000E-002   -9.695119492957061E-015
  1.260000000000000E-002   -1.178675819267679E-014
  1.270000000000000E-002   -1.320098378015506E-014
  1.280000000000000E-002   -1.373501557166370E-014
  1.290000000000000E-002   -1.323081634561032E-014
  1.300000000000000E-002   -1.159370886534355E-014
  1.310000000000000E-002   -8.808258783478921E-015
  1.320000000000000E-002   -4.949787917420298E-015
  1.330000000000000E-002   -1.900298220598118E-016
  1.340000000000000E-002    5.204293439755032E-015
  1.350000000000000E-002    1.088072817538613E-014
  1.360000000000000E-002    1.641847640604497E-014
  1.370000000000000E-002    2.135350289399788E-014
  1.380000000000000E-002    2.521034163824602E-014
  1.390000000000000E-002    2.753889357713373E-014
  1.400000000000000E-002    2.795388480621269E-014
  1.410000000000000E-002    2.617413163981186E-014
  1.420000000000000E-002    2.205847854801429E-014
  1.430000000000000E-002    1.563506188564127E-014
  1.440000000000000E-002    7.120715081614899E-015
  1.450000000000000E-002   -3.072253997672423E-015
  1.460000000000000E-002   -1.434410588398990E-014
  1.470000000000000E-002   -2.593169614425213E-014
  1.480000000000000E-002   -3.694866919244735E-014
  1.490000000000000E-002   -4.644050856664132E-014
  1.500000000000000E-002   -5.345207934371481E-014
  1.510000000000000E-002   -5.710367894805597E-014
  1.520000000000000E-002   -5.667073709662437E-014
  1.530000000000000E-002   -5.166117050721203E-014
  1.540000000000000E-002   -4.188401552897311E-014
  1.550000000000000E-002   -2.750273361383455E-014
  1.560000000000000E-002   -9.067083834776762E-015
  1.570000000000000E-002    1.248167144251245E-014
  1.580000000000000E-002    3.583586583216428E-014
  1.590000000000000E-002    5.937872761083484E-014
  1.600000000000000E-002    8.127327766844409E-014
  1.610000000000000E-002    9.957961665098345E-014
  1.620000000000000E-002    1.123949996624976E-013
  1.630000000000000E-002    1.180083197032158E-013
  1.640000000000000E-002    1.150587013674710E-013
  1.650000000000000E-002    1.026861798050811E-013
  1.660000000000000E-002    8.066164828140058E-014
  1.670000000000000E-002    4.948329507653843E-014
  1.680000000000000E-002    1.042801357291804E-014
  1.690000000000000E-002   -3.445185193831345E-014
  1.700000000000000E-002   -8.239293708406864E-014
  1.710000000000000E-002   -1.300484688948897E-013
  1.720000000000000E-002   -1.736771406035973E-013
  1.730000000000000E-002   -2.093857080081352E-013
  1.740000000000000E-002   -2.334128621741883E-013
  1.750000000000000E-002   -2.424372324881440E-013
  1.760000000000000E-002   -2.338885803000120E-013
  1.770000000000000E-002   -2.062380581922353E-013
  1.780000000000000E-002   -1.592427537890635E-013
  1.790000000000000E-002   -9.411995741272498E-014
  1.800000000000000E-002   -1.362933431486669E-014
  1.810000000000000E-002    7.795399784308085E-014
  1.820000000000000E-002    1.749867385290095E-013
  1.830000000000000E-002    2.707270869480419E-013
  1.840000000000000E-002    3.577208001332585E-013
  1.850000000000000E-002    4.282869607052629E-013
  1.860000000000000E-002    4.750779185713783E-013
  1.870000000000000E-002    4.916786339396099E-013