 -4.000000000000000E-002    0.000000000000000E+000
 -3.990000000000000E-002    0.000000000000000E+000
 -3.980000000000000E-002    0.000000000000000E+000
 -3.970000000000000E-002    0.000000000000000E+000
 -3.960000000000000E-002    0.000000000000000E+000
 -3.950000000000000E-002    0.000000000000000E+000
 -3.940000000000000E-002    0.000000000000000E+000
 -3.930000000000000E-002   -1.437561548814711E-025
 -3.920000000000000E-002   -3.102750290078196E-024
 -3.910000000000000E-002   -3.002538836377352E-023
 -3.900000000000000E-002   -1.872190188821368E-022
 -3.890000000000000E-002   -8.689917323770732E-022
 -3.880000000000000E-002   -3.236364646927821E-021
 -3.870000000000000E-002   -1.010693541400135E-020
 -3.860000000000000E-002   -2.719778185458091E-020
 -3.850000000000000E-002   -6.410516316129864E-020
 -3.840000000000000E-002   -1.333483676655080E-019
 -3.830000000000000E-002   -2.443233851139638E-019
 -3.820000000000000E-002   -3.875945547008313E-019
 -3.810000000000000E-002   -5.046716077385906E-019
 -3.800000000000000E-002   -4.408952838536209E-019
 -3.790000000000000E-002    1.138922738000789E-019
 -3.780000000000000E-002    1.679401391843721E-018
 -3.770000000000000E-002    4.998180826908972E-018
 -3.760000000000000E-002    1.095312965852830E-017
 -3.750000000000000E-002    2.032074604799774E-017
 -3.740000000000000E-002    3.329544363976444E-017
 -3.730000000000000E-002    4.875435888157185E-017
 -3.720000000000000E-002    6.330714334329717E-017
 -3.710000000000000E-002    7.029401730652143E-017
 -3.700000000000000E-002    5.904630094018809E-017
 -3.690000000000000E-002    1.487552111059540E-017
 -3.680000000000000E-002   -7.964093329698521E-017
 -3.670000000000000E-002   -2.415253032522382E-016
 -3.660000000000000E-002   -4.820641934628489E-016
 -3.650000000000000E-002   -7.993560916415932E-016
 -3.640000000000000E-002   -1.169497196361664E-015
 -3.630000000000000E-002   -1.538005333178952E-015
 -3.620000000000000E-002   -1.813941554486603E-015
 -3.610000000000000E-002   -1.869827535577456E-015
 -3.600000000000000E-002   -1.550584676436620E-015
 -3.590000000000000E-002   -6.940416584443322E-016
 -3.580000000000000E-002    8.361255001658937E-016
 -3.570000000000000E-002    3.106872770508753E-015
 -3.560000000000000E-002    6.067032606149906E-015
 -3.550000000000000E-002    9.502396758979364E-015
 -3.540000000000000E-002    1.300678830961408E-014
 -3.530000000000000E-002    1.598266719398929E-014
 -3.520000000000000E-002    1.768346395430478E-014
 -3.510000000000000E-002    1.730495861505536E-014
 -3.500000000000000E-002    1.412442861069877E-014
 -3.490000000000000E-002    7.674638070844065E-015
 -3.480000000000000E-002   -2.073308088174349E-015
 -3.470000000000000E-002   -1.455606763363236E-014
 -3.460000000000000E-002   -2.853822179530756E-014
 -3.450000000000000E-002   -4.215103334753342E-014
 -3.440000000000000E-002   -5.308307599711511E-014
 -3.430000000000000E-002   -5.893297838790029E-014
 -3.420000000000000E-002   -5.770113197881580E-014
 -3.410000000000000E-002   -4.835709861701139E-014
 -3.400000000000000E-002   -3.138018944275295E-014
 -3.390000000000000E-002   -9.140968979061783E-015
 -3.380000000000000E-002    1.401860702170637E-014
 -3.370000000000000E-002    3.213026121250797E-014
 -3.360000000000000E-002    3.844177829012518E-014
 -3.350000000000000E-002    2.674406839634077E-014
 -3.340000000000000E-002   -6.939286313591694E-015
 -3.330000000000000E-002   -6.254054883626714E-014
 -3.320000000000000E-002   -1.343597309000303E-013
 -3.310000000000000E-002   -2.101106767214397E-013
 -3.300000000000000E-002   -2.710122397118927E-013
 -3.290000000000000E-002   -2.932522440166918E-013
 -3.280000000000000E-002   -2.509781077452307E-013
 -3.270000000000000E-002   -1.207136149871323E-013
 -3.260000000000000E-002    1.132040748829695E-013
 -3.250000000000000E-002    4.528845546821537E-013
 -3.240000000000000E-002    8.818159745082863E-013
 -3.230000000000000E-002    1.361582539538386E-012
 -3.220000000000000E-002    1.831449860488765E-012
 -3.210000000000000E-002    2.211661900620657E-012
 -3.200000000000000E-002    2.410843271512314E-012
 -3.190000000000000E-002    2.337278760855762E-012
 -3.180000000000000E-002    1.913123117461576E-012
 -3.170000000000000E-002    1.089886130345542E-012
 -3.160000000000000E-002   -1.370217944326612E-013
 -3.150000000000000E-002   -1.717192994034296E-012
 -3.140000000000000E-002   -3.539996955111780E-012
 -3.130000000000000E-002   -5.437144152306841E-012
 -3.120000000000000E-002   -7.194034648668441E-012
 -3.110000000000000E-002   -8.569659742360903E-012
 -3.100000000000000E-002   -9.323436012598975E-012
 -3.090000000000000E-002   -9.246051261222660E-012
 -3.080000000000000E-002   -8.190377399856921E-012
 -3.070000000000000E-002   -6.098047442760266E-012
 -3.060000000000000E-002   -3.017467443925532E-012
 -3.050000000000000E-002    8.900508242106113E-013
 -3.040000000000000E-002    5.357804403257202E-012
 -3.030000000000000E-002    1.003466593110044E-011
 -3.020000000000000E-002    1.451720446443839E-011
 -3.010000000000000E-002    1.838884628004299E-011
 -3.000000000000000E-002    2.126073086842582E-011
 -2.990000000000000E-002    2.280859548101942E-011
 -2.980000000000000E-002    2.280071429697482E-011
 -2.970000000000000E-002    2.111360173475553E-011
 -2.960000000000000E-002    1.773455650700149E-011
 -2.950000000000000E-002    1.275274806196714E-011
 -2.940000000000000E-002    6.342972232236729E-012
 -2.930000000000000E-002   -1.252318035349960E-012
 -2.920000000000000E-002   -9.736755558810307E-012
 -2.910000000000000E-002   -1.876490654635489E-011
 -2.900000000000000E-002   -2.793614753493114E-011
 -2.890000000000000E-002   -3.677923032584853E-011
 -2.880000000000000E-002   -4.473314774431353E-011
 -2.870000000000000E-002   -5.113344869517002E-011
 -2.860000000000000E-002   -5.521508788786082E-011
 -2.850000000000000E-002   -5.614262699502137E-011
 -2.840000000000000E-002   -5.307571412107662E-011
 -2.830000000000000E-002   -4.527200202503272E-011
 -2.820000000000000E-002   -3.222207680155546E-011
 -2.810000000000000E-002   -1.380236069387953E-011
 -2.800000000000000E-002    9.576075440968652E-012
 -2.790000000000000E-002    3.685046931436733E-011
 -2.780000000000000E-002    6.625048093723512E-011
 -2.770000000000000E-002    9.532962834456722E-011
 -2.760000000000000E-002    1.211015055253935E-010
 -2.750000000000000E-002    1.402848048153241E-010
 -2.740000000000000E-002    1.496443603987568E-010
 -2.730000000000000E-002    1.463978250180854E-010
 -2.720000000000000E-002    1.286418672303543E-010
 -2.710000000000000E-002    9.574070119515328E-011
 -2.700000000000000E-002    4.861681605981139E-011
 -2.690000000000000E-002   -1.011126941117972E-011
 -2.680000000000000E-002   -7.618424068422970E-011
 -2.670000000000000E-002   -1.439677941409438E-010
 -2.660000000000000E-002   -2.069186981744461E-010
 -2.650000000000000E-002   -2.582117139073305E-010
 -2.640000000000000E-002   -2.914619286740296E-010
 -2.630000000000000E-002   -3.014587712781623E-010
 -2.620000000000000E-002   -2.848203984522511E-010
 -2.610000000000000E-002   -2.404825119910734E-010
 -2.600000000000000E-002   -1.699540718116574E-010
 -2.590000000000000E-002   -7.730130703803112E-011
 -2.580000000000000E-002    3.114353439452295E-011
 -2.570000000000000E-002    1.473149087489410E-010
 -2.560000000000000E-002    2.621229390334356E-010
 -2.550000000000000E-002    3.662507351279246E-010
 -2.540000000000000E-002    4.509438222839074E-010
 -2.530000000000000E-002    5.087017454582804E-010
 -2.520000000000000E-002    5.338026664501602E-010
 -2.510000000000000E-002    5.226225636981407E-010
 -2.500000000000000E-002    4.737464020517997E-010
 -2.490000000000000E-002    3.879023664744677E-010
 -2.480000000000000E-002    2.677765807694021E-010
 -2.470000000000000E-002    1.177766731237535E-010
 -2.460000000000000E-002   -5.618982497135482E-011
 -2.450000000000000E-002   -2.468766326412751E-010
 -2.440000000000000E-002   -4.457838936121243E-010
 -2.430000000000000E-002   -6.431889788782588E-010
 -2.420000000000000E-002   -8.281787785844768E-010
 -2.410000000000000E-002   -9.887632328965769E-010
 -2.400000000000000E-002   -1.112156404740056E-009
 -2.390000000000000E-002   -1.185298860806281E-009
 -2.380000000000000E-002   -1.195659306193849E-009
 -2.370000000000000E-002   -1.132305059315404E-009
 -2.360000000000000E-002   -9.871699160577514E-010
 -2.350000000000000E-002   -7.563919500490383E-010
 -2.340000000000000E-002   -4.415503966793410E-010
 -2.330000000000000E-002   -5.060809530068495E-011
 -2.320000000000000E-002    4.016231006137015E-010
 -2.310000000000000E-002    8.936391265236649E-010
 -2.300000000000000E-002    1.398097988315784E-009
 -2.290000000000000E-002    1.883360426973710E-009
 -2.280000000000000E-002    2.315612156463192E-009
 -2.270000000000000E-002    2.661377651033779E-009
 -2.260000000000000E-002    2.890171992521169E-009
 -2.250000000000000E-002    2.977008499391469E-009
 -2.240000000000000E-002    2.904492860318360E-009
 -2.230000000000000E-002    2.664282424797024E-009
 -2.220000000000000E-002    2.257776644642429E-009
 -2.210000000000000E-002    1.696005086629129E-009
 -2.200000000000000E-002    9.987901371574759E-010
 -2.190000000000000E-002    1.933517543110914E-010
 -2.180000000000000E-002   -6.874146094557628E-010
 -2.170000000000000E-002   -1.606732525347714E-009
 -2.160000000000000E-002   -2.525581319153582E-009
 -2.150000000000000E-002   -3.404005106149417E-009
 -2.140000000000000E-002   -4.202018195692860E-009
 -2.130000000000000E-002   -4.880136138651171E-009
 -2.120000000000000E-002   -5.399656016295600E-009
 -2.110000000000000E-002   -5.722888915625263E-009
 -2.100000000000000E-002   -5.813575231478561E-009
 -2.090000000000000E-002   -5.637709140515174E-009
 -2.080000000000000E-002   -5.164927253508575E-009
 -2.070000000000000E-002   -4.370540154889851E-009
 -2.060000000000000E-002   -3.238152218921160E-009
 -2.050000000000000E-002   -1.762715936520359E-009
 -2.040000000000000E-002    4.623415497399526E-011
 -2.030000000000000E-002    2.161475404949374E-009
 -2.020000000000000E-002    4.535430476820508E-009
 -2.010000000000000E-002    7.098209092362415E-009
 -2.000000000000000E-002    9.756530576995067E-009
 -1.990000000000000E-002    1.239358866422423E-008
 -1.980000000000000E-002    1.486978017323700E-008
 -1.970000000000000E-002    1.702411846487158E-008
 -1.960000000000000E-002    1.867607075227241E-008
 -1.950000000000000E-002    1.962751379283665E-008
 -1.940000000000000E-002    1.966455519562427E-008
 -1.930000000000000E-002    1.855901443159767E-008
 -1.920000000000000E-002    1.606950452488922E-008
 -1.910000000000000E-002    1.194213903048672E-008
 -1.900000000000000E-002    5.911062328421762E-009
 -1.890000000000000E-002   -2.300942303425505E-009
 -1.880000000000000E-002   -1.298145779287195E-008
 -1.870000000000000E-002   -2.642675587872952E-008
 -1.860000000000000E-002   -4.293922081085984E-008
 -1.850000000000000E-002   -6.282376477224614E-008
 -1.840000000000000E-002   -8.638331257986992E-008
 -1.830000000000000E-002   -1.139135300903066E-007
 -1.820000000000000E-002   -1.456972057941683E-007
 -1.810000000000000E-002   -1.819987227874836E-007
 -1.800000000000000E-002   -2.230590955418416E-007
 -1.790000000000000E-002   -2.690920808670632E-007
 -1.780000000000000E-002   -3.202818155376973E-007
 -1.770000000000000E-002   -3.767822304330682E-007
 -1.760000000000000E-002   -4.387184640383327E-007
 -1.750000000000000E-002   -5.061900384507288E-007
 -1.740000000000000E-002   -5.792761997767574E-007
 -1.730000000000000E-002   -6.580424373224321E-007
 -1.720000000000000E-002   -7.425485141477150E-007
 -1.710000000000000E-002   -8.328570340974322E-007
 -1.700000000000000E-002   -9.290426860310362E-007
 -1.690000000000000E-002   -1.031201630343336E-006
 -1.680000000000000E-002   -1.139460337013206E-006
 -1.670000000000000E-002   -1.253983788105887E-006
 -1.660000000000000E-002   -1.374983521302920E-006
 -1.650000000000000E-002   -1.502723681515844E-006
 -1.640000000000000E-002   -1.637525974361777E-006
 -1.630000000000000E-002   -1.779773431140246E-006
 -1.620000000000000E-002   -1.929912414894755E-006
 -1.610000000000000E-002   -2.088452090734016E-006
 -1.600000000000000E-002   -2.255963692369745E-006
 -1.590000000000000E-002   -2.433076634018637E-006
 -1.580000000000000E-002   -2.620474406063931E-006
 -1.570000000000000E-002   -2.818888962760296E-006
 -1.560000000000000E-002   -3.029095049024143E-006
 -1.550000000000000E-002   -3.251904198878744E-006
 -1.540000000000000E-002   -3.488160363728623E-006
 -1.530000000000000E-002   -3.738735495159195E-006
 -1.520000000000000E-002   -4.004527393215601E-006
 -1.510000000000000E-002   -4.286460022594885E-006
 -1.500000000000000E-002   -4.585484659587433E-006
 -1.490000000000000E-002   -4.902583703350800E-006
 -1.480000000000000E-002   -5.238776008500022E-006
 -1.470000000000000E-002   -5.595121824725146E-006
 -1.460000000000000E-002   -5.972731467269697E-006
 -1.450000000000000E-002   -6.372771627326526E-006
 -1.440000000000000E-002   -6.796471800031342E-006
 -1.430000000000000E-002   -7.245130757829631E-006
 -1.420000000000000E-002   -7.720121844798798E-006
 -1.410000000000000E-002   -8.222898118320696E-006
 -1.400000000000000E-002   -8.754995628560141E-006
 -1.390000000000000E-002   -9.318035335768057E-006
 -1.380000000000000E-002   -9.913728209678106E-006
 -1.370000000000000E-002   -1.054387533538197E-005
 -1.360000000000000E-002   -1.121037145792718E-005
 -1.350000000000000E-002   -1.191520863525620E-005
 -1.340000000000000E-002   -1.266047593136789E-005
 -1.330000000000000E-002   -1.344836337178443E-005
 -1.320000000000000E-002   -1.428116568455136E-005
 -1.310000000000000E-002   -1.516128398704885E-005
 -1.300000000000000E-002   -1.609122838072278E-005
 -1.290000000000000E-002   -1.707362124692459E-005
 -1.280000000000000E-002   -1.811120329463056E-005
 -1.270000000000000E-002   -1.920683197122166E-005
 -1.260000000000000E-002   -2.036349235573798E-005
 -1.250000000000000E-002   -2.158429692969444E-005
 -1.240000000000000E-002   -2.287249616581372E-005
 -1.230000000000000E-002   -2.423148196858688E-005
 -1.220000000000000E-002   -2.566479678903745E-005
 -1.210000000000000E-002   -2.717614709013412E-005
 -1.200000000000000E-002   -2.876940166123096E-005
 -1.190000000000000E-002   -3.044861364654117E-005
 -1.180000000000000E-002   -3.221802079186505E-005
 -1.170000000000000E-002   -3.408206139879962E-005
 -1.160000000000000E-002   -3.604538094641888E-005
 -1.150000000000000E-002   -3.811284526071264E-005
 -1.140000000000000E-002   -4.028954400434588E-005
 -1.130000000000000E-002   -4.258080079218794E-005
 -1.120000000000000E-002   -4.499218834623083E-005
 -1.110000000000000E-002   -4.752953970087661E-005
 -1.100000000000000E-002   -5.019894946934743E-005
 -1.090000000000000E-002   -5.300679518350483E-005
 -1.080000000000000E-002   -5.595974064385437E-005
 -1.070000000000000E-002   -5.906475115513023E-005
 -1.060000000000000E-002   -6.232910651543855E-005
 -1.050000000000000E-002   -6.576040644627173E-005
 -1.040000000000000E-002   -6.936658781854225E-005
 -1.030000000000000E-002   -7.315591987636756E-005
 -1.020000000000000E-002   -7.713703399885011E-005
 -1.010000000000000E-002   -8.131890983981420E-005
 -1.000000000000000E-002   -8.571089234477722E-005
 -9.899999999999999E-003   -9.032268804187759E-005
 -9.800000000000000E-003   -9.516437704167239E-005
 -9.699999999999999E-003   -1.002464219291365E-004
 -9.599999999999999E-003   -1.055796701600107E-004
 -9.500000000000000E-003   -1.111753584663170E-004
 -9.399999999999999E-003   -1.170451224864838E-004
 -9.299999999999999E-003   -1.232010186826187E-004
 -9.200000000000000E-003   -1.296554976835136E-004
 -9.099999999999999E-003   -1.364214731705324E-004
 -8.999999999999999E-003   -1.435123045978986E-004
 -8.900000000000000E-003   -1.509417996909446E-004
 -8.799999999999999E-003   -1.587242805506186E-004
 -8.699999999999999E-003   -1.668745696978922E-004
 -8.600000000000000E-003   -1.754080456487140E-004
 -8.499999999999999E-003   -1.843406412443232E-004
 -8.399999999999999E-003   -1.936888791017170E-004
 -8.300000000000000E-003   -2.034699166071797E-004
 -8.199999999999999E-003   -2.137015483299224E-004
 -8.100000000000000E-003   -2.244022765100865E-004
 -8.000000000000000E-003   -2.355913203328567E-004
 -7.899999999999999E-003   -2.472885710021835E-004
 -7.800000000000000E-003   -2.595147442519979E-004
 -7.699999999999999E-003   -2.722912772431709E-004
 -7.599999999999999E-003   -2.856403982658552E-004
 -7.499999999999999E-003   -2.995851109993999E-004
 -7.399999999999999E-003   -3.141492120111325E-004
 -7.299999999999999E-003   -3.293572890910977E-004
 -7.199999999999999E-003   -3.452347085220288E-004
 -7.100000000000000E-003   -3.618076442819221E-004
 -6.999999999999999E-003   -3.791030539663814E-004
 -6.899999999999999E-003   -3.971486895413997E-004
 -6.800000000000000E-003   -4.159731501155517E-004
 -6.699999999999999E-003   -4.356057926736089E-004
 -6.599999999999999E-003   -4.560768560496540E-004
 -6.499999999999999E-003   -4.774174092072986E-004
 -6.399999999999999E-003   -4.996594880794102E-004
 -6.299999999999999E-003   -5.228359536877978E-004
 -6.199999999999999E-003   -5.469806178585696E-004
 -6.100000000000000E-003   -5.721282574621485E-004
 -5.999999999999999E-003   -5.983146137907918E-004
 -5.899999999999999E-003   -6.255764752315723E-004
 -5.800000000000000E-003   -6.539516425282361E-004
 -5.699999999999999E-003   -6.834789710097064E-004
 -5.599999999999999E-003   -7.141983244161516E-004
 -5.499999999999999E-003   -7.461507420476167E-004
 -5.399999999999999E-003   -7.793782565578724E-004
 -5.299999999999999E-003   -8.139240590144413E-004
 -5.199999999999999E-003   -8.498324101484989E-004
 -5.099999999999999E-003   -8.871487992071331E-004
 -4.999999999999999E-003   -9.259197185575963E-004
 -4.899999999999999E-003   -9.661928841795712E-004
 -4.799999999999999E-003   -1.008017213606464E-003
 -4.699999999999999E-003   -1.051442691673230E-003
 -4.599999999999999E-003   -1.096520472883749E-003
 -4.499999999999999E-003   -1.143303005109550E-003
 -4.399999999999999E-003   -1.191843898540467E-003
 -4.299999999999999E-003   -1.242197841974039E-003
 -4.199999999999999E-003   -1.294420944226008E-003
 -4.099999999999999E-003   -1.348570389746200E-003
 -3.999999999999999E-003   -1.404704587360625E-003
 -3.899999999999999E-003   -1.462883122430023E-003
 -3.799999999999999E-003   -1.523166825248322E-003
 -3.699999999999999E-003   -1.585617711869558E-003
 -3.599999999999999E-003   -1.650298935617348E-003
 -3.499999999999999E-003   -1.717274779290562E-003
 -3.399999999999999E-003   -1.786610789465650E-003
 -3.299999999999999E-003   -1.858373556590167E-003
 -3.199999999999999E-003   -1.932630904822808E-003
 -3.099999999999999E-003   -2.009451351263322E-003
 -2.999999999999999E-003   -2.088904985269600E-003
 -2.899999999999999E-003   -2.171062642233480E-003
 -2.799999999999999E-003   -2.255996052393004E-003
 -2.699999999999999E-003   -2.343778219860217E-003
 -2.599999999999999E-003   -2.434483001175152E-003
 -2.499999999999999E-003   -2.528185209463102E-003
 -2.399999999999999E-003   -2.624960700095368E-003
 -2.299999999999999E-003   -2.724886032471490E-003
 -2.199999999999999E-003   -2.828038816596851E-003
 -2.099999999999999E-003   -2.934497305414789E-003
 -1.999999999999999E-003   -3.044341089766700E-003
 -1.899999999999999E-003   -3.157650069705789E-003
 -1.799999999999999E-003   -3.274504792596963E-003
 -1.699999999999999E-003   -3.394986966513755E-003
 -1.599999999999999E-003   -3.519178472693304E-003
 -1.499999999999999E-003   -3.647162135221366E-003
 -1.399999999999999E-003   -3.779021276158969E-003
 -1.299999999999999E-003   -3.914839538455507E-003
 -1.199999999999999E-003   -4.054701064596475E-003
 -1.099999999999999E-003   -4.198690301116560E-003
 -9.999999999999989E-004   -4.346891907526278E-003
 -8.999999999999990E-004   -4.499390663057735E-003
 -7.999999999999990E-004   -4.656271586660665E-003
 -6.999999999999989E-004   -4.817619787165365E-003
 -5.999999999999990E-004   -4.983519986170766E-003
 -4.999999999999989E-004   -5.154056747663608E-003
 -3.999999999999989E-004   -5.329314707020469E-003
 -2.999999999999989E-004   -5.509377825074741E-003
 -1.999999999999989E-004   -5.694329518661255E-003
 -9.999999999999892E-005   -5.884252745512641E-003
  1.084202172485504E-018   -6.079230121134289E-003
  1.000000000000011E-004   -6.279342739443528E-003
  2.000000000000011E-004   -6.484671391295987E-003
  3.000000000000011E-004   -6.695295448551615E-003
  4.000000000000011E-004   -6.911293862908689E-003
  5.000000000000011E-004   -7.132743683659817E-003
  6.000000000000011E-004   -7.359720799574264E-003
  7.000000000000011E-004   -7.592299430006061E-003
  8.000000000000011E-004   -7.830552788330801E-003
  9.000000000000012E-004   -8.074551536019487E-003
  1.000000000000001E-003   -8.324365146734793E-003
  1.100000000000001E-003   -8.580060602538856E-003
  1.200000000000001E-003   -8.841702657089442E-003
  1.300000000000001E-003   -9.109353979805775E-003
  1.400000000000001E-003   -9.383075040706981E-003
  1.500000000000001E-003   -9.662923426784171E-003
  1.600000000000001E-003   -9.948953455331365E-003
  1.700000000000001E-003   -1.024121638091552E-002
  1.800000000000001E-003   -1.053976153367454E-002
  1.900000000000001E-003   -1.084463360781095E-002
  2.000000000000001E-003   -1.115587465523468E-002
  2.100000000000001E-003   -1.147352166274918E-002
  2.200000000000001E-003   -1.179760923714736E-002
  2.300000000000001E-003   -1.212816706952671E-002
  2.400000000000001E-003   -1.246522152193649E-002
  2.500000000000001E-003   -1.280879263804000E-002
  2.600000000000001E-003   -1.315889615395700E-002
  2.700000000000001E-003   -1.351554422282327E-002
  2.800000000000001E-003   -1.387874481595727E-002
  2.900000000000001E-003   -1.424849796518428E-002
  3.000000000000001E-003   -1.462479997176130E-002
  3.100000000000001E-003   -1.500764179351631E-002
  3.200000000000001E-003   -1.539700902134375E-002
  3.300000000000001E-003   -1.579288011216152E-002
  3.400000000000001E-003   -1.619522861813393E-002
  3.500000000000001E-003   -1.660402090293824E-002
  3.600000000000001E-003   -1.701921630693568E-002
  3.700000000000001E-003   -1.744076858772342E-002
  3.800000000000001E-003   -1.786862564050963E-002
  3.900000000000001E-003   -1.830272591115717E-002
  4.000000000000001E-003   -1.874300249449916E-002
  4.100000000000001E-003   -1.918937953978213E-002
  4.200000000000001E-003   -1.964177327573293E-002
  4.300000000000001E-003   -2.010009413761206E-002
  4.400000000000001E-003   -2.056424262445331E-002
  4.500000000000001E-003   -2.103411232810012E-002
  4.600000000000002E-003   -2.150958784527622E-002
  4.700000000000001E-003   -2.199054599978727E-002
  4.800000000000001E-003   -2.247685296099870E-002
  4.900000000000002E-003   -2.296836885957661E-002
  5.000000000000001E-003   -2.346494301192226E-002
  5.100000000000001E-003   -2.396641551612947E-002
  5.200000000000001E-003   -2.447261785822380E-002
  5.300000000000002E-003   -2.498337213932905E-002
  5.400000000000001E-003   -2.549849059192311E-002
  5.500000000000001E-003   -2.601777402105226E-002
  5.600000000000002E-003   -2.654101802394391E-002
  5.700000000000001E-003   -2.706800363182518E-002
  5.800000000000001E-003   -2.759850355789329E-002
  5.900000000000002E-003   -2.813228157272927E-002
  6.000000000000001E-003   -2.866908959989844E-002
  6.100000000000001E-003   -2.920866879319728E-002
  6.200000000000002E-003   -2.975075367029909E-002
  6.300000000000002E-003   -3.029506300382235E-002
  6.400000000000001E-003   -3.084130731767220E-002
  6.500000000000001E-003   -3.138918663174266E-002
  6.600000000000002E-003   -3.193839264593927E-002
  6.700000000000001E-003   -3.248860369142607E-002
  6.800000000000001E-003   -3.303948998878525E-002
  6.900000000000002E-003   -3.359070726546781E-002
  7.000000000000001E-003   -3.414190082576579E-002
  7.100000000000001E-003   -3.469270999978383E-002
  7.200000000000002E-003   -3.524276341146002E-002
  7.300000000000002E-003   -3.579167492558908E-002
  7.400000000000001E-003   -3.633904980306486E-002
  7.500000000000001E-003   -3.688448527559586E-002
  7.600000000000002E-003   -3.742756579839582E-002
  7.700000000000001E-003   -3.796786584279063E-002
  7.800000000000001E-003   -3.850495169945883E-002
  7.900000000000001E-003   -3.903837606532379E-002
  8.000000000000002E-003   -3.956768674557170E-002
  8.100000000000001E-003   -4.009241909365251E-002
  8.200000000000001E-003   -4.061209935564317E-002
  8.300000000000002E-003   -4.112624323563751E-002
  8.400000000000001E-003   -4.163435982124285E-002
  8.500000000000002E-003   -4.213594720236183E-002
  8.600000000000002E-003   -4.263049694094484E-002
  8.700000000000001E-003   -4.311749112093776E-002
  8.800000000000002E-003   -4.359640601311339E-002
  8.900000000000002E-003   -4.406670684705291E-002
  9.000000000000001E-003   -4.452785276910558E-002
  9.100000000000002E-003   -4.497929539149852E-002
  9.200000000000002E-003   -4.542048527360586E-002
  9.300000000000001E-003   -4.585085554814358E-002
  9.400000000000002E-003   -4.626984351661416E-002
  9.500000000000001E-003   -4.667687615904732E-002
  9.600000000000001E-003   -4.707137693824619E-002
  9.700000000000002E-003   -4.745276177556834E-002
  9.800000000000001E-003   -4.782044308825151E-002
  9.900000000000001E-003   -4.817382974379820E-002
  1.000000000000000E-002   -4.851233068414351E-002
  1.010000000000000E-002   -4.883534286564402E-002
  1.020000000000000E-002   -4.914227007374074E-002
  1.030000000000000E-002   -4.943250497338830E-002
  1.040000000000000E-002   -4.970544743885753E-002
  1.050000000000000E-002   -4.996048937983293E-002
  1.060000000000000E-002   -5.019702380972101E-002
  1.070000000000000E-002   -5.041444622919740E-002
  1.080000000000000E-002   -5.061214744325791E-002
  1.090000000000000E-002   -5.078952736267050E-002
  1.100000000000000E-002   -5.094597953031443E-002
  1.110000000000000E-002   -5.108090394923610E-002
  1.120000000000000E-002   -5.119370114087737E-002
  1.130000000000000E-002   -5.128377784402981E-002
  1.140000000000000E-002   -5.135054112769111E-002
  1.150000000000000E-002   -5.139340342761006E-002
  1.160000000000000E-002   -5.141178513056981E-002
  1.170000000000000E-002   -5.140511108471882E-002
  1.180000000000000E-002   -5.137281337183781E-002
  1.190000000000000E-002   -5.131432666101284E-002
  1.200000000000000E-002   -5.122910045894485E-002
  1.210000000000000E-002   -5.111659067737709E-002
  1.220000000000000E-002   -5.097625772401823E-002
  1.230000000000000E-002   -5.080757458457606E-002
  1.240000000000000E-002   -5.061002544202536E-002
  1.250000000000000E-002   -5.038310867893053E-002
  1.260000000000000E-002   -5.012632858041626E-002
  1.270000000000000E-002   -4.983920424438579E-002
  1.280000000000000E-002   -4.952126892829246E-002
  1.290000000000000E-002   -4.917206853744421E-002
  1.300000000000000E-002   -4.879116174293404E-002
  1.310000000000000E-002   -4.837812900811057E-002
  1.320000000000000E-002   -4.793255469561016E-002
  1.330000000000000E-002   -4.745405127146553E-002
  1.340000000000000E-002   -4.694224142122429E-002
  1.350000000000000E-002   -4.639676510571319E-002
  1.360000000000000E-002   -4.581728546798686E-002
  1.370000000000000E-002   -4.520347935034620E-002
  1.380000000000000E-002   -4.455504429925637E-002
  1.390000000000000E-002   -4.387169749751684E-002
  1.400000000000000E-002   -4.315317903795281E-002
  1.410000000000000E-002   -4.239924913627628E-002
  1.420000000000000E-002   -4.160969034384038E-002
  1.430000000000000E-002   -4.078430629878357E-002
  1.440000000000000E-002   -3.992292109636911E-002
  1.450000000000000E-002   -3.902538530044002E-002
  1.460000000000000E-002   -3.809157123110998E-002
  1.470000000000000E-002   -3.712137512144047E-002
  1.480000000000000E-002   -3.611472041377061E-002
  1.490000000000000E-002   -3.507155523997713E-002
  1.500000000000000E-002   -3.399184518827917E-002
  1.510000000000000E-002   -3.287559134023445E-002
  1.520000000000000E-002   -3.172281964024666E-002
  1.530000000000000E-002   -3.053357821378590E-002
  1.540000000000000E-002   -2.930794386276901E-002
  1.550000000000000E-002   -2.804602135515474E-002
  1.560000000000000E-002   -2.674794429323646E-002
  1.570000000000000E-002   -2.541387078195169E-002
  1.580000000000000E-002   -2.404398772840347E-002
  1.590000000000000E-002   -2.263851078384519E-002
  1.600000000000000E-002   -2.119768347569201E-002
  1.610000000000000E-002   -1.972177793777808E-002
  1.620000000000000E-002   -1.821109150424273E-002
  1.630000000000000E-002   -1.666595210183574E-002
  1.640000000000000E-002   -1.508671622497384E-002
  1.650000000000000E-002   -1.347376838543585E-002
  1.660000000000000E-002   -1.182752187480327E-002
  1.670000000000000E-002   -1.014841775224823E-002
  1.680000000000000E-002   -8.436925223779649E-003
  1.690000000000000E-002   -6.693542974217697E-003
  1.700000000000000E-002   -4.918797478814003E-003
  1.710000000000000E-002   -3.113242834327125E-003
  1.720000000000000E-002   -1.277461456291911E-003
  1.730000000000000E-002    5.879379717712852E-004
  1.740000000000000E-002    2.482317276003867E-003
  1.750000000000000E-002    4.405013406040513E-003
  1.760000000000000E-002    6.355335833790910E-003
  1.770000000000000E-002    8.332566241364638E-003
  1.780000000000000E-002    1.033596274991425E-002
  1.790000000000000E-002    1.236475601487362E-002
  1.800000000000000E-002    1.441815272680341E-002
  1.810000000000000E-002    1.649533354011459E-002
  1.820000000000000E-002    1.859545447140032E-002
  1.830000000000000E-002    2.071764937151536E-002
  1.840000000000000E-002    2.286102718409751E-002
  1.850000000000000E-002    2.502467479737643E-002
  1.860000000000000E-002    2.720765622786960E-002
  1.870000000000000E-002    2.940901373175343E-002