 -4.000000000000000E-002    0.000000000000000E+000
 -3.990000000000000E-002    0.000000000000000E+000
 -3.980000000000000E-002    0.000000000000000E+000
 -3.970000000000000E-002    0.000000000000000E+000
 -3.960000000000000E-002    0.000000000000000E+000
 -3.950000000000000E-002    0.000000000000000E+000
 -3.940000000000000E-002    0.000000000000000E+000
 -3.930000000000000E-002    0.000000000000000E+000
 -3.920000000000000E-002    0.000000000000000E+000
 -3.910000000000000E-002    0.000000000000000E+000
 -3.900000000000000E-002    0.000000000000000E+000
 -3.890000000000000E-002    0.000000000000000E+000
 -3.880000000000000E-002    0.000000000000000E+000
 -3.870000000000000E-002    0.000000000000000E+000
 -3.860000000000000E-002    0.000000000000000E+000
 -3.850000000000000E-002   -1.899006083473282E-045
 -3.840000000000000E-002   -4.724859485901239E-044
 -3.830000000000000E-002   -5.969427269663600E-043
 -3.820000000000000E-002   -4.979714849818612E-042
 -3.810000000000000E-002   -3.073700836455941E-041
 -3.800000000000000E-002   -1.472281993655693E-040
 -3.790000000000000E-002   -5.510311990409616E-040
 -3.780000000000000E-002   -1.523374133233471E-039
 -3.770000000000000E-002   -2.208248586850277E-039
 -3.760000000000000E-002    6.248335089482911E-039
 -3.750000000000000E-002    6.789149968543056E-038
 -3.740000000000000E-002    3.500813001409642E-037
 -3.730000000000000E-002    1.388915958208015E-036
 -3.720000000000000E-002    4.688873223008448E-036
 -3.710000000000000E-002    1.401521975433586E-035
 -3.700000000000000E-002    3.783017941340586E-035
 -3.690000000000000E-002    9.317979023510567E-035
 -3.680000000000000E-002    2.104215444384843E-034
 -3.670000000000000E-002    4.355604917334521E-034
 -3.660000000000000E-002    8.212909311353903E-034
 -3.650000000000000E-002    1.387768081499614E-033
 -3.640000000000000E-002    2.019454847300213E-033
 -3.630000000000000E-002    2.248380108787188E-033
 -3.620000000000000E-002    8.671978637240686E-034
 -3.610000000000000E-002   -4.660623296988399E-033
 -3.600000000000000E-002   -1.893503022155834E-032
 -3.590000000000000E-002   -4.923291812542793E-032
 -3.580000000000000E-002   -1.053669906232612E-031
 -3.570000000000000E-002   -1.976124004892567E-031
 -3.560000000000000E-002   -3.308824880326634E-031
 -3.550000000000000E-002   -4.928386151551280E-031
 -3.540000000000000E-002   -6.337524967778444E-031
 -3.530000000000000E-002   -6.374651330212016E-031
 -3.520000000000000E-002   -2.866718256086198E-031
 -3.510000000000000E-002    7.670829774250599E-031
 -3.500000000000000E-002    3.007583962193979E-030
 -3.490000000000000E-002    6.997986036391839E-030
 -3.480000000000000E-002    1.321828165594557E-029
 -3.470000000000000E-002    2.174558197167268E-029
 -3.460000000000000E-002    3.174072706346044E-029
 -3.450000000000000E-002    4.074987711202863E-029
 -3.440000000000000E-002    4.391749185017039E-029
 -3.430000000000000E-002    3.334144587134661E-029
 -3.420000000000000E-002   -2.029652165493481E-030
 -3.410000000000000E-002   -7.539069925708189E-029
 -3.400000000000000E-002   -1.993074905518157E-028
 -3.390000000000000E-002   -3.806036388799066E-028
 -3.380000000000000E-002   -6.127177869085308E-028
 -3.370000000000000E-002   -8.661304286627030E-028
 -3.360000000000000E-002   -1.078685459001467E-027
 -3.350000000000000E-002   -1.149179980172161E-027
 -3.340000000000000E-002   -9.391360918928231E-028
 -3.330000000000000E-002   -2.885939799280071E-028
 -3.320000000000000E-002    9.487583666759582E-028
 -3.310000000000000E-002    2.848740742259880E-027
 -3.300000000000000E-002    5.341851893035620E-027
 -3.290000000000000E-002    8.133657190708166E-027
 -3.280000000000000E-002    1.064541622869794E-026
 -3.270000000000000E-002    1.201159993394961E-026
 -3.260000000000000E-002    1.117779876425225E-026
 -3.250000000000000E-002    7.138542536509760E-027
 -3.240000000000000E-002   -6.671094941178652E-028
 -3.230000000000000E-002   -1.182900238350834E-026
 -3.220000000000000E-002   -2.440393105920822E-026
 -3.210000000000000E-002   -3.450026093344943E-026
 -3.200000000000000E-002   -3.627735109893453E-026
 -3.190000000000000E-002   -2.268467458212652E-026
 -3.180000000000000E-002    1.274902049364649E-026
 -3.170000000000000E-002    7.289636403583209E-026
 -3.160000000000000E-002    1.528875209516327E-025
 -3.150000000000000E-002    2.354021024475223E-025
 -3.140000000000000E-002    2.865510234812547E-025
 -3.130000000000000E-002    2.541423093009076E-025
 -3.120000000000000E-002    7.064353850689453E-026
 -3.110000000000000E-002   -3.366877908216513E-025
 -3.100000000000000E-002   -1.026511483368386E-024
 -3.090000000000000E-002   -2.014328901493693E-024
 -3.080000000000000E-002   -3.235431645131383E-024
 -3.070000000000000E-002   -4.505114916895214E-024
 -3.060000000000000E-002   -5.485469061103160E-024
 -3.050000000000000E-002   -5.672040443728614E-024
 -3.040000000000000E-002   -4.416392476489506E-024
 -3.030000000000000E-002   -1.000696896129916E-024
 -3.020000000000000E-002    5.223549548369898E-024
 -3.010000000000000E-002    1.462990685576114E-023
 -3.000000000000000E-002    2.705674275500805E-023
 -2.990000000000000E-002    4.152456170193195E-023
 -2.980000000000000E-002    5.598548161696666E-023
 -2.970000000000000E-002    6.718006894443113E-023
 -2.960000000000000E-002    7.068971534598074E-023
 -2.950000000000000E-002    6.127180171688416E-023
 -2.940000000000000E-002    3.354339256361366E-023
 -2.930000000000000E-002   -1.696646970538018E-023
 -2.920000000000000E-002   -9.244618227331049E-023
 -2.910000000000000E-002   -1.912524188808008E-022
 -2.900000000000000E-002   -3.064189559538438E-022
 -2.890000000000000E-002   -4.245458722408047E-022
 -2.880000000000000E-002   -5.254438655820344E-022
 -2.870000000000000E-002   -5.829040041898426E-022
 -2.860000000000000E-002   -5.668821165603327E-022
 -2.850000000000000E-002   -4.472214168890631E-022
 -2.840000000000000E-002   -1.987899758959829E-022
 -2.830000000000000E-002    1.923904286932278E-022
 -2.820000000000000E-002    7.227579807285748E-022
 -2.810000000000000E-002    1.365563277233009E-021
 -2.800000000000000E-002    2.067105529816397E-021
 -2.790000000000000E-002    2.745968563347146E-021
 -2.780000000000000E-002    3.296147778715067E-021
 -2.770000000000000E-002    3.594513655505962E-021
 -2.760000000000000E-002    3.512467487387461E-021
 -2.750000000000000E-002    2.930983090175026E-021
 -2.740000000000000E-002    1.757635759447319E-021
 -2.730000000000000E-002   -5.617305173597831E-023
 -2.720000000000000E-002   -2.499662117310279E-021
 -2.710000000000000E-002   -5.490373492839621E-021
 -2.700000000000000E-002   -8.866108258820321E-021
 -2.690000000000000E-002   -1.238133022431630E-020
 -2.680000000000000E-002   -1.570760707549092E-020
 -2.670000000000000E-002   -1.843746378014732E-020
 -2.660000000000000E-002   -2.009146542505405E-020
 -2.650000000000000E-002   -2.012972670995213E-020
 -2.640000000000000E-002   -1.797113742451020E-020
 -2.630000000000000E-002   -1.302607273437353E-020
 -2.620000000000000E-002   -4.750411886731764E-021
 -2.610000000000000E-002    7.270705812797143E-021
 -2.600000000000000E-002    2.320299782474206E-020
 -2.590000000000000E-002    4.280626310770015E-020
 -2.580000000000000E-002    6.524963782195863E-020
 -2.570000000000000E-002    8.892121408935573E-020
 -2.560000000000000E-002    1.112696804495690E-019
 -2.550000000000000E-002    1.287302147155671E-019
 -2.540000000000000E-002    1.367965152838438E-019
 -2.530000000000000E-002    1.303010872820645E-019
 -2.520000000000000E-002    1.039523030699640E-019
 -2.510000000000000E-002    5.314632954408111E-020
 -2.500000000000000E-002   -2.497554874164453E-020
 -2.490000000000000E-002   -1.303151069930582E-019
 -2.480000000000000E-002   -2.586096849706777E-019
 -2.470000000000000E-002   -4.004503379596631E-019
 -2.460000000000000E-002   -5.407896573950754E-019
 -2.450000000000000E-002   -6.592095531686493E-019
 -2.440000000000000E-002   -7.311773143854164E-019
 -2.430000000000000E-002   -7.304173141977255E-019
 -2.420000000000000E-002   -6.323691654997566E-019
 -2.410000000000000E-002   -4.185014695815907E-019
 -2.400000000000000E-002   -8.102874762466603E-020
 -2.390000000000000E-002    3.726249933494621E-019
 -2.380000000000000E-002    9.164198254338409E-019
 -2.370000000000000E-002    1.504197370036085E-018
 -2.360000000000000E-002    2.070835526736227E-018
 -2.350000000000000E-002    2.536563899272884E-018
 -2.340000000000000E-002    2.814545582876954E-018
 -2.330000000000000E-002    2.821318354645186E-018
 -2.320000000000000E-002    2.489128922471535E-018
 -2.310000000000000E-002    1.778681635134021E-018
 -2.300000000000000E-002    6.904488406052301E-019
 -2.290000000000000E-002   -7.274372283787378E-019
 -2.280000000000000E-002   -2.376509412466390E-018
 -2.270000000000000E-002   -4.111784933907406E-018
 -2.260000000000000E-002   -5.752528215971481E-018
 -2.250000000000000E-002   -7.099371608542606E-018
 -2.240000000000000E-002   -7.956108308344913E-018
 -2.230000000000000E-002   -8.153526893735641E-018
 -2.220000000000000E-002   -7.572018882617475E-018
 -2.210000000000000E-002   -6.159586944378801E-018
 -2.200000000000000E-002   -3.942343852971865E-018
 -2.190000000000000E-002   -1.025670567623651E-018
 -2.180000000000000E-002    2.414286249720664E-018
 -2.170000000000000E-002    6.147365980388852E-018
 -2.160000000000000E-002    9.911377375001049E-018
 -2.150000000000000E-002    1.343518935404931E-017
 -2.140000000000000E-002    1.645848367212467E-017
 -2.130000000000000E-002    1.874445318725735E-017
 -2.120000000000000E-002    2.008342303866427E-017
 -2.110000000000000E-002    2.028788802338495E-017
 -2.100000000000000E-002    1.918233864866103E-017
 -2.090000000000000E-002    1.659379530096965E-017
 -2.080000000000000E-002    1.235058701075423E-017
 -2.070000000000000E-002    6.296862586123813E-018
 -2.060000000000000E-002   -1.671711043268856E-018
 -2.050000000000000E-002   -1.154977683252008E-017
 -2.040000000000000E-002   -2.314613960631162E-017
 -2.030000000000000E-002   -3.600077379101085E-017
 -2.020000000000000E-002   -4.931218577904402E-017
 -2.010000000000000E-002   -6.189651079343034E-017
 -2.000000000000000E-002   -7.220039956318576E-017
 -1.990000000000000E-002   -7.838600214951398E-017
 -1.980000000000000E-002   -7.849781747151085E-017
 -1.970000000000000E-002   -7.070814702653038E-017
 -1.960000000000000E-002   -5.362215768877410E-017
 -1.950000000000000E-002   -2.660746546040101E-017
 -1.940000000000000E-002    9.900542561129126E-018
 -1.930000000000000E-002    5.417403017418692E-017
 -1.920000000000000E-002    1.031045545140691E-016
 -1.910000000000000E-002    1.522963263011235E-016
 -1.900000000000000E-002    1.963650326566050E-016
 -1.890000000000000E-002    2.294371432466094E-016
 -1.880000000000000E-002    2.458110129135466E-016
 -1.870000000000000E-002    2.407083515715351E-016
 -1.860000000000000E-002    2.110183341584110E-016
 -1.850000000000000E-002    1.559233580712774E-016
 -1.840000000000000E-002    7.729875086033367E-017
 -1.830000000000000E-002   -2.019934426080227E-017
 -1.820000000000000E-002   -1.294037919433417E-016
 -1.810000000000000E-002   -2.412577270004063E-016
 -1.800000000000000E-002   -3.457236296329204E-016
 -1.790000000000000E-002   -4.328641549234500E-016
 -1.780000000000000E-002   -4.939412063131439E-016
 -1.770000000000000E-002   -5.223662642038835E-016
 -1.760000000000000E-002   -5.143500206509966E-016
 -1.750000000000000E-002   -4.691452909783589E-016
 -1.740000000000000E-002   -3.888455859099852E-016
 -1.730000000000000E-002   -2.777861593089041E-016
 -1.720000000000000E-002   -1.416749579360865E-016
 -1.710000000000000E-002    1.335328753487292E-017
 -1.700000000000000E-002    1.815361643368309E-016
 -1.690000000000000E-002    3.579242461840035E-016
 -1.680000000000000E-002    5.383121850933794E-016
 -1.670000000000000E-002    7.186110328621724E-016
 -1.660000000000000E-002    8.937425886635566E-016
 -1.650000000000000E-002    1.056271234254805E-015
 -1.640000000000000E-002    1.195102343255895E-015
 -1.630000000000000E-002    1.294639824842139E-015
 -1.620000000000000E-002    1.334790391128214E-015
 -1.610000000000000E-002    1.292115075965257E-015
 -1.600000000000000E-002    1.142263671678329E-015
 -1.590000000000000E-002    8.636034593197329E-016
 -1.580000000000000E-002    4.417013182970693E-016
 -1.570000000000000E-002   -1.259170419280002E-016
 -1.560000000000000E-002   -8.254826519117721E-016
 -1.550000000000000E-002   -1.623995950292497E-015
 -1.540000000000000E-002   -2.468302382281352E-015
 -1.530000000000000E-002   -3.286796101584746E-015
 -1.520000000000000E-002   -3.993996111717847E-015
 -1.510000000000000E-002   -4.497834803397756E-015
 -1.500000000000000E-002   -4.709062414009389E-015
 -1.490000000000000E-002   -4.551785670904484E-015
 -1.480000000000000E-002   -3.973887498257563E-015
 -1.470000000000000E-002   -2.955957580253664E-015
 -1.460000000000000E-002   -1.517474059918060E-015
 -1.450000000000000E-002    2.807426444386514E-016
 -1.440000000000000E-002    2.338314236175150E-015
 -1.430000000000000E-002    4.521282080588280E-015
 -1.420000000000000E-002    6.671668910524760E-015
 -1.410000000000000E-002    8.619531225611595E-015
 -1.400000000000000E-002    1.019610756090935E-014
 -1.390000000000000E-002    1.124658578965118E-014
 -1.380000000000000E-002    1.164117818370484E-014
 -1.370000000000000E-002    1.128359924480043E-014
 -1.360000000000000E-002    1.011655412532244E-014
 -1.350000000000000E-002    8.124452159218868E-015
 -1.340000000000000E-002    5.334037389371928E-015
 -1.330000000000000E-002    1.813941093299195E-015
 -1.320000000000000E-002   -2.325799360644331E-015
 -1.310000000000000E-002   -6.933491294678823E-015
 -1.300000000000000E-002   -1.181458930366804E-014
 -1.290000000000000E-002   -1.673005149122615E-014
 -1.280000000000000E-002   -2.139551500619633E-014
 -1.270000000000000E-002   -2.548318005531788E-014
 -1.260000000000000E-002   -2.862861294223344E-014
 -1.250000000000000E-002   -3.044456889052964E-014
 -1.240000000000000E-002   -3.054333091543936E-014
 -1.230000000000000E-002   -2.856795202098778E-014
 -1.220000000000000E-002   -2.423136589282669E-014
 -1.210000000000000E-002   -1.736072441421863E-014
 -1.200000000000000E-002   -7.942735780917527E-015
 -1.190000000000000E-002    3.835346724552802E-015
 -1.180000000000000E-002    1.755512031317550E-014
 -1.170000000000000E-002    3.255262733596948E-014
 -1.160000000000000E-002    4.792511198507795E-014
 -1.150000000000000E-002    6.256215124756467E-014
 -1.140000000000000E-002    7.520211394210311E-014
 -1.130000000000000E-002    8.451231920867003E-014
 -1.120000000000000E-002    8.918862371878274E-014
 -1.110000000000000E-002    8.806789477923468E-014
 -1.100000000000000E-002    8.024500809357254E-014
 -1.090000000000000E-002    6.518504235604578E-014
 -1.080000000000000E-002    4.282109291414818E-014
 -1.070000000000000E-002    1.362865031041659E-014
 -1.060000000000000E-002   -2.133129575361149E-014
 -1.050000000000000E-002   -6.040665155515556E-014
 -1.040000000000000E-002   -1.013903351530825E-013
 -1.030000000000000E-002   -1.416003059046100E-013
 -1.020000000000000E-002   -1.780033374292495E-013
 -1.010000000000000E-002   -2.073802677258181E-013
 -1.000000000000000E-002   -2.265276996733907E-013
 -9.899999999999999E-003   -2.324885041832394E-013
 -9.800000000000000E-003   -2.228005081218124E-013
 -9.699999999999999E-003   -1.957493153777179E-013
 -9.599999999999999E-003   -1.506082805002537E-013
 -9.500000000000000E-003   -8.784571601043945E-014
 -9.399999999999999E-003   -9.277823731204172E-015
 -9.299999999999999E-003    8.185459897018507E-014
 -9.200000000000000E-003    1.809054403518659E-013
 -9.099999999999999E-003    2.819540399312672E-013
 -8.999999999999999E-003    3.780556732571019E-013
 -8.900000000000000E-003    4.616107343444250E-013
 -8.799999999999999E-003    5.248400933641378E-013
 -8.699999999999999E-003    5.603426252622166E-013
 -8.600000000000000E-003    5.616997278869217E-013
 -8.499999999999999E-003    5.240827609177209E-013
 -8.399999999999999E-003    4.448137029261475E-013
 -8.300000000000000E-003    3.238288230117106E-013
 -8.199999999999999E-003    1.639986094967640E-013
 -8.100000000000000E-003   -2.873362875555531E-014
 -8.000000000000000E-003   -2.454196735968760E-013
 -7.899999999999999E-003   -4.743909353631181E-013
 -7.800000000000000E-003   -7.017538050265158E-013
 -7.699999999999999E-003   -9.120748016966681E-013
 -7.599999999999999E-003   -1.089222341999602E-012
 -7.499999999999999E-003   -1.217323320825663E-012
 -7.399999999999999E-003   -1.281786657289730E-012
 -7.299999999999999E-003   -1.270344063942166E-012
 -7.199999999999999E-003   -1.174059161540522E-012
 -7.100000000000000E-003   -9.882561468395382E-013
 -6.999999999999999E-003   -7.133182080382468E-013
 -6.899999999999999E-003   -3.553071200767299E-013
 -6.800000000000000E-003    7.365055608127416E-014
 -6.699999999999999E-003    5.552670947196969E-013
 -6.599999999999999E-003    1.065345762949307E-012
 -6.499999999999999E-003    1.574437677890318E-012
 -6.399999999999999E-003    2.048948627324364E-012
 -6.299999999999999E-003    2.452720248416396E-012
 -6.199999999999999E-003    2.749075553165141E-012
 -6.100000000000000E-003    2.903275442126674E-012
 -5.999999999999999E-003    2.885276138415490E-012
 -5.899999999999999E-003    2.672622877049329E-012
 -5.800000000000000E-003    2.253258675304065E-012
 -5.699999999999999E-003    1.627986934786080E-012
 -5.599999999999999E-003    8.123069533245090E-013
 -5.499999999999999E-003   -1.626477932661154E-013
 -5.399999999999999E-003   -1.250298915971082E-012
 -5.299999999999999E-003   -2.390090113348040E-012
 -5.199999999999999E-003   -3.510278982870113E-012
 -5.099999999999999E-003   -4.531972547122630E-012
 -4.999999999999999E-003   -5.374194061554032E-012
 -4.899999999999999E-003   -5.959646603440293E-012
 -4.799999999999999E-003   -6.220735493653455E-012
 -4.699999999999999E-003   -6.105363331343192E-012
 -4.599999999999999E-003   -5.581995510344284E-012
 -4.499999999999999E-003   -4.643539802541599E-012
 -4.399999999999999E-003   -3.309685340548439E-012
 -4.299999999999999E-003   -1.627464950225038E-012
 -4.199999999999999E-003    3.300254498580697E-013
 -4.099999999999999E-003    2.466671362595772E-012
 -3.999999999999999E-003    4.667919962197078E-012
 -3.899999999999999E-003    6.806574387863805E-012
 -3.799999999999999E-003    8.749414657949330E-012
 -3.699999999999999E-003    1.036424838541783E-011
 -3.599999999999999E-003    1.152703561182605E-011
 -3.499999999999999E-003    1.212879243715791E-011
 -3.399999999999999E-003    1.208204319585787E-011
 -3.299999999999999E-003    1.132667708053238E-011
 -3.199999999999999E-003    9.835074946245512E-012
 -3.099999999999999E-003    7.616388476329743E-012
 -2.999999999999999E-003    4.719794906452707E-012
 -2.899999999999999E-003    1.236481873814573E-012
 -2.799999999999999E-003   -2.699980223961280E-012
 -2.699999999999999E-003   -6.915293311928852E-012
 -2.599999999999999E-003   -1.119854617767580E-011
 -2.499999999999999E-003   -1.530917813928011E-011
 -2.399999999999999E-003   -1.898702380651599E-011
 -2.299999999999999E-003   -2.196543353624029E-011
 -2.199999999999999E-003   -2.398712065142039E-011
 -2.099999999999999E-003   -2.482201039059006E-011
 -1.999999999999999E-003   -2.428597320149413E-011
 -1.899999999999999E-003   -2.225897337930877E-011
 -1.799999999999999E-003   -1.870099803525035E-011
 -1.699999999999999E-003   -1.366401899217711E-011
 -1.599999999999999E-003   -7.298446629317328E-012
 -1.499999999999999E-003    1.471429375615367E-013
 -1.399999999999999E-003    8.333643181804902E-012
 -1.299999999999999E-003    1.684641399930930E-011
 -1.199999999999999E-003    2.521687728193299E-011
 -1.099999999999999E-003    3.294926317747237E-011
 -9.999999999999989E-004    3.955051492303795E-011
 -8.999999999999990E-004    4.456098867439169E-011
 -7.999999999999990E-004    4.758352842761791E-011
 -6.999999999999989E-004    4.830866428652823E-011
 -5.999999999999990E-004    4.653418151014696E-011
 -4.999999999999989E-004    4.217790375286419E-011
 -3.999999999999989E-004    3.528332667366124E-011
 -2.999999999999989E-004    2.601845756046544E-011
 -1.999999999999989E-004    1.466879319969679E-011
 -9.999999999999892E-005    1.625817460496799E-012
  1.084202172485504E-018   -1.262756583848154E-011
  1.000000000000011E-004   -2.753330984522106E-011
  2.000000000000011E-004   -4.247532512272848E-011
  3.000000000000011E-004   -5.679702911314265E-011
  4.000000000000011E-004   -6.981950990034426E-011
  5.000000000000011E-004   -8.086097168944533E-011
  6.000000000000011E-004   -8.925836182533824E-011
  7.000000000000011E-004   -9.439193101388253E-011
  8.000000000000011E-004   -9.571326289370676E-011
  9.000000000000012E-004   -9.277645080176901E-011
  1.000000000000001E-003   -8.527125375172436E-011
  1.100000000000001E-003   -7.305619498877315E-011
  1.200000000000001E-003   -5.618871776926019E-011
  1.300000000000001E-003   -3.494894455649134E-011
  1.400000000000001E-003   -9.853576797847720E-012
  1.500000000000001E-003    1.834308184278196E-011
  1.600000000000001E-003    4.866313373085652E-011
  1.700000000000001E-003    7.993477032424108E-011
  1.800000000000001E-003    1.108367756094831E-010
  1.900000000000001E-003    1.399552234824545E-010
  2.000000000000001E-003    1.658483409716790E-010
  2.100000000000001E-003    1.871144856199074E-010
  2.200000000000001E-003    2.024579346441832E-010
  2.300000000000001E-003    2.107472842430977E-010
  2.400000000000001E-003    2.110626290696116E-010
  2.500000000000001E-003    2.027288180905908E-010
  2.600000000000001E-003    1.853346446548672E-010
  2.700000000000001E-003    1.587391150432385E-010
  2.800000000000001E-003    1.230680075542000E-010
  2.900000000000001E-003    7.870492467561833E-011
  3.000000000000001E-003    2.628144076776577E-011
  3.100000000000001E-003   -3.332963217722972E-011
  3.200000000000001E-003   -9.901492116269399E-011
  3.300000000000001E-003   -1.694140010775051E-010
  3.400000000000001E-003   -2.429066993819901E-010
  3.500000000000001E-003   -3.175971534436837E-010
  3.600000000000001E-003   -3.912990589609626E-010
  3.700000000000001E-003   -4.615274138002979E-010
  3.800000000000001E-003   -5.255022552690717E-010
  3.900000000000001E-003   -5.801686442322469E-010
  4.000000000000001E-003   -6.222363268681311E-010
  4.100000000000001E-003   -6.482398059692697E-010
  4.200000000000001E-003   -6.546182897043817E-010
  4.300000000000001E-003   -6.378132314057088E-010
  4.400000000000001E-003   -5.943804465586128E-010
  4.500000000000001E-003   -5.211141741952936E-010
  4.600000000000002E-003   -4.151810216446630E-010
  4.700000000000001E-003   -2.742643657925811E-010
  4.800000000000001E-003   -9.672103922347300E-011
  4.900000000000002E-003    1.182453713092066E-010
  5.000000000000001E-003    3.703894811836170E-010
  5.100000000000001E-003    6.582029605956988E-010
  5.200000000000001E-003    9.786660290158364E-010
  5.300000000000002E-003    1.326972575823540E-009
  5.400000000000001E-003    1.696240625822812E-009
  5.500000000000001E-003    2.077222960850568E-009
  5.600000000000002E-003    2.458046738033630E-009
  5.700000000000001E-003    2.824014307116282E-009
  5.800000000000001E-003    3.157507822137588E-009
  5.900000000000002E-003    3.438042808324631E-009
  6.000000000000001E-003    3.642515654691056E-009
  6.100000000000001E-003    3.745686012435024E-009
  6.200000000000002E-003    3.720927021899659E-009
  6.300000000000002E-003    3.541262477038792E-009
  6.400000000000001E-003    3.180693453717634E-009
  6.500000000000001E-003    2.615796688894024E-009
  6.600000000000002E-003    1.827559370361149E-009
  6.700000000000001E-003    8.033922885388755E-010
  6.800000000000001E-003   -4.607529736551564E-010
  6.900000000000002E-003   -1.958251338108916E-009
  7.000000000000001E-003   -3.669753143217275E-009
  7.100000000000001E-003   -5.561319812955990E-009
  7.200000000000002E-003   -7.582850096545534E-009
  7.300000000000002E-003   -9.666888608169236E-009
  7.400000000000001E-003   -1.172790931491709E-008
  7.500000000000001E-003   -1.366213993111409E-008
  7.600000000000002E-003   -1.534797994712819E-008
  7.700000000000001E-003   -1.664704308052761E-008
  7.800000000000001E-003   -1.740583374005075E-008
  7.900000000000001E-003   -1.745802104347549E-008
  8.000000000000002E-003   -1.662727714197843E-008
  8.100000000000001E-003   -1.473059451419059E-008
  8.200000000000001E-003   -1.158197435800608E-008
  8.300000000000002E-003   -6.996359534959883E-009
  8.400000000000001E-003   -7.936545784839450E-010
  8.500000000000002E-003    7.197340209487642E-009
  8.600000000000002E-003    1.713524770494426E-008
  8.700000000000001E-003    2.916289765176592E-008
  8.800000000000002E-003    4.340473514177055E-008
  8.900000000000002E-003    5.996497732948211E-008
  9.000000000000001E-003    7.892671644288845E-008
  9.100000000000002E-003    1.003519889997754E-007
  9.200000000000002E-003    1.242828463430210E-007
  9.300000000000001E-003    1.507435212819633E-007
  9.400000000000002E-003    1.797434373102892E-007
  9.500000000000001E-003    2.112810696021971E-007
  9.600000000000001E-003    2.453485042905186E-007
  9.700000000000002E-003    2.819363646743139E-007
  9.800000000000001E-003    3.210389701338163E-007
  9.900000000000001E-003    3.626595558997449E-007
  1.000000000000000E-002    4.068151308176174E-007
  1.010000000000000E-002    4.535410190821524E-007
  1.020000000000000E-002    5.028946829891201E-007
  1.030000000000000E-002    5.549588146931478E-007
  1.040000000000000E-002    6.098437083957844E-007
  1.050000000000000E-002    6.676885865468269E-007
  1.060000000000000E-002    7.286622358122542E-007
  1.070000000000000E-002    7.929627847090970E-007
  1.080000000000000E-002    8.608169604389826E-007
  1.090000000000000E-002    9.324784626954261E-007
  1.100000000000000E-002    1.008226038165399E-006
  1.110000000000000E-002    1.088361438313515E-006
  1.120000000000000E-002    1.173207166339718E-006
  1.130000000000000E-002    1.263104191440171E-006
  1.140000000000000E-002    1.358409604421480E-006
  1.150000000000000E-002    1.459495166482451E-006
  1.160000000000000E-002    1.566745687715695E-006
  1.170000000000000E-002    1.680558635236102E-006
  1.180000000000000E-002    1.801343430839180E-006
  1.190000000000000E-002    1.929522472852951E-006
  1.200000000000000E-002    2.065532157274578E-006
  1.210000000000000E-002    2.209824921103515E-006
  1.220000000000000E-002    2.362871765919964E-006
  1.230000000000000E-002    2.525165590682921E-006
  1.240000000000000E-002    2.697224366648792E-006
  1.250000000000000E-002    2.879595115726979E-006
  1.260000000000000E-002    3.072857973476698E-006
  1.270000000000000E-002    3.277629360256920E-006
  1.280000000000000E-002    3.494565197949785E-006
  1.290000000000000E-002    3.724363511701075E-006
  1.300000000000000E-002    3.967766988731804E-006
  1.310000000000000E-002    4.225562299547855E-006
  1.320000000000000E-002    4.498582487346616E-006
  1.330000000000000E-002    4.787704314636340E-006
  1.340000000000000E-002    5.093848899280256E-006
  1.350000000000000E-002    5.417978626918364E-006
  1.360000000000000E-002    5.761096873094249E-006
  1.370000000000000E-002    6.124245057308386E-006
  1.380000000000000E-002    6.508502236847825E-006
  1.390000000000000E-002    6.914984755441115E-006
  1.400000000000000E-002    7.344845578612187E-006
  1.410000000000000E-002    7.799277400777705E-006
  1.420000000000000E-002    8.279513332855799E-006
  1.430000000000000E-002    8.786831689870050E-006
  1.440000000000000E-002    9.322562939701214E-006
  1.450000000000000E-002    9.888092133283911E-006
  1.460000000000000E-002    1.048486979408751E-005
  1.470000000000000E-002    1.111441562086722E-005
  1.480000000000000E-002    1.177833000955583E-005
  1.490000000000000E-002    1.247829805891639E-005
  1.500000000000000E-002    1.321610000716170E-005
  1.510000000000000E-002    1.399361835983999E-005
  1.520000000000000E-002    1.481284290109634E-005
  1.530000000000000E-002    1.567587895410960E-005
  1.540000000000000E-002    1.658494852888813E-005
  1.550000000000000E-002    1.754239627036593E-005
  1.560000000000000E-002    1.855069509394623E-005
  1.570000000000000E-002    1.961244219732191E-005
  1.580000000000000E-002    2.073036751409182E-005
  1.590000000000000E-002    2.190732951863022E-005
  1.600000000000000E-002    2.314631988158627E-005
  1.610000000000000E-002    2.445045847319484E-005
  1.620000000000000E-002    2.582299847795163E-005
  1.630000000000000E-002    2.726732863963906E-005
  1.640000000000000E-002    2.878696753012078E-005
  1.650000000000000E-002    3.038557528297312E-005
  1.660000000000000E-002    3.206694647240324E-005
  1.670000000000000E-002    3.383501782202918E-005
  1.680000000000000E-002    3.569387489086501E-005
  1.690000000000000E-002    3.764775748523333E-005
  1.700000000000000E-002    3.970105842459858E-005
  1.710000000000000E-002    4.185833307282379E-005
  1.720000000000000E-002    4.412431602614980E-005
  1.730000000000000E-002    4.650391250568803E-005
  1.740000000000000E-002    4.900221505320649E-005
  1.750000000000000E-002    5.162451355528935E-005
  1.760000000000000E-002    5.437630225557877E-005
  1.770000000000000E-002    5.726328318738454E-005
  1.780000000000000E-002    6.029138204064267E-005
  1.790000000000000E-002    6.346675790495091E-005
  1.800000000000000E-002    6.679580004166828E-005
  1.810000000000000E-002    7.028515406026655E-005
  1.820000000000000E-002    7.394172546952804E-005
  1.830000000000000E-002    7.777268140680635E-005
  1.840000000000000E-002    8.178548679296686E-005
  1.850000000000000E-002    8.598788534714350E-005
  1.860000000000000E-002    9.038793018497667E-005
  1.870000000000000E-002    9.499398221866192E-005