 -4.000000000000000E-002    0.000000000000000E+000
 -3.990000000000000E-002    0.000000000000000E+000
 -3.980000000000000E-002    0.000000000000000E+000
 -3.970000000000000E-002    0.000000000000000E+000
 -3.960000000000000E-002    0.000000000000000E+000
 -3.950000000000000E-002    0.000000000000000E+000
 -3.940000000000000E-002    0.000000000000000E+000
 -3.930000000000000E-002    0.000000000000000E+000
 -3.920000000000000E-002    0.000000000000000E+000
 -3.910000000000000E-002    0.000000000000000E+000
 -3.900000000000000E-002    0.000000000000000E+000
 -3.890000000000000E-002    0.000000000000000E+000
 -3.880000000000000E-002    0.000000000000000E+000
 -3.870000000000000E-002   -2.090863379752182E-042
 -3.860000000000000E-002   -4.793604577417422E-041
 -3.850000000000000E-002   -5.554895788142331E-040
 -3.840000000000000E-002   -4.307626248528967E-039
 -3.830000000000000E-002   -2.488291902177306E-038
 -3.820000000000000E-002   -1.121971005741083E-037
 -3.810000000000000E-002   -3.973170752750203E-037
 -3.800000000000000E-002   -1.041770825752796E-036
 -3.790000000000000E-002   -1.401874268601925E-036
 -3.780000000000000E-002    4.351390478343271E-036
 -3.770000000000000E-002    4.409890994789647E-035
 -3.760000000000000E-002    2.221151699069747E-034
 -3.750000000000000E-002    8.728911732170075E-034
 -3.740000000000000E-002    2.953150743312571E-033
 -3.730000000000000E-002    8.953847392217893E-033
 -3.720000000000000E-002    2.485242943974778E-032
 -3.710000000000000E-002    6.397248541902700E-032
 -3.700000000000000E-002    1.540296415553260E-031
 -3.690000000000000E-002    3.489469281671967E-031
 -3.680000000000000E-002    7.468127949756487E-031
 -3.670000000000000E-002    1.513857976640031E-030
 -3.660000000000000E-002    2.910292097602588E-030
 -3.650000000000000E-002    5.305533651881700E-030
 -3.640000000000000E-002    9.155810365414665E-030
 -3.630000000000000E-002    1.489473256394152E-029
 -3.620000000000000E-002    2.265745537829522E-029
 -3.610000000000000E-002    3.172546334283503E-029
 -3.600000000000000E-002    3.955248940577970E-029
 -3.590000000000000E-002    4.023308235582131E-029
 -3.580000000000000E-002    2.233652541272314E-029
 -3.570000000000000E-002   -3.380507678579334E-029
 -3.560000000000000E-002   -1.589424059865443E-028
 -3.550000000000000E-002   -3.969485121817850E-028
 -3.540000000000000E-002   -8.043603260290962E-028
 -3.530000000000000E-002   -1.444796122452372E-027
 -3.520000000000000E-002   -2.374650835925834E-027
 -3.510000000000000E-002   -3.615754936016992E-027
 -3.500000000000000E-002   -5.110702337420445E-027
 -3.490000000000000E-002   -6.657957853384687E-027
 -3.480000000000000E-002   -7.827432469239799E-027
 -3.470000000000000E-002   -7.863725999159923E-027
 -3.460000000000000E-002   -5.594155890946123E-027
 -3.450000000000000E-002    6.281199852767828E-028
 -3.440000000000000E-002    1.290042278582246E-026
 -3.430000000000000E-002    3.360638939986931E-026
 -3.420000000000000E-002    6.504247861862733E-026
 -3.410000000000000E-002    1.087691783939482E-025
 -3.400000000000000E-002    1.646437419324851E-025
 -3.390000000000000E-002    2.295417950684476E-025
 -3.380000000000000E-002    2.958589372914660E-025
 -3.370000000000000E-002    3.500017406643937E-025
 -3.360000000000000E-002    3.712214567448815E-025
 -3.350000000000000E-002    3.312933439276312E-025
 -3.340000000000000E-002    1.956636827833188E-025
 -3.330000000000000E-002   -7.327439126397397E-026
 -3.320000000000000E-002   -5.102175498519260E-025
 -3.310000000000000E-002   -1.138051269147151E-024
 -3.300000000000000E-002   -1.956320906145184E-024
 -3.290000000000000E-002   -2.928213597492612E-024
 -3.280000000000000E-002   -3.968239266697017E-024
 -3.270000000000000E-002   -4.933928768681293E-024
 -3.260000000000000E-002   -5.625852789621596E-024
 -3.250000000000000E-002   -5.800752084612433E-024
 -3.240000000000000E-002   -5.202136828522214E-024
 -3.230000000000000E-002   -3.610915727914321E-024
 -3.220000000000000E-002   -9.150618017518215E-025
 -3.210000000000000E-002    2.808123035725106E-024
 -3.200000000000000E-002    7.210761745779945E-024
 -3.190000000000000E-002    1.161592010310042E-023
 -3.180000000000000E-002    1.501137300416172E-023
 -3.170000000000000E-002    1.613027293058103E-023
 -3.160000000000000E-002    1.365331939799204E-023
 -3.150000000000000E-002    6.558761821663871E-024
 -3.140000000000000E-002   -5.372946600724123E-024
 -3.130000000000000E-002   -2.092550371849320E-023
 -3.120000000000000E-002   -3.675542624633887E-023
 -3.110000000000000E-002   -4.677054561761302E-023
 -3.100000000000000E-002   -4.176577748422815E-023
 -3.090000000000000E-002   -9.557432364631436E-024
 -3.080000000000000E-002    6.411073846706907E-023
 -3.070000000000000E-002    1.936233232670330E-022
 -3.060000000000000E-002    3.903101327059350E-022
 -3.050000000000000E-002    6.579629516683434E-022
 -3.040000000000000E-002    9.872171992602289E-022
 -3.030000000000000E-002    1.349271465410931E-021
 -3.020000000000000E-002    1.689793218881395E-021
 -3.010000000000000E-002    1.924260837101572E-021
 -3.000000000000000E-002    1.936357491925969E-021
 -2.990000000000000E-002    1.581284082158634E-021
 -2.980000000000000E-002    6.958916048940853E-022
 -2.970000000000000E-002   -8.827480167412219E-022
 -2.960000000000000E-002   -3.289399839893130E-021
 -2.950000000000000E-002   -6.593576300922833E-021
 -2.940000000000000E-002   -1.075512856408845E-020
 -2.930000000000000E-002   -1.557635633125204E-020
 -2.920000000000000E-002   -2.065667179778366E-020
 -2.910000000000000E-002   -2.535800690758353E-020
 -2.900000000000000E-002   -2.879088661212029E-020
 -2.890000000000000E-002   -2.983191236392260E-020
 -2.880000000000000E-002   -2.718297664929088E-020
 -2.870000000000000E-002   -1.948028509367436E-020
 -2.860000000000000E-002   -5.457146208260079E-021
 -2.850000000000000E-002    1.584190689179625E-020
 -2.840000000000000E-002    4.480613861243792E-020
 -2.830000000000000E-002    8.098272322799662E-020
 -2.820000000000000E-002    1.228096421961254E-019
 -2.810000000000000E-002    1.673958999101152E-019
 -2.800000000000000E-002    2.103938065037892E-019
 -2.790000000000000E-002    2.460104553010114E-019
 -2.780000000000000E-002    2.672019813725546E-019
 -2.770000000000000E-002    2.660840764600657E-019
 -2.760000000000000E-002    2.345748077420868E-019
 -2.750000000000000E-002    1.652620773137553E-019
 -2.740000000000000E-002    5.245757773858039E-020
 -2.730000000000000E-002   -1.066321851653166E-019
 -2.720000000000000E-002   -3.107198639004022E-019
 -2.710000000000000E-002   -5.533648827421690E-019
 -2.700000000000000E-002   -8.221607314219705E-019
 -2.690000000000000E-002   -1.098333530084234E-018
 -2.680000000000000E-002   -1.356889593834794E-018
 -2.670000000000000E-002   -1.567421477438109E-018
 -2.660000000000000E-002   -1.695632727195288E-018
 -2.650000000000000E-002   -1.705581946177633E-018
 -2.640000000000000E-002   -1.562572751261130E-018
 -2.630000000000000E-002   -1.236545890941329E-018
 -2.620000000000000E-002   -7.057612067248087E-019
 -2.610000000000000E-002    3.949409049253637E-020
 -2.600000000000000E-002    9.934661506311084E-019
 -2.590000000000000E-002    2.132063446524602E-018
 -2.580000000000000E-002    3.410833646552928E-018
 -2.570000000000000E-002    4.764021158969398E-018
 -2.560000000000000E-002    6.104880277638181E-018
 -2.550000000000000E-002    7.327358029011377E-018
 -2.540000000000000E-002    8.309192308861544E-018
 -2.530000000000000E-002    8.916450442425257E-018
 -2.520000000000000E-002    9.009490485828344E-018
 -2.510000000000000E-002    8.450366298986618E-018
 -2.500000000000000E-002    7.111692514472265E-018
 -2.490000000000000E-002    4.887021102015839E-018
 -2.480000000000000E-002    1.702757120874891E-018
 -2.470000000000000E-002   -2.468428031628541E-018
 -2.460000000000000E-002   -7.592907703674659E-018
 -2.450000000000000E-002   -1.356063100393143E-017
 -2.440000000000000E-002   -2.016980360858123E-017
 -2.430000000000000E-002   -2.711315152449995E-017
 -2.420000000000000E-002   -3.396781013550095E-017
 -2.410000000000000E-002   -4.019142518073440E-017
 -2.400000000000000E-002   -4.512752828096109E-017
 -2.390000000000000E-002   -4.802341892921096E-017
 -2.380000000000000E-002   -4.806357956815608E-017
 -2.370000000000000E-002   -4.442096520396473E-017
 -2.360000000000000E-002   -3.632713411018405E-017
 -2.350000000000000E-002   -2.316025506813552E-017
 -2.340000000000000E-002   -4.547518426110803E-018
 -2.330000000000000E-002    1.952448254439922E-017
 -2.320000000000000E-002    4.860084203356166E-017
 -2.310000000000000E-002    8.166319962909273E-017
 -2.300000000000000E-002    1.170627170446357E-016
 -2.290000000000000E-002    1.524965680336717E-016
 -2.280000000000000E-002    1.850426369443958E-016
 -2.270000000000000E-002    2.112645607465616E-016
 -2.260000000000000E-002    2.273946352876876E-016
 -2.250000000000000E-002    2.295952598771376E-016
 -2.240000000000000E-002    2.142912739185530E-016
 -2.230000000000000E-002    1.785561421932549E-016
 -2.220000000000000E-002    1.205248635677226E-016
 -2.210000000000000E-002    3.979850615336729E-017
 -2.200000000000000E-002   -6.220202486034534E-017
 -2.190000000000000E-002   -1.819778833060408E-016
 -2.180000000000000E-002   -3.138338652617381E-016
 -2.170000000000000E-002   -4.499372654625768E-016
 -2.160000000000000E-002   -5.805799069685495E-016
 -2.150000000000000E-002   -6.946535938817796E-016
 -2.140000000000000E-002   -7.803284534445612E-016
 -2.130000000000000E-002   -8.259029722932177E-016
 -2.120000000000000E-002   -8.207718900246294E-016
 -2.110000000000000E-002   -7.564401019249998E-016
 -2.100000000000000E-002   -6.274976508309428E-016
 -2.090000000000000E-002   -4.324635378790112E-016
 -2.080000000000000E-002   -1.744114131164384E-016
 -2.070000000000000E-002    1.386990847474542E-016
 -2.060000000000000E-002    4.940382301638114E-016
 -2.050000000000000E-002    8.742931688119218E-016
 -2.040000000000000E-002    1.258415963229898E-015
 -2.030000000000000E-002    1.622687846167691E-015
 -2.020000000000000E-002    1.942022669627954E-015
 -2.010000000000000E-002    2.191410042894558E-015
 -2.000000000000000E-002    2.347385676636268E-015
 -1.990000000000000E-002    2.389416377783352E-015
 -1.980000000000000E-002    2.301104219387807E-015
 -1.970000000000000E-002    2.071142719763275E-015
 -1.960000000000000E-002    1.693993910359541E-015
 -1.950000000000000E-002    1.170298368326215E-015
 -1.940000000000000E-002    5.070704092555951E-016
 -1.930000000000000E-002   -2.822414813126362E-016
 -1.920000000000000E-002   -1.177734892354877E-015
 -1.910000000000000E-002   -2.152987657664035E-015
 -1.900000000000000E-002   -3.174892128751074E-015
 -1.890000000000000E-002   -4.203389846386944E-015
 -1.880000000000000E-002   -5.191179283969773E-015
 -1.870000000000000E-002   -6.083547143747481E-015
 -1.860000000000000E-002   -6.818553253593025E-015
 -1.850000000000000E-002   -7.327851933657548E-015
 -1.840000000000000E-002   -7.538458889012577E-015
 -1.830000000000000E-002   -7.375755525201095E-015
 -1.820000000000000E-002   -6.767928759326960E-015
 -1.810000000000000E-002   -5.651928862769986E-015
 -1.800000000000000E-002   -3.980825731998301E-015
 -1.790000000000000E-002   -1.732219202550021E-015
 -1.780000000000000E-002    1.082885995341503E-015
 -1.770000000000000E-002    4.411566916791010E-015
 -1.760000000000000E-002    8.151848107523542E-015
 -1.750000000000000E-002    1.214807594669833E-014
 -1.740000000000000E-002    1.618993902008864E-014
 -1.730000000000000E-002    2.001614898055505E-014
 -1.720000000000000E-002    2.332351180345001E-014
 -1.710000000000000E-002    2.578175058132899E-014
 -1.700000000000000E-002    2.705387710609000E-014
 -1.690000000000000E-002    2.682135112477827E-014
 -1.680000000000000E-002    2.481261459745371E-014
 -1.670000000000000E-002    2.083306863949440E-014
 -1.660000000000000E-002    1.479400487810915E-014
 -1.650000000000000E-002    6.737827597752208E-015
 -1.640000000000000E-002   -3.143242938348060E-015
 -1.630000000000000E-002   -1.449751635314874E-014
 -1.620000000000000E-002   -2.681530932047635E-014
 -1.610000000000000E-002   -3.944284164707834E-014
 -1.600000000000000E-002   -5.160893135285857E-014
 -1.590000000000000E-002   -6.246371403897485E-014
 -1.580000000000000E-002   -7.112758761309888E-014
 -1.570000000000000E-002   -7.674746165602449E-014
 -1.560000000000000E-002   -7.855661110397900E-014
 -1.550000000000000E-002   -7.593390969804858E-014
 -1.540000000000000E-002   -6.845801438228402E-014
 -1.530000000000000E-002   -5.595232838103123E-014
 -1.520000000000000E-002   -3.851722752522655E-014
 -1.510000000000000E-002   -1.654695014838832E-014
 -1.500000000000000E-002    9.270147050350120E-015
 -1.490000000000000E-002    3.796804684690574E-014
 -1.480000000000000E-002    6.833496168136703E-014
 -1.470000000000000E-002    9.895836009248987E-014
 -1.460000000000000E-002    1.282800524841527E-013
 -1.450000000000000E-002    1.546579152992938E-013
 -1.440000000000000E-002    1.764310134701690E-013
 -1.430000000000000E-002    1.919854738536030E-013
 -1.420000000000000E-002    1.998191819392536E-013
 -1.410000000000000E-002    1.986046258068595E-013
 -1.400000000000000E-002    1.872502164783042E-013
 -1.390000000000000E-002    1.649610761636145E-013
 -1.380000000000000E-002    1.313006537615546E-013
 -1.370000000000000E-002    8.625439834703338E-014
 -1.360000000000000E-002    3.029533420447666E-014
 -1.350000000000000E-002   -3.554993383965162E-014
 -1.340000000000000E-002   -1.096388351370132E-013
 -1.330000000000000E-002   -1.896605352196675E-013
 -1.320000000000000E-002   -2.726027877467075E-013
 -1.310000000000000E-002   -3.547491346679566E-013
 -1.300000000000000E-002   -4.317186788525436E-013
 -1.290000000000000E-002   -4.985606952472165E-013
 -1.280000000000000E-002   -5.499141286121846E-013
 -1.270000000000000E-002   -5.802388434969638E-013
 -1.260000000000000E-002   -5.841197106249901E-013
 -1.250000000000000E-002   -5.566372029673882E-013
 -1.240000000000000E-002   -4.937909531285557E-013
 -1.230000000000000E-002   -3.929531681000116E-013
 -1.220000000000000E-002   -2.533212764659590E-013
 -1.210000000000000E-002   -7.633226155699694E-014
 -1.200000000000000E-002    1.340028013004444E-013
 -1.190000000000000E-002    3.708870021616951E-013
 -1.180000000000000E-002    6.246884357950674E-013
 -1.170000000000000E-002    8.830869582176404E-013
 -1.160000000000000E-002    1.131438731962909E-012
 -1.150000000000000E-002    1.353365922205371E-012
 -1.140000000000000E-002    1.531561999563607E-012
 -1.130000000000000E-002    1.648783726496920E-012
 -1.120000000000000E-002    1.688983269703343E-012
 -1.110000000000000E-002    1.638515773577443E-012
 -1.100000000000000E-002    1.487346013517923E-012
 -1.090000000000000E-002    1.230167657601645E-012
 -1.080000000000000E-002    8.673479384749111E-013
 -1.070000000000000E-002    4.056140092812110E-013
 -1.060000000000000E-002   -1.415916631377327E-013
 -1.050000000000000E-002   -7.541415322827909E-013
 -1.040000000000000E-002   -1.405670749359260E-012
 -1.030000000000000E-002   -2.064449763339525E-012
 -1.020000000000000E-002   -2.694658565663885E-012
 -1.010000000000000E-002   -3.258016020826802E-012
 -1.000000000000000E-002   -3.715689683597293E-012
 -9.899999999999999E-003   -4.030393668140240E-012
 -9.800000000000000E-003   -4.168568690521214E-012
 -9.699999999999999E-003   -4.102527616467526E-012
 -9.599999999999999E-003   -3.812455127168683E-012
 -9.500000000000000E-003   -3.288152644681353E-012
 -9.399999999999999E-003   -2.530431192319047E-012
 -9.299999999999999E-003   -1.552073146572289E-012
 -9.200000000000000E-003   -3.783019297297109E-013
 -9.099999999999999E-003    9.532862537796270E-013
 -8.999999999999999E-003    2.393348278223039E-012
 -8.900000000000000E-003    3.881986982434501E-012
 -8.799999999999999E-003    5.350500540995743E-012
 -8.699999999999999E-003    6.723667362520082E-012
 -8.600000000000000E-003    7.922525778814586E-012
 -8.499999999999999E-003    8.867602135980057E-012
 -8.399999999999999E-003    9.482517180600450E-012
 -8.300000000000000E-003    9.697884449597418E-012
 -8.199999999999999E-003    9.455389427200650E-012
 -8.100000000000000E-003    8.711912686989309E-012
 -8.000000000000000E-003    7.443520314551702E-012
 -7.899999999999999E-003    5.649128530612953E-012
 -7.800000000000000E-003    3.353602438748925E-012
 -7.699999999999999E-003    6.100355653217198E-013
 -7.599999999999999E-003   -2.499051212019162E-012
 -7.499999999999999E-003   -5.861858311115431E-012
 -7.399999999999999E-003   -9.339032220475121E-012
 -7.299999999999999E-003   -1.276714820939717E-011
 -7.199999999999999E-003   -1.596405015755066E-011
 -7.100000000000000E-003   -1.873605721915512E-011
 -6.999999999999999E-003   -2.088689297380339E-011
 -6.899999999999999E-003   -2.222809141435889E-011
 -6.800000000000000E-003   -2.259045061050065E-011
 -6.699999999999999E-003   -2.183599506843191E-011
 -6.599999999999999E-003   -1.986975841991810E-011
 -6.499999999999999E-003   -1.665063591658128E-011
 -6.399999999999999E-003   -1.220047507925210E-011
 -6.299999999999999E-003   -6.610622252611058E-012
 -6.199999999999999E-003   -4.515993249271037E-014
 -6.100000000000000E-003    7.259765810555075E-012
 -5.999999999999999E-003    1.500095657224308E-011
 -5.899999999999999E-003    2.281769426557911E-011
 -5.800000000000000E-003    3.030570767966610E-011
 -5.699999999999999E-003    3.703518220110626E-011
 -5.599999999999999E-003    4.257211855886034E-011
 -5.499999999999999E-003    4.650207577773870E-011
 -5.399999999999999E-003    4.845508613028003E-011
 -5.299999999999999E-003    4.813036421242034E-011
 -5.199999999999999E-003    4.531933255752630E-011
 -5.099999999999999E-003    3.992548293886949E-011
 -4.999999999999999E-003    3.197969826329949E-011
 -4.899999999999999E-003    2.164977437815268E-011
 -4.799999999999999E-003    9.243266568500006E-012
 -4.699999999999999E-003   -4.797045061854932E-012
 -4.599999999999999E-003   -1.990522262773699E-011
 -4.499999999999999E-003   -3.541166074952196E-011
 -4.399999999999999E-003   -5.056939627619867E-011
 -4.299999999999999E-003   -6.458627797573828E-011
 -4.199999999999999E-003   -7.666169683620749E-011
 -4.099999999999999E-003   -8.602627631909217E-011
 -3.999999999999999E-003   -9.198274555472106E-011
 -3.899999999999999E-003   -9.394608276522611E-011
 -3.799999999999999E-003   -9.148090962310182E-011
 -3.699999999999999E-003   -8.433433000276890E-011
 -3.599999999999999E-003   -7.246229058976533E-011
 -3.499999999999999E-003   -5.604793491798507E-011
 -3.399999999999999E-003   -3.551062303283181E-011
 -3.299999999999999E-003   -1.150448863238035E-011
 -3.199999999999999E-003    1.509404663602907E-011
 -3.099999999999999E-003    4.321013604383012E-011
 -2.999999999999999E-003    7.160555696314420E-011
 -2.899999999999999E-003    9.892430615591473E-011
 -2.799999999999999E-003    1.237476527023881E-010
 -2.699999999999999E-003    1.446569593194666E-010
 -2.599999999999999E-003    1.603021334773476E-010
 -2.499999999999999E-003    1.694731720655314E-010
 -2.399999999999999E-003    1.711715788133396E-010
 -2.299999999999999E-003    1.646784121329819E-010
 -2.199999999999999E-003    1.496151287827107E-010
 -2.099999999999999E-003    1.259936387972348E-010
 -1.999999999999999E-003    9.425170531908743E-011
 -1.899999999999999E-003    5.527042040204384E-011
 -1.799999999999999E-003    1.037093483923970E-011
 -1.699999999999999E-003   -3.871171975812352E-011
 -1.599999999999999E-003   -8.987875970092755E-011
 -1.499999999999999E-003   -1.407415704103590E-010
 -1.399999999999999E-003   -1.887180477256828E-010
 -1.299999999999999E-003   -2.311483399645975E-010
 -1.199999999999999E-003   -2.654257345174720E-010
 -1.099999999999999E-003   -2.891370895503337E-010
 -9.999999999999989E-004   -3.002058772175922E-010
 -8.999999999999990E-004   -2.970302959393746E-010
 -7.999999999999990E-004   -2.786084743921269E-010
 -6.999999999999989E-004   -2.446423317427885E-010
 -5.999999999999990E-004   -1.956129561718405E-010
 -4.999999999999989E-004   -1.328204254108341E-010
 -3.999999999999989E-004   -5.838339473018729E-011
 -2.999999999999989E-004    2.480529261786847E-011
 -1.999999999999989E-004    1.131675101814047E-010
 -9.999999999999892E-005    2.025720884091019E-010
  1.084202172485504E-018    2.885063287335092E-010
  1.000000000000011E-004    3.662803150638976E-010
  2.000000000000011E-004    4.312555115097236E-010
  3.000000000000011E-004    4.790869891734283E-010
  4.000000000000011E-004    5.059675307332421E-010
  5.000000000000011E-004    5.088611225920125E-010
  6.000000000000011E-004    4.857128978707725E-010
  7.000000000000011E-004    4.356239615883204E-010
  8.000000000000011E-004    3.589797664785859E-010
  9.000000000000012E-004    2.575232958206303E-010
  1.000000000000001E-003    1.343667916114802E-010
  1.100000000000001E-003   -6.062387349256264E-012
  1.200000000000001E-003   -1.581422335760991E-010
  1.300000000000001E-003   -3.152406383782611E-010
  1.400000000000001E-003   -4.699589583766382E-010
  1.500000000000001E-003   -6.144262375280299E-010
  1.600000000000001E-003   -7.406335465157021E-010
  1.700000000000001E-003   -8.407958505437820E-010
  1.800000000000001E-003   -9.077265628473467E-010
  1.900000000000001E-003   -9.352098932692523E-010
  2.000000000000001E-003   -9.183548239374864E-010
  2.100000000000001E-003   -8.539149643701019E-010
  2.200000000000001E-003   -7.405591054960920E-010
  2.300000000000001E-003   -5.790783525819899E-010
  2.400000000000001E-003   -3.725187071695677E-010
  2.500000000000001E-003   -1.262277401912714E-010
  2.600000000000001E-003    1.521909831191038E-010
  2.700000000000001E-003    4.530200141574008E-010
  2.800000000000001E-003    7.646677130723771E-010
  2.900000000000001E-003    1.074002744403415E-009
  3.000000000000001E-003    1.366776741763255E-009
  3.100000000000001E-003    1.628124992428198E-009
  3.200000000000001E-003    1.843131200838894E-009
  3.300000000000001E-003    1.997438545135353E-009
  3.400000000000001E-003    2.077886634002991E-009
  3.500000000000001E-003    2.073151341152937E-009
  3.600000000000001E-003    1.974362140663305E-009
  3.700000000000001E-003    1.775671044525964E-009
  3.800000000000001E-003    1.474747982946955E-009
  3.900000000000001E-003    1.073176377620125E-009
  4.000000000000001E-003    5.767278985310554E-010
  4.100000000000001E-003   -4.503140381794337E-012
  4.200000000000001E-003   -6.561208967454451E-010
  4.300000000000001E-003   -1.359612698882921E-009
  4.400000000000001E-003   -2.092701592817740E-009
  4.500000000000001E-003   -2.829862712593199E-009
  4.600000000000002E-003   -3.542993391561384E-009
  4.700000000000001E-003   -4.202222808510784E-009
  4.800000000000001E-003   -4.776835916412337E-009
  4.900000000000002E-003   -5.236289040212366E-009
  5.000000000000001E-003   -5.551283001348267E-009
  5.100000000000001E-003   -5.694863781870714E-009
  5.200000000000001E-003   -5.643514952922998E-009
  5.300000000000002E-003   -5.378208226137064E-009
  5.400000000000001E-003   -4.885381618366037E-009
  5.500000000000001E-003   -4.157812621174799E-009
  5.600000000000002E-003   -3.195364031947359E-009
  5.700000000000001E-003   -2.005574845128991E-009
  5.800000000000001E-003   -6.040835857972771E-010
  5.900000000000002E-003    9.851350281491352E-010
  6.000000000000001E-003    2.729728050734493E-009
  6.100000000000001E-003    4.589127587187363E-009
  6.200000000000002E-003    6.514921601210886E-009
  6.300000000000002E-003    8.451437766198884E-009
  6.400000000000001E-003    1.033654629996144E-008
  6.500000000000001E-003    1.210267641441861E-008
  6.600000000000002E-003    1.367805434048639E-008
  6.700000000000001E-003    1.498815822792333E-008
  6.800000000000001E-003    1.595739418159068E-008
  6.900000000000002E-003    1.651098069468560E-008
  7.000000000000001E-003    1.657704048444999E-008
  7.100000000000001E-003    1.608888498244884E-008
  7.200000000000002E-003    1.498747370528716E-008
  7.300000000000002E-003    1.322401836524182E-008
  7.400000000000001E-003    1.076270059634360E-008
  7.500000000000001E-003    7.583460456736868E-009
  7.600000000000002E-003    3.684798775665422E-009
  7.700000000000001E-003   -9.134599731891555E-010
  7.800000000000001E-003   -6.167515643171687E-009
  7.900000000000001E-003   -1.200713310762176E-008
  8.000000000000002E-003   -1.833343514813788E-008
  8.100000000000001E-003   -2.501704598510711E-008
  8.200000000000001E-003   -3.189664391130848E-008
  8.300000000000002E-003   -3.877800815024770E-008
  8.400000000000001E-003   -4.543362892718839E-008
  8.500000000000002E-003   -5.160291061312561E-008
  8.600000000000002E-003   -5.699303625020050E-008
  8.700000000000001E-003   -6.128052029684967E-008
  8.800000000000002E-003   -6.411341559069138E-008
  8.900000000000002E-003   -6.511423740123287E-008
  9.000000000000001E-003   -6.388350413146133E-008
  9.100000000000002E-003   -6.000389354278319E-008
  9.200000000000002E-003   -5.304491743646265E-008
  9.300000000000001E-003   -4.256806855318296E-008
  9.400000000000002E-003   -2.813227199651807E-008
  9.500000000000001E-003   -9.299587121512446E-009
  9.600000000000001E-003    1.435904312705593E-008
  9.700000000000002E-003    4.325804996616398E-008
  9.800000000000001E-003    7.779178248492822E-008
  9.900000000000001E-003    1.183294393464299E-007
  1.000000000000000E-002    1.652104464415059E-007
  1.010000000000000E-002    2.187406661783356E-007
  1.020000000000000E-002    2.791894320089760E-007
  1.030000000000000E-002    3.467876025867900E-007
  1.040000000000000E-002    4.217267046190459E-007
  1.050000000000000E-002    5.041593329581393E-007
  1.060000000000000E-002    5.942009402116400E-007
  1.070000000000000E-002    6.919328533565631E-007
  1.080000000000000E-002    7.974066425918864E-007
  1.090000000000000E-002    9.106500204891726E-007
  1.100000000000000E-002    1.031673573079734E-006
  1.110000000000000E-002    1.160479200502035E-006
  1.120000000000000E-002    1.297068577677667E-006
  1.130000000000000E-002    1.441453483300709E-006
  1.140000000000000E-002    1.593665707028633E-006
  1.150000000000000E-002    1.753768063242270E-006
  1.160000000000000E-002    1.921864430528587E-006
  1.170000000000000E-002    2.098110439428049E-006
  1.180000000000000E-002    2.282723370418032E-006
  1.190000000000000E-002    2.475990831125111E-006
  1.200000000000000E-002    2.678279063932552E-006
  1.210000000000000E-002    2.890039594061637E-006
  1.220000000000000E-002    3.111814759157014E-006
  1.230000000000000E-002    3.344242016910342E-006
  1.240000000000000E-002    3.588056213904174E-006
  1.250000000000000E-002    3.844090568554496E-006
  1.260000000000000E-002    4.113276667778518E-006
  1.270000000000000E-002    4.396642013756665E-006
  1.280000000000000E-002    4.695308786849659E-006
  1.290000000000000E-002    5.010487740307023E-006
  1.300000000000000E-002    5.343475207464020E-006
  1.310000000000000E-002    5.695647419772700E-006
  1.320000000000000E-002    6.068454786923010E-006
  1.330000000000000E-002    6.463416714876498E-006
  1.340000000000000E-002    6.882116259506371E-006
  1.350000000000000E-002    7.326195981552746E-006
  1.360000000000000E-002    7.797352845760959E-006
  1.370000000000000E-002    8.297335299730279E-006
  1.380000000000000E-002    8.827943883932935E-006
  1.390000000000000E-002    9.391026258853353E-006
  1.400000000000000E-002    9.988482708373744E-006
  1.410000000000000E-002    1.062226446473485E-005
  1.420000000000000E-002    1.129438077988729E-005
  1.430000000000000E-002    1.200690184644104E-005
  1.440000000000000E-002    1.276196591192597E-005
  1.450000000000000E-002    1.356178717270529E-005
  1.460000000000000E-002    1.440866714742991E-005
  1.470000000000000E-002    1.530500175414524E-005
  1.480000000000000E-002    1.625329394020969E-005
  1.490000000000000E-002    1.725616175599123E-005
  1.500000000000000E-002    1.831635601777217E-005
  1.510000000000000E-002    1.943676630078463E-005
  1.520000000000000E-002    2.062043338075835E-005
  1.530000000000000E-002    2.187056346257997E-005
  1.540000000000000E-002    2.319053207935954E-005
  1.550000000000000E-002    2.458389913110332E-005
  1.560000000000000E-002    2.605441326730001E-005
  1.570000000000000E-002    2.760602078271130E-005
  1.580000000000000E-002    2.924286868251139E-005
  1.590000000000000E-002    3.096931278012204E-005
  1.600000000000000E-002    3.278992544240801E-005
  1.610000000000000E-002    3.470948348395661E-005
  1.620000000000000E-002    3.673299167105235E-005
  1.630000000000000E-002    3.886567057348151E-005
  1.640000000000000E-002    4.111297163676761E-005
  1.650000000000000E-002    4.348057150240813E-005
  1.660000000000000E-002    4.597437958590943E-005
  1.670000000000000E-002    4.860054759799337E-005
  1.680000000000000E-002    5.136547289040014E-005
  1.690000000000000E-002    5.427581112365149E-005
  1.700000000000000E-002    5.733848249830472E-005
  1.710000000000000E-002    6.056069294874280E-005
  1.720000000000000E-002    6.394993594296105E-005
  1.730000000000000E-002    6.751402722830287E-005
  1.740000000000000E-002    7.126109772040991E-005
  1.750000000000000E-002    7.519964050689319E-005
  1.760000000000000E-002    7.933850266612744E-005
  1.770000000000000E-002    8.368692491964917E-005
  1.780000000000000E-002    8.825455951411601E-005
  1.790000000000000E-002    9.305148101871854E-005
  1.800000000000000E-002    9.808820842794293E-005
  1.810000000000000E-002    1.033757311602290E-004
  1.820000000000000E-002    1.089255221852926E-004
  1.830000000000000E-002    1.147495490327466E-004
  1.840000000000000E-002    1.208602961582557E-004
  1.850000000000000E-002    1.272707828571376E-004
  1.860000000000000E-002    1.339945566284793E-004
  1.870000000000000E-002    1.410457268643313E-004