 -4.000000000000000E-002    0.000000000000000E+000
 -3.990000000000000E-002    0.000000000000000E+000
 -3.980000000000000E-002    0.000000000000000E+000
 -3.970000000000000E-002    0.000000000000000E+000
 -3.960000000000000E-002    0.000000000000000E+000
 -3.950000000000000E-002    0.000000000000000E+000
 -3.940000000000000E-002    0.000000000000000E+000
 -3.930000000000000E-002    0.000000000000000E+000
 -3.920000000000000E-002    0.000000000000000E+000
 -3.910000000000000E-002    0.000000000000000E+000
 -3.900000000000000E-002    0.000000000000000E+000
 -3.890000000000000E-002    0.000000000000000E+000
 -3.880000000000000E-002    0.000000000000000E+000
 -3.870000000000000E-002    0.000000000000000E+000
 -3.860000000000000E-002    0.000000000000000E+000
 -3.850000000000000E-002    0.000000000000000E+000
 -3.840000000000000E-002    0.000000000000000E+000
 -3.830000000000000E-002    0.000000000000000E+000
 -3.820000000000000E-002    0.000000000000000E+000
 -3.810000000000000E-002    0.000000000000000E+000
 -3.800000000000000E-002    0.000000000000000E+000
 -3.790000000000000E-002    0.000000000000000E+000
 -3.780000000000000E-002    0.000000000000000E+000
 -3.770000000000000E-002    0.000000000000000E+000
 -3.760000000000000E-002    0.000000000000000E+000
 -3.750000000000000E-002    0.000000000000000E+000
 -3.740000000000000E-002    0.000000000000000E+000
 -3.730000000000000E-002    0.000000000000000E+000
 -3.720000000000000E-002    0.000000000000000E+000
 -3.710000000000000E-002    0.000000000000000E+000
 -3.700000000000000E-002    0.000000000000000E+000
 -3.690000000000000E-002    0.000000000000000E+000
 -3.680000000000000E-002    0.000000000000000E+000
 -3.670000000000000E-002    0.000000000000000E+000
 -3.660000000000000E-002    0.000000000000000E+000
 -3.650000000000000E-002    0.000000000000000E+000
 -3.640000000000000E-002    0.000000000000000E+000
 -3.630000000000000E-002    0.000000000000000E+000
 -3.620000000000000E-002    0.000000000000000E+000
 -3.610000000000000E-002    0.000000000000000E+000
 -3.600000000000000E-002    0.000000000000000E+000
 -3.590000000000000E-002    0.000000000000000E+000
 -3.580000000000000E-002    0.000000000000000E+000
 -3.570000000000000E-002    0.000000000000000E+000
 -3.560000000000000E-002    0.000000000000000E+000
 -3.550000000000000E-002    0.000000000000000E+000
 -3.540000000000000E-002    0.000000000000000E+000
 -3.530000000000000E-002    0.000000000000000E+000
 -3.520000000000000E-002    0.000000000000000E+000
 -3.510000000000000E-002    0.000000000000000E+000
 -3.500000000000000E-002    0.000000000000000E+000
 -3.490000000000000E-002    0.000000000000000E+000
 -3.480000000000000E-002    0.000000000000000E+000
 -3.470000000000000E-002    0.000000000000000E+000
 -3.460000000000000E-002    0.000000000000000E+000
 -3.450000000000000E-002    0.000000000000000E+000
 -3.440000000000000E-002    0.000000000000000E+000
 -3.430000000000000E-002    0.000000000000000E+000
 -3.420000000000000E-002    0.000000000000000E+000
 -3.410000000000000E-002    0.000000000000000E+000
 -3.400000000000000E-002    0.000000000000000E+000
 -3.390000000000000E-002    0.000000000000000E+000
 -3.380000000000000E-002    0.000000000000000E+000
 -3.370000000000000E-002    0.000000000000000E+000
 -3.360000000000000E-002    0.000000000000000E+000
 -3.350000000000000E-002    0.000000000000000E+000
 -3.340000000000000E-002    0.000000000000000E+000
 -3.330000000000000E-002    0.000000000000000E+000
 -3.320000000000000E-002    0.000000000000000E+000
 -3.310000000000000E-002    0.000000000000000E+000
 -3.300000000000000E-002    0.000000000000000E+000
 -3.290000000000000E-002    0.000000000000000E+000
 -3.280000000000000E-002    0.000000000000000E+000
 -3.270000000000000E-002    0.000000000000000E+000
 -3.260000000000000E-002    0.000000000000000E+000
 -3.250000000000000E-002    0.000000000000000E+000
 -3.240000000000000E-002    0.000000000000000E+000
 -3.230000000000000E-002    0.000000000000000E+000
 -3.220000000000000E-002    0.000000000000000E+000
 -3.210000000000000E-002    0.000000000000000E+000
 -3.200000000000000E-002    0.000000000000000E+000
 -3.190000000000000E-002    0.000000000000000E+000
 -3.180000000000000E-002    0.000000000000000E+000
 -3.170000000000000E-002    0.000000000000000E+000
 -3.160000000000000E-002    0.000000000000000E+000
 -3.150000000000000E-002    0.000000000000000E+000
 -3.140000000000000E-002    0.000000000000000E+000
 -3.130000000000000E-002    0.000000000000000E+000
 -3.120000000000000E-002   -1.302948326278190E-047
 -3.110000000000000E-002   -4.530287243822762E-047
 -3.100000000000000E-002   -5.813214304667016E-047
 -3.090000000000000E-002   -5.813214304667016E-047
 -3.080000000000000E-002   -3.868802447966698E-047
 -3.070000000000000E-002    2.605896652556381E-047
 -3.060000000000000E-002   -6.135381636861039E-048
 -3.050000000000000E-002   -1.611954445625484E-047
 -3.040000000000000E-002    4.762377315549193E-047
 -3.030000000000000E-002    3.042460957090659E-046
 -3.020000000000000E-002    6.006514657051688E-046
 -3.010000000000000E-002    3.399995461838623E-046
 -3.000000000000000E-002    5.064229024822375E-046
 -2.990000000000000E-002   -3.463226593466262E-047
 -2.980000000000000E-002   -7.687802124338662E-046
 -2.970000000000000E-002   -1.498132140661258E-045
 -2.960000000000000E-002   -3.003778705220589E-045
 -2.950000000000000E-002   -3.626760413714036E-045
 -2.940000000000000E-002   -3.126446614011815E-045
 -2.930000000000000E-002   -2.652558695704222E-046
 -2.920000000000000E-002    6.095758701468121E-045
 -2.910000000000000E-002    1.860569518666210E-044
 -2.900000000000000E-002    3.613945189798351E-044
 -2.890000000000000E-002    5.797489030083698E-044
 -2.880000000000000E-002    7.734126931188146E-044
 -2.870000000000000E-002    7.882774230471849E-044
 -2.860000000000000E-002    3.864603674142503E-044
 -2.850000000000000E-002   -8.062071935132282E-044
 -2.840000000000000E-002   -3.317491993528402E-043
 -2.830000000000000E-002   -7.795573206992249E-043
 -2.820000000000000E-002   -1.491042130447926E-042
 -2.810000000000000E-002   -2.516659509591408E-042
 -2.800000000000000E-002   -3.854892025241656E-042
 -2.790000000000000E-002   -5.403013567388893E-042
 -2.780000000000000E-002   -6.885180974593598E-042
 -2.770000000000000E-002   -7.773305897388343E-042
 -2.760000000000000E-002   -7.192154186148900E-042
 -2.750000000000000E-002   -3.853513981709206E-042
 -2.740000000000000E-002    3.971497500899647E-042
 -2.730000000000000E-002    1.838261613386132E-041
 -2.720000000000000E-002    4.162350829900940E-041
 -2.710000000000000E-002    7.563420598469188E-041
 -2.700000000000000E-002    1.213117353240888E-040
 -2.690000000000000E-002    1.774301665397853E-040
 -2.680000000000000E-002    2.392028371134956E-040
 -2.670000000000000E-002    2.965605300012590E-040
 -2.660000000000000E-002    3.323021691412537E-040
 -2.650000000000000E-002    3.204371802299339E-040
 -2.640000000000000E-002    2.252145123146042E-040
 -2.630000000000000E-002    1.513077598878668E-042
 -2.620000000000000E-002   -4.025229377330818E-040
 -2.610000000000000E-002   -1.039614021106495E-039
 -2.600000000000000E-002   -1.953205009909523E-039
 -2.590000000000000E-002   -3.162176199376027E-039
 -2.580000000000000E-002   -4.639921568013246E-039
 -2.570000000000000E-002   -6.288044913793360E-039
 -2.560000000000000E-002   -7.906016315086957E-039
 -2.550000000000000E-002   -9.159716654125055E-039
 -2.540000000000000E-002   -9.553731679814018E-039
 -2.530000000000000E-002   -8.414602144131818E-039
 -2.520000000000000E-002   -4.894752890858504E-039
 -2.510000000000000E-002    1.990748669801998E-039
 -2.500000000000000E-002    1.328052870284964E-038
 -2.490000000000000E-002    2.992141796049262E-038
 -2.480000000000000E-002    5.254721515090160E-038
 -2.470000000000000E-002    8.117164453715277E-038
 -2.460000000000000E-002    1.147929870446588E-037
 -2.450000000000000E-002    1.509208790485603E-037
 -2.440000000000000E-002    1.850544803761035E-037
 -2.430000000000000E-002    2.101673100902655E-037
 -2.420000000000000E-002    2.162871499986323E-037
 -2.410000000000000E-002    1.902990187633480E-037
 -2.400000000000000E-002    1.161416789075104E-037
 -2.390000000000000E-002   -2.439040634070394E-038
 -2.380000000000000E-002   -2.499969816420103E-037
 -2.370000000000000E-002   -5.771218782378135E-037
 -2.360000000000000E-002   -1.015881378819943E-036
 -2.350000000000000E-002   -1.564535955226318E-036
 -2.340000000000000E-002   -2.202534640668169E-036
 -2.330000000000000E-002   -2.882428790183802E-036
 -2.320000000000000E-002   -3.521319209502078E-036
 -2.310000000000000E-002   -3.992992207940419E-036
 -2.300000000000000E-002   -4.122474502845552E-036
 -2.290000000000000E-002   -3.685357329629735E-036
 -2.280000000000000E-002   -2.414808585811872E-036
 -2.270000000000000E-002   -1.960775781661682E-038
 -2.260000000000000E-002    3.783423545686482E-036
 -2.250000000000000E-002    9.219698414941467E-036
 -2.240000000000000E-002    1.638823160151559E-035
 -2.230000000000000E-002    2.517471513798269E-035
 -2.220000000000000E-002    3.515030911141215E-035
 -2.210000000000000E-002    4.546468069437571E-035
 -2.200000000000000E-002    5.474732006864512E-035
 -2.190000000000000E-002    6.103734740987538E-035
 -2.180000000000000E-002    6.176793783516174E-035
 -2.170000000000000E-002    5.383633738225980E-035
 -2.160000000000000E-002    3.379265366985109E-035
 -2.150000000000000E-002   -1.821303395516434E-036
 -2.140000000000000E-002   -5.595968273152801E-035
 -2.130000000000000E-002   -1.303787159055789E-034
 -2.120000000000000E-002   -2.247771360198457E-034
 -2.110000000000000E-002   -3.358193200642516E-034
 -2.100000000000000E-002   -4.561305575498105E-034
 -2.090000000000000E-002   -5.733990556750156E-034
 -2.080000000000000E-002   -6.697663944735825E-034
 -2.070000000000000E-002   -7.217278421091992E-034
 -2.060000000000000E-002   -7.007891226050063E-034
 -2.050000000000000E-002   -5.751274904559353E-034
 -2.040000000000000E-002   -3.124693352314016E-034
 -2.030000000000000E-002    1.156832563399655E-034
 -2.020000000000000E-002    7.284784391381013E-034
 -2.010000000000000E-002    1.528978952079403E-033
 -2.000000000000000E-002    2.496695634870598E-033
 -1.990000000000000E-002    3.580090258476474E-033
 -1.980000000000000E-002    4.690044996615219E-033
 -1.970000000000000E-002    5.695566946500665E-033
 -1.960000000000000E-002    6.423203760736090E-033
 -1.950000000000000E-002    6.661742655526034E-033
 -1.940000000000000E-002    6.173685319282281E-033
 -1.930000000000000E-002    4.714695593512443E-033
 -1.920000000000000E-002    2.061633808251005E-033
 -1.910000000000000E-002   -1.951051468271841E-033
 -1.900000000000000E-002   -7.387977804844654E-033
 -1.890000000000000E-002   -1.416530487298434E-032
 -1.880000000000000E-002   -2.200337408908369E-032
 -1.870000000000000E-002   -3.038541481009954E-032
 -1.860000000000000E-002   -3.852963530803891E-032
 -1.850000000000000E-002   -4.538295621120483E-032
 -1.840000000000000E-002   -4.964505353729006E-032
 -1.830000000000000E-002   -4.983070794978825E-032
 -1.820000000000000E-002   -4.437672400843992E-032
 -1.810000000000000E-002   -3.179652419083283E-032
 -1.800000000000000E-002   -1.088096441227450E-032
 -1.790000000000000E-002    1.906206561163111E-032
 -1.780000000000000E-002    5.794374618366097E-032
 -1.770000000000000E-002    1.046284892605578E-031
 -1.760000000000000E-002    1.566962019463839E-031
 -1.750000000000000E-002    2.102696684460546E-031
 -1.740000000000000E-002    2.599490566468402E-031
 -1.730000000000000E-002    2.988968435984357E-031
 -1.720000000000000E-002    3.191144056838219E-031
 -1.710000000000000E-002    3.119425450632878E-031
 -1.700000000000000E-002    2.688035306424791E-031
 -1.690000000000000E-002    1.821811045301932E-031
 -1.680000000000000E-002    4.680591319530488E-032
 -1.670000000000000E-002   -1.390195687579739E-031
 -1.660000000000000E-002   -3.720599485745265E-031
 -1.650000000000000E-002   -6.428908926153084E-031
 -1.640000000000000E-002   -9.349229922664822E-031
 -1.630000000000000E-002   -1.223905894221909E-030
 -1.620000000000000E-002   -1.478123635686112E-030
 -1.610000000000000E-002   -1.659481227519916E-030
 -1.600000000000000E-002   -1.725647568971920E-030
 -1.590000000000000E-002   -1.633352817120453E-030
 -1.580000000000000E-002   -1.342838941162385E-030
 -1.570000000000000E-002   -8.233312389925646E-031
 -1.560000000000000E-002   -5.923998349718595E-032
 -1.550000000000000E-002    9.433745614805395E-031
 -1.540000000000000E-002    2.150722262555569E-030
 -1.530000000000000E-002    3.496396533140542E-030
 -1.520000000000000E-002    4.878618321107537E-030
 -1.510000000000000E-002    6.160602715885793E-030
 -1.500000000000000E-002    7.174988246419757E-030
 -1.490000000000000E-002    7.733123384760155E-030
 -1.480000000000000E-002    7.639683034645883E-030
 -1.470000000000000E-002    6.712628758247480E-030
 -1.460000000000000E-002    4.807906755501739E-030
 -1.450000000000000E-002    1.847545928409967E-030
 -1.440000000000000E-002   -2.151025974752190E-030
 -1.430000000000000E-002   -7.047457064366802E-030
 -1.420000000000000E-002   -1.255652527809196E-029
 -1.410000000000000E-002   -1.823611310636703E-029
 -1.400000000000000E-002   -2.348967664414662E-029
 -1.390000000000000E-002   -2.758762400722142E-029
 -1.380000000000000E-002   -2.971111860124254E-029
 -1.370000000000000E-002   -2.902045842584980E-029
 -1.360000000000000E-002   -2.474786317945026E-029
 -1.350000000000000E-002   -1.631171686078974E-029
 -1.340000000000000E-002   -3.445700568404436E-030
 -1.330000000000000E-002    1.366757336070179E-029
 -1.320000000000000E-002    3.427273227662920E-029
 -1.310000000000000E-002    5.694545500872045E-029
 -1.300000000000000E-002    7.954442448837365E-029
 -1.290000000000000E-002    9.923291337138050E-029
 -1.280000000000000E-002    1.125904723244619E-028
 -1.270000000000000E-002    1.158312456766241E-028
 -1.260000000000000E-002    1.051387382119281E-028
 -1.250000000000000E-002    7.711612702041828E-029
 -1.240000000000000E-002    2.933789770554322E-029
 -1.230000000000000E-002   -3.902831368087509E-029
 -1.220000000000000E-002   -1.265785606110568E-028
 -1.210000000000000E-002   -2.290763063942538E-028
 -1.200000000000000E-002   -3.389875834287368E-028
 -1.190000000000000E-002   -4.452453814640183E-028
 -1.180000000000000E-002   -5.333468506177075E-028
 -1.170000000000000E-002   -5.858827883458442E-028
 -1.160000000000000E-002   -5.835832124834847E-028
 -1.150000000000000E-002   -5.069303992844755E-028
 -1.140000000000000E-002   -3.383447556208135E-028
 -1.130000000000000E-002   -6.488630091487676E-029
 -1.120000000000000E-002    3.186639177777046E-028
 -1.110000000000000E-002    8.065621155177892E-028
 -1.100000000000000E-002    1.379010096271831E-027
 -1.090000000000000E-002    1.999607148510887E-027
 -1.080000000000000E-002    2.613806136209663E-027
 -1.070000000000000E-002    3.148872486095253E-027
 -1.060000000000000E-002    3.515838680875463E-027
 -1.050000000000000E-002    3.613886639414781E-027
 -1.040000000000000E-002    3.337465722170898E-027
 -1.030000000000000E-002    2.586253614465737E-027
 -1.020000000000000E-002    1.277795006965866E-027
 -1.010000000000000E-002   -6.376803208080024E-028
 -1.000000000000000E-002   -3.161159282754793E-027
 -9.899999999999999E-003   -6.228764847781560E-027
 -9.800000000000000E-003   -9.697403703111981E-027
 -9.699999999999999E-003   -1.333418690049309E-026
 -9.599999999999999E-003   -1.681190810303474E-026
 -9.500000000000000E-003   -1.971292375330181E-026
 -9.399999999999999E-003   -2.154361228103291E-026
 -9.299999999999999E-003   -2.176115824990099E-026
 -9.200000000000000E-003   -1.981368392402616E-026
 -9.099999999999999E-003   -1.519363191832609E-026
 -8.999999999999999E-003   -7.503034069471361E-027
 -8.900000000000000E-003    3.472425974367019E-027
 -8.799999999999999E-003    1.768532793854818E-026
 -8.699999999999999E-003    3.475104161692493E-026
 -8.600000000000000E-003    5.388310463548596E-026
 -8.499999999999999E-003    7.384903155761306E-026
 -8.399999999999999E-003    9.295680012007678E-026
 -8.300000000000000E-003    1.090822404893072E-025
 -8.199999999999999E-003    1.197463905968160E-025
 -8.100000000000000E-003    1.222496226525332E-025
 -8.000000000000000E-003    1.138658160988710E-025
 -7.899999999999999E-003    9.209481970110792E-026
 -7.800000000000000E-003    5.496577547693127E-026
 -7.699999999999999E-003    1.376590882879612E-027
 -7.599999999999999E-003   -6.855229353410227E-026
 -7.499999999999999E-003   -1.531390427362721E-025
 -7.399999999999999E-003   -2.488522229475551E-025
 -7.299999999999999E-003   -3.501139623270234E-025
 -7.199999999999999E-003   -4.492374498450272E-025
 -7.100000000000000E-003   -5.365410962351340E-025
 -6.999999999999999E-003   -6.006765307651268E-025
 -6.899999999999999E-003   -6.291982197778466E-025
 -6.800000000000000E-003   -6.093875325685872E-025
 -6.699999999999999E-003   -5.293248526969497E-025
 -6.599999999999999E-003   -3.791792842426724E-025
 -6.499999999999999E-003   -1.526577776490411E-025
 -6.399999999999999E-003    1.514733145239640E-025
 -6.299999999999999E-003    5.279105461635595E-025
 -6.199999999999999E-003    9.635216608381448E-025
 -6.100000000000000E-003    1.436402411057467E-024
 -5.999999999999999E-003    1.915455605331248E-024
 -5.899999999999999E-003    2.360663888076983E-024
 -5.800000000000000E-003    2.724213407548478E-024
 -5.699999999999999E-003    2.952587499047236E-024
 -5.599999999999999E-003    2.989701194344776E-024
 -5.499999999999999E-003    2.781069026781994E-024
 -5.399999999999999E-003    2.278912942914628E-024
 -5.299999999999999E-003    1.448010408883766E-024
 -5.199999999999999E-003    2.719670138222066E-025
 -5.099999999999999E-003   -1.240514020612499E-024
 -4.999999999999999E-003   -3.049902180304226E-024
 -4.899999999999999E-003   -5.081276999375491E-024
 -4.799999999999999E-003   -7.221611678035888E-024
 -4.699999999999999E-003   -9.319599698109660E-024
 -4.599999999999999E-003   -1.118867801807290E-023
 -4.499999999999999E-003   -1.261378503050638E-023
 -4.399999999999999E-003   -1.336221851655575E-023
 -4.299999999999999E-003   -1.319869003757759E-023
 -4.199999999999999E-003   -1.190435771109262E-023
 -4.099999999999999E-003   -9.299207152564804E-024
 -3.999999999999999E-003   -5.266729272433794E-024
 -3.899999999999999E-003    2.206080993618731E-025
 -3.799999999999999E-003    7.077044241971458E-024
 -3.699999999999999E-003    1.508267033041409E-023
 -3.599999999999999E-003    2.386863588902906E-023
 -3.499999999999999E-003    3.291111343796737E-023
 -3.399999999999999E-003    4.153664506297539E-023
 -3.299999999999999E-003    4.894115971400557E-023
 -3.199999999999999E-003    5.422437095415775E-023
 -3.099999999999999E-003    5.644036228051769E-023
 -2.999999999999999E-003    5.466404432542765E-023
 -2.899999999999999E-003    4.807170283287641E-023
 -2.799999999999999E-003    3.603234422281119E-023
 -2.699999999999999E-003    1.820484964545099E-023
 -2.599999999999999E-003   -5.365778712930699E-024
 -2.499999999999999E-003   -3.416110770325425E-023
 -2.399999999999999E-003   -6.712021956401446E-023
 -2.299999999999999E-003   -1.025987562898174E-022
 -2.199999999999999E-003   -1.383658743878952E-022
 -2.099999999999999E-003   -1.716480747538730E-022
 -1.999999999999999E-003   -1.992269294349209E-022
 -1.899999999999999E-003   -2.175950962346582E-022
 -1.799999999999999E-003   -2.231710013642731E-022
 -1.699999999999999E-003   -2.125681100167235E-022
 -1.599999999999999E-003   -1.829090308240885E-022
 -1.499999999999999E-003   -1.321693609480973E-022
 -1.399999999999999E-003   -5.952985326601255E-023
 -1.299999999999999E-003    3.428918668578329E-023
 -1.199999999999999E-003    1.467423636553390E-022
 -1.099999999999999E-003    2.732556189980737E-022
 -9.999999999999989E-004    4.071390039435755E-022
 -8.999999999999990E-004    5.396478007557374E-022
 -7.999999999999990E-004    6.602189990409449E-022
 -6.999999999999989E-004    7.569021888580059E-022
 -5.999999999999990E-004    8.169922163163981E-022
 -4.999999999999989E-004    8.278562583929343E-022
 -3.999999999999989E-004    7.779319436019416E-022
 -2.999999999999989E-004    6.578538702136066E-022
 -1.999999999999989E-004    4.616469318226468E-022
 -9.999999999999892E-005    1.879074014490370E-022
  1.084202172485504E-018   -1.591226247441421E-022
  1.000000000000011E-004   -5.686940102333086E-022
  2.000000000000011E-004   -1.023012349690433E-021
  3.000000000000011E-004   -1.497131744091650E-021
  4.000000000000011E-004   -1.959376644601509E-021
  5.000000000000011E-004   -2.372367149263956E-021
  6.000000000000011E-004   -2.694691316659734E-021
  7.000000000000011E-004   -2.883226638994005E-021
  8.000000000000011E-004   -2.896063540928638E-021
  9.000000000000012E-004   -2.695928856262125E-021
  1.000000000000001E-003   -2.253946313248204E-021
  1.100000000000001E-003   -1.553516443936604E-021
  1.200000000000001E-003   -5.940419093497777E-022
  1.300000000000001E-003    6.058141105167236E-022
  1.400000000000001E-003    2.005675302694887E-021
  1.500000000000001E-003    3.542150845145684E-021
  1.600000000000001E-003    5.129008644594929E-021
  1.700000000000001E-003    6.659099657555089E-021
  1.800000000000001E-003    8.008225920092652E-021
  1.900000000000001E-003    9.041044030807584E-021
  2.000000000000001E-003    9.618950179232296E-021
  2.100000000000001E-003    9.609736749535366E-021
  2.200000000000001E-003    8.898643587268846E-021
  2.300000000000001E-003    7.400231393931690E-021
  2.400000000000001E-003    5.070364424459191E-021
  2.500000000000001E-003    1.917411171399117E-021
  2.600000000000001E-003   -1.988311043235268E-021
  2.700000000000001E-003   -6.507883221927979E-021
  2.800000000000001E-003   -1.143095062189107E-020
  2.900000000000001E-003   -1.647763167184068E-020
  3.000000000000001E-003   -2.130591471791003E-020
  3.100000000000001E-003   -2.552502377627962E-020
  3.200000000000001E-003   -2.871486936538200E-020
  3.300000000000001E-003   -3.045126990440881E-020
  3.400000000000001E-003   -3.033615192580070E-020
  3.500000000000001E-003   -2.803139991893425E-020
  3.600000000000001E-003   -2.329455194173716E-020
  3.700000000000001E-003   -1.601402670900636E-020
  3.800000000000001E-003   -6.241201338163201E-021
  3.900000000000001E-003    5.783568827918733E-021
  4.000000000000001E-003    1.961401944355382E-020
  4.100000000000001E-003    3.459298316637467E-020
  4.200000000000001E-003    4.986186381914875E-020
  4.300000000000001E-003    6.438643947668939E-020
  4.400000000000001E-003    7.700000633284473E-020
  4.500000000000001E-003    8.646381571992097E-020
  4.600000000000002E-003    9.154335968945245E-020
  4.700000000000001E-003    9.109779072031013E-020
  4.800000000000001E-003    8.417822041637420E-020
  4.900000000000002E-003    7.012931549965423E-020
  5.000000000000001E-003    4.868731911414086E-020
  5.100000000000001E-003    2.006685308322634E-020
  5.200000000000001E-003   -1.497175084937695E-020
  5.300000000000002E-003   -5.508279737354644E-020
  5.400000000000001E-003   -9.833076471652560E-020
  5.500000000000001E-003   -1.422273450497591E-019
  5.600000000000002E-003   -1.838142490582553E-019
  5.700000000000001E-003   -2.197935054359984E-019
  5.800000000000001E-003   -2.467037304903534E-019
  5.900000000000002E-003   -2.611374304123600E-019
  6.000000000000001E-003   -2.599904610135504E-019
  6.100000000000001E-003   -2.407310098298293E-019
  6.200000000000002E-003   -2.016721912413265E-019
  6.300000000000002E-003   -1.422293439798871E-019
  6.400000000000001E-003   -6.314120286767206E-020
  6.500000000000001E-003    3.336658020447990E-020
  6.600000000000002E-003    1.434963480915691E-019
  6.700000000000001E-003    2.618903370772076E-019
  6.800000000000001E-003    3.817540974036242E-019
  6.900000000000002E-003    4.951001724231943E-019
  7.000000000000001E-003    5.931139550588259E-019
  7.100000000000001E-003    6.666346545318702E-019
  7.200000000000002E-003    7.067357973993249E-019
  7.300000000000002E-003    7.053794760240164E-019
  7.400000000000001E-003    6.561103909687116E-019
  7.500000000000001E-003    5.547465125631744E-019
  7.600000000000002E-003    4.000182423976970E-019
  7.700000000000001E-003    1.941034226188728E-019
  7.800000000000001E-003   -5.699491541305157E-020
  7.900000000000001E-003   -3.432776647995072E-019
  8.000000000000002E-003   -6.508283616404977E-019
  8.100000000000001E-003   -9.621733338443384E-019
  8.200000000000001E-003   -1.256940045564938E-018
  8.300000000000002E-003   -1.512811346657567E-018
  8.400000000000001E-003   -1.706754966408511E-018
  8.500000000000002E-003   -1.816481114626284E-018
  8.600000000000002E-003   -1.822064025896184E-018
  8.700000000000001E-003   -1.707637573988473E-018
  8.800000000000002E-003   -1.463060584958968E-018
  8.900000000000002E-003   -1.085433417781220E-018
  9.000000000000001E-003   -5.803417433526987E-019
  9.100000000000002E-003    3.729846170808422E-020
  9.200000000000002E-003    7.429050492011366E-019
  9.300000000000001E-003    1.502500461554128E-018
  9.400000000000002E-003    2.273653231348967E-018
  9.500000000000001E-003    3.007122192777591E-018
  9.600000000000001E-003    3.649187360666113E-018
  9.700000000000002E-003    4.144605870407328E-018
  9.800000000000001E-003    4.440080435320304E-018
  9.900000000000001E-003    4.488073099302636E-018
  1.000000000000000E-002    4.250759106614538E-018
  1.010000000000000E-002    3.703871514790880E-018
  1.020000000000000E-002    2.840162846515615E-018
  1.030000000000000E-002    1.672204683645242E-018
  1.040000000000000E-002    2.342428287435604E-019
  1.050000000000000E-002   -1.417135885716537E-018
  1.060000000000000E-002   -3.203728660444860E-018
  1.070000000000000E-002   -5.027971270060091E-018
  1.080000000000000E-002   -6.776768975274532E-018
  1.090000000000000E-002   -8.326856180139705E-018
  1.100000000000000E-002   -9.551529336423253E-018
  1.110000000000000E-002   -1.032848090454657E-017
  1.120000000000000E-002   -1.054835932150275E-017
  1.130000000000000E-002   -1.012358279277001E-017
  1.140000000000000E-002   -8.996852984563317E-018
  1.150000000000000E-002   -7.148776893147304E-018
  1.160000000000000E-002   -4.603971022074886E-018
  1.170000000000000E-002   -1.435074431650923E-018
  1.180000000000000E-002    2.235875672462043E-018
  1.190000000000000E-002    6.239103881666273E-018
  1.200000000000000E-002    1.036206886582027E-017
  1.210000000000000E-002    1.435782393145022E-017
  1.220000000000000E-002    1.795663801148779E-017
  1.230000000000000E-002    2.088051018771416E-017
  1.240000000000000E-002    2.285998978334499E-017
  1.250000000000000E-002    2.365247774300507E-017
  1.260000000000000E-002    2.306100753945614E-017
  1.270000000000000E-002    2.095234333912102E-017
  1.280000000000000E-002    1.727314543601486E-017
  1.290000000000000E-002    1.206293001706390E-017
  1.300000000000000E-002    5.462626573681080E-018
  1.310000000000000E-002   -2.282343935543139E-018
  1.320000000000000E-002   -1.082529189113364E-017
  1.330000000000000E-002   -1.972829443475113E-017
  1.340000000000000E-002   -2.847918978743471E-017
  1.350000000000000E-002   -3.651522630921069E-017
  1.360000000000000E-002   -4.325261495769062E-017
  1.370000000000000E-002   -4.812077752199447E-017
  1.380000000000000E-002   -5.059962693306047E-017
  1.390000000000000E-002   -5.025784880376573E-017
  1.400000000000000E-002   -4.678992269182456E-017
  1.410000000000000E-002   -4.004935173504321E-017
  1.420000000000000E-002   -3.007562209081317E-017
  1.430000000000000E-002   -1.711253001692491E-017
  1.440000000000000E-002   -1.615772184425187E-018
  1.450000000000000E-002    1.575183069209545E-017
  1.460000000000000E-002    3.413847551678783E-017
  1.470000000000000E-002    5.253521353632042E-017
  1.480000000000000E-002    6.982092995058649E-017
  1.490000000000000E-002    8.481908961907527E-017
  1.500000000000000E-002    9.636392717382472E-017
  1.510000000000000E-002    1.033730678194175E-016
  1.520000000000000E-002    1.049226634693872E-016
  1.530000000000000E-002    1.003207943916319E-016
  1.540000000000000E-002    8.917436147670315E-017
  1.550000000000000E-002    7.144475776720806E-017
  1.560000000000000E-002    4.748774093279880E-017
  1.570000000000000E-002    1.807344238835162E-017
  1.580000000000000E-002   -1.561669922303891E-017
  1.590000000000000E-002   -5.201827140731705E-017
  1.600000000000000E-002   -8.923834322563980E-017
  1.610000000000000E-002   -1.251353467141732E-016
  1.620000000000000E-002   -1.574221838756607E-016
  1.630000000000000E-002   -1.837886584370665E-016
  1.640000000000000E-002   -2.020377013181373E-016
  1.650000000000000E-002   -2.102288084921929E-016
  1.660000000000000E-002   -2.068205142925214E-016
  1.670000000000000E-002   -1.908035301562824E-016
  1.680000000000000E-002   -1.618153481448817E-016
  1.690000000000000E-002   -1.202279381806003E-016
  1.700000000000000E-002   -6.720026296704965E-017
  1.710000000000000E-002   -4.689323051228097E-018
  1.720000000000000E-002    6.458537387958612E-017
  1.730000000000000E-002    1.372261977421857E-016
  1.740000000000000E-002    2.092905290286635E-016
  1.750000000000000E-002    2.764695780990740E-016
  1.760000000000000E-002    3.343068245787594E-016
  1.770000000000000E-002    3.784468941181852E-016
  1.780000000000000E-002    4.049031941820662E-016
  1.790000000000000E-002    4.103304392343585E-016
  1.800000000000000E-002    3.922861774660366E-016
  1.810000000000000E-002    3.494647147082138E-016
  1.820000000000000E-002    2.818873041165104E-016
  1.830000000000000E-002    1.910324898197722E-016
  1.840000000000000E-002    7.989347742194028E-017
  1.850000000000000E-002   -4.704828315282554E-017
  1.860000000000000E-002   -1.839398341932505E-016
  1.870000000000000E-002   -3.237657094391560E-016