 -4.000000000000000E-002    0.000000000000000E+000
 -3.990000000000000E-002    0.000000000000000E+000
 -3.980000000000000E-002    0.000000000000000E+000
 -3.970000000000000E-002    0.000000000000000E+000
 -3.960000000000000E-002    0.000000000000000E+000
 -3.950000000000000E-002    0.000000000000000E+000
 -3.940000000000000E-002    0.000000000000000E+000
 -3.930000000000000E-002    0.000000000000000E+000
 -3.920000000000000E-002    0.000000000000000E+000
 -3.910000000000000E-002    0.000000000000000E+000
 -3.900000000000000E-002    0.000000000000000E+000
 -3.890000000000000E-002    0.000000000000000E+000
 -3.880000000000000E-002    0.000000000000000E+000
 -3.870000000000000E-002    0.000000000000000E+000
 -3.860000000000000E-002    0.000000000000000E+000
 -3.850000000000000E-002    0.000000000000000E+000
 -3.840000000000000E-002    0.000000000000000E+000
 -3.830000000000000E-002    0.000000000000000E+000
 -3.820000000000000E-002    0.000000000000000E+000
 -3.810000000000000E-002    0.000000000000000E+000
 -3.800000000000000E-002    0.000000000000000E+000
 -3.790000000000000E-002    0.000000000000000E+000
 -3.780000000000000E-002    0.000000000000000E+000
 -3.770000000000000E-002    0.000000000000000E+000
 -3.760000000000000E-002    0.000000000000000E+000
 -3.750000000000000E-002    0.000000000000000E+000
 -3.740000000000000E-002    0.000000000000000E+000
 -3.730000000000000E-002    0.000000000000000E+000
 -3.720000000000000E-002    0.000000000000000E+000
 -3.710000000000000E-002    0.000000000000000E+000
 -3.700000000000000E-002    0.000000000000000E+000
 -3.690000000000000E-002    0.000000000000000E+000
 -3.680000000000000E-002    0.000000000000000E+000
 -3.670000000000000E-002    0.000000000000000E+000
 -3.660000000000000E-002    0.000000000000000E+000
 -3.650000000000000E-002    0.000000000000000E+000
 -3.640000000000000E-002    0.000000000000000E+000
 -3.630000000000000E-002    0.000000000000000E+000
 -3.620000000000000E-002    0.000000000000000E+000
 -3.610000000000000E-002    0.000000000000000E+000
 -3.600000000000000E-002    0.000000000000000E+000
 -3.590000000000000E-002    0.000000000000000E+000
 -3.580000000000000E-002    0.000000000000000E+000
 -3.570000000000000E-002    0.000000000000000E+000
 -3.560000000000000E-002    0.000000000000000E+000
 -3.550000000000000E-002    0.000000000000000E+000
 -3.540000000000000E-002    0.000000000000000E+000
 -3.530000000000000E-002    0.000000000000000E+000
 -3.520000000000000E-002    0.000000000000000E+000
 -3.510000000000000E-002    0.000000000000000E+000
 -3.500000000000000E-002    0.000000000000000E+000
 -3.490000000000000E-002    0.000000000000000E+000
 -3.480000000000000E-002    0.000000000000000E+000
 -3.470000000000000E-002    0.000000000000000E+000
 -3.460000000000000E-002    0.000000000000000E+000
 -3.450000000000000E-002    0.000000000000000E+000
 -3.440000000000000E-002    0.000000000000000E+000
 -3.430000000000000E-002    0.000000000000000E+000
 -3.420000000000000E-002    0.000000000000000E+000
 -3.410000000000000E-002    0.000000000000000E+000
 -3.400000000000000E-002    0.000000000000000E+000
 -3.390000000000000E-002    0.000000000000000E+000
 -3.380000000000000E-002    0.000000000000000E+000
 -3.370000000000000E-002    0.000000000000000E+000
 -3.360000000000000E-002    0.000000000000000E+000
 -3.350000000000000E-002   -2.138211768073757E-048
 -3.340000000000000E-002   -4.276423536147513E-048
 -3.330000000000000E-002   -6.335780588642965E-047
 -3.320000000000000E-002   -1.053334940921217E-046
 -3.310000000000000E-002   -1.473091822978138E-046
 -3.300000000000000E-002   -1.807320234312109E-046
 -3.290000000000000E-002   -1.679027528227683E-046
 -3.280000000000000E-002   -4.753503880268385E-047
 -3.270000000000000E-002    2.834329258501976E-046
 -3.260000000000000E-002    1.157879882762773E-045
 -3.250000000000000E-002    2.569712586021263E-045
 -3.240000000000000E-002    5.032153683931452E-045
 -3.230000000000000E-002    8.931470479865418E-045
 -3.220000000000000E-002    1.518137346423092E-044
 -3.210000000000000E-002    2.307406063991958E-044
 -3.200000000000000E-002    3.278952731736450E-044
 -3.190000000000000E-002    4.292802790241371E-044
 -3.180000000000000E-002    5.059526926774714E-044
 -3.170000000000000E-002    5.036602701274046E-044
 -3.160000000000000E-002    3.198072773227008E-044
 -3.150000000000000E-002   -2.256335801608333E-044
 -3.140000000000000E-002   -1.366752103408230E-043
 -3.130000000000000E-002   -3.436548565971372E-043
 -3.120000000000000E-002   -6.814122816076729E-043
 -3.110000000000000E-002   -1.191545718190214E-042
 -3.100000000000000E-002   -1.902947320901514E-042
 -3.090000000000000E-002   -2.815429623997610E-042
 -3.080000000000000E-002   -3.864154207622228E-042
 -3.070000000000000E-002   -4.873823390639461E-042
 -3.060000000000000E-002   -5.495122186038713E-042
 -3.050000000000000E-002   -5.129628512415504E-042
 -3.040000000000000E-002   -2.854576265942574E-042
 -3.030000000000000E-002    2.640757041938598E-042
 -3.020000000000000E-002    1.306676184682223E-041
 -3.010000000000000E-002    3.044697175720323E-041
 -3.000000000000000E-002    5.686399459623205E-041
 -2.990000000000000E-002    9.395385737128509E-041
 -2.980000000000000E-002    1.420480422170442E-040
 -2.970000000000000E-002    1.988793453786900E-040
 -2.960000000000000E-002    2.577783292872998E-040
 -2.950000000000000E-002    3.053973308790294E-040
 -2.940000000000000E-002    3.190973814008616E-040
 -2.930000000000000E-002    2.643731127947797E-040
 -2.920000000000000E-002    9.298708084935566E-041
 -2.910000000000000E-002   -2.571290489633263E-040
 -2.900000000000000E-002   -8.587015255146187E-040
 -2.890000000000000E-002   -1.786702251221236E-039
 -2.880000000000000E-002   -3.102363198782555E-039
 -2.870000000000000E-002   -4.827218292217694E-039
 -2.860000000000000E-002   -6.905160799746106E-039
 -2.850000000000000E-002   -9.151699554110241E-039
 -2.840000000000000E-002   -1.119192454308095E-038
 -2.830000000000000E-002   -1.239242189486408E-038
 -2.820000000000000E-002   -1.179781896715165E-038
 -2.810000000000000E-002   -8.089746983590462E-039
 -2.800000000000000E-002    4.055763341119705E-040
 -2.790000000000000E-002    1.562604475191454E-038
 -2.780000000000000E-002    3.955596366671532E-038
 -2.770000000000000E-002    7.383546426284706E-038
 -2.760000000000000E-002    1.191541187590808E-037
 -2.750000000000000E-002    1.744011162090840E-037
 -2.740000000000000E-002    2.355762828821119E-037
 -2.730000000000000E-002    2.945194307251429E-037
 -2.720000000000000E-002    3.375927213670578E-037
 -2.710000000000000E-002    3.445529954442227E-037
 -2.700000000000000E-002    2.879722674414249E-037
 -2.690000000000000E-002    1.336934388184869E-037
 -2.680000000000000E-002   -1.570764851339916E-037
 -2.670000000000000E-002   -6.233645887729967E-037
 -2.660000000000000E-002   -1.297069487081682E-036
 -2.650000000000000E-002   -2.192144818593499E-036
 -2.640000000000000E-002   -3.290187026909935E-036
 -2.630000000000000E-002   -4.522880701540920E-036
 -2.620000000000000E-002   -5.752622880197528E-036
 -2.610000000000000E-002   -6.753783994681930E-036
 -2.600000000000000E-002   -7.198417804595740E-036
 -2.590000000000000E-002   -6.651669665494710E-036
 -2.580000000000000E-002   -4.583449757444356E-036
 -2.570000000000000E-002   -4.038137530192057E-037
 -2.560000000000000E-002    6.470443380856857E-036
 -2.550000000000000E-002    1.651170980132074E-035
 -2.540000000000000E-002    2.993669813129767E-035
 -2.530000000000000E-002    4.652263579855070E-035
 -2.520000000000000E-002    6.539386162479146E-035
 -2.510000000000000E-002    8.479808139888469E-035
 -2.500000000000000E-002    1.019033136534046E-034
 -2.490000000000000E-002    1.126592184813444E-034
 -2.480000000000000E-002    1.117785721693716E-034
 -2.470000000000000E-002    9.290362608314377E-035
 -2.460000000000000E-002    4.902546755863542E-035
 -2.450000000000000E-002   -2.678119316420382E-035
 -2.440000000000000E-002   -1.402631577091108E-034
 -2.430000000000000E-002   -2.945220694053208E-034
 -2.420000000000000E-002   -4.882137896163673E-034
 -2.410000000000000E-002   -7.135183918295759E-034
 -2.400000000000000E-002   -9.540664771688496E-034
 -2.390000000000000E-002   -1.183098136500869E-033
 -2.380000000000000E-002   -1.362222435287169E-033
 -2.370000000000000E-002   -1.441224022839783E-033
 -2.360000000000000E-002   -1.359416593490024E-033
 -2.350000000000000E-002   -1.049048905915932E-033
 -2.340000000000000E-002   -4.412123867594943E-034
 -2.330000000000000E-002    5.254417046400739E-034
 -2.320000000000000E-002    1.893101547343715E-033
 -2.310000000000000E-002    3.670581215503801E-033
 -2.300000000000000E-002    5.817204121384275E-033
 -2.290000000000000E-002    8.226027460823679E-033
 -2.280000000000000E-002    1.070823842266856E-032
 -2.270000000000000E-002    1.298115296693229E-032
 -2.260000000000000E-002    1.466278127240442E-032
 -2.250000000000000E-002    1.527634028203012E-032
 -2.240000000000000E-002    1.426823497198652E-032
 -2.230000000000000E-002    1.104286510424853E-032
 -2.220000000000000E-002    5.016953731181935E-033
 -2.210000000000000E-002   -4.305098019805646E-033
 -2.200000000000000E-002   -1.723517864249633E-032
 -2.190000000000000E-002   -3.378763519863434E-032
 -2.180000000000000E-002   -5.355371487053696E-032
 -2.170000000000000E-002   -7.557412411566034E-032
 -2.160000000000000E-002   -9.822371068786956E-032
 -2.150000000000000E-002   -1.191264521321840E-031
 -2.140000000000000E-002   -1.351227678117544E-031
 -2.130000000000000E-002   -1.423139935685487E-031
 -2.120000000000000E-002   -1.362098797882821E-031
 -2.110000000000000E-002   -1.120035408738312E-031
 -2.100000000000000E-002   -6.499333887625004E-032
 -2.090000000000000E-002    8.838019847432528E-033
 -2.080000000000000E-002    1.120910599570828E-031
 -2.070000000000000E-002    2.450870781143402E-031
 -2.060000000000000E-002    4.049232314474516E-031
 -2.050000000000000E-002    5.845216680800750E-031
 -2.040000000000000E-002    7.717801421831947E-031
 -2.030000000000000E-002    9.489615524867620E-031
 -2.020000000000000E-002    1.092486924776595E-030
 -2.010000000000000E-002    1.173312158005220E-030
 -2.000000000000000E-002    1.158071262119302E-030
 -1.990000000000000E-002    1.011148917697236E-030
 -1.980000000000000E-002    6.977990324816308E-031
 -1.970000000000000E-002    1.883481006046946E-031
 -1.960000000000000E-002   -5.365906341598598E-031
 -1.950000000000000E-002   -1.480110364601564E-030
 -1.940000000000000E-002   -2.622603720585231E-030
 -1.930000000000000E-002   -3.915536103035937E-030
 -1.920000000000000E-002   -5.276173827988706E-030
 -1.910000000000000E-002   -6.584206505842081E-030
 -1.900000000000000E-002   -7.681324310897155E-030
 -1.890000000000000E-002   -8.374844866428129E-030
 -1.880000000000000E-002   -8.446409585238792E-030
 -1.870000000000000E-002   -7.666544889012503E-030
 -1.860000000000000E-002   -5.815497687902301E-030
 -1.850000000000000E-002   -2.710186943811492E-030
 -1.840000000000000E-002    1.763623446892986E-030
 -1.830000000000000E-002    7.615703539125438E-030
 -1.820000000000000E-002    1.471502138268040E-029
 -1.810000000000000E-002    2.275640730041937E-029
 -1.800000000000000E-002    3.123479870888571E-029
 -1.790000000000000E-002    3.943227010137602E-029
 -1.780000000000000E-002    4.642334931469851E-029
 -1.770000000000000E-002    5.110384118795902E-029
 -1.760000000000000E-002    5.224752094475737E-029
 -1.750000000000000E-002    4.859338766187274E-029
 -1.740000000000000E-002    3.896379994318735E-029
 -1.730000000000000E-002    2.241063820137613E-029
 -1.720000000000000E-002   -1.617139345907842E-030
 -1.710000000000000E-002   -3.309540646055600E-029
 -1.700000000000000E-002   -7.125134449244258E-029
 -1.690000000000000E-002   -1.144135316396730E-028
 -1.680000000000000E-002   -1.599078899976249E-028
 -1.670000000000000E-002   -2.040232436698076E-028
 -1.660000000000000E-002   -2.420703582214979E-028
 -1.650000000000000E-002   -2.685552431468378E-028
 -1.640000000000000E-002   -2.774823579110669E-028
 -1.630000000000000E-002   -2.627945522099974E-028
 -1.620000000000000E-002   -2.189450696737954E-028
 -1.610000000000000E-002   -1.415826067569352E-028
 -1.600000000000000E-002   -2.831424382892884E-029
 -1.590000000000000E-002    1.205065106856053E-028
 -1.580000000000000E-002    3.010355024846351E-028
 -1.570000000000000E-002    5.053218629084449E-028
 -1.560000000000000E-002    7.209141837165561E-028
 -1.550000000000000E-002    9.307879455413832E-028
 -1.540000000000000E-002    1.113688521651680E-027
 -1.530000000000000E-002    1.244971079803909E-027
 -1.520000000000000E-002    1.297992519345390E-027
 -1.510000000000000E-002    1.246074042439366E-027
 -1.500000000000000E-002    1.065004338280572E-027
 -1.490000000000000E-002    7.359941635255470E-028
 -1.480000000000000E-002    2.489271236749143E-028
 -1.470000000000000E-002   -3.943174328636833E-028
 -1.460000000000000E-002   -1.176761161287578E-027
 -1.450000000000000E-002   -2.063794020963782E-027
 -1.440000000000000E-002   -3.001600064213014E-027
 -1.430000000000000E-002   -3.916952639253769E-027
 -1.420000000000000E-002   -4.718768342176330E-027
 -1.410000000000000E-002   -5.301752898096959E-027
 -1.400000000000000E-002   -5.552371303059214E-027
 -1.390000000000000E-002   -5.357216868200142E-027
 -1.380000000000000E-002   -4.613658301608493E-027
 -1.370000000000000E-002   -3.242393485380012E-027
 -1.360000000000000E-002   -1.201263234490052E-027
 -1.350000000000000E-002    1.500616326991212E-027
 -1.340000000000000E-002    4.789640731084202E-027
 -1.330000000000000E-002    8.516903184114568E-027
 -1.320000000000000E-002    1.245146044426804E-026
 -1.310000000000000E-002    1.627943918287441E-026
 -1.300000000000000E-002    1.961068784841934E-026
 -1.290000000000000E-002    2.199443480359043E-026
 -1.280000000000000E-002    2.294501806093963E-026
 -1.270000000000000E-002    2.197805276216276E-026
 -1.260000000000000E-002    1.865656098676451E-026
 -1.250000000000000E-002    1.264551291192635E-026
 -1.240000000000000E-002    3.771977042615417E-027
 -1.230000000000000E-002   -7.913190507866877E-027
 -1.220000000000000E-002   -2.207753636699574E-026
 -1.210000000000000E-002   -3.805961653677862E-026
 -1.200000000000000E-002   -5.483942609162470E-026
 -1.190000000000000E-002   -7.103446122932673E-026
 -1.180000000000000E-002   -8.492899207031710E-026
 -1.170000000000000E-002   -9.454313272165001E-026
 -1.160000000000000E-002   -9.774633172989676E-026
 -1.150000000000000E-002   -9.241703649821146E-026
 -1.140000000000000E-002   -7.664642971984983E-026
 -1.130000000000000E-002   -4.897925417310929E-026
 -1.120000000000000E-002   -8.679423447426609E-027
 -1.110000000000000E-002    4.399777188342630E-026
 -1.100000000000000E-002    1.075507162419586E-025
 -1.090000000000000E-002    1.790225792659968E-025
 -1.080000000000000E-002    2.538710987729061E-025
 -1.070000000000000E-002    3.259507851714109E-025
 -1.060000000000000E-002    3.876409003458212E-025
 -1.050000000000000E-002    4.301465699011106E-025
 -1.040000000000000E-002    4.439934041136954E-025
 -1.030000000000000E-002    4.197217243936348E-025
 -1.020000000000000E-002    3.487706864563741E-025
 -1.010000000000000E-002    2.245217936247792E-025
 -1.000000000000000E-002    4.344813143329029E-026
 -9.899999999999999E-003   -1.937078278698785E-025
 -9.800000000000000E-003   -4.808292017974447E-025
 -9.699999999999999E-003   -8.055124917058101E-025
 -9.599999999999999E-003   -1.148483697857066E-024
 -9.500000000000000E-003   -1.483482207986446E-024
 -9.399999999999999E-003   -1.777746989702550E-024
 -9.299999999999999E-003   -1.993219203592952E-024
 -9.200000000000000E-003   -2.088539250008958E-024
 -9.099999999999999E-003   -2.021866783716286E-024
 -8.999999999999999E-003   -1.754485340027450E-024
 -8.900000000000000E-003   -1.255070706267625E-024
 -8.799999999999999E-003   -5.044187835586960E-025
 -8.699999999999999E-003    4.996681288954859E-025
 -8.600000000000000E-003    1.737724522742361E-024
 -8.499999999999999E-003    3.164656666044125E-024
 -8.399999999999999E-003    4.706990243115189E-024
 -8.300000000000000E-003    6.261866602170366E-024
 -8.199999999999999E-003    7.698317090914014E-024
 -8.100000000000000E-003    8.861257042938784E-024
 -8.000000000000000E-003    9.578547214089976E-024
 -7.899999999999999E-003    9.671261692440591E-024
 -7.800000000000000E-003    8.967094676232261E-024
 -7.699999999999999E-003    7.316532207475530E-024
 -7.599999999999999E-003    4.611125826242511E-024
 -7.499999999999999E-003    8.028430835259663E-025
 -7.399999999999999E-003   -4.076830179169427E-024
 -7.299999999999999E-003   -9.899684180308289E-024
 -7.199999999999999E-003   -1.642732767004375E-023
 -7.100000000000000E-003   -2.330346961878312E-023
 -6.999999999999999E-003   -3.005393816160551E-023
 -6.899999999999999E-003   -3.609627676786242E-023
 -6.800000000000000E-003   -4.076039538894027E-023
 -6.699999999999999E-003   -4.332124790659836E-023
 -6.599999999999999E-003   -4.304375336328055E-023
 -6.499999999999999E-003   -3.923925689399913E-023
 -6.399999999999999E-003   -3.133177427894975E-023
 -6.299999999999999E-003   -1.893102330972189E-023
 -6.199999999999999E-003   -1.908161988847522E-024
 -6.100000000000000E-003    1.953120738835286E-023
 -5.999999999999999E-003    4.478310065180427E-023
 -5.899999999999999E-003    7.279731263231719E-023
 -5.800000000000000E-003    1.020533414005563E-022
 -5.699999999999999E-003    1.305673354564470E-022
 -5.599999999999999E-003    1.559368246325853E-022
 -5.499999999999999E-003    1.754285560829236E-022
 -5.399999999999999E-003    1.861124160406189E-022
 -5.299999999999999E-003    1.850421058767615E-022
 -5.199999999999999E-003    1.694790786427406E-022
 -5.099999999999999E-003    1.371525890370217E-022
 -4.999999999999999E-003    8.654413124961038E-023
 -4.899999999999999E-003    1.717977161966244E-023
 -4.799999999999999E-003   -7.009010266601739E-023
 -4.699999999999999E-003   -1.728481957797553E-022
 -4.599999999999999E-003   -2.869320712635962E-022
 -4.499999999999999E-003   -4.063486578340312E-022
 -4.399999999999999E-003   -5.233091437865133E-022
 -4.299999999999999E-003   -6.284090926750768E-022
 -4.199999999999999E-003   -7.109731750595507E-022
 -4.099999999999999E-003   -7.595745196104128E-022
 -3.999999999999999E-003   -7.627294997127850E-022
 -3.899999999999999E-003   -7.097533907038757E-022
 -3.799999999999999E-003   -5.917477421923185E-022
 -3.699999999999999E-003   -4.026740383121009E-022
 -3.599999999999999E-003   -1.404504047298649E-022
 -3.499999999999999E-003    1.920068570938957E-022
 -3.399999999999999E-003    5.858882368054214E-022
 -3.299999999999999E-003    1.025842201347850E-021
 -3.199999999999999E-003    1.489677067759775E-021
 -3.099999999999999E-003    1.948510509886166E-021
 -2.999999999999999E-003    2.367454060191860E-021
 -2.899999999999999E-003    2.706896667799918E-021
 -2.799999999999999E-003    2.924417632830387E-021
 -2.699999999999999E-003    2.977321806145861E-021
 -2.599999999999999E-003    2.825738474678864E-021
 -2.499999999999999E-003    2.436171850145420E-021
 -2.399999999999999E-003    1.785332389104209E-021
 -2.299999999999999E-003    8.640236924992929E-022
 -2.199999999999999E-003   -3.191941354537061E-022
 -2.099999999999999E-003   -1.734880781133213E-021
 -1.999999999999999E-003   -3.330475633719137E-021
 -1.899999999999999E-003   -5.029291183483899E-021
 -1.799999999999999E-003   -6.731060918409854E-021
 -1.699999999999999E-003   -8.314325289013389E-021
 -1.599999999999999E-003   -9.640850893151489E-021
 -1.499999999999999E-003   -1.056217103662385E-020
 -1.399999999999999E-003   -1.092819922674491E-020
 -1.299999999999999E-003   -1.059770551280519E-020
 -1.199999999999999E-003   -9.450261715059283E-021
 -1.099999999999999E-003   -7.399089418991048E-021
 -9.999999999999989E-004   -4.404059404075828E-021
 -8.999999999999990E-004   -4.839286042821147E-022
 -7.999999999999990E-004    4.273200112616669E-021
 -6.999999999999989E-004    9.702316465975514E-021
 -5.999999999999990E-004    1.555792335858777E-020
 -4.999999999999989E-004    2.151549264024492E-020
 -3.999999999999989E-004    2.717880221836617E-020
 -2.999999999999989E-004    3.209380891502508E-020
 -1.999999999999989E-004    3.576927925464905E-020
 -9.999999999999892E-005    3.770406042531323E-020
  1.084202172485504E-018    3.742031219785751E-020
  1.000000000000011E-004    3.450148252338897E-020
  2.000000000000011E-004    2.863327462223737E-020
  3.000000000000011E-004    1.964527735522682E-020
  4.000000000000011E-004    7.550451493478013E-021
  5.000000000000011E-004   -7.420693915198396E-021
  6.000000000000011E-004   -2.479461487530262E-020
  7.000000000000011E-004   -4.384140108059708E-020
  8.000000000000011E-004   -6.357671298806249E-020
  9.000000000000012E-004   -8.278183648165902E-020
  1.000000000000001E-003   -1.000436825777881E-019
  1.100000000000001E-003   -1.138157716454657E-019
  1.200000000000001E-003   -1.224997970595082E-019
  1.300000000000001E-003   -1.245458481525469E-019
  1.400000000000001E-003   -1.185679514597829E-019
  1.500000000000001E-003   -1.034694888231736E-019
  1.600000000000001E-003   -7.857181924617555E-020
  1.700000000000001E-003   -4.373770281143977E-020
  1.800000000000001E-003    5.199383154780788E-022
  1.900000000000001E-003    5.295416114019716E-020
  2.000000000000001E-003    1.115351600767255E-019
  2.100000000000001E-003    1.734463420365513E-019
  2.200000000000001E-003    2.351335716236990E-019
  2.300000000000001E-003    2.924136813707360E-019
  2.400000000000001E-003    3.406454582000098E-019
  2.500000000000001E-003    3.749625027035171E-019
  2.600000000000001E-003    3.905628819264130E-019
  2.700000000000001E-003    3.830457558285573E-019
  2.800000000000001E-003    3.487803082685682E-019
  2.900000000000001E-003    2.852871154916220E-019
  3.000000000000001E-003    1.916083825007851E-019
  3.100000000000001E-003    6.863946106865212E-020
  3.200000000000001E-003   -8.060768626425226E-020
  3.300000000000001E-003   -2.508384100499941E-019
  3.400000000000001E-003   -4.344356539077040E-019
  3.500000000000001E-003   -6.215701781468193E-019
  3.600000000000001E-003   -8.004791397249796E-019
  3.700000000000001E-003   -9.579231014825143E-019
  3.800000000000001E-003   -1.079820167632081E-018
  3.900000000000001E-003   -1.152044120776985E-018
  4.000000000000001E-003   -1.161360907124345E-018
  4.100000000000001E-003   -1.096461702355971E-018
  4.200000000000001E-003   -9.490398213994269E-019
  4.300000000000001E-003   -7.148463248537323E-019
  4.400000000000001E-003   -3.946478872998499E-019
  4.500000000000001E-003    4.991894650185214E-021
  4.600000000000002E-003    4.711905428593779E-019
  4.700000000000001E-003    9.845605853616644E-019
  4.800000000000001E-003    1.519427225151168E-018
  4.900000000000002E-003    2.044500290276032E-018
  5.000000000000001E-003    2.524026574053597E-018
  5.100000000000001E-003    2.919426240978435E-018
  5.200000000000001E-003    3.191377107492616E-018
  5.300000000000002E-003    3.302281616001922E-018
  5.400000000000001E-003    3.219010964982770E-018
  5.500000000000001E-003    2.915787385599158E-018
  5.600000000000002E-003    2.377036812865017E-018
  5.700000000000001E-003    1.600014164971893E-018
  5.800000000000001E-003    5.969956016538121E-019
  5.900000000000002E-003   -6.031769407516635E-019
  6.000000000000001E-003   -1.954398216618195E-018
  6.100000000000001E-003   -3.393627616299326E-018
  6.200000000000002E-003   -4.842375989372386E-018
  6.300000000000002E-003   -6.209427760845099E-018
  6.400000000000001E-003   -7.394807054476760E-018
  6.500000000000001E-003   -8.294919744704601E-018
  6.600000000000002E-003   -8.808702043272802E-018
  6.700000000000001E-003   -8.844528079434427E-018
  6.800000000000001E-003   -8.327536508692908E-018
  6.900000000000002E-003   -7.206962871701254E-018
  7.000000000000001E-003   -5.462991892521979E-018
  7.100000000000001E-003   -3.112626313311730E-018
  7.200000000000002E-003   -2.140318156812551E-019
  7.300000000000002E-003    3.131135534685521E-018
  7.400000000000001E-003    6.777864643553423E-018
  7.500000000000001E-003    1.054073940498690E-017
  7.600000000000002E-003    1.419990529715829E-017
  7.700000000000001E-003    1.751011498888636E-017
  7.800000000000001E-003    2.021269276725415E-017
  7.900000000000001E-003    2.205006641230052E-017
  8.000000000000002E-003    2.278229386141776E-017
  8.100000000000001E-003    2.220480254893249E-017
  8.200000000000001E-003    2.016636354352432E-017
  8.300000000000002E-003    1.658619164206957E-017
  8.400000000000001E-003    1.146893927161982E-017
  8.500000000000002E-003    4.916342362104172E-018
  8.600000000000002E-003   -2.865688291349629E-018
  8.700000000000001E-003   -1.156561864263049E-017
  8.800000000000002E-003   -2.077134324469872E-017
  8.900000000000002E-003   -2.998229014426668E-017
  9.000000000000001E-003   -3.862878077284795E-017
  9.100000000000002E-003   -4.609837908203032E-017
  9.200000000000002E-003   -5.176848497979175E-017
  9.300000000000001E-003   -5.504395437525387E-017
  9.400000000000002E-003   -5.539802111398666E-017
  9.500000000000001E-003   -5.241434573989567E-017
  9.600000000000001E-003   -4.582769138554961E-017
  9.700000000000002E-003   -3.556048453221983E-017
  9.800000000000001E-003   -2.175238536701071E-017
  9.900000000000001E-003   -4.780118853558058E-018
  1.000000000000000E-002    1.473497997505159E-017
  1.010000000000000E-002    3.593370942780887E-017
  1.020000000000000E-002    5.774148376384710E-017
  1.030000000000000E-002    7.890717257188347E-017
  1.040000000000000E-002    9.805782361520372E-017
  1.050000000000000E-002    1.137679401557973E-016
  1.060000000000000E-002    1.246408178547578E-016
  1.070000000000000E-002    1.293982583047131E-016
  1.080000000000000E-002    1.269741547987634E-016
  1.090000000000000E-002    1.166065695730750E-016
  1.100000000000000E-002    9.792244884158300E-017
  1.110000000000000E-002    7.100863067435466E-017
  1.120000000000000E-002    3.646321903960017E-017
  1.130000000000000E-002   -4.578291427974608E-018
  1.140000000000000E-002   -5.044688108776926E-017
  1.150000000000000E-002   -9.897709878996307E-017
  1.160000000000000E-002   -1.475790943762342E-016
  1.170000000000000E-002   -1.933453726790938E-016
  1.180000000000000E-002   -2.331895627670900E-016
  1.190000000000000E-002   -2.640126445506503E-016
  1.200000000000000E-002   -2.828894594136261E-016
  1.210000000000000E-002   -2.872663576058356E-016
  1.220000000000000E-002   -2.751592861942064E-016
  1.230000000000000E-002   -2.453401020488828E-016
  1.240000000000000E-002   -1.974983826541723E-016
  1.250000000000000E-002   -1.323660594313342E-016
  1.260000000000000E-002   -5.179316898248553E-017
  1.270000000000000E-002    4.123567967173071E-017
  1.280000000000000E-002    1.426512506887533E-016
  1.290000000000000E-002    2.474211414364528E-016
  1.300000000000000E-002    3.497424430747868E-016
  1.310000000000000E-002    4.433023629839037E-016
  1.320000000000000E-002    5.215982231104911E-016
  1.330000000000000E-002    5.783043112407949E-016
  1.340000000000000E-002    6.076678601636011E-016
  1.350000000000000E-002    6.049142109716372E-016
  1.360000000000000E-002    5.666372471880972E-016
  1.370000000000000E-002    4.911503307044241E-016
  1.380000000000000E-002    3.787724300663524E-016
  1.390000000000000E-002    2.320253894406146E-016
  1.400000000000000E-002    5.572137708065086E-017
  1.410000000000000E-002   -1.430763439516024E-016
  1.420000000000000E-002   -3.552304161727408E-016
  1.430000000000000E-002   -5.698473258911564E-016
  1.440000000000000E-002   -7.747326736715377E-016
  1.450000000000000E-002   -9.569700671453138E-016
  1.460000000000000E-002   -1.103603223889689E-015
  1.470000000000000E-002   -1.202389892942054E-015
  1.480000000000000E-002   -1.242591800525145E-015
  1.490000000000000E-002   -1.215756309275810E-015
  1.500000000000000E-002   -1.116444348822148E-015
  1.510000000000000E-002   -9.428550228188148E-016
  1.520000000000000E-002   -6.973002131934739E-016
  1.530000000000000E-002   -3.864875347850773E-016
  1.540000000000000E-002   -2.157436888301746E-017
  1.550000000000000E-002    3.820320023534000E-016
  1.560000000000000E-002    8.051413471466093E-016
  1.570000000000000E-002    1.225513506635963E-015
  1.580000000000000E-002    1.618840932817761E-015
  1.590000000000000E-002    1.959947321974114E-015
  1.600000000000000E-002    2.224154341533657E-015
  1.610000000000000E-002    2.388751806194867E-015
  1.620000000000000E-002    2.434497539715292E-015
  1.630000000000000E-002    2.347061304505249E-015
  1.640000000000000E-002    2.118324345228627E-015
  1.650000000000000E-002    1.747445839797664E-015
  1.660000000000000E-002    1.241611843431123E-015
  1.670000000000000E-002    6.163934194878075E-016
  1.680000000000000E-002   -1.043424971314982E-016
  1.690000000000000E-002   -8.890090217780446E-016
  1.700000000000000E-002   -1.699369416139872E-015
  1.710000000000000E-002   -2.492092824967648E-015
  1.720000000000000E-002   -3.220744101501519E-015
  1.730000000000000E-002   -3.838139286746873E-015
  1.740000000000000E-002   -4.298960864283993E-015
  1.750000000000000E-002   -4.562510452631894E-015
  1.760000000000000E-002   -4.595450819593925E-015
  1.770000000000000E-002   -4.374379129621061E-015
  1.780000000000000E-002   -3.888071876121357E-015
  1.790000000000000E-002   -3.139239828702983E-015
  1.800000000000000E-002   -2.145649564733568E-015
  1.810000000000000E-002   -9.404906325548522E-016
  1.820000000000000E-002    4.281001639686142E-016
  1.830000000000000E-002    1.898405085176633E-015
  1.840000000000000E-002    3.397388599246645E-015
  1.850000000000000E-002    4.843800822573799E-015
  1.860000000000000E-002    6.152023943078485E-015
  1.870000000000000E-002    7.236510871453001E-015