 -4.000000000000000E-002    0.000000000000000E+000
 -3.990000000000000E-002    0.000000000000000E+000
 -3.980000000000000E-002    0.000000000000000E+000
 -3.970000000000000E-002    0.000000000000000E+000
 -3.960000000000000E-002    0.000000000000000E+000
 -3.950000000000000E-002    0.000000000000000E+000
 -3.940000000000000E-002    0.000000000000000E+000
 -3.930000000000000E-002    0.000000000000000E+000
 -3.920000000000000E-002    0.000000000000000E+000
 -3.910000000000000E-002    0.000000000000000E+000
 -3.900000000000000E-002    0.000000000000000E+000
 -3.890000000000000E-002    0.000000000000000E+000
 -3.880000000000000E-002    0.000000000000000E+000
 -3.870000000000000E-002    0.000000000000000E+000
 -3.860000000000000E-002    0.000000000000000E+000
 -3.850000000000000E-002    0.000000000000000E+000
 -3.840000000000000E-002    0.000000000000000E+000
 -3.830000000000000E-002    0.000000000000000E+000
 -3.820000000000000E-002    0.000000000000000E+000
 -3.810000000000000E-002    0.000000000000000E+000
 -3.800000000000000E-002    0.000000000000000E+000
 -3.790000000000000E-002    0.000000000000000E+000
 -3.780000000000000E-002    0.000000000000000E+000
 -3.770000000000000E-002   -1.259270646170762E-046
 -3.760000000000000E-002   -9.608307174375381E-046
 -3.750000000000000E-002   -3.975464357017111E-045
 -3.740000000000000E-002   -1.558878370471593E-044
 -3.730000000000000E-002   -5.380756300799681E-044
 -3.720000000000000E-002   -1.752489035752157E-043
 -3.710000000000000E-002   -5.252290543271584E-043
 -3.700000000000000E-002   -1.448339245103660E-042
 -3.690000000000000E-002   -3.673464264704512E-042
 -3.680000000000000E-002   -8.529271086252116E-042
 -3.670000000000000E-002   -1.787874193989584E-041
 -3.660000000000000E-002   -3.275208797279894E-041
 -3.650000000000000E-002   -4.787670527063606E-041
 -3.640000000000000E-002   -3.551844246770874E-041
 -3.630000000000000E-002    9.536113405913451E-041
 -3.620000000000000E-002    5.917088774020157E-040
 -3.610000000000000E-002    2.048581768432265E-039
 -3.600000000000000E-002    5.777535102257357E-039
 -3.590000000000000E-002    1.445956780700740E-038
 -3.580000000000000E-002    3.320938600540384E-038
 -3.570000000000000E-002    7.114492882837528E-038
 -3.560000000000000E-002    1.434001787419658E-037
 -3.550000000000000E-002    2.731199410974047E-037
 -3.540000000000000E-002    4.921568622297785E-037
 -3.530000000000000E-002    8.377310319989123E-037
 -3.520000000000000E-002    1.339989521045874E-036
 -3.510000000000000E-002    1.992111764396801E-036
 -3.500000000000000E-002    2.690551909085373E-036
 -3.490000000000000E-002    3.129049649009772E-036
 -3.480000000000000E-002    2.628104471261660E-036
 -3.470000000000000E-002   -1.147814549957715E-037
 -3.460000000000000E-002   -7.354085211962231E-036
 -3.450000000000000E-002   -2.267098905295749E-035
 -3.440000000000000E-002   -5.129888625410407E-035
 -3.430000000000000E-002   -1.002063149248054E-034
 -3.420000000000000E-002   -1.776035900428633E-034
 -3.410000000000000E-002   -2.913622165835080E-034
 -3.400000000000000E-002   -4.456448412791265E-034
 -3.390000000000000E-002   -6.348910414237199E-034
 -3.380000000000000E-002   -8.342798918023371E-034
 -3.370000000000000E-002   -9.860333308386178E-034
 -3.360000000000000E-002   -9.816174810790109E-034
 -3.350000000000000E-002   -6.412529019290521E-034
 -3.340000000000000E-002    3.056302979170750E-034
 -3.330000000000000E-002    2.232137275461441E-033
 -3.320000000000000E-002    5.606835765410285E-033
 -3.310000000000000E-002    1.095209296766368E-032
 -3.300000000000000E-002    1.874754128988932E-032
 -3.290000000000000E-002    2.925553589762689E-032
 -3.280000000000000E-002    4.224638403552023E-032
 -3.270000000000000E-002    5.660860775572219E-032
 -3.260000000000000E-002    6.984667667292500E-032
 -3.250000000000000E-002    7.749882448239219E-032
 -3.240000000000000E-002    7.255289531481910E-032
 -3.230000000000000E-002    4.499932605947262E-032
 -3.220000000000000E-002   -1.826598649364104E-032
 -3.210000000000000E-002   -1.328974960592586E-031
 -3.200000000000000E-002   -3.155535936438720E-031
 -3.190000000000000E-002   -5.809482219415689E-031
 -3.180000000000000E-002   -9.371203775678023E-031
 -3.170000000000000E-002   -1.378654057581860E-030
 -3.160000000000000E-002   -1.877822283973596E-030
 -3.150000000000000E-002   -2.374029784062466E-030
 -3.140000000000000E-002   -2.762513474779354E-030
 -3.130000000000000E-002   -2.884020203131458E-030
 -3.120000000000000E-002   -2.518087699048001E-030
 -3.110000000000000E-002   -1.383527853048706E-030
 -3.100000000000000E-002    8.493908093258102E-031
 -3.090000000000000E-002    4.529926443186500E-030
 -3.080000000000000E-002    9.975757495315054E-030
 -3.070000000000000E-002    1.739523659273984E-029
 -3.060000000000000E-002    2.678030663645110E-029
 -3.050000000000000E-002    3.777072293301041E-029
 -3.040000000000000E-002    4.949533344609545E-029
 -3.030000000000000E-002    6.040317611032244E-029
 -3.020000000000000E-002    6.810606856674015E-029
 -3.010000000000000E-002    6.926488618173041E-029
 -3.000000000000000E-002    5.956295681469548E-029
 -2.990000000000000E-002    3.382100806816368E-029
 -2.980000000000000E-002   -1.368322187204095E-029
 -2.970000000000000E-002   -8.862385748269288E-029
 -2.960000000000000E-002   -1.957015052075052E-028
 -2.950000000000000E-002   -3.373374063530818E-028
 -2.940000000000000E-002   -5.119736107821923E-028
 -2.930000000000000E-002   -7.120194405671775E-028
 -2.920000000000000E-002   -9.215621349055250E-028
 -2.910000000000000E-002   -1.114063341997322E-027
 -2.900000000000000E-002   -1.250390810638341E-027
 -2.890000000000000E-002   -1.277678069301209E-027
 -2.880000000000000E-002   -1.129651991575439E-027
 -2.870000000000000E-002   -7.291932145694488E-028
 -2.860000000000000E-002    6.033427194776383E-030
 -2.850000000000000E-002    1.154066151009955E-027
 -2.840000000000000E-002    2.774608677409111E-027
 -2.830000000000000E-002    4.890193976321156E-027
 -2.820000000000000E-002    7.462887579810879E-027
 -2.810000000000000E-002    1.036775344183236E-026
 -2.800000000000000E-002    1.336545881995897E-026
 -2.790000000000000E-002    1.607776537861003E-026
 -2.780000000000000E-002    1.797112325848985E-026
 -2.770000000000000E-002    1.835497064998861E-026
 -2.760000000000000E-002    1.640235093859566E-026
 -2.750000000000000E-002    1.120077873975857E-026
 -2.740000000000000E-002    1.840484030020327E-027
 -2.730000000000000E-002   -1.245509594931598E-026
 -2.720000000000000E-002   -3.215582894393466E-026
 -2.710000000000000E-002   -5.721373705175421E-026
 -2.700000000000000E-002   -8.682757739907747E-026
 -2.690000000000000E-002   -1.192061088238763E-025
 -2.680000000000000E-002   -1.513633089186873E-025
 -2.670000000000000E-002   -1.789885175864757E-025
 -2.660000000000000E-002   -1.964419966793906E-025
 -2.650000000000000E-002   -1.969294955358547E-025
 -2.640000000000000E-002   -1.729060832856342E-025
 -2.630000000000000E-002   -1.167475145417346E-025
 -2.620000000000000E-002   -2.170537928020347E-026
 -2.610000000000000E-002    1.168703932328424E-025
 -2.600000000000000E-002    3.001008043300994E-025
 -2.590000000000000E-002    5.240478895011588E-025
 -2.580000000000000E-002    7.782474506327385E-025
 -2.570000000000000E-002    1.044515848657511E-024
 -2.560000000000000E-002    1.296279473188778E-024
 -2.550000000000000E-002    1.498693326768185E-024
 -2.540000000000000E-002    1.609802864038792E-024
 -2.530000000000000E-002    1.582953467542763E-024
 -2.520000000000000E-002    1.370563411813190E-024
 -2.510000000000000E-002    9.292420898522276E-025
 -2.500000000000000E-002    2.260687408437801E-025
 -2.490000000000000E-002   -7.543455274761161E-025
 -2.480000000000000E-002   -2.002590107678630E-024
 -2.470000000000000E-002   -3.477737357855421E-024
 -2.460000000000000E-002   -5.102072446049786E-024
 -2.450000000000000E-002   -6.758230878877785E-024
 -2.440000000000000E-002   -8.289676596774267E-024
 -2.430000000000000E-002   -9.505312018757105E-024
 -2.420000000000000E-002   -1.018875167534489E-023
 -2.410000000000000E-002   -1.011242684027186E-023
 -2.400000000000000E-002   -9.056227367892923E-024
 -2.390000000000000E-002   -6.829894931916862E-024
 -2.380000000000000E-002   -3.297871790721647E-024
 -2.370000000000000E-002    1.595125923360283E-024
 -2.360000000000000E-002    7.799875161928328E-024
 -2.350000000000000E-002    1.514199217873895E-023
 -2.340000000000000E-002    2.330709644644591E-023
 -2.330000000000000E-002    3.183382487374495E-023
 -2.320000000000000E-002    4.011637775787909E-023
 -2.310000000000000E-002    4.741781524954775E-023
 -2.300000000000000E-002    5.289478281820699E-023
 -2.290000000000000E-002    5.563385271210944E-023
 -2.280000000000000E-002    5.469923921026882E-023
 -2.270000000000000E-002    4.919132917830439E-023
 -2.260000000000000E-002    3.831524781042719E-023
 -2.250000000000000E-002    2.145847740761487E-023
 -2.240000000000000E-002   -1.723743025450706E-024
 -2.230000000000000E-002   -3.121701549298502E-023
 -2.220000000000000E-002   -6.655321792441620E-023
 -2.210000000000000E-002   -1.067170478355456E-022
 -2.200000000000000E-002   -1.500602841581373E-022
 -2.190000000000000E-002   -1.942330873795433E-022
 -2.180000000000000E-002   -2.361448289929287E-022
 -2.170000000000000E-002   -2.719701729761312E-022
 -2.160000000000000E-002   -2.972182934905545E-022
 -2.150000000000000E-002   -3.068842474306140E-022
 -2.140000000000000E-002   -2.956999038838583E-022
 -2.130000000000000E-002   -2.584970734119817E-022
 -2.120000000000000E-002   -1.906871170633602E-022
 -2.110000000000000E-002   -8.884839793846929E-023
 -2.100000000000000E-002    4.860315717539757E-023
 -2.090000000000000E-002    2.207044988287277E-022
 -2.080000000000000E-002    4.232607945628199E-022
 -2.070000000000000E-002    6.482684589399929E-022
 -2.060000000000000E-002    8.835420568377963E-022
 -2.050000000000000E-002    1.112647412088386E-021
 -2.040000000000000E-002    1.315237740133113E-021
 -2.030000000000000E-002    1.467870744703019E-021
 -2.020000000000000E-002    1.545349723964990E-021
 -2.010000000000000E-002    1.522584029600064E-021
 -2.000000000000000E-002    1.376901988733075E-021
 -1.990000000000000E-002    1.090681989830714E-021
 -1.980000000000000E-002    6.540982349537624E-022
 -1.970000000000000E-002    6.771873337970839E-023
 -1.960000000000000E-002   -6.553500529420649E-022
 -1.950000000000000E-002   -1.488089566842991E-021
 -1.940000000000000E-002   -2.389264009358325E-021
 -1.930000000000000E-002   -3.304416407244268E-021
 -1.920000000000000E-002   -4.168295819734109E-021
 -1.910000000000000E-002   -4.908705677440465E-021
 -1.900000000000000E-002   -5.451595908845462E-021
 -1.890000000000000E-002   -5.727048253450547E-021
 -1.880000000000000E-002   -5.675641607119563E-021
 -1.870000000000000E-002   -5.254557132425620E-021
 -1.860000000000000E-002   -4.442719923074673E-021
 -1.850000000000000E-002   -3.244282367214417E-021
 -1.840000000000000E-002   -1.689867253587584E-021
 -1.830000000000000E-002    1.648107067793475E-022
 -1.820000000000000E-002    2.243035757860478E-021
 -1.810000000000000E-002    4.453627200825109E-021
 -1.800000000000000E-002    6.699281641128431E-021
 -1.790000000000000E-002    8.885714089972815E-021
 -1.780000000000000E-002    1.093031776355384E-020
 -1.770000000000000E-002    1.276890796486903E-020
 -1.760000000000000E-002    1.435913848101513E-020
 -1.750000000000000E-002    1.567943743645497E-020
 -1.740000000000000E-002    1.672274493687364E-020
 -1.730000000000000E-002    1.748501580875262E-020
 -1.720000000000000E-002    1.794926553302383E-020
 -1.710000000000000E-002    1.806682386496181E-020
 -1.700000000000000E-002    1.773830384484348E-020
 -1.690000000000000E-002    1.679750767332304E-020
 -1.680000000000000E-002    1.500191253487852E-020
 -1.670000000000000E-002    1.203335980886267E-020
 -1.660000000000000E-002    7.512159289108243E-021
 -1.650000000000000E-002    1.026821819281537E-021
 -1.640000000000000E-002   -7.819866074987207E-021
 -1.630000000000000E-002   -1.934954020695108E-020
 -1.620000000000000E-002   -3.373504530671324E-020
 -1.610000000000000E-002   -5.092076718841195E-020
 -1.600000000000000E-002   -7.054405434562349E-020
 -1.590000000000000E-002   -9.186668572475537E-020
 -1.580000000000000E-002   -1.137262999659420E-019
 -1.570000000000000E-002   -1.345175854224304E-019
 -1.560000000000000E-002   -1.522118828865746E-019
 -1.550000000000000E-002   -1.644217758360530E-019
 -1.540000000000000E-002   -1.685140551658440E-019
 -1.530000000000000E-002   -1.617706902522115E-019
 -1.520000000000000E-002   -1.415929228053282E-019
 -1.510000000000000E-002   -1.057396039535107E-019
 -1.500000000000000E-002   -5.258651907921813E-020
 -1.490000000000000E-002    1.860954056327624E-020
 -1.480000000000000E-002    1.074604331291244E-019
 -1.470000000000000E-002    2.122293623293436E-019
 -1.460000000000000E-002    3.296655514628843E-019
 -1.450000000000000E-002    4.549078855739979E-019
 -1.440000000000000E-002    5.814721184521561E-019
 -1.430000000000000E-002    7.013326143703602E-019
 -1.420000000000000E-002    8.051062627145950E-019
 -1.410000000000000E-002    8.823430024938423E-019
 -1.400000000000000E-002    9.219239181630750E-019
 -1.390000000000000E-002    9.125666565951858E-019
 -1.380000000000000E-002    8.434344667746274E-019
 -1.370000000000000E-002    7.048448966639564E-019
 -1.360000000000000E-002    4.890696835455337E-019
 -1.350000000000000E-002    1.912137958016108E-019
 -1.340000000000000E-002   -1.898445957366212E-019
 -1.330000000000000E-002   -6.504842339017940E-019
 -1.320000000000000E-002   -1.181382234948044E-018
 -1.310000000000000E-002   -1.766630121179284E-018
 -1.300000000000000E-002   -2.383002625603637E-018
 -1.290000000000000E-002   -2.999482581745937E-018
 -1.280000000000000E-002   -3.577161751104852E-018
 -1.270000000000000E-002   -4.069651101180967E-018
 -1.260000000000000E-002   -4.424140090463180E-018
 -1.250000000000000E-002   -4.583231666282508E-018
 -1.240000000000000E-002   -4.487657247629331E-018
 -1.230000000000000E-002   -4.079925470555199E-018
 -1.220000000000000E-002   -3.308892048595434E-018
 -1.210000000000000E-002   -2.135150891619750E-018
 -1.200000000000000E-002   -5.370339272109329E-019
 -1.190000000000000E-002    1.483100948467078E-018
 -1.180000000000000E-002    3.892740269545292E-018
 -1.170000000000000E-002    6.623793650832137E-018
 -1.160000000000000E-002    9.568526003975122E-018
 -1.150000000000000E-002    1.257752364378625E-017
 -1.140000000000000E-002    1.546038304021701E-017
 -1.130000000000000E-002    1.798974068585805E-017
 -1.120000000000000E-002    1.990913392929921E-017
 -1.110000000000000E-002    2.094495744369362E-017
 -1.100000000000000E-002    2.082252576417956E-017
 -1.090000000000000E-002    1.928589700146230E-017
 -1.080000000000000E-002    1.612073135664217E-017
 -1.070000000000000E-002    1.117908093881106E-017
 -1.060000000000000E-002    4.404608467819157E-018
 -1.050000000000000E-002   -4.143593391927029E-018
 -1.040000000000000E-002   -1.427066950925882E-017
 -1.030000000000000E-002   -2.563134299746891E-017
 -1.020000000000000E-002   -3.772314998383158E-017
 -1.010000000000000E-002   -4.988954621749718E-017
 -1.000000000000000E-002   -6.133453244224441E-017
 -9.899999999999999E-003   -7.114988099468219E-017
 -9.800000000000000E-003   -7.835531264987912E-017
 -9.699999999999999E-003   -8.195115815254969E-017
 -9.599999999999999E-003   -8.098204334419527E-017
 -9.500000000000000E-003   -7.460918064635573E-017
 -9.399999999999999E-003   -6.218786476913753E-017
 -9.299999999999999E-003   -4.334588876369498E-017
 -9.200000000000000E-003   -1.805787872137371E-017
 -9.099999999999999E-003    1.328996950356237E-017
 -8.999999999999999E-003    4.985050318584162E-017
 -8.900000000000000E-003    9.028720749101269E-017
 -8.799999999999999E-003    1.327720144856519E-016
 -8.699999999999999E-003    1.750137137354436E-016
 -8.600000000000000E-003    2.143201436570369E-016
 -8.499999999999999E-003    2.476959083680959E-016
 -8.399999999999999E-003    2.719753659942625E-016
 -8.300000000000000E-003    2.839887724372445E-016
 -8.199999999999999E-003    2.807569269824944E-016
 -8.100000000000000E-003    2.597074917757550E-016
 -8.000000000000000E-003    2.189037651451435E-016
 -7.899999999999999E-003    1.572742533437881E-016
 -7.800000000000000E-003    7.482977413759598E-017
 -7.699999999999999E-003   -2.714700793975959E-017
 -7.599999999999999E-003   -1.459557778938881E-016
 -7.499999999999999E-003   -2.773924284435102E-016
 -7.399999999999999E-003   -4.157387861264547E-016
 -7.299999999999999E-003   -5.538418072497205E-016
 -7.199999999999999E-003   -6.832937218989378E-016
 -7.100000000000000E-003   -7.947203422172629E-016
 -6.999999999999999E-003   -8.781797843442768E-016
 -6.899999999999999E-003   -9.236669654608431E-016
 -6.800000000000000E-003   -9.217124411759696E-016
 -6.699999999999999E-003   -8.640558664106857E-016
 -6.599999999999999E-003   -7.443656032145789E-016
 -6.499999999999999E-003   -5.589682997161929E-016
 -6.399999999999999E-003   -3.075441651591713E-016
 -6.299999999999999E-003    6.261465722023836E-018
 -6.199999999999999E-003    3.743651198053368E-016
 -6.100000000000000E-003    7.839647240939835E-016
 -5.999999999999999E-003    1.217504756047097E-015
 -5.899999999999999E-003    1.652932953996499E-015
 -5.800000000000000E-003    2.064283667231208E-015
 -5.699999999999999E-003    2.422608133196018E-015
 -5.599999999999999E-003    2.697252801725141E-015
 -5.499999999999999E-003    2.857463998757310E-015
 -5.399999999999999E-003    2.874271453249997E-015
 -5.299999999999999E-003    2.722578992834688E-015
 -5.199999999999999E-003    2.383362228064240E-015
 -5.099999999999999E-003    1.845851483480960E-015
 -4.999999999999999E-003    1.109558440432400E-015
 -4.899999999999999E-003    1.859912292493505E-016
 -4.799999999999999E-003   -9.001001448627011E-016
 -4.699999999999999E-003   -2.110102570286047E-015
 -4.599999999999999E-003   -3.391681815897061E-015
 -4.499999999999999E-003   -4.679796109161392E-015
 -4.399999999999999E-003   -5.898656438236529E-015
 -4.299999999999999E-003   -6.964654749723892E-015
 -4.199999999999999E-003   -7.790226565241898E-015
 -4.099999999999999E-003   -8.288546960093056E-015
 -3.999999999999999E-003   -8.378897670798347E-015
 -3.899999999999999E-003   -7.992474610015134E-015
 -3.799999999999999E-003   -7.078338477029556E-015
 -3.699999999999999E-003   -5.609174723274156E-015
 -3.599999999999999E-003   -3.586473903998869E-015
 -3.499999999999999E-003   -1.044743161523246E-015
 -3.399999999999999E-003    1.945652433699122E-015
 -3.299999999999999E-003    5.277381719522440E-015
 -3.199999999999999E-003    8.807085472583739E-015
 -3.099999999999999E-003    1.235859298333860E-014
 -2.999999999999999E-003    1.572855185365857E-014
 -2.899999999999999E-003    1.869446727917537E-014
 -2.799999999999999E-003    2.102501236818999E-014
 -2.699999999999999E-003    2.249232191617023E-014
 -2.599999999999999E-003    2.288580830650824E-014
 -2.499999999999999E-003    2.202691049041732E-014
 -2.399999999999999E-003    1.978403344003961E-014
 -2.299999999999999E-003    1.608682590853782E-014
 -2.199999999999999E-003    1.093888603503815E-014
 -2.099999999999999E-003    4.427918810565330E-015
 -1.999999999999999E-003   -3.267571159146294E-015
 -1.899999999999999E-003   -1.187593990475723E-014
 -1.799999999999999E-003   -2.103511900896949E-014
 -1.699999999999999E-003   -3.030094783980600E-014
 -1.599999999999999E-003   -3.916137002682852E-014
 -1.499999999999999E-003   -4.705650442424426E-014
 -1.399999999999999E-003   -5.340420261260913E-014
 -1.299999999999999E-003   -5.763038521852884E-014
 -1.199999999999999E-003   -5.920302061773737E-014
 -1.099999999999999E-003   -5.766830782341080E-014
 -9.999999999999989E-004   -5.268724321067714E-014
 -8.999999999999990E-004   -4.407055717434500E-014
 -7.999999999999990E-004   -3.180972982475082E-014
 -6.999999999999989E-004   -1.610178086889815E-014
 -5.999999999999990E-004    2.634389602743940E-015
 -4.999999999999989E-004    2.375223816009863E-014
 -3.999999999999989E-004    4.638412204708709E-014
 -2.999999999999989E-004    6.946139401090159E-014
 -1.999999999999989E-004    9.174869079402588E-014
 -9.999999999999892E-005    1.118923190491002E-013
  1.084202172485504E-018    1.284817806172598E-013
  1.000000000000011E-004    1.401226155549692E-013
  2.000000000000011E-004    1.455178028990940E-013
  3.000000000000011E-004    1.435540882906319E-013
  4.000000000000011E-004    1.333890042302050E-013
  5.000000000000011E-004    1.145334293757475E-013
  6.000000000000011E-004    8.692451779201184E-014
  7.000000000000011E-004    5.098342536522886E-014
  8.000000000000011E-004    7.652599907731853E-015
  9.000000000000012E-004   -4.159202826936045E-014
  1.000000000000001E-003   -9.475792949685641E-014
  1.100000000000001E-003   -1.493844791706067E-013
  1.200000000000001E-003   -2.026241625941638E-013
  1.300000000000001E-003   -2.513559226294014E-013
  1.400000000000001E-003   -2.923278354991973E-013
  1.500000000000001E-003   -3.223246337909307E-013
  1.600000000000001E-003   -3.383532316953527E-013
  1.700000000000001E-003   -3.378378785271798E-013
  1.800000000000001E-003   -3.188147122498335E-013
  1.900000000000001E-003   -2.801146261419355E-013
  2.000000000000001E-003   -2.215225468586337E-013
  2.100000000000001E-003   -1.439012013016118E-013
  2.200000000000001E-003   -4.926833743285947E-014
  2.300000000000001E-003    5.918230232424721E-014
  2.400000000000001E-003    1.771239109998940E-013
  2.500000000000001E-003    2.992081971830812E-013
  2.600000000000001E-003    4.192467928957004E-013
  2.700000000000001E-003    5.304602265414873E-013
  2.800000000000001E-003    6.257875550622774E-013
  2.900000000000001E-003    6.982460486625851E-013
  3.000000000000001E-003    7.413260562952263E-013
  3.100000000000001E-003    7.494025680188303E-013
  3.200000000000001E-003    7.181423762340560E-013
  3.300000000000001E-003    6.448833463225973E-013
  3.400000000000001E-003    5.289618878555549E-013
  3.500000000000001E-003    3.719647931547442E-013
  3.600000000000001E-003    1.778832652763562E-013
  3.700000000000001E-003   -4.684899718766011E-014
  3.800000000000001E-003   -2.934489196385083E-013
  3.900000000000001E-003   -5.510154650231828E-013
  4.000000000000001E-003   -8.069018840117248E-013
  4.100000000000001E-003   -1.047222102884320E-012
  4.200000000000001E-003   -1.257477075717740E-012
  4.300000000000001E-003   -1.423278871006960E-012
  4.400000000000001E-003   -1.531142660935036E-012
  4.500000000000001E-003   -1.569309496534871E-012
  4.600000000000002E-003   -1.528558637891541E-012
  4.700000000000001E-003   -1.402962653379267E-012
  4.800000000000001E-003   -1.190539578821834E-012
  4.900000000000002E-003   -8.937554438907625E-013
  5.000000000000001E-003   -5.198345977081542E-013
  5.100000000000001E-003   -8.084356019258400E-014
  5.200000000000001E-003    4.064805537464596E-013
  5.300000000000002E-003    9.211700868105238E-013
  5.400000000000001E-003    1.438739808336960E-012
  5.500000000000001E-003    1.932158470109690E-012
  5.600000000000002E-003    2.373051816725876E-012
  5.700000000000001E-003    2.733093605496804E-012
  5.800000000000001E-003    2.985526643051057E-012
  5.900000000000002E-003    3.106743526688451E-012
  6.000000000000001E-003    3.077847194270154E-012
  6.100000000000001E-003    2.886103785759053E-012
  6.200000000000002E-003    2.526199825323350E-012
  6.300000000000002E-003    2.001216570149927E-012
  6.400000000000001E-003    1.323242265945144E-012
  6.500000000000001E-003    5.135574106040027E-013
  6.600000000000002E-003   -3.976579009747395E-013
  6.700000000000001E-003   -1.372120449425416E-012
  6.800000000000001E-003   -2.364748472203622E-012
  6.900000000000002E-003   -3.325445889012052E-012
  7.000000000000001E-003   -4.201315968515398E-012
  7.100000000000001E-003   -4.939219164394864E-012
  7.200000000000002E-003   -5.488569810508464E-012
  7.300000000000002E-003   -5.804238604913263E-012
  7.400000000000001E-003   -5.849415606573116E-012
  7.500000000000001E-003   -5.598273499142363E-012
  7.600000000000002E-003   -5.038272156357224E-012
  7.700000000000001E-003   -4.171947871104130E-012
  7.800000000000001E-003   -3.018050160193086E-012
  7.900000000000001E-003   -1.611908661501247E-012
  8.000000000000002E-003   -4.947857471018820E-015
  8.100000000000001E-003    1.736694786903184E-012
  8.200000000000001E-003    3.534443535492995E-012
  8.300000000000002E-003    5.300404969534415E-012
  8.400000000000001E-003    6.941228925218491E-012
  8.500000000000002E-003    8.362568795256834E-012
  8.600000000000002E-003    9.473942504144076E-012
  8.700000000000001E-003    1.019377050610362E-011
  8.800000000000002E-003    1.045432984533583E-011
  8.900000000000002E-003    1.020636189483607E-011
  9.000000000000001E-003    9.423054184173699E-012
  9.100000000000002E-003    8.103142354387789E-012
  9.200000000000002E-003    6.272904310350674E-012
  9.300000000000001E-003    3.986853068063657E-012
  9.400000000000002E-003    1.327000813923513E-012
  9.500000000000001E-003   -1.599367135376028E-012
  9.600000000000001E-003   -4.663403306456553E-012
  9.700000000000002E-003   -7.719801782719882E-012
  9.800000000000001E-003   -1.061312490009230E-011
  9.900000000000001E-003   -1.318510405501928E-011
  1.000000000000000E-002   -1.528260177296352E-011
  1.010000000000000E-002   -1.676586392101287E-011
  1.020000000000000E-002   -1.751664749943631E-011
  1.030000000000000E-002   -1.744579597097631E-011
  1.040000000000000E-002   -1.649982325194400E-011
  1.050000000000000E-002   -1.466610146465424E-011
  1.060000000000000E-002   -1.197628822486197E-011
  1.070000000000000E-002   -8.507694168850044E-012
  1.080000000000000E-002   -4.382386826150431E-012
  1.090000000000000E-002    2.360729091739244E-013
  1.100000000000000E-002    5.148254456211828E-012
  1.110000000000000E-002    1.012669568240259E-011
  1.120000000000000E-002    1.492569987984821E-011
  1.130000000000000E-002    1.929271534530537E-011
  1.140000000000000E-002    2.298080893374655E-011
  1.150000000000000E-002    2.576165155963357E-011
  1.160000000000000E-002    2.743839528865576E-011
  1.170000000000000E-002    2.785774934695552E-011
  1.180000000000000E-002    2.692059154725338E-011
  1.190000000000000E-002    2.459047557230504E-011
  1.200000000000000E-002    2.089942603581456E-011
  1.210000000000000E-002    1.595060309849529E-011
  1.220000000000000E-002    9.917447657788542E-012
  1.230000000000000E-002    3.039141767297817E-012
  1.240000000000000E-002   -4.387593080018973E-012
  1.250000000000000E-002   -1.202019976572855E-011
  1.260000000000000E-002   -1.948508873521537E-011
  1.270000000000000E-002   -2.639496126465767E-011
  1.280000000000000E-002   -3.236792850904199E-011
  1.290000000000000E-002   -3.704753194908083E-011
  1.300000000000000E-002   -4.012268254007063E-011
  1.310000000000000E-002   -4.134646700293601E-011
  1.320000000000000E-002   -4.055278995926199E-011
  1.330000000000000E-002   -3.766982487204354E-011
  1.340000000000000E-002   -3.272939530589620E-011
  1.350000000000000E-002   -2.587153330898181E-011
  1.360000000000000E-002   -1.734367696902236E-011
  1.370000000000000E-002   -7.494227487514194E-012
  1.380000000000000E-002    3.239541512300670E-012
  1.390000000000000E-002    1.434895022947622E-011
  1.400000000000000E-002    2.527616510140667E-011
  1.410000000000000E-002    3.544035918363992E-011
  1.420000000000000E-002    4.426668803984311E-011
  1.430000000000000E-002    5.121670790130272E-011
  1.440000000000000E-002    5.581878985711107E-011
  1.450000000000000E-002    5.769689973518484E-011
  1.460000000000000E-002    5.659622033147994E-011
  1.470000000000000E-002    5.240405390029476E-011
  1.480000000000000E-002    4.516464789270438E-011
  1.490000000000000E-002    3.508686850379033E-011
  1.500000000000000E-002    2.254379360534260E-011
  1.510000000000000E-002    8.063829700439110E-012
  1.520000000000000E-002   -7.686736088624591E-012
  1.530000000000000E-002   -2.392940968758791E-011
  1.540000000000000E-002   -3.980659712058562E-011
  1.550000000000000E-002   -5.442093490300563E-011
  1.560000000000000E-002   -6.687930520526642E-011
  1.570000000000000E-002   -7.633956693898654E-011
  1.580000000000000E-002   -8.205795050628266E-011
  1.590000000000000E-002   -8.343472251186173E-011
  1.600000000000000E-002   -8.005584084004278E-011
  1.610000000000000E-002   -7.172825017574368E-011
  1.620000000000000E-002   -5.850669861435018E-011
  1.630000000000000E-002   -4.071019060431710E-011
  1.640000000000000E-002   -1.892661015959217E-011
  1.650000000000000E-002    5.995542990781706E-012
  1.660000000000000E-002    3.296882100105977E-011
  1.670000000000000E-002    6.070175846463070E-011
  1.680000000000000E-002    8.774640839319431E-011
  1.690000000000000E-002    1.125571565351585E-010
  1.700000000000000E-002    1.335588412062556E-010
  1.710000000000000E-002    1.492217983188119E-010
  1.720000000000000E-002    1.581408027379968E-010
  1.730000000000000E-002    1.591146281538957E-010
  1.740000000000000E-002    1.512227140464725E-010
  1.750000000000000E-002    1.338951252927680E-010
  1.760000000000000E-002    1.069723358618560E-010
  1.770000000000000E-002    7.075122643736684E-011
  1.780000000000000E-002    2.601433329851475E-011
  1.790000000000000E-002   -2.596030610615835E-011
  1.800000000000000E-002   -8.341068221160013E-011
  1.810000000000000E-002   -1.441248001707018E-010
  1.820000000000000E-002   -2.054975964834838E-010
  1.830000000000000E-002   -2.646099994981780E-010
  1.840000000000000E-002   -3.183287480368538E-010
  1.850000000000000E-002   -3.634243963061217E-010
  1.860000000000000E-002   -3.967040176997641E-010
  1.870000000000000E-002   -4.151544632363395E-010