 -4.000000000000000E-002    0.000000000000000E+000
 -3.990000000000000E-002    0.000000000000000E+000
 -3.980000000000000E-002    0.000000000000000E+000
 -3.970000000000000E-002    0.000000000000000E+000
 -3.960000000000000E-002    0.000000000000000E+000
 -3.950000000000000E-002    0.000000000000000E+000
 -3.940000000000000E-002    0.000000000000000E+000
 -3.930000000000000E-002    0.000000000000000E+000
 -3.920000000000000E-002    0.000000000000000E+000
 -3.910000000000000E-002    0.000000000000000E+000
 -3.900000000000000E-002    0.000000000000000E+000
 -3.890000000000000E-002    0.000000000000000E+000
 -3.880000000000000E-002    0.000000000000000E+000
 -3.870000000000000E-002    0.000000000000000E+000
 -3.860000000000000E-002    1.567504218408828E-045
 -3.850000000000000E-002    4.124879217076930E-044
 -3.840000000000000E-002    5.592205986239892E-043
 -3.830000000000000E-002    5.173876234391405E-042
 -3.820000000000000E-002    3.687599415065220E-041
 -3.810000000000000E-002    2.154311985967836E-040
 -3.800000000000000E-002    1.073065326371250E-039
 -3.790000000000000E-002    4.680745994469168E-039
 -3.780000000000000E-002    1.822626652862706E-038
 -3.770000000000000E-002    6.426134765002040E-038
 -3.760000000000000E-002    2.073745309533084E-037
 -3.750000000000000E-002    6.175891817929823E-037
 -3.740000000000000E-002    1.708080280943234E-036
 -3.730000000000000E-002    4.407426895276432E-036
 -3.720000000000000E-002    1.064321844811314E-035
 -3.710000000000000E-002    2.408995351562095E-035
 -3.700000000000000E-002    5.109055613737284E-035
 -3.690000000000000E-002    1.012429803505322E-034
 -3.680000000000000E-002    1.861881427688999E-034
 -3.670000000000000E-002    3.132524908865092E-034
 -3.660000000000000E-002    4.672976299149662E-034
 -3.650000000000000E-002    5.689556373058513E-034
 -3.640000000000000E-002    3.902758180146224E-034
 -3.630000000000000E-002   -5.995010836086663E-034
 -3.620000000000000E-002   -3.492142995432469E-033
 -3.610000000000000E-002   -1.033632700201662E-032
 -3.600000000000000E-002   -2.468739909577659E-032
 -3.590000000000000E-002   -5.227711731277167E-032
 -3.580000000000000E-002   -1.016667654598387E-031
 -3.570000000000000E-002   -1.845693055221595E-031
 -3.560000000000000E-002   -3.152555686740438E-031
 -3.550000000000000E-002   -5.080948464913720E-031
 -3.540000000000000E-002   -7.718563678342779E-031
 -3.530000000000000E-002   -1.099007079463656E-030
 -3.520000000000000E-002   -1.448063833728570E-030
 -3.510000000000000E-002   -1.717374252386435E-030
 -3.500000000000000E-002   -1.709905298943045E-030
 -3.490000000000000E-002   -1.091169889532603E-030
 -3.480000000000000E-002    6.532211398021170E-031
 -3.470000000000000E-002    4.247458921341400E-030
 -3.460000000000000E-002    1.062158089095642E-029
 -3.450000000000000E-002    2.084284680230495E-029
 -3.440000000000000E-002    3.594292507624803E-029
 -3.430000000000000E-002    5.659659585010350E-029
 -3.420000000000000E-002    8.261150990381416E-029
 -3.410000000000000E-002    1.122066152533472E-028
 -3.400000000000000E-002    1.410954200214162E-028
 -3.390000000000000E-002    1.614539894106324E-028
 -3.380000000000000E-002    1.609444427181195E-028
 -3.370000000000000E-002    1.220779820584476E-028
 -3.360000000000000E-002    2.232377489626867E-029
 -3.350000000000000E-002   -1.645244503921441E-028
 -3.340000000000000E-002   -4.651618190333596E-028
 -3.330000000000000E-002   -9.012567784638763E-028
 -3.320000000000000E-002   -1.481312716012963E-027
 -3.310000000000000E-002   -2.190036986386724E-027
 -3.300000000000000E-002   -2.976013466940035E-027
 -3.290000000000000E-002   -3.739364980079467E-027
 -3.280000000000000E-002   -4.322135773402467E-027
 -3.270000000000000E-002   -4.505150762927764E-027
 -3.260000000000000E-002   -4.015866370545913E-027
 -3.250000000000000E-002   -2.551860723905234E-027
 -3.240000000000000E-002    1.762688440677509E-028
 -3.230000000000000E-002    4.381134386654733E-027
 -3.220000000000000E-002    1.011643180040629E-026
 -3.210000000000000E-002    1.718470671766902E-026
 -3.200000000000000E-002    2.505029012009920E-026
 -3.190000000000000E-002    3.278022032022278E-026
 -3.180000000000000E-002    3.904241560798753E-026
 -3.170000000000000E-002    4.219350479228956E-026
 -3.160000000000000E-002    4.048625124367419E-026
 -3.150000000000000E-002    3.241524809737345E-026
 -3.140000000000000E-002    1.719782663815863E-026
 -3.130000000000000E-002   -4.646614636712717E-027
 -3.120000000000000E-002   -3.069995641146141E-026
 -3.110000000000000E-002   -5.616344721120628E-026
 -3.100000000000000E-002   -7.367257364621740E-026
 -3.090000000000000E-002   -7.362809964388182E-026
 -3.080000000000000E-002   -4.527220375493306E-026
 -3.070000000000000E-002    2.129552077934063E-026
 -3.060000000000000E-002    1.320629388339842E-025
 -3.050000000000000E-002    2.850799695545144E-025
 -3.040000000000000E-002    4.657740207797927E-025
 -3.030000000000000E-002    6.422253232382069E-025
 -3.020000000000000E-002    7.613657836821245E-025
 -3.010000000000000E-002    7.473939403764322E-025
 -3.000000000000000E-002    5.039420798703379E-025
 -2.990000000000000E-002   -7.839305834724405E-026
 -2.980000000000000E-002   -1.107744634309044E-024
 -2.970000000000000E-002   -2.669029395141791E-024
 -2.960000000000000E-002   -4.794475553062517E-024
 -2.950000000000000E-002   -7.428138633192595E-024
 -2.940000000000000E-002   -1.038770519310228E-023
 -2.930000000000000E-002   -1.332890222284865E-023
 -2.920000000000000E-002   -1.571981647684028E-023
 -2.910000000000000E-002   -1.683405816011262E-023
 -2.900000000000000E-002   -1.577256075880852E-023
 -2.890000000000000E-002   -1.152334942895643E-023
 -2.880000000000000E-002   -3.066581911388980E-024
 -2.870000000000000E-002    1.047197581963854E-023
 -2.860000000000000E-002    2.962202460400746E-023
 -2.850000000000000E-002    5.433549666848627E-023
 -2.840000000000000E-002    8.373957184052102E-023
 -2.830000000000000E-002    1.159064624570086E-022
 -2.820000000000000E-002    1.476793503488237E-022
 -2.810000000000000E-002    1.746001883960058E-022
 -2.800000000000000E-002    1.909869982225041E-022
 -2.790000000000000E-002    1.902040607990833E-022
 -2.780000000000000E-002    1.651567778015204E-022
 -2.770000000000000E-002    1.090230390143707E-022
 -2.760000000000000E-002    1.620548171498832E-023
 -2.750000000000000E-002   -1.165446410573317E-022
 -2.740000000000000E-002   -2.889185594210340E-022
 -2.730000000000000E-002   -4.958784517125476E-022
 -2.720000000000000E-002   -7.266762849665390E-022
 -2.710000000000000E-002   -9.642345944033034E-022
 -2.700000000000000E-002   -1.185062089013727E-021
 -2.690000000000000E-002   -1.359859221015563E-021
 -2.680000000000000E-002   -1.454925017556536E-021
 -2.670000000000000E-002   -1.434411217488288E-021
 -2.660000000000000E-002   -1.263386038796862E-021
 -2.650000000000000E-002   -9.115708901242405E-022
 -2.640000000000000E-002   -3.575172264769204E-022
 -2.630000000000000E-002    4.071020179623900E-022
 -2.620000000000000E-002    1.373476676350834E-021
 -2.610000000000000E-002    2.512344037991096E-021
 -2.600000000000000E-002    3.771786874725525E-021
 -2.590000000000000E-002    5.076509975378519E-021
 -2.580000000000000E-002    6.328850313473473E-021
 -2.570000000000000E-002    7.411667515765727E-021
 -2.560000000000000E-002    8.193095978594901E-021
 -2.550000000000000E-002    8.533010559294375E-021
 -2.540000000000000E-002    8.290959184014036E-021
 -2.530000000000000E-002    7.335221425985990E-021
 -2.520000000000000E-002    5.552671763644326E-021
 -2.510000000000000E-002    2.859166174236218E-021
 -2.500000000000000E-002   -7.897390519650578E-022
 -2.490000000000000E-002   -5.387817799574953E-021
 -2.480000000000000E-002   -1.086696467670031E-020
 -2.470000000000000E-002   -1.708576782002888E-020
 -2.460000000000000E-002   -2.381804743697703E-020
 -2.450000000000000E-002   -3.074185771664851E-020
 -2.440000000000000E-002   -3.742996647546586E-020
 -2.430000000000000E-002   -4.334355715749838E-020
 -2.420000000000000E-002   -4.783161694898890E-020
 -2.410000000000000E-002   -5.013934364649820E-020
 -2.400000000000000E-002   -4.942937783113090E-020
 -2.390000000000000E-002   -4.481997388374739E-020
 -2.380000000000000E-002   -3.544370330580009E-020
 -2.370000000000000E-002   -2.052922192691485E-020
 -2.360000000000000E-002    4.936212469096491E-022
 -2.350000000000000E-002    2.786799365162406E-020
 -2.340000000000000E-002    6.137027161777732E-020
 -2.330000000000000E-002    1.001671530125126E-019
 -2.320000000000000E-002    1.426854329439782E-019
 -2.310000000000000E-002    1.865139749945927E-019
 -2.300000000000000E-002    2.283602544485532E-019
 -2.290000000000000E-002    2.640848527046732E-019
 -2.280000000000000E-002    2.888350059893767E-019
 -2.270000000000000E-002    2.972935352577369E-019
 -2.260000000000000E-002    2.840503978377576E-019
 -2.250000000000000E-002    2.440924132178552E-019
 -2.240000000000000E-002    1.733917474238070E-019
 -2.230000000000000E-002    6.955737092785446E-020
 -2.220000000000000E-002   -6.750259115814134E-020
 -2.210000000000000E-002   -2.349738886994626E-019
 -2.200000000000000E-002   -4.266612439652303E-019
 -2.190000000000000E-002   -6.327255389828741E-019
 -2.180000000000000E-002   -8.397085619309936E-019
 -2.170000000000000E-002   -1.030907618488493E-018
 -2.160000000000000E-002   -1.187137316450010E-018
 -2.150000000000000E-002   -1.287883576393520E-018
 -2.140000000000000E-002   -1.312816730033451E-018
 -2.130000000000000E-002   -1.243585229444521E-018
 -2.120000000000000E-002   -1.065769448347943E-018
 -2.110000000000000E-002   -7.708407129369104E-019
 -2.100000000000000E-002   -3.579403892382383E-019
 -2.090000000000000E-002    1.647128623565663E-019
 -2.080000000000000E-002    7.789750476821719E-019
 -2.070000000000000E-002    1.456641816076181E-018
 -2.060000000000000E-002    2.160136228771379E-018
 -2.050000000000000E-002    2.844058288627167E-018
 -2.040000000000000E-002    3.457556794508826E-018
 -2.030000000000000E-002    3.947401561358876E-018
 -2.020000000000000E-002    4.261557240975102E-018
 -2.010000000000000E-002    4.352990794795248E-018
 -2.000000000000000E-002    4.183411026571118E-018
 -1.990000000000000E-002    3.726619989186834E-018
 -1.980000000000000E-002    2.971190645968178E-018
 -1.970000000000000E-002    1.922236384848352E-018
 -1.960000000000000E-002    6.021335251634045E-019
 -1.950000000000000E-002   -9.498360182957951E-019
 -1.940000000000000E-002   -2.678833566453829E-018
 -1.930000000000000E-002   -4.516613409586729E-018
 -1.920000000000000E-002   -6.384184583195937E-018
 -1.910000000000000E-002   -8.194678475311024E-018
 -1.900000000000000E-002   -9.856096027974664E-018
 -1.890000000000000E-002   -1.127369425956521E-017
 -1.880000000000000E-002   -1.235189323666690E-017
 -1.870000000000000E-002   -1.299573759386424E-017
 -1.860000000000000E-002   -1.311212749079348E-017
 -1.850000000000000E-002   -1.261123836977305E-017
 -1.840000000000000E-002   -1.140865114528592E-017
 -1.830000000000000E-002   -9.428807351056114E-018
 -1.820000000000000E-002   -6.610359467814931E-018
 -1.810000000000000E-002   -2.913828957076899E-018
 -1.800000000000000E-002    1.668304042936111E-018
 -1.790000000000000E-002    7.099343303120995E-018
 -1.780000000000000E-002    1.328471455541300E-017
 -1.770000000000000E-002    2.005818601394052E-017
 -1.760000000000000E-002    2.716973365551596E-017
 -1.750000000000000E-002    3.427723494269311E-017
 -1.740000000000000E-002    4.094433841981721E-017
 -1.730000000000000E-002    4.664687130012017E-017
 -1.720000000000000E-002    5.078969561478033E-017
 -1.710000000000000E-002    5.273538332351422E-017
 -1.700000000000000E-002    5.184489487323958E-017
 -1.690000000000000E-002    4.752936429100596E-017
 -1.680000000000000E-002    3.931054068560350E-017
 -1.670000000000000E-002    2.688601011746952E-017
 -1.660000000000000E-002    1.019397972842260E-017
 -1.650000000000000E-002   -1.052862597808710E-017
 -1.640000000000000E-002   -3.470157166247527E-017
 -1.630000000000000E-002   -6.137700070035815E-017
 -1.620000000000000E-002   -8.924138805509733E-017
 -1.610000000000000E-002   -1.166482163331932E-016
 -1.600000000000000E-002   -1.416837664305944E-016
 -1.590000000000000E-002   -1.622654379122400E-016
 -1.580000000000000E-002   -1.762692267637066E-016
 -1.570000000000000E-002   -1.816793137231158E-016
 -1.560000000000000E-002   -1.767505739973113E-016
 -1.550000000000000E-002   -1.601716834544416E-016
 -1.540000000000000E-002   -1.312157353895484E-016
 -1.530000000000000E-002   -8.986461518520934E-017
 -1.520000000000000E-002   -3.689473808861621E-017
 -1.510000000000000E-002    2.608628238739957E-017
 -1.500000000000000E-002    9.665851812261734E-017
 -1.490000000000000E-002    1.716666528195830E-016
 -1.480000000000000E-002    2.473521990526000E-016
 -1.470000000000000E-002    3.195335331571810E-016
 -1.460000000000000E-002    3.838216468482392E-016
 -1.450000000000000E-002    4.358567861259743E-016
 -1.440000000000000E-002    4.715484675083012E-016
 -1.430000000000000E-002    4.873016991690778E-016
 -1.420000000000000E-002    4.802147306145080E-016
 -1.410000000000000E-002    4.482359816852296E-016
 -1.400000000000000E-002    3.902738018412354E-016
 -1.390000000000000E-002    3.062582521180757E-016
 -1.380000000000000E-002    1.971596161325814E-016
 -1.370000000000000E-002    6.497371381472972E-017
 -1.360000000000000E-002   -8.731256339662657E-017
 -1.350000000000000E-002   -2.557608534070616E-016
 -1.340000000000000E-002   -4.355133738630817E-016
 -1.330000000000000E-002   -6.208087730397206E-016
 -1.320000000000000E-002   -8.049802530082870E-016
 -1.310000000000000E-002   -9.804448361736082E-016
 -1.300000000000000E-002   -1.138698991104805E-015
 -1.290000000000000E-002   -1.270350271853591E-015
 -1.280000000000000E-002   -1.365216259677985E-015
 -1.270000000000000E-002   -1.412531724386021E-015
 -1.260000000000000E-002   -1.401296211519028E-015
 -1.250000000000000E-002   -1.320795636184913E-015
 -1.240000000000000E-002   -1.161308231549600E-015
 -1.230000000000000E-002   -9.149946507087155E-016
 -1.220000000000000E-002   -5.769406457601520E-016
 -1.210000000000000E-002   -1.462979960592017E-016
 -1.200000000000000E-002    3.725599369089445E-016
 -1.190000000000000E-002    9.689760989282202E-016
 -1.180000000000000E-002    1.625164082940656E-015
 -1.170000000000000E-002    2.315717470026010E-015
 -1.160000000000000E-002    3.007596385444373E-015
 -1.150000000000000E-002    3.660712341122012E-015
 -1.140000000000000E-002    4.229185268073384E-015
 -1.130000000000000E-002    4.663310203939339E-015
 -1.120000000000000E-002    4.912210406512358E-015
 -1.110000000000000E-002    4.927090923474012E-015
 -1.100000000000000E-002    4.664944677261408E-015
 -1.090000000000000E-002    4.092489941417220E-015
 -1.080000000000000E-002    3.190082451430326E-015
 -1.070000000000000E-002    1.955294923519442E-015
 -1.060000000000000E-002    4.058521022062997E-016
 -1.050000000000000E-002   -1.418382791215255E-015
 -1.040000000000000E-002   -3.454636624499594E-015
 -1.030000000000000E-002   -5.617877290512036E-015
 -1.020000000000000E-002   -7.803004241496481E-015
 -1.010000000000000E-002   -9.888597843838852E-015
 -1.000000000000000E-002   -1.174213587036547E-014
 -9.899999999999999E-003   -1.322648179846129E-014
 -9.800000000000000E-003   -1.420733635321582E-014
 -9.699999999999999E-003   -1.456126219697501E-014
 -9.599999999999999E-003   -1.418385926988556E-014
 -9.500000000000000E-003   -1.299759949879944E-014
 -9.399999999999999E-003   -1.095886496923362E-014
 -9.299999999999999E-003   -8.063761426725691E-015
 -9.200000000000000E-003   -4.352343759517878E-015
 -9.099999999999999E-003    8.902552247373666E-017
 -8.999999999999999E-003    5.127363899020008E-015
 -8.900000000000000E-003    1.058489195915093E-014
 -8.799999999999999E-003    1.624295356888945E-014
 -8.699999999999999E-003    2.184796869528311E-014
 -8.600000000000000E-003    2.711925567393838E-014
 -8.499999999999999E-003    3.175851957327581E-014
 -8.399999999999999E-003    3.546081575437070E-014
 -8.300000000000000E-003    3.792676510084666E-014
 -8.199999999999999E-003    3.887580818176294E-014
 -8.100000000000000E-003    3.806022346635851E-014
 -8.000000000000000E-003    3.527973264250696E-014
 -7.899999999999999E-003    3.039631684014174E-014
 -7.800000000000000E-003    2.334885035299405E-014
 -7.699999999999999E-003    1.416704228196338E-014
 -7.599999999999999E-003    2.983982482383855E-015
 -7.499999999999999E-003   -9.953504359598285E-015
 -7.399999999999999E-003   -2.427778989366381E-014
 -7.299999999999999E-003   -3.949768953572251E-014
 -7.199999999999999E-003   -5.500128122960956E-014
 -7.100000000000000E-003   -7.006547015554330E-014
 -6.999999999999999E-003   -8.387330368497731E-014
 -6.899999999999999E-003   -9.553975308414437E-014
 -6.800000000000000E-003   -1.041463942081987E-013
 -6.699999999999999E-003   -1.087846163460899E-013
 -6.599999999999999E-003   -1.086065219164373E-013
 -6.499999999999999E-003   -1.028818394264839E-013
 -6.399999999999999E-003   -9.105831676852592E-014
 -6.299999999999999E-003   -7.282245424239285E-014
 -6.199999999999999E-003   -4.815665709738985E-014
 -6.100000000000000E-003   -1.738847656463304E-014
 -5.999999999999999E-003    1.877249239975714E-014
 -5.899999999999999E-003    5.921463158860710E-014
 -5.800000000000000E-003    1.024252547458591E-013
 -5.699999999999999E-003    1.465155439711097E-013
 -5.599999999999999E-003    1.892716598931671E-013
 -5.499999999999999E-003    2.282327670275897E-013
 -5.399999999999999E-003    2.607945824673632E-013
 -5.299999999999999E-003    2.843359737508029E-013
 -5.199999999999999E-003    2.963638282552593E-013
 -5.099999999999999E-003    2.946696636500695E-013
 -4.999999999999999E-003    2.774903210737394E-013
 -4.899999999999999E-003    2.436636449674154E-013
 -4.799999999999999E-003    1.927694441538702E-013
 -4.699999999999999E-003    1.252459162564027E-013
 -4.599999999999999E-003    4.247234718372229E-014
 -4.499999999999999E-003   -5.319037147886898E-014
 -4.399999999999999E-003   -1.584084827352998E-013
 -4.299999999999999E-003   -2.689371582813506E-013
 -4.199999999999999E-003   -3.797384284813820E-013
 -4.099999999999999E-003   -4.851537067487681E-013
 -3.999999999999999E-003   -5.791280336030445E-013
 -3.899999999999999E-003   -6.554788453392779E-013
 -3.799999999999999E-003   -7.081996633328946E-013
 -3.699999999999999E-003   -7.317875649723408E-013
 -3.599999999999999E-003   -7.215790470273662E-013
 -3.499999999999999E-003   -6.740792629419643E-013
 -3.399999999999999E-003   -5.872673959126006E-013
 -3.299999999999999E-003   -4.608611571312235E-013
 -3.199999999999999E-003   -2.965233017919284E-013
 -3.099999999999999E-003   -9.799486831595318E-014
 -2.999999999999999E-003    1.288592168486345E-013
 -2.899999999999999E-003    3.761028595258986E-013
 -2.799999999999999E-003    6.338875288533304E-013
 -2.699999999999999E-003    8.907210494298460E-013
 -2.599999999999999E-003    1.133845200137074E-012
 -2.499999999999999E-003    1.349716676873942E-012
 -2.399999999999999E-003    1.524579989715808E-012
 -2.299999999999999E-003    1.645115182041558E-012
 -2.199999999999999E-003    1.699138375278662E-012
 -2.099999999999999E-003    1.676329083380465E-012
 -1.999999999999999E-003    1.568949021802058E-012
 -1.899999999999999E-003    1.372521234741499E-012
 -1.799999999999999E-003    1.086428994411438E-012
 -1.699999999999999E-003    7.143956149273209E-013
 -1.599999999999999E-003    2.648078760268120E-013
 -1.499999999999999E-003   -2.491520558789464E-013
 -1.399999999999999E-003   -8.095985769962448E-013
 -1.299999999999999E-003   -1.394278173134499E-012
 -1.199999999999999E-003   -1.977165107804173E-012
 -1.099999999999999E-003   -2.529319350941287E-012
 -9.999999999999989E-004   -3.019992822998783E-012
 -8.999999999999990E-004   -3.417960223877313E-012
 -7.999999999999990E-004   -3.693035765392326E-012
 -6.999999999999989E-004   -3.817716091181385E-012
 -5.999999999999990E-004   -3.768882433767132E-012
 -4.999999999999989E-004   -3.529480029952481E-012
 -3.999999999999989E-004   -3.090081258110742E-012
 -2.999999999999989E-004   -2.450241234887408E-012
 -1.999999999999989E-004   -1.619544058182184E-012
 -9.999999999999892E-005   -6.182522925148455E-013
  1.084202172485504E-018    5.225275182382407E-013
  1.000000000000011E-004    1.761218508382925E-012
  2.000000000000011E-004    3.046741670989253E-012
  3.000000000000011E-004    4.320082254139700E-012
  4.000000000000011E-004    5.516446614267893E-012
  5.000000000000011E-004    6.567955297988465E-012
  6.000000000000011E-004    7.406789274338261E-012
  7.000000000000011E-004    7.968671320253924E-012
  8.000000000000011E-004    8.196529016899529E-012
  9.000000000000012E-004    8.044166894867698E-012
  1.000000000000001E-003    7.479753936526963E-012
  1.100000000000001E-003    6.488920331332888E-012
  1.200000000000001E-003    5.077263018014418E-012
  1.300000000000001E-003    3.272067555379628E-012
  1.400000000000001E-003    1.123083754182627E-012
  1.500000000000001E-003   -1.297775983252983E-012
  1.600000000000001E-003   -3.897910206231755E-012
  1.700000000000001E-003   -6.566681629251079E-012
  1.800000000000001E-003   -9.179246273994671E-012
  1.900000000000001E-003   -1.160144738713240E-011
  2.000000000000001E-003   -1.369563022119567E-011
  2.100000000000001E-003   -1.532714590816165E-011
  2.200000000000001E-003   -1.637129835120141E-011
  2.300000000000001E-003   -1.672040093919189E-011
  2.400000000000001E-003   -1.629061590991157E-011
  2.500000000000001E-003   -1.502821441119822E-011
  2.600000000000001E-003   -1.291490962568447E-011
  2.700000000000001E-003   -9.971920865555217E-012
  2.800000000000001E-003   -6.262485355559914E-012
  2.900000000000001E-003   -1.892564575058110E-012
  3.000000000000001E-003    2.990423336554798E-012
  3.100000000000001E-003    8.200947105218431E-012
  3.200000000000001E-003    1.352077920596043E-011
  3.300000000000001E-003    1.870640581358415E-011
  3.400000000000001E-003    2.349822513672883E-011
  3.500000000000001E-003    2.763128336173571E-011
  3.600000000000001E-003    3.084715684130354E-011
  3.700000000000001E-003    3.290653799442244E-011
  3.800000000000001E-003    3.360202344993978E-011
  3.900000000000001E-003    3.277053340313765E-011
  4.000000000000001E-003    3.030478932853346E-011
  4.100000000000001E-003    2.616324692799836E-011
  4.200000000000001E-003    2.037793639058194E-011
  4.300000000000001E-003    1.305965244335722E-011
  4.400000000000001E-003    4.400076656801908E-012
  4.500000000000001E-003   -5.329565724718804E-012
  4.600000000000002E-003   -1.578350503186312E-011
  4.700000000000001E-003   -2.655022807488361E-011
  4.800000000000001E-003   -3.716497720372607E-011
  4.900000000000002E-003   -4.712575248194467E-011
  5.000000000000001E-003   -5.591239574775016E-011
  5.100000000000001E-003   -6.300816027137125E-011
  5.200000000000001E-003   -6.792307445877700E-011
  5.300000000000002E-003   -7.021816647307243E-011
  5.400000000000001E-003   -6.952958894861774E-011
  5.500000000000001E-003   -6.559150871654904E-011
  5.600000000000002E-003   -5.825672615382002E-011
  5.700000000000001E-003   -4.751385163784035E-011
  5.800000000000001E-003   -3.349999344917920E-011
  5.900000000000002E-003   -1.650810154707107E-011
  6.000000000000001E-003    3.011844077520255E-012
  6.100000000000001E-003    2.445827184581221E-011
  6.200000000000002E-003    4.709046358956023E-011
  6.300000000000002E-003    7.004779556562451E-011
  6.400000000000001E-003    9.237561265198294E-011
  6.500000000000001E-003    1.130570163464117E-010
  6.600000000000002E-003    1.310496368811685E-010
  6.700000000000001E-003    1.453261652701803E-010
  6.800000000000001E-003    1.549172216501756E-010
  6.900000000000002E-003    1.589550135773083E-010
  7.000000000000001E-003    1.567159803033287E-010
  7.100000000000001E-003    1.476607926263289E-010
  7.200000000000002E-003    1.314699522660327E-010
  7.300000000000002E-003    1.080735123029159E-010
  7.400000000000001E-003    7.767344798309545E-011
  7.500000000000001E-003    4.075763129438956E-011
  7.600000000000002E-003   -1.895554709331257E-012
  7.700000000000001E-003   -4.922228367460103E-011
  7.800000000000001E-003   -9.988848344018785E-011
  7.900000000000001E-003   -1.523149721528570E-010
  8.000000000000002E-003   -2.047120505405695E-010
  8.100000000000001E-003   -2.551229445780097E-010
  8.200000000000001E-003   -3.014752485643986E-010
  8.300000000000002E-003   -3.416390643759390E-010
  8.400000000000001E-003   -3.734908737383503E-010
  8.500000000000002E-003   -3.949815178806946E-010
  8.600000000000002E-003   -4.042070328245196E-010
  8.700000000000001E-003   -3.994807354678344E-010
  8.800000000000002E-003   -3.794050464662663E-010
  8.900000000000002E-003   -3.429414813056577E-010
  9.000000000000001E-003   -2.894772541996915E-010
  9.100000000000002E-003   -2.188864924988715E-010
  9.200000000000002E-003   -1.315847309196129E-010
  9.300000000000001E-003   -2.857451208968230E-011
  9.400000000000002E-003    8.851980988302106E-011
  9.500000000000001E-003    2.174298738831319E-010
  9.600000000000001E-003    3.552361053288485E-010
  9.700000000000002E-003    4.983772091348974E-010
  9.800000000000001E-003    6.426787267011447E-010
  9.900000000000001E-003    7.834020500452788E-010
  1.000000000000000E-002    9.153159864862015E-010
  1.010000000000000E-002    1.032791688813869E-009
  1.020000000000000E-002    1.129922036649187E-009
  1.030000000000000E-002    1.200665286526807E-009
  1.040000000000000E-002    1.239012336408456E-009
  1.050000000000000E-002    1.239176805713726E-009
  1.060000000000000E-002    1.195804268198731E-009
  1.070000000000000E-002    1.104198484357758E-009
  1.080000000000000E-002    9.605593606252599E-010
  1.090000000000000E-002    7.622269699324665E-010
  1.100000000000000E-002    5.079257463124157E-010
  1.110000000000000E-002    1.980006339718443E-010
  1.120000000000000E-002   -1.653638907772028E-010
  1.130000000000000E-002   -5.779493714194796E-010
  1.140000000000000E-002   -1.033345185140924E-009
  1.150000000000000E-002   -1.522835580238755E-009
  1.160000000000000E-002   -2.035342335521969E-009
  1.170000000000000E-002   -2.557432903904073E-009
  1.180000000000000E-002   -3.073403332894810E-009
  1.190000000000000E-002   -3.565444423308324E-009
  1.200000000000000E-002   -4.013897082742888E-009
  1.210000000000000E-002   -4.397602040047967E-009
  1.220000000000000E-002   -4.694348329901811E-009
  1.230000000000000E-002   -4.881416013160235E-009
  1.240000000000000E-002   -4.936215882827135E-009
  1.250000000000000E-002   -4.837013298316991E-009
  1.260000000000000E-002   -4.563729944223870E-009
  1.270000000000000E-002   -4.098806067064544E-009
  1.280000000000000E-002   -3.428106096643726E-009
  1.290000000000000E-002   -2.541841925612352E-009
  1.300000000000000E-002   -1.435491630820310E-009
  1.310000000000000E-002   -1.106783231092927E-010
  1.320000000000000E-002    1.424021045377988E-009
  1.330000000000000E-002    3.152372615722828E-009
  1.340000000000000E-002    5.049926985760080E-009
  1.350000000000000E-002    7.083637944283439E-009
  1.360000000000000E-002    9.211696805320344E-009
  1.370000000000000E-002    1.138361313360149E-008
  1.380000000000000E-002    1.354057262215659E-008
  1.390000000000000E-002    1.561609555842511E-008
  1.400000000000000E-002    1.753700818678814E-008
  1.410000000000000E-002    1.922474173134371E-008
  1.420000000000000E-002    2.059695690834286E-008
  1.430000000000000E-002    2.156948225398171E-008
  1.440000000000000E-002    2.205855385576477E-008
  1.450000000000000E-002    2.198331342448805E-008
  1.460000000000000E-002    2.126853930123714E-008
  1.470000000000000E-002    1.984755468619753E-008
  1.480000000000000E-002    1.766525293576468E-008
  1.490000000000000E-002    1.468117371750438E-008
  1.500000000000000E-002    1.087256970393409E-008
  1.510000000000000E-002    6.237371651715358E-009
  1.520000000000000E-002    7.969877683709633E-010
  1.530000000000000E-002   -5.401148487747734E-009
  1.540000000000000E-002   -1.228135955941865E-008
  1.550000000000000E-002   -1.973790022980453E-008
  1.560000000000000E-002   -2.763358617363264E-008
  1.570000000000000E-002   -3.579897014200209E-008
  1.580000000000000E-002   -4.403205721130507E-008
  1.590000000000000E-002   -5.209863059151305E-008
  1.600000000000000E-002   -5.973320935668711E-008
  1.610000000000000E-002   -6.664062646710450E-008
  1.620000000000000E-002   -7.249819216658903E-008
  1.630000000000000E-002   -7.695852103050922E-008
  1.640000000000000E-002   -7.965282080958063E-008
  1.650000000000000E-002   -8.019473152671690E-008
  1.660000000000000E-002   -7.818458244641217E-008
  1.670000000000000E-002   -7.321386229218982E-008
  1.680000000000000E-002   -6.487010138239995E-008
  1.690000000000000E-002   -5.274168693749009E-008
  1.700000000000000E-002   -3.642280637079146E-008
  1.710000000000000E-002   -1.551815525470907E-008
  1.720000000000000E-002    1.035250716847195E-008
  1.730000000000000E-002    4.155023581757222E-008
  1.740000000000000E-002    7.841325534974041E-008
  1.750000000000000E-002    1.212538414681450E-007
  1.760000000000000E-002    1.703559941836746E-007
  1.770000000000000E-002    2.259738986194996E-007
  1.780000000000000E-002    2.883310310210546E-007
  1.790000000000000E-002    3.576201998855361E-007
  1.800000000000000E-002    4.340047593144608E-007
  1.810000000000000E-002    5.176202737215401E-007
  1.820000000000000E-002    6.085773714240052E-007
  1.830000000000000E-002    7.069652131370766E-007
  1.840000000000000E-002    8.128558738692902E-007
  1.850000000000000E-002    9.263095830849060E-007
  1.860000000000000E-002    1.047379980204739E-006
  1.870000000000000E-002    1.176120661231344E-006