 -4.000000000000000E-002    0.000000000000000E+000
 -3.990000000000000E-002    0.000000000000000E+000
 -3.980000000000000E-002    0.000000000000000E+000
 -3.970000000000000E-002    0.000000000000000E+000
 -3.960000000000000E-002    0.000000000000000E+000
 -3.950000000000000E-002    0.000000000000000E+000
 -3.940000000000000E-002    0.000000000000000E+000
 -3.930000000000000E-002    0.000000000000000E+000
 -3.920000000000000E-002    0.000000000000000E+000
 -3.910000000000000E-002    0.000000000000000E+000
 -3.900000000000000E-002    0.000000000000000E+000
 -3.890000000000000E-002    0.000000000000000E+000
 -3.880000000000000E-002    0.000000000000000E+000
 -3.870000000000000E-002    0.000000000000000E+000
 -3.860000000000000E-002   -7.270176521169409E-045
 -3.850000000000000E-002   -1.706009758743482E-043
 -3.840000000000000E-002   -2.029514492723728E-042
 -3.830000000000000E-002   -1.621529696059704E-041
 -3.820000000000000E-002   -9.667819710217680E-041
 -3.810000000000000E-002   -4.513069112840977E-040
 -3.800000000000000E-002   -1.665210804670160E-039
 -3.790000000000000E-002   -4.633253807166754E-039
 -3.780000000000000E-002   -7.388821116642270E-039
 -3.770000000000000E-002    1.326357039720558E-038
 -3.760000000000000E-002    1.767056806675918E-037
 -3.750000000000000E-002    9.515544714509416E-037
 -3.740000000000000E-002    3.902846682499715E-036
 -3.730000000000000E-002    1.367450851027522E-035
 -3.720000000000000E-002    4.278803445363293E-035
 -3.710000000000000E-002    1.223335574180625E-034
 -3.700000000000000E-002    3.239948805141823E-034
 -3.690000000000000E-002    8.020476607637935E-034
 -3.680000000000000E-002    1.867244651221743E-033
 -3.670000000000000E-002    4.105590284127716E-033
 -3.660000000000000E-002    8.548977930264962E-033
 -3.650000000000000E-002    1.688258187212890E-032
 -3.640000000000000E-002    3.162168866476047E-032
 -3.630000000000000E-002    5.608922243002780E-032
 -3.620000000000000E-002    9.385336014232245E-032
 -3.610000000000000E-002    1.470266117062193E-031
 -3.600000000000000E-002    2.124885881679819E-031
 -3.590000000000000E-002    2.747238851733422E-031
 -3.580000000000000E-002    2.936906668320763E-031
 -3.570000000000000E-002    1.861969747339844E-031
 -3.560000000000000E-002   -1.999529321103459E-031
 -3.550000000000000E-002   -1.117727738488817E-030
 -3.540000000000000E-002   -2.953269392210713E-030
 -3.530000000000000E-002   -6.247121462338916E-030
 -3.520000000000000E-002   -1.168304656433625E-029
 -3.510000000000000E-002   -2.001114080300118E-029
 -3.500000000000000E-002   -3.185873824289663E-029
 -3.490000000000000E-002   -4.737150352472928E-029
 -3.480000000000000E-002   -6.562364281160015E-029
 -3.470000000000000E-002   -8.374865340747291E-029
 -3.460000000000000E-002   -9.578074114151604E-029
 -3.450000000000000E-002   -9.127385261766373E-029
 -3.440000000000000E-002   -5.389022577584431E-029
 -3.430000000000000E-002    3.967165898615959E-029
 -3.420000000000000E-002    2.198143192939403E-028
 -3.410000000000000E-002    5.223988696136000E-028
 -3.400000000000000E-002    9.842501728324665E-028
 -3.390000000000000E-002    1.634606090306937E-027
 -3.380000000000000E-002    2.481375075505285E-027
 -3.370000000000000E-002    3.491458862255877E-027
 -3.360000000000000E-002    4.565245162114913E-027
 -3.350000000000000E-002    5.506787325498298E-027
 -3.340000000000000E-002    5.993225799053917E-027
 -3.330000000000000E-002    5.549601354631664E-027
 -3.320000000000000E-002    3.538166524306742E-027
 -3.310000000000000E-002   -8.257894955133637E-028
 -3.300000000000000E-002   -8.417358236023534E-027
 -3.290000000000000E-002   -2.008972519839664E-026
 -3.280000000000000E-002   -3.649303047268668E-026
 -3.270000000000000E-002   -5.781658245293326E-026
 -3.260000000000000E-002   -8.345637295008253E-026
 -3.250000000000000E-002   -1.116245413036048E-025
 -3.240000000000000E-002   -1.389367639712825E-025
 -3.230000000000000E-002   -1.600367466436558E-025
 -3.220000000000000E-002   -1.673414131050848E-025
 -3.210000000000000E-002   -1.510131884014731E-025
 -3.200000000000000E-002   -9.928205487659506E-026
 -3.190000000000000E-002    7.551295832331889E-028
 -3.180000000000000E-002    1.617429251473202E-025
 -3.170000000000000E-002    3.940023186548731E-025
 -3.160000000000000E-002    7.027717793615918E-025
 -3.150000000000000E-002    1.084820535789035E-024
 -3.140000000000000E-002    1.524613209310714E-024
 -3.130000000000000E-002    1.990338105444618E-024
 -3.120000000000000E-002    2.430256074571975E-024
 -3.110000000000000E-002    2.769973396042984E-024
 -3.100000000000000E-002    2.911371263897885E-024
 -3.090000000000000E-002    2.734027313173132E-024
 -3.080000000000000E-002    2.100014022701873E-024
 -3.070000000000000E-002    8.629464705688206E-025
 -3.060000000000000E-002   -1.117947071004321E-024
 -3.050000000000000E-002   -3.958171706467529E-024
 -3.040000000000000E-002   -7.722504200903995E-024
 -3.030000000000000E-002   -1.239400915126537E-023
 -3.020000000000000E-002   -1.783851717489884E-023
 -3.010000000000000E-002   -2.376648368079701E-023
 -3.000000000000000E-002   -2.969533112407989E-023
 -2.990000000000000E-002   -3.491682277537100E-023
 -2.980000000000000E-002   -3.847567862029961E-023
 -2.970000000000000E-002   -3.916740073234186E-023
 -2.960000000000000E-002   -3.556492275602400E-023
 -2.950000000000000E-002   -2.608494516325602E-023
 -2.940000000000000E-002   -9.105107710117850E-024
 -2.930000000000000E-002    1.685794751295138E-023
 -2.920000000000000E-002    5.290287829252087E-023
 -2.910000000000000E-002    9.942956346094599E-023
 -2.900000000000000E-002    1.557652085456888E-022
 -2.890000000000000E-002    2.197519820057693E-022
 -2.880000000000000E-002    2.873334233318278E-022
 -2.870000000000000E-002    3.521949872770857E-022
 -2.860000000000000E-002    4.055324113847099E-022
 -2.850000000000000E-002    4.360376028214973E-022
 -2.840000000000000E-002    4.302012942858076E-022
 -2.830000000000000E-002    3.730314510868143E-022
 -2.820000000000000E-002    2.492705045401920E-022
 -2.810000000000000E-002    4.516047905978771E-023
 -2.800000000000000E-002   -2.492503317127279E-022
 -2.790000000000000E-002   -6.373429253337502E-022
 -2.780000000000000E-002   -1.112884794863530E-021
 -2.770000000000000E-002   -1.656995025075750E-021
 -2.760000000000000E-002   -2.235511692470735E-021
 -2.750000000000000E-002   -2.797247763930090E-021
 -2.740000000000000E-002   -3.273679347342670E-021
 -2.730000000000000E-002   -3.580615938189275E-021
 -2.720000000000000E-002   -3.622332803623060E-021
 -2.710000000000000E-002   -3.298491693875205E-021
 -2.700000000000000E-002   -2.513926694096556E-021
 -2.690000000000000E-002   -1.191039227766755E-021
 -2.680000000000000E-002    7.158611166553630E-022
 -2.670000000000000E-002    3.205366329004824E-021
 -2.660000000000000E-002    6.214452543037060E-021
 -2.650000000000000E-002    9.606499099187232E-021
 -2.640000000000000E-002    1.316391723869521E-020
 -2.630000000000000E-002    1.658745443640579E-020
 -2.620000000000000E-002    1.950398901638761E-020
 -2.610000000000000E-002    2.148409000693226E-020
 -2.600000000000000E-002    2.206979950522229E-020
 -2.590000000000000E-002    2.081204205758110E-020
 -2.580000000000000E-002    1.731587897777620E-020
 -2.570000000000000E-002    1.129058798440089E-020
 -2.560000000000000E-002    2.600458499684503E-021
 -2.550000000000000E-002   -8.688594182413271E-021
 -2.540000000000000E-002   -2.227188305087431E-020
 -2.530000000000000E-002   -3.758332956561308E-020
 -2.520000000000000E-002   -5.379163584918272E-020
 -2.510000000000000E-002   -6.981808310704489E-020
 -2.500000000000000E-002   -8.437692387768828E-020
 -2.490000000000000E-002   -9.603716322388965E-020
 -2.480000000000000E-002   -1.033023773562907E-019
 -2.470000000000000E-002   -1.047033369736019E-019
 -2.460000000000000E-002   -9.889709148357506E-020
 -2.450000000000000E-002   -8.476571883290886E-020
 -2.440000000000000E-002   -6.150871508050046E-020
 -2.430000000000000E-002   -2.872461508829424E-020
 -2.420000000000000E-002    1.352014056451075E-020
 -2.410000000000000E-002    6.463442782532883E-020
 -2.400000000000000E-002    1.234545520429632E-019
 -2.390000000000000E-002    1.882006728655157E-019
 -2.380000000000000E-002    2.564329993247714E-019
 -2.370000000000000E-002    3.250055515853693E-019
 -2.360000000000000E-002    3.900198524362605E-019
 -2.350000000000000E-002    4.467877240722974E-019
 -2.340000000000000E-002    4.898206536552735E-019
 -2.330000000000000E-002    5.128717579438545E-019
 -2.320000000000000E-002    5.090635101712862E-019
 -2.310000000000000E-002    4.711383600912334E-019
 -2.300000000000000E-002    3.918679541813222E-019
 -2.290000000000000E-002    2.646477050414210E-019
 -2.280000000000000E-002    8.428755634395340E-020
 -2.270000000000000E-002   -1.520160903253789E-019
 -2.260000000000000E-002   -4.435737421604011E-019
 -2.250000000000000E-002   -7.850446418335904E-019
 -2.240000000000000E-002   -1.165347588442041E-018
 -2.230000000000000E-002   -1.566792594284286E-018
 -2.220000000000000E-002   -1.964607829742331E-018
 -2.210000000000000E-002   -2.327039791671373E-018
 -2.200000000000000E-002   -2.616189399152898E-018
 -2.190000000000000E-002   -2.789702868393992E-018
 -2.180000000000000E-002   -2.803371270331448E-018
 -2.170000000000000E-002   -2.614599899419522E-018
 -2.160000000000000E-002   -2.186602744381534E-018
 -2.150000000000000E-002   -1.493063428324792E-018
 -2.140000000000000E-002   -5.228962808350608E-019
 -2.130000000000000E-002    7.153469965687755E-019
 -2.120000000000000E-002    2.189931566949225E-018
 -2.110000000000000E-002    3.843764700720165E-018
 -2.100000000000000E-002    5.594051092432825E-018
 -2.090000000000000E-002    7.334124126664930E-018
 -2.080000000000000E-002    8.937629761825518E-018
 -2.070000000000000E-002    1.026502940459573E-017
 -2.060000000000000E-002    1.117214679258433E-017
 -2.050000000000000E-002    1.152024967372759E-017
 -2.040000000000000E-002    1.118694628281715E-017
 -2.030000000000000E-002    1.007702689663118E-017
 -2.020000000000000E-002    8.132315610254969E-018
 -2.010000000000000E-002    5.339629481446010E-018
 -2.000000000000000E-002    1.736090068257701E-018
 -1.990000000000000E-002   -2.588739099108780E-018
 -1.980000000000000E-002   -7.494078053656310E-018
 -1.970000000000000E-002   -1.279236749029031E-017
 -1.960000000000000E-002   -1.825639753977759E-017
 -1.950000000000000E-002   -2.362832749633477E-017
 -1.940000000000000E-002   -2.862960525150845E-017
 -1.930000000000000E-002   -3.297075247229258E-017
 -1.920000000000000E-002   -3.636014794003181E-017
 -1.910000000000000E-002   -3.851123388645948E-017
 -1.900000000000000E-002   -3.914805827580357E-017
 -1.890000000000000E-002   -3.800961816630961E-017
 -1.880000000000000E-002   -3.485406310271671E-017
 -1.870000000000000E-002   -2.946428564465692E-017
 -1.860000000000000E-002   -2.165675874726967E-017
 -1.850000000000000E-002   -1.129547997311747E-017
 -1.840000000000000E-002    1.687463619700986E-018
 -1.830000000000000E-002    1.726392281156098E-017
 -1.820000000000000E-002    3.527467262312659E-017
 -1.810000000000000E-002    5.538915624589000E-017
 -1.800000000000000E-002    7.706335059143881E-017
 -1.790000000000000E-002    9.950082048033780E-017
 -1.780000000000000E-002    1.216232928620359E-016
 -1.770000000000000E-002    1.420580187529163E-016
 -1.760000000000000E-002    1.591493777068657E-016
 -1.750000000000000E-002    1.710015344042359E-016
 -1.740000000000000E-002    1.755570910117441E-016
 -1.730000000000000E-002    1.707142325237203E-016
 -1.720000000000000E-002    1.544811430800518E-016
 -1.710000000000000E-002    1.251622749152345E-016
 -1.700000000000000E-002    8.156666571927962E-017
 -1.690000000000000E-002    2.322413508431703E-017
 -1.680000000000000E-002   -4.940861461696238E-017
 -1.670000000000000E-002   -1.347721105390025E-016
 -1.660000000000000E-002   -2.300799155373869E-016
 -1.650000000000000E-002   -3.312662636053390E-016
 -1.640000000000000E-002   -4.330227543440403E-016
 -1.630000000000000E-002   -5.289362193985053E-016
 -1.620000000000000E-002   -6.117330378244430E-016
 -1.610000000000000E-002   -6.736269676640809E-016
 -1.600000000000000E-002   -7.067592272058691E-016
 -1.590000000000000E-002   -7.037102208287829E-016
 -1.580000000000000E-002   -6.580558417969254E-016
 -1.570000000000000E-002   -5.649340343788988E-016
 -1.560000000000000E-002   -4.215850804154274E-016
 -1.550000000000000E-002   -2.278277824514506E-016
 -1.540000000000000E-002    1.356456079668110E-017
 -1.530000000000000E-002    2.966189281527769E-016
 -1.520000000000000E-002    6.120716899808800E-016
 -1.510000000000000E-002    9.474478423366311E-016
 -1.500000000000000E-002    1.287315971693498E-015
 -1.490000000000000E-002    1.613716956072119E-015
 -1.480000000000000E-002    1.906755452073141E-015
 -1.470000000000000E-002    2.145338343783908E-015
 -1.460000000000000E-002    2.308040730808264E-015
 -1.450000000000000E-002    2.374076824247266E-015
 -1.440000000000000E-002    2.324354664729688E-015
 -1.430000000000000E-002    2.142592496254335E-015
 -1.420000000000000E-002    1.816473458420644E-015
 -1.410000000000000E-002    1.338816041573451E-015
 -1.400000000000000E-002    7.087284947669391E-016
 -1.390000000000000E-002   -6.728932957282904E-017
 -1.380000000000000E-002   -9.743494017278316E-016
 -1.370000000000000E-002   -1.988348957777008E-015
 -1.360000000000000E-002   -3.075398682007036E-015
 -1.350000000000000E-002   -4.191605079883958E-015
 -1.340000000000000E-002   -5.283320617748126E-015
 -1.330000000000000E-002   -6.287979218253147E-015
 -1.320000000000000E-002   -7.135631511616998E-015
 -1.310000000000000E-002   -7.751274134788338E-015
 -1.300000000000000E-002   -8.058033370964909E-015
 -1.290000000000000E-002   -7.981210339878930E-015
 -1.280000000000000E-002   -7.453129838798494E-015
 -1.270000000000000E-002   -6.418646637726398E-015
 -1.260000000000000E-002   -4.841084885130803E-015
 -1.250000000000000E-002   -2.708280339765823E-015
 -1.240000000000000E-002   -3.831982846013703E-017
 -1.230000000000000E-002    3.115494920197825E-015
 -1.220000000000000E-002    6.660989568181744E-015
 -1.210000000000000E-002    1.046528065082669E-014
 -1.200000000000000E-002    1.435527002307846E-014
 -1.190000000000000E-002    1.812087960169223E-014
 -1.180000000000000E-002    2.152131596288451E-014
 -1.170000000000000E-002    2.429449715380167E-014
 -1.160000000000000E-002    2.616954113584966E-014
 -1.150000000000000E-002    2.688201139876792E-014
 -1.140000000000000E-002    2.619134387943160E-014
 -1.130000000000000E-002    2.389966145932438E-014
 -1.120000000000000E-002    1.987095497549958E-014
 -1.110000000000000E-002    1.404944522304547E-014
 -1.100000000000000E-002    6.475819445636965E-015
 -1.090000000000000E-002   -2.699991846574385E-015
 -1.080000000000000E-002   -1.321078478466954E-014
 -1.070000000000000E-002   -2.466995618643701E-014
 -1.060000000000000E-002   -3.657622655464022E-014
 -1.050000000000000E-002   -4.832580688282780E-014
 -1.040000000000000E-002   -5.923228892481958E-014
 -1.030000000000000E-002   -6.855407644797694E-014
 -1.020000000000000E-002   -7.552871529175661E-014
 -1.010000000000000E-002   -7.941306284020054E-014
 -1.000000000000000E-002   -7.952770708473667E-014
 -9.899999999999999E-003   -7.530377190497106E-014
 -9.800000000000000E-003   -6.632977576862357E-014
 -9.699999999999999E-003   -5.239608835976696E-014
 -9.599999999999999E-003   -3.353424200714307E-014
 -9.500000000000000E-003   -1.004847169167179E-014
 -9.399999999999999E-003    1.746312642234062E-014
 -9.299999999999999E-003    4.810023824199873E-014
 -9.200000000000000E-003    8.066678760581268E-014
 -9.099999999999999E-003    1.136937484328078E-013
 -8.999999999999999E-003    1.454792884576863E-013
 -8.900000000000000E-003    1.741464375408710E-013
 -8.799999999999999E-003    1.977178004311655E-013
 -8.699999999999999E-003    2.142057261358471E-013
 -8.600000000000000E-003    2.217155772727580E-013
 -8.499999999999999E-003    2.185586977870053E-013
 -8.399999999999999E-003    2.033706438141894E-013
 -8.300000000000000E-003    1.752293394436177E-013
 -8.199999999999999E-003    1.337671245565398E-013
 -8.100000000000000E-003    7.926988313102536E-014
 -8.000000000000000E-003    1.275606134431131E-014
 -7.899999999999999E-003   -6.397152126128537E-014
 -7.800000000000000E-003   -1.483082402190153E-013
 -7.699999999999999E-003   -2.368704665409172E-013
 -7.599999999999999E-003   -3.255639141317445E-013
 -7.499999999999999E-003   -4.097004207332795E-013
 -7.399999999999999E-003   -4.841645545156405E-013
 -7.299999999999999E-003   -5.436280592546375E-013
 -7.199999999999999E-003   -5.828077163898567E-013
 -7.100000000000000E-003   -5.967587442877476E-013
 -6.999999999999999E-003   -5.811922744320302E-013
 -6.899999999999999E-003   -5.328028224495018E-013
 -6.800000000000000E-003   -4.495884678267135E-013
 -6.699999999999999E-003   -3.311445397598147E-013
 -6.599999999999999E-003   -1.789099865384184E-013
 -6.499999999999999E-003    3.654391787738868E-015
 -6.399999999999999E-003    2.109755273875012E-013
 -6.299999999999999E-003    4.353833051047281E-013
 -6.199999999999999E-003    6.672450809782273E-013
 -6.100000000000000E-003    8.952281590177756E-013
 -5.999999999999999E-003    1.106692095474687E-012
 -5.899999999999999E-003    1.288206686108307E-012
 -5.800000000000000E-003    1.426181484853855E-012
 -5.699999999999999E-003    1.507586653046126E-012
 -5.599999999999999E-003    1.520735442250989E-012
 -5.499999999999999E-003    1.456091723942077E-012
 -5.399999999999999E-003    1.307061210000795E-012
 -5.299999999999999E-003    1.070719428800210E-012
 -5.199999999999999E-003    7.484278793869803E-013
 -5.099999999999999E-003    3.462919379507187E-013
 -4.999999999999999E-003   -1.245845770194015E-013
 -4.899999999999999E-003   -6.480859168888007E-013
 -4.799999999999999E-003   -1.203339917592110E-012
 -4.699999999999999E-003   -1.765260329816592E-012
 -4.599999999999999E-003   -2.305378837624728E-012
 -4.499999999999999E-003   -2.792954557236026E-012
 -4.399999999999999E-003   -3.196333129298263E-012
 -4.299999999999999E-003   -3.484509290030802E-012
 -4.199999999999999E-003   -3.628833584397988E-012
 -4.099999999999999E-003   -3.604787248685412E-012
 -3.999999999999999E-003   -3.393741359758753E-012
 -3.899999999999999E-003   -2.984601594992449E-012
 -3.799999999999999E-003   -2.375244710321765E-012
 -3.699999999999999E-003   -1.573646192240277E-012
 -3.599999999999999E-003   -5.986059411306085E-013
 -3.499999999999999E-003    5.200073943661598E-013
 -3.399999999999999E-003    1.741559198570633E-012
 -3.299999999999999E-003    3.015543907026853E-012
 -3.199999999999999E-003    4.283088348622368E-012
 -3.099999999999999E-003    5.479052180544358E-012
 -2.999999999999999E-003    6.534683442145453E-012
 -2.899999999999999E-003    7.380750869430673E-012
 -2.799999999999999E-003    7.951042507746953E-012
 -2.699999999999999E-003    8.186093238187235E-012
 -2.599999999999999E-003    8.036969319825656E-012
 -2.499999999999999E-003    7.468923252281217E-012
 -2.399999999999999E-003    6.464717101553210E-012
 -2.299999999999999E-003    5.027403951683321E-012
 -2.199999999999999E-003    3.182362992351739E-012
 -2.099999999999999E-003    9.784105496376682E-013
 -1.999999999999999E-003   -1.512184271360106E-012
 -1.899999999999999E-003   -4.194883225043736E-012
 -1.799999999999999E-003   -6.955342453274007E-012
 -1.699999999999999E-003   -9.663157567453752E-012
 -1.599999999999999E-003   -1.217683832563274E-011
 -1.499999999999999E-003   -1.434987475713154E-011
 -1.399999999999999E-003   -1.603770918306138E-011
 -1.299999999999999E-003   -1.710533190150679E-011
 -1.199999999999999E-003   -1.743517741535627E-011
 -1.099999999999999E-003   -1.693494135370252E-011
 -9.999999999999989E-004   -1.554488943757041E-011
 -8.999999999999990E-004   -1.324423791580446E-011
 -7.999999999999990E-004   -1.005616217315689E-011
 -6.999999999999989E-004   -6.051045789852210E-012
 -5.999999999999990E-004   -1.347607184564365E-012
 -4.999999999999989E-004    3.888367092869297E-012
 -3.999999999999989E-004    9.447841354820321E-012
 -2.999999999999989E-004    1.508497658409619E-011
 -1.999999999999989E-004    2.052610360138291E-011
 -9.999999999999892E-005    2.548101088006509E-011
  1.084202172485504E-018    2.965617742005479E-011
  1.000000000000011E-004    3.276943553934742E-011
  2.000000000000011E-004    3.456544312435645E-011
  3.000000000000011E-004    3.483122360990935E-011
  4.000000000000011E-004    3.341096146839082E-011
  5.000000000000011E-004    3.021922141295718E-011
  6.000000000000011E-004    2.525175557170082E-011
  7.000000000000011E-004    1.859309626633641E-011
  8.000000000000011E-004    1.042028729131870E-011
  9.000000000000012E-004    1.002185606739137E-012
  1.000000000000001E-003   -9.306018138753452E-012
  1.100000000000001E-003   -2.007316498558529E-011
  1.200000000000001E-003   -3.080729249813086E-011
  1.300000000000001E-003   -4.097521032471569E-011
  1.400000000000001E-003   -5.002585302493410E-011
  1.500000000000001E-003   -5.741651144015934E-011
  1.600000000000001E-003   -6.264085993518760E-011
  1.700000000000001E-003   -6.525745064437324E-011
  1.800000000000001E-003   -6.491731036103566E-011
  1.900000000000001E-003   -6.138910385001625E-011
  2.000000000000001E-003   -5.458042731197690E-011
  2.100000000000001E-003   -4.455382156154626E-011
  2.200000000000001E-003   -3.153628497374108E-011
  2.300000000000001E-003   -1.592131666776936E-011
  2.400000000000001E-003    1.737248566737368E-012
  2.500000000000001E-003    2.073988542013963E-011
  2.600000000000001E-003    4.026445637075976E-011
  2.700000000000001E-003    5.939721306546391E-011
  2.800000000000001E-003    7.717077960218269E-011
  2.900000000000001E-003    9.260776666217847E-011
  3.000000000000001E-003    1.047682748666289E-010
  3.100000000000001E-003    1.127992329715199E-010
  3.200000000000001E-003    1.159832581352403E-010
  3.300000000000001E-003    1.137846159064774E-010
  3.400000000000001E-003    1.058897611306401E-010
  3.500000000000001E-003    9.224003040120041E-011
  3.600000000000001E-003    7.305438311854714E-011
  3.700000000000001E-003    4.884016009411406E-011
  3.800000000000001E-003    2.039054042165465E-011
  3.900000000000001E-003   -1.123225720350613E-011
  4.000000000000001E-003   -4.472824272416614E-011
  4.100000000000001E-003   -7.860499881021649E-011
  4.200000000000001E-003   -1.112359564271841E-010
  4.300000000000001E-003   -1.409296672197106E-010
  4.400000000000001E-003   -1.660075851132910E-010
  4.500000000000001E-003   -1.848871219027817E-010
  4.600000000000002E-003   -1.961663938414017E-010
  4.700000000000001E-003   -1.987065247799175E-010
  4.800000000000001E-003   -1.917073781464166E-010
  4.900000000000002E-003   -1.747724771142814E-010
  5.000000000000001E-003   -1.479590892281971E-010
  5.100000000000001E-003   -1.118101061826446E-010
  5.200000000000001E-003   -6.736454035155523E-011
  5.300000000000002E-003   -1.614483719817821E-011
  5.400000000000001E-003    3.988026442543814E-011
  5.500000000000001E-003    9.835717233998781E-011
  5.600000000000002E-003    1.566318996980237E-010
  5.700000000000001E-003    2.118552125168308E-010
  5.800000000000001E-003    2.611046758778613E-010
  5.900000000000002E-003    3.015189898523645E-010
  6.000000000000001E-003    3.304389244866513E-010
  6.100000000000001E-003    3.455486861112378E-010
  6.200000000000002E-003    3.450108698871644E-010
  6.300000000000002E-003    3.275882011442950E-010
  6.400000000000001E-003    2.927456721299134E-010
  6.500000000000001E-003    2.407267454975115E-010
  6.600000000000002E-003    1.725986741200003E-010
  6.700000000000001E-003    9.026277225366708E-011
  6.800000000000001E-003   -3.572670919339671E-012
  6.900000000000002E-003   -1.054583068657957E-010
  7.000000000000001E-003   -2.113071780792641E-010
  7.100000000000001E-003   -3.165337092208655E-010
  7.200000000000002E-003   -4.162237865513867E-010
  7.300000000000002E-003   -5.053302606986568E-010
  7.400000000000001E-003   -5.788865435542365E-010
  7.500000000000001E-003   -6.322303364555888E-010
  7.600000000000002E-003   -6.612282726184976E-010
  7.700000000000001E-003   -6.624917138692811E-010
  7.800000000000001E-003   -6.335748273345744E-010
  7.900000000000001E-003   -5.731451763437835E-010
  8.000000000000002E-003   -4.811187355376190E-010
  8.100000000000001E-003   -3.587522041717126E-010
  8.200000000000001E-003   -2.086864652398203E-010
  8.300000000000002E-003   -3.493720874351834E-011
  8.400000000000001E-003    1.571694495383365E-010
  8.500000000000002E-003    3.611166682307421E-010
  8.600000000000002E-003    5.693698657264786E-010
  8.700000000000001E-003    7.735994462014792E-010
  8.800000000000002E-003    9.649468290952249E-010
  8.900000000000002E-003    1.134326834805831E-009
  9.000000000000001E-003    1.272756516805670E-009
  9.100000000000002E-003    1.371700581285873E-009
  9.200000000000002E-003    1.423421761362775E-009
  9.300000000000001E-003    1.421324181805526E-009
  9.400000000000002E-003    1.360277785435568E-009
  9.500000000000001E-003    1.236911860339218E-009
  9.600000000000001E-003    1.049866594730755E-009
  9.700000000000002E-003    7.999919937677477E-010
  9.800000000000001E-003    4.904859048335023E-010
  9.900000000000001E-003    1.269632511332743E-010
  1.000000000000000E-002   -2.825479641696103E-010
  1.010000000000000E-002   -7.276885947012946E-010
  1.020000000000000E-002   -1.195927788290506E-009
  1.030000000000000E-002   -1.672799498364603E-009
  1.040000000000000E-002   -2.142213174077414E-009
  1.050000000000000E-002   -2.586832163300969E-009
  1.060000000000000E-002   -2.988513819864652E-009
  1.070000000000000E-002   -3.328800574126986E-009
  1.080000000000000E-002   -3.589453538940014E-009
  1.090000000000000E-002   -3.753015070018127E-009
  1.100000000000000E-002   -3.803390836998831E-009
  1.110000000000000E-002   -3.726433497405573E-009
  1.120000000000000E-002   -3.510520169900583E-009
  1.130000000000000E-002   -3.147106477801633E-009
  1.140000000000000E-002   -2.631245547113859E-009
  1.150000000000000E-002   -1.962058017784175E-009
  1.160000000000000E-002   -1.143140547876100E-009
  1.170000000000000E-002   -1.829005908081110E-010
  1.180000000000000E-002    9.051966426139591E-010
  1.190000000000000E-002    2.102479768797593E-009
  1.200000000000000E-002    3.385031914800982E-009
  1.210000000000000E-002    4.723776128822901E-009
  1.220000000000000E-002    6.084690483374544E-009
  1.230000000000000E-002    7.429169353540652E-009
  1.240000000000000E-002    8.714532559052365E-009
  1.250000000000000E-002    9.894697444462081E-009
  1.260000000000000E-002    1.092101297120564E-008
  1.270000000000000E-002    1.174326497429730E-008
  1.280000000000000E-002    1.231084314696169E-008
  1.290000000000000E-002    1.257407722166009E-008
  1.300000000000000E-002    1.248572193029374E-008
  1.310000000000000E-002    1.200258712748434E-008
  1.320000000000000E-002    1.108728677194562E-008
  1.330000000000000E-002    9.710086455907133E-009
  1.340000000000000E-002    7.850817652418699E-009
  1.350000000000000E-002    5.500821395375360E-009
  1.360000000000000E-002    2.664883841222018E-009
  1.370000000000000E-002   -6.368843461185965E-010
  1.380000000000000E-002   -4.367269187891551E-009
  1.390000000000000E-002   -8.470330556394177E-009
  1.400000000000000E-002   -1.286998542902215E-008
  1.410000000000000E-002   -1.746883786126254E-008
  1.420000000000000E-002   -2.214731956294072E-008
  1.430000000000000E-002   -2.676317207359158E-008
  1.440000000000000E-002   -3.115130975352978E-008
  1.450000000000000E-002   -3.512409411758315E-008
  1.460000000000000E-002   -3.847204419089868E-008
  1.470000000000000E-002   -4.096498079174710E-008
  1.480000000000000E-002   -4.235361420443440E-008
  1.490000000000000E-002   -4.237155487537769E-008
  1.500000000000000E-002   -4.073772370098891E-008
  1.510000000000000E-002   -3.715912286764730E-008
  1.520000000000000E-002   -3.133390203947638E-008
  1.530000000000000E-002   -2.295467812817417E-008
  1.540000000000000E-002   -1.171201934492720E-008
  1.550000000000000E-002    2.701983975932239E-009
  1.560000000000000E-002    2.059016191663555E-008
  1.570000000000000E-002    4.224678848322322E-008
  1.580000000000000E-002    6.795433503244116E-008
  1.590000000000000E-002    9.798045614017847E-008
  1.600000000000000E-002    1.325754691283464E-007
  1.610000000000000E-002    1.719701460923790E-007
  1.620000000000000E-002    2.163742214009601E-007
  1.630000000000000E-002    2.659754196855921E-007
  1.640000000000000E-002    3.209391556944657E-007
  1.650000000000000E-002    3.814090442877611E-007
  1.660000000000000E-002    4.475079249379019E-007
  1.670000000000000E-002    5.193398073689873E-007
  1.680000000000000E-002    5.969924650780871E-007
  1.690000000000000E-002    6.805406471590843E-007
  1.700000000000000E-002    7.700499864932051E-007
  1.710000000000000E-002    8.655814056766078E-007
  1.720000000000000E-002    9.671958556818818E-007
  1.730000000000000E-002    1.074959765152415E-006
  1.740000000000000E-002    1.188950398099213E-006
  1.750000000000000E-002    1.309261579143869E-006
  1.760000000000000E-002    1.436009317613737E-006
  1.770000000000000E-002    1.569337555371027E-006
  1.780000000000000E-002    1.709423612440162E-006
  1.790000000000000E-002    1.856483449080767E-006
  1.800000000000000E-002    2.010776616654584E-006
  1.810000000000000E-002    2.172610630029230E-006
  1.820000000000000E-002    2.342345137166902E-006
  1.830000000000000E-002    2.520395712439206E-006
  1.840000000000000E-002    2.707236549073336E-006
  1.850000000000000E-002    2.903403372361398E-006
  1.860000000000000E-002    3.109494926811311E-006
  1.870000000000000E-002    3.326175348972031E-006