 -4.000000000000000E-002    0.000000000000000E+000
 -3.990000000000000E-002    9.918234733763554E-009
 -3.980000000000000E-002    2.917986352168547E-008
 -3.970000000000000E-002    5.648987010690197E-008
 -3.960000000000000E-002    8.997624825430077E-008
 -3.950000000000000E-002    1.273527855621026E-007
 -3.940000000000000E-002    1.660869255597026E-007
 -3.930000000000000E-002    2.035595228966107E-007
 -3.920000000000000E-002    2.372052868720313E-007
 -3.910000000000000E-002    2.646257270566195E-007
 -3.900000000000000E-002    2.836701683354673E-007
 -3.890000000000000E-002    2.924833138486034E-007
 -3.880000000000000E-002    2.895220392513290E-007
 -3.870000000000000E-002    2.735462169023557E-007
 -3.860000000000000E-002    2.435908607750152E-007
 -3.850000000000000E-002    1.989277048875059E-007
 -3.840000000000000E-002    1.390247534443898E-007
 -3.830000000000000E-002    6.351091245813854E-008
 -3.820000000000000E-002   -2.784795495353045E-008
 -3.810000000000000E-002   -1.351580246001046E-007
 -3.800000000000000E-002   -2.583905446883193E-007
 -3.790000000000000E-002   -3.973587303029951E-007
 -3.780000000000000E-002   -5.516829547008529E-007
 -3.770000000000000E-002   -7.207472520457344E-007
 -3.760000000000000E-002   -9.036532347723726E-007
 -3.750000000000000E-002   -1.099177106793705E-006
 -3.740000000000000E-002   -1.305733243724914E-006
 -3.730000000000000E-002   -1.521350812175374E-006
 -3.720000000000000E-002   -1.743665062613798E-006
 -3.710000000000000E-002   -1.969923700034397E-006
 -3.700000000000000E-002   -2.197011537418047E-006
 -3.690000000000000E-002   -2.421490121138531E-006
 -3.680000000000000E-002   -2.639651259632152E-006
 -3.670000000000000E-002   -2.847584694685373E-006
 -3.660000000000000E-002   -3.041254052559792E-006
 -3.650000000000000E-002   -3.216583788795657E-006
 -3.640000000000000E-002   -3.369549646068573E-006
 -3.630000000000000E-002   -3.496276210351884E-006
 -3.620000000000000E-002   -3.593136449591827E-006
 -3.610000000000000E-002   -3.656852315228226E-006
 -3.600000000000000E-002   -3.684593855641263E-006
 -3.590000000000000E-002   -3.674073206881393E-006
 -3.580000000000000E-002   -3.623629789689555E-006
 -3.570000000000000E-002   -3.532302589311155E-006
 -3.560000000000000E-002   -3.399884490084589E-006
 -3.550000000000000E-002   -3.226954651929982E-006
 -3.540000000000000E-002   -3.014882708731512E-006
 -3.530000000000000E-002   -2.765804351624355E-006
 -3.520000000000000E-002   -2.482567113781560E-006
 -3.510000000000000E-002   -2.168643440834819E-006
 -3.500000000000000E-002   -1.828017985845078E-006
 -3.490000000000000E-002   -1.465051447002277E-006
 -3.480000000000000E-002   -1.084329803567753E-006
 -3.470000000000000E-002   -6.905048818890793E-007
 -3.460000000000000E-002   -2.881371357390614E-007
 -3.450000000000000E-002    1.184527462512686E-007
 -3.440000000000000E-002    5.253122333743177E-007
 -3.430000000000000E-002    9.289635487450981E-007
 -3.420000000000000E-002    1.326481172012299E-006
 -3.410000000000000E-002    1.715539451778389E-006
 -3.400000000000000E-002    2.094431532443168E-006
 -3.390000000000000E-002    2.462062500680181E-006
 -3.380000000000000E-002    2.817921338076248E-006
 -3.370000000000000E-002    3.162036117108844E-006
 -3.360000000000000E-002    3.494920823940825E-006
 -3.350000000000000E-002    3.817515437145180E-006
 -3.340000000000000E-002    4.131128701474192E-006
 -3.330000000000000E-002    4.437380808402024E-006
 -3.320000000000000E-002    4.738152319597912E-006
 -3.310000000000000E-002    5.035536682537043E-006
 -3.300000000000000E-002    5.331794903389047E-006
 -3.290000000000000E-002    5.629313884502650E-006
 -3.280000000000000E-002    5.930563605308809E-006
 -3.270000000000000E-002    6.238051216064932E-006
 -3.260000000000000E-002    6.554279306416941E-006
 -3.250000000000000E-002    6.881697724595287E-006
 -3.240000000000000E-002    7.222662076646816E-006
 -3.230000000000000E-002    7.579393611808661E-006
 -3.220000000000000E-002    7.953952988328943E-006
 -3.210000000000000E-002    8.348219649555357E-006
 -3.200000000000000E-002    8.763893063223649E-006
 -3.190000000000000E-002    9.202503962517430E-006
 -3.180000000000000E-002    9.665447724375083E-006
 -3.170000000000000E-002    1.015402863165592E-005
 -3.160000000000000E-002    1.066951689806807E-005
 -3.150000000000000E-002    1.121320939854927E-005
 -3.140000000000000E-002    1.178649138228981E-005
 -3.130000000000000E-002    1.239089218038320E-005
 -3.120000000000000E-002    1.302812783060929E-005
 -3.110000000000000E-002    1.370013416908274E-005
 -3.100000000000000E-002    1.440907278782263E-005
 -3.090000000000000E-002    1.515733553210447E-005
 -3.080000000000000E-002    1.594752652629887E-005
 -3.070000000000000E-002    1.678243830500629E-005
 -3.060000000000000E-002    1.766503376893835E-005
 -3.050000000000000E-002    1.859842026640336E-005
 -3.040000000000000E-002    1.958585322259330E-005
 -3.030000000000000E-002    2.063073334280279E-005
 -3.020000000000000E-002    2.173664832327565E-005
 -3.010000000000000E-002    2.290741090581424E-005
 -3.000000000000000E-002    2.414711800248672E-005
 -2.990000000000000E-002    2.546022105256599E-005
 -2.980000000000000E-002    2.685159617209611E-005
 -2.970000000000000E-002    2.832660503405087E-005
 -2.960000000000000E-002    2.989114450446433E-005
 -2.950000000000000E-002    3.155167173632871E-005
 -2.940000000000000E-002    3.331520100739148E-005
 -2.930000000000000E-002    3.518928413316565E-005
 -2.920000000000000E-002    3.718193866082264E-005
 -2.910000000000000E-002    3.930159419160076E-005
 -2.900000000000000E-002    4.155699137578955E-005
 -2.890000000000000E-002    4.395709759839502E-005
 -2.880000000000000E-002    4.651102094426705E-005
 -2.870000000000000E-002    4.922794562396635E-005
 -2.860000000000000E-002    5.211708331121302E-005
 -2.850000000000000E-002    5.518764832915722E-005
 -2.840000000000000E-002    5.844887887148074E-005
 -2.830000000000000E-002    6.191006114180457E-005
 -2.820000000000000E-002    6.558057966064065E-005
 -2.810000000000000E-002    6.946999119458434E-005
 -2.800000000000000E-002    7.358808533711940E-005
 -2.790000000000000E-002    7.794493315631669E-005
 -2.780000000000000E-002    8.255095169549597E-005
 -2.770000000000000E-002    8.741690831414530E-005
 -2.760000000000000E-002    9.255392745322755E-005
 -2.750000000000000E-002    9.797346061042372E-005
 -2.740000000000000E-002    1.036872508440393E-004
 -2.730000000000000E-002    1.097072836990130E-004
 -2.720000000000000E-002    1.160457454838362E-004
 -2.710000000000000E-002    1.227149639707386E-004
 -2.700000000000000E-002    1.297273860522960E-004
 -2.690000000000000E-002    1.370955984792417E-004
 -2.680000000000000E-002    1.448323436156900E-004
 -2.670000000000000E-002    1.529505636257373E-004
 -2.660000000000000E-002    1.614635157962850E-004
 -2.650000000000000E-002    1.703848468342520E-004
 -2.640000000000000E-002    1.797287024727320E-004
 -2.630000000000000E-002    1.895098280233491E-004
 -2.620000000000000E-002    1.997436860500083E-004
 -2.610000000000000E-002    2.104464765480423E-004
 -2.600000000000000E-002    2.216352072541325E-004
 -2.590000000000000E-002    2.333276704922531E-004
 -2.580000000000000E-002    2.455424223389771E-004
 -2.570000000000000E-002    2.582986764687349E-004
 -2.560000000000000E-002    2.716162842921242E-004
 -2.550000000000000E-002    2.855155260059616E-004
 -2.540000000000000E-002    3.000170745142533E-004
 -2.530000000000000E-002    3.151418328979938E-004
 -2.520000000000000E-002    3.309108465234402E-004
 -2.510000000000000E-002    3.473452039774330E-004
 -2.500000000000000E-002    3.644659495870539E-004
 -2.490000000000000E-002    3.822940727703257E-004
 -2.480000000000000E-002    4.008504204793103E-004
 -2.470000000000000E-002    4.201556853992298E-004
 -2.460000000000000E-002    4.402303925956910E-004
 -2.450000000000000E-002    4.610948203215479E-004
 -2.440000000000000E-002    4.827689795856640E-004
 -2.430000000000000E-002    5.052725803439859E-004
 -2.420000000000000E-002    5.286249097587988E-004
 -2.410000000000000E-002    5.528447578172495E-004
 -2.400000000000000E-002    5.779502811021111E-004
 -2.390000000000000E-002    6.039589485085670E-004
 -2.380000000000000E-002    6.308874039990441E-004
 -2.370000000000000E-002    6.587512868554132E-004
 -2.360000000000000E-002    6.875651916951374E-004
 -2.350000000000000E-002    7.173426085521665E-004
 -2.340000000000000E-002    7.480957978773291E-004
 -2.330000000000000E-002    7.798356661182294E-004
 -2.320000000000000E-002    8.125718046565950E-004
 -2.310000000000000E-002    8.463124020108368E-004
 -2.300000000000000E-002    8.810641714010718E-004
 -2.290000000000000E-002    9.168322376954499E-004
 -2.280000000000000E-002    9.536200949712586E-004
 -2.270000000000000E-002    9.914294660148808E-004
 -2.260000000000000E-002    1.030260094809204E-003
 -2.250000000000000E-002    1.070109619992524E-003
 -2.240000000000000E-002    1.110973383030779E-003
 -2.230000000000000E-002    1.152844017517726E-003
 -2.220000000000000E-002    1.195711480878592E-003
 -2.210000000000000E-002    1.239562521791282E-003
 -2.200000000000000E-002    1.284380568878248E-003
 -2.190000000000000E-002    1.330145406185194E-003
 -2.180000000000000E-002    1.376832989145646E-003
 -2.170000000000000E-002    1.424415144139565E-003
 -2.160000000000000E-002    1.472859166445812E-003
 -2.150000000000000E-002    1.522127872065107E-003
 -2.140000000000000E-002    1.572179195175283E-003
 -2.130000000000000E-002    1.622965862676509E-003
 -2.120000000000000E-002    1.674435292559401E-003
 -2.110000000000000E-002    1.726529191982904E-003
 -2.100000000000000E-002    1.779183061540056E-003
 -2.090000000000000E-002    1.832326325303883E-003
 -2.080000000000000E-002    1.885881418245586E-003
 -2.070000000000000E-002    1.939763531409295E-003
 -2.060000000000000E-002    1.993880459638745E-003
 -2.050000000000000E-002    2.048131726976420E-003
 -2.040000000000000E-002    2.102408562037748E-003
 -2.030000000000000E-002    2.156593106013192E-003
 -2.020000000000000E-002    2.210557860789594E-003
 -2.010000000000000E-002    2.264165713820418E-003
 -2.000000000000000E-002    2.317268878468699E-003
 -1.990000000000000E-002    2.369709176308894E-003
 -1.980000000000000E-002    2.421316806558184E-003
 -1.970000000000000E-002    2.471910867703009E-003
 -1.960000000000000E-002    2.521297791859370E-003
 -1.950000000000000E-002    2.569271918206563E-003
 -1.940000000000000E-002    2.615614316215785E-003
 -1.930000000000000E-002    2.660092791635998E-003
 -1.920000000000000E-002    2.702460858488329E-003
 -1.910000000000000E-002    2.742458076633227E-003
 -1.900000000000000E-002    2.779808703476156E-003
 -1.890000000000000E-002    2.814221620713062E-003
 -1.880000000000000E-002    2.845389163743402E-003
 -1.870000000000000E-002    2.872987960005756E-003
 -1.860000000000000E-002    2.896676257777465E-003
 -1.850000000000000E-002    2.916095735109499E-003
 -1.840000000000000E-002    2.930868737083651E-003
 -1.830000000000000E-002    2.940599325493427E-003
 -1.820000000000000E-002    2.944871518288964E-003
 -1.810000000000000E-002    2.943249439947146E-003
 -1.800000000000000E-002    2.935276044273631E-003
 -1.790000000000000E-002    2.920473685910841E-003
 -1.780000000000000E-002    2.898342133011036E-003
 -1.770000000000000E-002    2.868358367900409E-003
 -1.760000000000000E-002    2.829976036352422E-003
 -1.750000000000000E-002    2.782624888507291E-003
 -1.740000000000000E-002    2.725709812094698E-003
 -1.730000000000000E-002    2.658610238435430E-003
 -1.720000000000000E-002    2.580679169791438E-003
 -1.710000000000000E-002    2.491243460486459E-003
 -1.700000000000000E-002    2.389601283109346E-003
 -1.690000000000000E-002    2.275023949471913E-003
 -1.680000000000000E-002    2.146753483708751E-003
 -1.670000000000000E-002    2.004001846451075E-003
 -1.660000000000000E-002    1.845952049565220E-003
 -1.650000000000000E-002    1.671756410706195E-003
 -1.640000000000000E-002    1.480535300279828E-003
 -1.630000000000000E-002    1.271379002440716E-003
 -1.620000000000000E-002    1.043343667919553E-003
 -1.610000000000000E-002    7.954536693529591E-004
 -1.600000000000000E-002    5.267003495512223E-004
 -1.590000000000000E-002    2.360422011785791E-004
 -1.580000000000000E-002   -7.759656676810324E-005
 -1.570000000000000E-002   -4.153285192652774E-004
 -1.560000000000000E-002   -7.782982056373754E-004
 -1.550000000000000E-002   -1.167686810611577E-003
 -1.540000000000000E-002   -1.584710276868182E-003
 -1.530000000000000E-002   -2.030621255663665E-003
 -1.520000000000000E-002   -2.506706897783257E-003
 -1.510000000000000E-002   -3.014291616505675E-003
 -1.500000000000000E-002   -3.554735824168553E-003
 -1.490000000000000E-002   -4.129437197902154E-003
 -1.480000000000000E-002   -4.739828482698186E-003
 -1.470000000000000E-002   -5.387378959485239E-003
 -1.460000000000000E-002   -6.073596793843937E-003
 -1.450000000000000E-002   -6.800022351755693E-003
 -1.440000000000000E-002   -7.568236681911486E-003
 -1.430000000000000E-002   -8.379853599655176E-003
 -1.420000000000000E-002   -9.236527890779974E-003
 -1.410000000000000E-002   -1.013994357196003E-002
 -1.400000000000000E-002   -1.109182732162462E-002
 -1.390000000000000E-002   -1.209393957211965E-002
 -1.380000000000000E-002   -1.314807317164881E-002
 -1.370000000000000E-002   -1.425605887159683E-002
 -1.360000000000000E-002   -1.541975872663943E-002
 -1.350000000000000E-002   -1.664106957990842E-002
 -1.340000000000000E-002   -1.792192132362088E-002
 -1.330000000000000E-002   -1.926427408478184E-002
 -1.320000000000000E-002   -2.067012161286264E-002
 -1.310000000000000E-002   -2.214148713895432E-002
 -1.300000000000000E-002   -2.368042075713654E-002
 -1.290000000000000E-002   -2.528900264378886E-002
 -1.280000000000000E-002   -2.696933818436604E-002
 -1.270000000000000E-002   -2.872356079037963E-002
 -1.260000000000000E-002   -3.055382789191389E-002
 -1.250000000000000E-002   -3.246231703510488E-002
 -1.240000000000000E-002   -3.445122582773950E-002
 -1.230000000000000E-002   -3.652277825488389E-002
 -1.220000000000000E-002   -3.867921494256710E-002
 -1.210000000000000E-002   -4.092279285149515E-002
 -1.200000000000000E-002   -4.325577224705345E-002
 -1.190000000000000E-002   -4.568043921452227E-002
 -1.180000000000000E-002   -4.819909398060902E-002
 -1.170000000000000E-002   -5.081402656113294E-002
 -1.160000000000000E-002   -5.352754469309541E-002
 -1.150000000000000E-002   -5.634195663504806E-002
 -1.140000000000000E-002   -5.925957054066312E-002
 -1.130000000000000E-002   -6.228270216602527E-002
 -1.120000000000000E-002   -6.541364783277698E-002
 -1.110000000000000E-002   -6.865470277441660E-002
 -1.100000000000000E-002   -7.200814892075857E-002
 -1.090000000000000E-002   -7.547625785612770E-002
 -1.080000000000000E-002   -7.906128470868638E-002
 -1.070000000000000E-002   -8.276545815701548E-002
 -1.060000000000000E-002   -8.659100010621329E-002
 -1.050000000000000E-002   -9.054010477581448E-002
 -1.040000000000000E-002   -9.461492016808780E-002
 -1.030000000000000E-002   -9.881757566777875E-002
 -1.020000000000000E-002   -0.103150154244374     
 -1.010000000000000E-002   -0.107614708281828     
 -1.000000000000000E-002   -0.112213250938029     
 -9.899999999999999E-003   -0.116947733222890     
 -9.800000000000000E-003   -0.121820063721329     
 -9.699999999999999E-003   -0.126832088496194     
 -9.599999999999999E-003   -0.131985608050673     
 -9.500000000000000E-003   -0.137282359384593     
 -9.399999999999999E-003   -0.142723982983931     
 -9.299999999999999E-003   -0.148312087219153     
 -9.200000000000000E-003   -0.154048183059206     
 -9.099999999999999E-003   -0.159933695258999     
 -8.999999999999999E-003   -0.165969991727486     
 -8.900000000000000E-003   -0.172158324291623     
 -8.799999999999999E-003   -0.178499848345887     
 -8.699999999999999E-003   -0.184995643883141     
 -8.600000000000000E-003   -0.191646667875065     
 -8.499999999999999E-003   -0.198453790786748     
 -8.399999999999999E-003   -0.205417774007062     
 -8.300000000000000E-003   -0.212539237606147     
 -8.199999999999999E-003   -0.219818687763394     
 -8.100000000000000E-003   -0.227256511557270     
 -8.000000000000000E-003   -0.234852988490217     
 -7.899999999999999E-003   -0.242608237969895     
 -7.800000000000000E-003   -0.250522217270332     
 -7.699999999999999E-003   -0.258594815251555     
 -7.599999999999999E-003   -0.266825702825819     
 -7.499999999999999E-003   -0.275214411320101     
 -7.399999999999999E-003   -0.283760365011601     
 -7.299999999999999E-003   -0.292462796419642     
 -7.199999999999999E-003   -0.301320752911424     
 -7.100000000000000E-003   -0.310333140377380     
 -6.999999999999999E-003   -0.319498679951722     
 -6.899999999999999E-003   -0.328815941293738     
 -6.800000000000000E-003   -0.338283298289897     
 -6.699999999999999E-003   -0.347898931815590     
 -6.599999999999999E-003   -0.357660843099326     
 -6.499999999999999E-003   -0.367566874618801     
 -6.399999999999999E-003   -0.377614635759276     
 -6.299999999999999E-003   -0.387801547623375     
 -6.199999999999999E-003   -0.398124856537042     
 -6.100000000000000E-003   -0.408581598591094     
 -5.999999999999999E-003   -0.419168604524914     
 -5.899999999999999E-003   -0.429882489592990     
 -5.800000000000000E-003   -0.440719619156369     
 -5.699999999999999E-003   -0.451676242654333     
 -5.599999999999999E-003   -0.462748366773670     
 -5.499999999999999E-003   -0.473931745750477     
 -5.399999999999999E-003   -0.485221951764642     
 -5.299999999999999E-003   -0.496614330701148     
 -5.199999999999999E-003   -0.508104035320584     
 -5.099999999999999E-003   -0.519685967776444     
 -4.999999999999999E-003   -0.531354850191730     
 -4.899999999999999E-003   -0.543105119861327     
 -4.799999999999999E-003   -0.554931066872085     
 -4.699999999999999E-003   -0.566826746907709     
 -4.599999999999999E-003   -0.578785984591756     
 -4.499999999999999E-003   -0.590802378555949     
 -4.399999999999999E-003   -0.602869388916905     
 -4.299999999999999E-003   -0.614980179965165     
 -4.199999999999999E-003   -0.627127730792128     
 -4.099999999999999E-003   -0.639304831732705     
 -3.999999999999999E-003   -0.651504032867351     
 -3.899999999999999E-003   -0.663717753648491     
 -3.799999999999999E-003   -0.675938163893273     
 -3.699999999999999E-003   -0.688157197271562     
 -3.599999999999999E-003   -0.700366712127798     
 -3.499999999999999E-003   -0.712558280025993     
 -3.399999999999999E-003   -0.724723283987901     
 -3.299999999999999E-003   -0.736852963860151     
 -3.199999999999999E-003   -0.748938445641415     
 -3.099999999999999E-003   -0.760970574801696     
 -2.999999999999999E-003   -0.772940080113423     
 -2.899999999999999E-003   -0.784837567032482     
 -2.799999999999999E-003   -0.796653450348727     
 -2.699999999999999E-003   -0.808378005253474     
 -2.599999999999999E-003   -0.820001346879698     
 -2.499999999999999E-003   -0.831513577483403     
 -2.399999999999999E-003   -0.842904550660445     
 -2.299999999999999E-003   -0.854164045765746     
 -2.199999999999999E-003   -0.865281748108514     
 -2.099999999999999E-003   -0.876247225972747     
 -1.999999999999999E-003   -0.887050000588288     
 -1.899999999999999E-003   -0.897679445617893     
 -1.799999999999999E-003   -0.908124961702209     
 -1.699999999999999E-003   -0.918375802460876     
 -1.599999999999999E-003   -0.928421139512494     
 -1.499999999999999E-003   -0.938250231163047     
 -1.399999999999999E-003   -0.947852220045363     
 -1.299999999999999E-003   -0.957216338927290     
 -1.199999999999999E-003   -0.966331563781672     
 -1.099999999999999E-003   -0.975187126494528     
 -9.999999999999989E-004   -0.983772096323702     
 -8.999999999999990E-004   -0.992075755944689     
 -7.999999999999990E-004    -1.00008717291345     
 -6.999999999999989E-004    -1.00779569021067     
 -5.999999999999990E-004    -1.01519062584078     
 -4.999999999999989E-004    -1.02226136365112     
 -3.999999999999989E-004    -1.02899727771923     
 -2.999999999999989E-004    -1.03538803371491     
 -1.999999999999989E-004    -1.04142325198488     
 -9.999999999999892E-005    -1.04709265437740     
  1.084202172485504E-018    -1.05238623714497     
  1.000000000000011E-004    -1.05729401356874     
  2.000000000000011E-004    -1.06180618002217     
  3.000000000000011E-004    -1.06591318741041     
  4.000000000000011E-004    -1.06960551860871     
  5.000000000000011E-004    -1.07287396019405     
  6.000000000000011E-004    -1.07570932490042     
  7.000000000000011E-004    -1.07810293197701     
  8.000000000000011E-004    -1.08004615869062     
  9.000000000000012E-004    -1.08153056889131     
  1.000000000000001E-003    -1.08254811909473     
  1.100000000000001E-003    -1.08309088629656     
  1.200000000000001E-003    -1.08315128794711     
  1.300000000000001E-003    -1.08272206853157     
  1.400000000000001E-003    -1.08179625935464     
  1.500000000000001E-003    -1.08036714409203     
  1.600000000000001E-003    -1.07842825684720     
  1.700000000000001E-003    -1.07597363351210     
  1.800000000000001E-003    -1.07299758000460     
  1.900000000000001E-003    -1.06949466852440     
  2.000000000000001E-003    -1.06545999913275     
  2.100000000000001E-003    -1.06088877343735     
  2.200000000000001E-003    -1.05577682639527     
  2.300000000000001E-003    -1.05012032177870     
  2.400000000000001E-003    -1.04391575467228     
  2.500000000000001E-003    -1.03716004648307     
  2.600000000000001E-003    -1.02985043549120     
  2.700000000000001E-003    -1.02198475716417     
  2.800000000000001E-003    -1.01356112060252     
  2.900000000000001E-003    -1.00457814317673     
  3.000000000000001E-003   -0.995034863191147     
  3.100000000000001E-003   -0.984930739692304     
  3.200000000000001E-003   -0.974265683044191     
  3.300000000000001E-003   -0.963040063627804     
  3.400000000000001E-003   -0.951254638762080     
  3.500000000000001E-003   -0.938910719237640     
  3.600000000000001E-003   -0.926010021746865     
  3.700000000000001E-003   -0.912554734310674     
  3.800000000000001E-003   -0.898547482247424     
  3.900000000000001E-003   -0.883991393474137     
  4.000000000000001E-003   -0.868890013225199     
  4.100000000000001E-003   -0.853247405131849     
  4.200000000000001E-003   -0.837068059688283     
  4.300000000000001E-003   -0.820356937294071     
  4.400000000000001E-003   -0.803119492790497     
  4.500000000000001E-003   -0.785361623711166     
  4.600000000000002E-003   -0.767089683603576     
  4.700000000000001E-003   -0.748310423705777     
  4.800000000000001E-003   -0.729031169570671     
  4.900000000000002E-003   -0.709259556982406     
  5.000000000000001E-003   -0.689003793945035     
  5.100000000000001E-003   -0.668272475977666     
  5.200000000000001E-003   -0.647074561153279     
  5.300000000000002E-003   -0.625419566866739     
  5.400000000000001E-003   -0.603317316944231     
  5.500000000000001E-003   -0.580778088348034     
  5.600000000000002E-003   -0.557812577901669     
  5.700000000000001E-003   -0.534431886285227     
  5.800000000000001E-003   -0.510647481360757     
  5.900000000000002E-003   -0.486471207477203     
  6.000000000000001E-003   -0.461915272653496     
  6.100000000000001E-003   -0.436992292786665     
  6.200000000000002E-003   -0.411715149046077     
  6.300000000000002E-003   -0.386097122703481     
  6.400000000000001E-003   -0.360151797972361     
  6.500000000000001E-003   -0.333893078789531     
  6.600000000000002E-003   -0.307335179281866     
  6.700000000000001E-003   -0.280492580265506     
  6.800000000000001E-003   -0.253380078237997     
  6.900000000000002E-003   -0.226012683762153     
  7.000000000000001E-003   -0.198405687557994     
  7.100000000000001E-003   -0.170574586081464     
  7.200000000000002E-003   -0.142535137644831     
  7.300000000000002E-003   -0.114303276915493     
  7.400000000000001E-003   -8.589514968760956E-002
  7.500000000000001E-003   -5.732705360642834E-002
  7.600000000000002E-003   -2.861547741072283E-002
  7.700000000000001E-003    2.229666703301714E-004
  7.800000000000001E-003    2.917154009155998E-002
  7.900000000000001E-003    5.821334695810067E-002
  8.000000000000002E-003    8.733145977885459E-002
  8.100000000000001E-003    0.116508809492599     
  8.200000000000001E-003    0.145728280278234     
  8.300000000000002E-003    0.174972735914097     
  8.400000000000001E-003    0.204224961356846     
  8.500000000000002E-003    0.233467763832065     
  8.600000000000002E-003    0.262683902242914     
  8.700000000000001E-003    0.291856209824357     
  8.800000000000002E-003    0.320967500875676     
  8.900000000000002E-003    0.350000670159081     
  9.000000000000001E-003    0.378938709305008     
  9.100000000000002E-003    0.407764583546002     
  9.200000000000002E-003    0.436461455079928     
  9.300000000000001E-003    0.465012522489109     
  9.400000000000002E-003    0.493401199922791     
  9.500000000000001E-003    0.521610972761229     
  9.600000000000001E-003    0.549625498188348     
  9.700000000000002E-003    0.577428648752964     
  9.800000000000001E-003    0.605004415034895     
  9.900000000000001E-003    0.632337025689103     
  1.000000000000000E-002    0.659410908431140     
  1.010000000000000E-002    0.686210794169195     
  1.020000000000000E-002    0.712721573347649     
  1.030000000000000E-002    0.738928429407707     
  1.040000000000000E-002    0.764816753147213     
  1.050000000000000E-002    0.790372324194318     
  1.060000000000000E-002    0.815581234733565     
  1.070000000000000E-002    0.840429685233410     
  1.080000000000000E-002    0.864904491035030     
  1.090000000000000E-002    0.888992564815742     
  1.100000000000000E-002    0.912681199421230     
  1.110000000000000E-002    0.935958142267894     
  1.120000000000000E-002    0.958811435232869     
  1.130000000000000E-002    0.981229459725977     
  1.140000000000000E-002     1.00320093127718     
  1.150000000000000E-002     1.02471516667932     
  1.160000000000000E-002     1.04576159912468     
  1.170000000000000E-002     1.06633030305667     
  1.180000000000000E-002     1.08641163258950     
  1.190000000000000E-002     1.10599644801251     
  1.200000000000000E-002     1.12507587070329     
  1.210000000000000E-002     1.14364162749878     
  1.220000000000000E-002     1.16168582949144     
  1.230000000000000E-002     1.17920093417078     
  1.240000000000000E-002     1.19617995193063     
  1.250000000000000E-002     1.21261626179190     
  1.260000000000000E-002     1.22850381288599     
  1.270000000000000E-002     1.24383681192563     
  1.280000000000000E-002     1.25860998599993     
  1.290000000000000E-002     1.27281867102221     
  1.300000000000000E-002     1.28645841766530     
  1.310000000000000E-002     1.29952539637731     
  1.320000000000000E-002     1.31201620868487     
  1.330000000000000E-002     1.32392778459535     
  1.340000000000000E-002     1.33525769775947     
  1.350000000000000E-002     1.34600384526214     
  1.360000000000000E-002     1.35616452358968     
  1.370000000000000E-002     1.36573860208294     
  1.380000000000000E-002     1.37472538887391     
  1.390000000000000E-002     1.38312449813200     
  1.400000000000000E-002     1.39093609668959     
  1.410000000000000E-002     1.39816085171166     
  1.420000000000000E-002     1.40479962595452     
  1.430000000000000E-002     1.41085386866119     
  1.440000000000000E-002     1.41632540961970     
  1.450000000000000E-002     1.42121650553678     
  1.460000000000000E-002     1.42552969419321     
  1.470000000000000E-002     1.42926810871728     
  1.480000000000000E-002     1.43243507809939     
  1.490000000000000E-002     1.43503440493457     
  1.500000000000000E-002     1.43707035390312     
  1.510000000000000E-002     1.43854741755491     
  1.520000000000000E-002     1.43947044512370     
  1.530000000000000E-002     1.43984469589493     
  1.540000000000000E-002     1.43967576842770     
  1.550000000000000E-002     1.43896951424615     
  1.560000000000000E-002     1.43773218343501     
  1.570000000000000E-002     1.43597025646744     
  1.580000000000000E-002     1.43369055584907     
  1.590000000000000E-002     1.43090028878212     
  1.600000000000000E-002     1.42760672698129     
  1.610000000000000E-002     1.42381763679498     
  1.620000000000000E-002     1.41954094409299     
  1.630000000000000E-002     1.41478484330914     
  1.640000000000000E-002     1.40955773366447     
  1.650000000000000E-002     1.40386822575845     
  1.660000000000000E-002     1.39772515890463     
  1.670000000000000E-002     1.39113757819087     
  1.680000000000000E-002     1.38411474066508     
  1.690000000000000E-002     1.37666613790198     
  1.700000000000000E-002     1.36880139589352     
  1.710000000000000E-002     1.36053016617884     
  1.720000000000000E-002     1.35186245235758     
  1.730000000000000E-002     1.34280833129698     
  1.740000000000000E-002     1.33337788190956     
  1.750000000000000E-002     1.32358139842723     
  1.760000000000000E-002     1.31342925691341     
  1.770000000000000E-002     1.30293206653617     
  1.780000000000000E-002     1.29210031915012     
  1.790000000000000E-002     1.28094457048235     
  1.800000000000000E-002     1.26947559146357     
  1.810000000000000E-002     1.25770415730746     
  1.820000000000000E-002     1.24564104758441     
  1.830000000000000E-002     1.23329708660659     
  1.840000000000000E-002     1.22068305480186     
  1.850000000000000E-002     1.20780985906185     
  1.860000000000000E-002     1.19468829495013     
  1.870000000000000E-002     1.18132920630428     