 -4.000000000000000E-002    0.000000000000000E+000
 -3.990000000000000E-002    0.000000000000000E+000
 -3.980000000000000E-002    0.000000000000000E+000
 -3.970000000000000E-002    0.000000000000000E+000
 -3.960000000000000E-002    0.000000000000000E+000
 -3.950000000000000E-002    0.000000000000000E+000
 -3.940000000000000E-002    0.000000000000000E+000
 -3.930000000000000E-002   -6.771684212021005E-026
 -3.920000000000000E-002   -7.884092667560186E-025
 -3.910000000000000E-002   -4.640457965812660E-024
 -3.900000000000000E-002   -1.781259908403772E-023
 -3.890000000000000E-002   -4.660897619063170E-023
 -3.880000000000000E-002   -6.778512299167654E-023
 -3.870000000000000E-002    7.782380812741810E-023
 -3.860000000000000E-002    9.670967144765764E-022
 -3.850000000000000E-002    4.211340113139719E-021
 -3.840000000000000E-002    1.362102716078356E-020
 -3.830000000000000E-002    3.713927253187134E-020
 -3.820000000000000E-002    8.966915736435246E-020
 -3.810000000000000E-002    1.966546481916036E-019
 -3.800000000000000E-002    3.977826492900587E-019
 -3.790000000000000E-002    7.494366689920575E-019
 -3.780000000000000E-002    1.323605158436020E-018
 -3.770000000000000E-002    2.199990539723898E-018
 -3.760000000000000E-002    3.447358213012637E-018
 -3.750000000000000E-002    5.090110906207185E-018
 -3.740000000000000E-002    7.057130066569487E-018
 -3.730000000000000E-002    9.112541640156823E-018
 -3.720000000000000E-002    1.077252294447581E-017
 -3.710000000000000E-002    1.121857932446358E-017
 -3.700000000000000E-002    9.225371287254501E-018
 -3.690000000000000E-002    3.129199640377447E-018
 -3.680000000000000E-002   -9.130005458199231E-018
 -3.670000000000000E-002   -2.985700947339517E-017
 -3.660000000000000E-002   -6.130610493928598E-017
 -3.650000000000000E-002   -1.052189293855407E-016
 -3.640000000000000E-002   -1.621915938384363E-016
 -3.630000000000000E-002   -2.308969207414278E-016
 -3.620000000000000E-002   -3.072254526386663E-016
 -3.610000000000000E-002   -3.834515346244431E-016
 -3.600000000000000E-002   -4.475724600042409E-016
 -3.590000000000000E-002   -4.830012664678863E-016
 -3.580000000000000E-002   -4.688102225194006E-016
 -3.570000000000000E-002   -3.807117476020274E-016
 -3.560000000000000E-002   -1.929208773261021E-016
 -3.550000000000000E-002    1.190342982485188E-016
 -3.540000000000000E-002    5.746017511571010E-016
 -3.530000000000000E-002    1.183781458436566E-015
 -3.520000000000000E-002    1.942329377352040E-015
 -3.510000000000000E-002    2.827080633990949E-015
 -3.500000000000000E-002    3.792001014341479E-015
 -3.490000000000000E-002    4.765647537608097E-015
 -3.480000000000000E-002    5.650710238186173E-015
 -3.470000000000000E-002    6.326217983825953E-015
 -3.460000000000000E-002    6.652806173001005E-015
 -3.450000000000000E-002    6.481175646165020E-015
 -3.440000000000000E-002    5.663541427197348E-015
 -3.430000000000000E-002    4.067526525436130E-015
 -3.420000000000000E-002    1.591599580797454E-015
 -3.410000000000000E-002   -1.819093918401638E-015
 -3.400000000000000E-002   -6.157840084530428E-015
 -3.390000000000000E-002   -1.134375829106773E-014
 -3.380000000000000E-002   -1.721272021154408E-014
 -3.370000000000000E-002   -2.351276610070742E-014
 -3.360000000000000E-002   -2.990462177264173E-014
 -3.350000000000000E-002   -3.596752389698668E-014
 -3.340000000000000E-002   -4.121019942259867E-014
 -3.330000000000000E-002   -4.508654520222488E-014
 -3.320000000000000E-002   -4.701549227536586E-014
 -3.310000000000000E-002   -4.640457520148148E-014
 -3.300000000000000E-002   -4.267706686077952E-014
 -3.290000000000000E-002   -3.530286033628061E-014
 -3.280000000000000E-002   -2.383374103725559E-014
 -3.270000000000000E-002   -7.943959434050404E-015
 -3.260000000000000E-002    1.252302983728727E-014
 -3.250000000000000E-002    3.750125579275564E-014
 -3.240000000000000E-002    6.664299790061515E-014
 -3.230000000000000E-002    9.925595272629633E-014
 -3.220000000000000E-002    1.342412956129194E-013
 -3.210000000000000E-002    1.700396626973792E-013
 -3.200000000000000E-002    2.045945541354109E-013
 -3.190000000000000E-002    2.353447420450394E-013
 -3.180000000000000E-002    2.592585091394955E-013
 -3.170000000000000E-002    2.729219738433009E-013
 -3.160000000000000E-002    2.726918991394530E-013
 -3.150000000000000E-002    2.549189743417370E-013
 -3.140000000000000E-002    2.162410871390285E-013
 -3.130000000000000E-002    1.539380270468808E-013
 -3.120000000000000E-002    6.632950997815303E-014
 -3.110000000000000E-002   -4.681133601252227E-014
 -3.100000000000000E-002   -1.838658980837143E-013
 -3.090000000000000E-002   -3.410429290388825E-013
 -3.080000000000000E-002   -5.121632466742997E-013
 -3.070000000000000E-002   -6.886022182399261E-013
 -3.060000000000000E-002   -8.594294505878920E-013
 -3.050000000000000E-002   -1.011773155148407E-012
 -3.040000000000000E-002   -1.131420023696349E-012
 -3.030000000000000E-002   -1.203640425683312E-012
 -3.020000000000000E-002   -1.214205965604531E-012
 -3.010000000000000E-002   -1.150542393537454E-012
 -3.000000000000000E-002   -1.002941706948425E-012
 -2.990000000000000E-002   -7.657397541209568E-013
 -2.980000000000000E-002   -4.383582832452239E-013
 -2.970000000000000E-002   -2.611047177531667E-014
 -2.960000000000000E-002    4.593218472506233E-013
 -2.950000000000000E-002    9.998111356473804E-013
 -2.940000000000000E-002    1.571151857524167E-012
 -2.930000000000000E-002    2.143884369627603E-012
 -2.920000000000000E-002    2.684550709217515E-012
 -2.910000000000000E-002    3.157322752673986E-012
 -2.900000000000000E-002    3.525911920467844E-012
 -2.890000000000000E-002    3.755647583835365E-012
 -2.880000000000000E-002    3.815596970953331E-012
 -2.870000000000000E-002    3.680598517220484E-012
 -2.860000000000000E-002    3.333088172424349E-012
 -2.850000000000000E-002    2.764619630253636E-012
 -2.840000000000000E-002    1.977001769145404E-012
 -2.830000000000000E-002    9.830074847146858E-013
 -2.820000000000000E-002   -1.933630989027368E-013
 -2.810000000000000E-002   -1.517061211548742E-012
 -2.800000000000000E-002   -2.942584991232674E-012
 -2.790000000000000E-002   -4.414965419652921E-012
 -2.780000000000000E-002   -5.871112605731142E-012
 -2.770000000000000E-002   -7.241504102897846E-012
 -2.760000000000000E-002   -8.452212233074285E-012
 -2.750000000000000E-002   -9.427277324919970E-012
 -2.740000000000000E-002   -1.009144215268339E-011
 -2.730000000000000E-002   -1.037326300196356E-011
 -2.720000000000000E-002   -1.020859361365733E-011
 -2.710000000000000E-002   -9.544408627091366E-012
 -2.700000000000000E-002   -8.342879155978110E-012
 -2.690000000000000E-002   -6.585557905646799E-012
 -2.680000000000000E-002   -4.277458256863046E-012
 -2.670000000000000E-002   -1.450748535316758E-012
 -2.660000000000000E-002    1.832280917835491E-012
 -2.650000000000000E-002    5.477349359911548E-012
 -2.640000000000000E-002    9.357801450366376E-012
 -2.630000000000000E-002    1.331605858194048E-011
 -2.620000000000000E-002    1.716718873157906E-011
 -2.610000000000000E-002    2.070476321911056E-011
 -2.600000000000000E-002    2.370902622928210E-011
 -2.590000000000000E-002    2.595722425798816E-011
 -2.580000000000000E-002    2.723574508703393E-011
 -2.570000000000000E-002    2.735353659771037E-011
 -2.560000000000000E-002    2.615609535734609E-011
 -2.550000000000000E-002    2.353917857304051E-011
 -2.540000000000000E-002    1.946128540350540E-011
 -2.530000000000000E-002    1.395397380970200E-011
 -2.520000000000000E-002    7.129047115809082E-012
 -2.510000000000000E-002   -8.181771291809022E-013
 -2.500000000000000E-002   -9.610181985362743E-012
 -2.490000000000000E-002   -1.889352471553512E-011
 -2.480000000000000E-002   -2.825021149269819E-011
 -2.470000000000000E-002   -3.721397861574639E-011
 -2.460000000000000E-002   -4.529097757122293E-011
 -2.450000000000000E-002   -5.198403351684251E-011
 -2.440000000000000E-002   -5.681941750171737E-011
 -2.430000000000000E-002   -5.937475785681159E-011
 -2.420000000000000E-002   -5.930665655389193E-011
 -2.410000000000000E-002   -5.637637723705279E-011
 -2.400000000000000E-002   -5.047203855119284E-011
 -2.390000000000000E-002   -4.162578753384164E-011
 -2.380000000000000E-002   -3.002458057124296E-011
 -2.370000000000000E-002   -1.601352329801370E-011
 -2.360000000000000E-002   -9.089812326170789E-014
 -2.350000000000000E-002    1.710541354411013E-011
 -2.340000000000000E-002    3.482012432603190E-011
 -2.330000000000000E-002    5.221078105078554E-011
 -2.320000000000000E-002    6.838505614589686E-011
 -2.310000000000000E-002    8.244359725441843E-011
 -2.300000000000000E-002    9.352652697257075E-011
 -2.290000000000000E-002    1.008613396464988E-010
 -2.280000000000000E-002    1.038097077150572E-010
 -2.270000000000000E-002    1.019105459814321E-010
 -2.260000000000000E-002    9.491674184979092E-011
 -2.250000000000000E-002    8.282315983934448E-011
 -2.240000000000000E-002    6.588382888596725E-011
 -2.230000000000000E-002    4.461671244108879E-011
 -2.220000000000000E-002    1.979507057865747E-011
 -2.210000000000000E-002   -7.574824070476448E-012
 -2.200000000000000E-002   -3.628920886850214E-011
 -2.190000000000000E-002   -6.499444817317543E-011
 -2.180000000000000E-002   -9.224478021648820E-011
 -2.170000000000000E-002   -1.165678291037005E-010
 -2.160000000000000E-002   -1.365349743679272E-010
 -2.150000000000000E-002   -1.508334029947791E-010
 -2.140000000000000E-002   -1.583366205699144E-010
 -2.130000000000000E-002   -1.581701892559693E-010
 -2.120000000000000E-002   -1.497697776707576E-010
 -2.110000000000000E-002   -1.329287966743259E-010
 -2.100000000000000E-002   -1.078335083742027E-010
 -2.090000000000000E-002   -7.508366833075679E-011
 -2.080000000000000E-002   -3.569749894199653E-011
 -2.070000000000000E-002    8.900144668913033E-012
 -2.060000000000000E-002    5.690678770935118E-011
 -2.050000000000000E-002    1.061889960730357E-010
 -2.040000000000000E-002    1.543464596212172E-010
 -2.030000000000000E-002    1.987931581687806E-010
 -2.020000000000000E-002    2.368545608282075E-010
 -2.010000000000000E-002    2.658795220595352E-010
 -2.000000000000000E-002    2.833645417334218E-010
 -1.990000000000000E-002    2.870871875260476E-010
 -1.980000000000000E-002    2.752445074176843E-010
 -1.970000000000000E-002    2.465908895195066E-010
 -1.960000000000000E-002    2.005688204823120E-010
 -1.950000000000000E-002    1.374247048487203E-010
 -1.940000000000000E-002    5.830132021643424E-011
 -1.930000000000000E-002   -3.470188001295786E-011
 -1.920000000000000E-002   -1.385095599056658E-010
 -1.910000000000000E-002   -2.490998828260329E-010
 -1.900000000000000E-002   -3.615885887906944E-010
 -1.890000000000000E-002   -4.703716160562132E-010
 -1.880000000000000E-002   -5.693263527071856E-010
 -1.870000000000000E-002   -6.520684359668818E-010
 -1.860000000000000E-002   -7.122566146368635E-010
 -1.850000000000000E-002   -7.439343024073773E-010
 -1.840000000000000E-002   -7.418921383607902E-010
 -1.830000000000000E-002   -7.020333023062534E-010
 -1.820000000000000E-002   -6.217205674681679E-010
 -1.810000000000000E-002   -5.000828089842817E-010
 -1.800000000000000E-002   -3.382595889915586E-010
 -1.790000000000000E-002   -1.395634330097923E-010
 -1.780000000000000E-002    9.045688363385951E-011
 -1.770000000000000E-002    3.440644095612791E-010
 -1.760000000000000E-002    6.115004488641859E-010
 -1.750000000000000E-002    8.812702211325934E-010
 -1.740000000000000E-002    1.140541857331315E-009
 -1.730000000000000E-002    1.375646447273289E-009
 -1.720000000000000E-002    1.572661749188787E-009
 -1.710000000000000E-002    1.718056466311291E-009
 -1.700000000000000E-002    1.799367842477616E-009
 -1.690000000000000E-002    1.805884836160930E-009
 -1.680000000000000E-002    1.729304872550089E-009
 -1.670000000000000E-002    1.564335476043196E-009
 -1.660000000000000E-002    1.309211004928220E-009
 -1.650000000000000E-002    9.660990591698913E-010
 -1.640000000000000E-002    5.413733738303641E-010
 -1.630000000000000E-002    4.573346399063814E-011
 -1.620000000000000E-002   -5.058425734982579E-010
 -1.610000000000000E-002   -1.094323880421155E-009
 -1.600000000000000E-002   -1.697034346681751E-009
 -1.590000000000000E-002   -2.288243627595912E-009
 -1.580000000000000E-002   -2.839934701966728E-009
 -1.570000000000000E-002   -3.322737357061579E-009
 -1.560000000000000E-002   -3.707008687632372E-009
 -1.550000000000000E-002   -3.964036592073993E-009
 -1.540000000000000E-002   -4.067333945806171E-009
 -1.530000000000000E-002   -3.993985318168854E-009
 -1.520000000000000E-002   -3.725998480409818E-009
 -1.510000000000000E-002   -3.251611270170277E-009
 -1.500000000000000E-002   -2.566493766374909E-009
 -1.490000000000000E-002   -1.674787609342517E-009
 -1.480000000000000E-002   -5.899187696406728E-010
 -1.470000000000000E-002    6.648737601211055E-010
 -1.460000000000000E-002    2.056350480689115E-009
 -1.450000000000000E-002    3.541471703928557E-009
 -1.440000000000000E-002    5.068021793962991E-009
 -1.430000000000000E-002    6.575678550806940E-009
 -1.420000000000000E-002    7.997537087464375E-009
 -1.410000000000000E-002    9.262073571804881E-009
 -1.400000000000000E-002    1.029552203069980E-008
 -1.390000000000000E-002    1.102461699351813E-008
 -1.380000000000000E-002    1.137963636136230E-008
 -1.370000000000000E-002    1.129767104173424E-008
 -1.360000000000000E-002    1.072602738527554E-008
 -1.350000000000000E-002    9.625668705085675E-009
 -1.340000000000000E-002    7.974592302006572E-009
 -1.330000000000000E-002    5.771038243437447E-009
 -1.320000000000000E-002    3.036429553967209E-009
 -1.310000000000000E-002   -1.820528745328815E-010
 -1.300000000000000E-002   -3.809350108282348E-009
 -1.290000000000000E-002   -7.740936777598195E-009
 -1.280000000000000E-002   -1.184183945688390E-008
 -1.270000000000000E-002   -1.594630993181623E-008
 -1.260000000000000E-002   -1.985820783403860E-008
 -1.250000000000000E-002   -2.335210782263058E-008
 -1.240000000000000E-002   -2.617515530976763E-008
 -1.230000000000000E-002   -2.804966022199581E-008
 -1.220000000000000E-002   -2.867640936050217E-008
 -1.210000000000000E-002   -2.773863701891073E-008
 -1.200000000000000E-002   -2.490660196978810E-008
 -1.190000000000000E-002   -1.984265543584710E-008
 -1.180000000000000E-002   -1.220668224752639E-008
 -1.170000000000000E-002   -1.661779973486169E-009
 -1.160000000000000E-002    1.212004287520109E-008
 -1.150000000000000E-002    2.945228250214341E-008
 -1.140000000000000E-002    5.062872938467379E-008
 -1.130000000000000E-002    7.591885490065721E-008
 -1.120000000000000E-002    1.055639552524406E-007
 -1.110000000000000E-002    1.397743230945569E-007
 -1.100000000000000E-002    1.787275477410113E-007
 -1.090000000000000E-002    2.225681590364328E-007
 -1.080000000000000E-002    2.714087000212194E-007
 -1.070000000000000E-002    3.253320624718215E-007
 -1.060000000000000E-002    3.843955071571387E-007
 -1.050000000000000E-002    4.486356709076046E-007
 -1.040000000000000E-002    5.180748412183432E-007
 -1.030000000000000E-002    5.927282973570694E-007
 -1.020000000000000E-002    6.726119266944323E-007
 -1.010000000000000E-002    7.577506148011383E-007
 -1.000000000000000E-002    8.481861792311127E-007
 -9.899999999999999E-003    9.439852784207489E-007
 -9.800000000000000E-003    1.045246848722884E-006
 -9.699999999999999E-003    1.152108304285051E-006
 -9.599999999999999E-003    1.264750994071401E-006
 -9.500000000000000E-003    1.383404100033863E-006
 -9.399999999999999E-003    1.508347700740540E-006
 -9.299999999999999E-003    1.639914316553775E-006
 -9.200000000000000E-003    1.778489142993725E-006
 -9.099999999999999E-003    1.924509518932467E-006
 -8.999999999999999E-003    2.078464045547542E-006
 -8.900000000000000E-003    2.240889782473178E-006
 -8.799999999999999E-003    2.412370630052599E-006
 -8.699999999999999E-003    2.593534729994855E-006
 -8.600000000000000E-003    2.785052758876593E-006
 -8.499999999999999E-003    2.987635557107262E-006
 -8.399999999999999E-003    3.202033173666753E-006
 -8.300000000000000E-003    3.429034101542284E-006
 -8.199999999999999E-003    3.669465061967162E-006
 -8.100000000000000E-003    3.924191190994998E-006
 -8.000000000000000E-003    4.194117025297591E-006
 -7.899999999999999E-003    4.480187369608560E-006
 -7.800000000000000E-003    4.783388337569769E-006
 -7.699999999999999E-003    5.104749309402224E-006
 -7.599999999999999E-003    5.445343643168519E-006
 -7.499999999999999E-003    5.806290521306836E-006
 -7.399999999999999E-003    6.188755436530140E-006
 -7.299999999999999E-003    6.593951173665620E-006
 -7.199999999999999E-003    7.023140419581602E-006
 -7.100000000000000E-003    7.477636041719202E-006
 -6.999999999999999E-003    7.958802886161979E-006
 -6.899999999999999E-003    8.468060550242989E-006
 -6.800000000000000E-003    9.006886691245726E-006
 -6.699999999999999E-003    9.576821556291018E-006
 -6.599999999999999E-003    1.017947282774701E-005
 -6.499999999999999E-003    1.081652163496812E-005
 -6.399999999999999E-003    1.148973132390054E-005
 -6.299999999999999E-003    1.220095406793921E-005
 -6.199999999999999E-003    1.295214177142147E-005
 -6.100000000000000E-003    1.374535512485344E-005
 -5.999999999999999E-003    1.458277280721700E-005
 -5.899999999999999E-003    1.546669838754519E-005
 -5.800000000000000E-003    1.639957521011805E-005
 -5.699999999999999E-003    1.738398733969308E-005
 -5.599999999999999E-003    1.842267109618623E-005
 -5.499999999999999E-003    1.951851611350932E-005
 -5.399999999999999E-003    2.067457250866610E-005
 -5.299999999999999E-003    2.189404985511062E-005
 -5.199999999999999E-003    2.318031723478427E-005
 -5.099999999999999E-003    2.453690305610940E-005
 -4.999999999999999E-003    2.596749597788786E-005
 -4.899999999999999E-003    2.747594041223768E-005
 -4.799999999999999E-003    2.906623297910731E-005
 -4.699999999999999E-003    3.074252277297807E-005
 -4.599999999999999E-003    3.250911405553650E-005
 -4.499999999999999E-003    3.437046033614636E-005
 -4.399999999999999E-003    3.633117476876945E-005
 -4.299999999999999E-003    3.839602647103397E-005
 -4.199999999999999E-003    4.056996057899316E-005
 -4.099999999999999E-003    4.285809553281993E-005
 -3.999999999999999E-003    4.526574332059942E-005
 -3.899999999999999E-003    4.779841618295016E-005
 -3.799999999999999E-003    5.046184943045968E-005
 -3.699999999999999E-003    5.326201971772474E-005
 -3.599999999999999E-003    5.620515266893563E-005
 -3.499999999999999E-003    5.929775127078658E-005
 -3.399999999999999E-003    6.254661305287850E-005
 -3.299999999999999E-003    6.595885188423719E-005
 -3.199999999999999E-003    6.954189983989127E-005
 -3.099999999999999E-003    7.330354405376578E-005
 -2.999999999999999E-003    7.725193527811736E-005
 -2.899999999999999E-003    8.139558904308439E-005
 -2.799999999999999E-003    8.574342596655299E-005
 -2.699999999999999E-003    9.030474679571759E-005
 -2.599999999999999E-003    9.508927165470136E-005
 -2.499999999999999E-003    1.001071275660363E-004
 -2.399999999999999E-003    1.053688693400308E-004
 -2.299999999999999E-003    1.108854679156945E-004
 -2.199999999999999E-003    1.166683309465638E-004
 -2.099999999999999E-003    1.227292844379414E-004
 -1.999999999999999E-003    1.290806142082136E-004
 -1.899999999999999E-003    1.357350210690837E-004
 -1.799999999999999E-003    1.427056634645182E-004
 -1.699999999999999E-003    1.500061495081138E-004
 -1.599999999999999E-003    1.576505359125694E-004
 -1.499999999999999E-003    1.656533514341525E-004
 -1.399999999999999E-003    1.740295978334824E-004
 -1.299999999999999E-003    1.827947684981982E-004
 -1.199999999999999E-003    1.919648524255216E-004
 -1.099999999999999E-003    2.015563592432593E-004
 -9.999999999999989E-004    2.115863404102478E-004
 -8.999999999999990E-004    2.220723836048775E-004
 -7.999999999999990E-004    2.330326758548312E-004
 -6.999999999999989E-004    2.444859711488741E-004
 -5.999999999999990E-004    2.564516500383464E-004
 -4.999999999999989E-004    2.689497271940420E-004
 -3.999999999999989E-004    2.820009055228924E-004
 -2.999999999999989E-004    2.956265347431289E-004
 -1.999999999999989E-004    3.098486992945545E-004
 -9.999999999999892E-005    3.246901657834099E-004
  1.084202172485504E-018    3.401744812181651E-004
  1.000000000000011E-004    3.563259184714653E-004
  2.000000000000011E-004    3.731695260767948E-004
  3.000000000000011E-004    3.907311367083602E-004
  4.000000000000011E-004    4.090373903523526E-004
  5.000000000000011E-004    4.281157362198147E-004
  6.000000000000011E-004    4.479944511484108E-004
  7.000000000000011E-004    4.687026917653546E-004
  8.000000000000011E-004    4.902704747599511E-004
  9.000000000000012E-004    5.127286234738734E-004
  1.000000000000001E-003    5.361088652100564E-004
  1.100000000000001E-003    5.604438022313651E-004
  1.200000000000001E-003    5.857669572686949E-004
  1.300000000000001E-003    6.121127608039353E-004
  1.400000000000001E-003    6.395165574825150E-004
  1.500000000000001E-003    6.680146475032217E-004
  1.600000000000001E-003    6.976442167383329E-004
  1.700000000000001E-003    7.284433545454082E-004
  1.800000000000001E-003    7.604511449088993E-004
  1.900000000000001E-003    7.937075507609935E-004
  2.000000000000001E-003    8.282534906286267E-004
  2.100000000000001E-003    8.641309046924450E-004
  2.200000000000001E-003    9.013825984869686E-004
  2.300000000000001E-003    9.400523390756441E-004
  2.400000000000001E-003    9.801849678265880E-004
  2.500000000000001E-003    1.021826054963719E-003
  2.600000000000001E-003    1.065022185552606E-003
  2.700000000000001E-003    1.109821065889594E-003
  2.800000000000001E-003    1.156271204742491E-003
  2.900000000000001E-003    1.204422149518781E-003
  3.000000000000001E-003    1.254324495792303E-003
  3.100000000000001E-003    1.306029696427376E-003
  3.200000000000001E-003    1.359590132765442E-003
  3.300000000000001E-003    1.415059378627990E-003
  3.400000000000001E-003    1.472491902233203E-003
  3.500000000000001E-003    1.531943152238164E-003
  3.600000000000001E-003    1.593469649183403E-003
  3.700000000000001E-003    1.657128746225715E-003
  3.800000000000001E-003    1.722978724054382E-003
  3.900000000000001E-003    1.791079000509688E-003
  4.000000000000001E-003    1.861489756627012E-003
  4.100000000000001E-003    1.934272217599109E-003
  4.200000000000001E-003    2.009488260249545E-003
  4.300000000000001E-003    2.087200746602488E-003
  4.400000000000001E-003    2.167473403917240E-003
  4.500000000000001E-003    2.250370574409205E-003
  4.600000000000002E-003    2.335957157338799E-003
  4.700000000000001E-003    2.424299097067530E-003
  4.800000000000001E-003    2.515462837478281E-003
  4.900000000000002E-003    2.609515303397184E-003
  5.000000000000001E-003    2.706524132244804E-003
  5.100000000000001E-003    2.806557457819093E-003
  5.200000000000001E-003    2.909683723715416E-003
  5.300000000000002E-003    3.015971843472292E-003
  5.400000000000001E-003    3.125491059726443E-003
  5.500000000000001E-003    3.238311096993536E-003
  5.600000000000002E-003    3.354501625025430E-003
  5.700000000000001E-003    3.474132765516533E-003
  5.800000000000001E-003    3.597274882822842E-003
  5.900000000000002E-003    3.723998035208058E-003
  6.000000000000001E-003    3.854372680651686E-003
  6.100000000000001E-003    3.988469203258889E-003
  6.200000000000002E-003    4.126357671620892E-003
  6.300000000000002E-003    4.268108100357823E-003
  6.400000000000001E-003    4.413790504614782E-003
  6.500000000000001E-003    4.563474055121865E-003
  6.600000000000002E-003    4.717227905003622E-003
  6.700000000000001E-003    4.875120850020370E-003
  6.800000000000001E-003    5.037220978201928E-003
  6.900000000000002E-003    5.203595666454403E-003
  7.000000000000001E-003    5.374311618257552E-003
  7.100000000000001E-003    5.549434675338612E-003
  7.200000000000002E-003    5.729030137664392E-003
  7.300000000000002E-003    5.913161484744344E-003
  7.400000000000001E-003    6.101891494904759E-003
  7.500000000000001E-003    6.295281126699835E-003
  7.600000000000002E-003    6.493390974459155E-003
  7.700000000000001E-003    6.696278903487536E-003
  7.800000000000001E-003    6.904001504545215E-003
  7.900000000000001E-003    7.116614325836617E-003
  8.000000000000002E-003    7.334169305094052E-003
  8.100000000000001E-003    7.556717186541501E-003
  8.200000000000001E-003    7.784307139987992E-003
  8.300000000000002E-003    8.016984301703708E-003
  8.400000000000001E-003    8.254792414670321E-003
  8.500000000000002E-003    8.497772181827744E-003
  8.600000000000002E-003    8.745960570889376E-003
  8.700000000000001E-003    8.999393268078927E-003
  8.800000000000002E-003    9.258101379943300E-003
  8.900000000000002E-003    9.522113479319222E-003
  9.000000000000001E-003    9.791453678120765E-003
  9.100000000000002E-003    1.006614415397137E-002
  9.200000000000002E-003    1.034620215737081E-002
  9.300000000000001E-003    1.063164205491113E-002
  9.400000000000002E-003    1.092247329433373E-002
  9.500000000000001E-003    1.121870138260857E-002
  9.600000000000001E-003    1.152032865242359E-002
  9.700000000000002E-003    1.182735186154503E-002
  9.800000000000001E-003    1.213976394560544E-002
  9.900000000000001E-003    1.245755237988720E-002
  1.000000000000000E-002    1.278070030367849E-002
  1.010000000000000E-002    1.310918593435203E-002
  1.020000000000000E-002    1.344298261287006E-002
  1.030000000000000E-002    1.378205732801971E-002
  1.040000000000000E-002    1.412637245012189E-002
  1.050000000000000E-002    1.447588468188581E-002
  1.060000000000000E-002    1.483054327761301E-002
  1.070000000000000E-002    1.519029369631960E-002
  1.080000000000000E-002    1.555507400420553E-002
  1.090000000000000E-002    1.592481538134424E-002
  1.100000000000000E-002    1.629944305222878E-002
  1.110000000000000E-002    1.667887569263246E-002
  1.120000000000000E-002    1.706302362203532E-002
  1.130000000000000E-002    1.745179109632256E-002
  1.140000000000000E-002    1.784507544113110E-002
  1.150000000000000E-002    1.824276516821105E-002
  1.160000000000000E-002    1.864474253246742E-002
  1.170000000000000E-002    1.905088306946257E-002
  1.180000000000000E-002    1.946105204690849E-002
  1.190000000000000E-002    1.987510668799743E-002
  1.200000000000000E-002    2.029290053352459E-002
  1.210000000000000E-002    2.071427346136242E-002
  1.220000000000000E-002    2.113906288534417E-002
  1.230000000000000E-002    2.156709299854334E-002
  1.240000000000000E-002    2.199818136079543E-002
  1.250000000000000E-002    2.243213819290290E-002
  1.260000000000000E-002    2.286876419581713E-002
  1.270000000000000E-002    2.330785345850116E-002
  1.280000000000000E-002    2.374918876200310E-002
  1.290000000000000E-002    2.419254669438965E-002
  1.300000000000000E-002    2.463769487029955E-002
  1.310000000000000E-002    2.508439071029850E-002
  1.320000000000000E-002    2.553238465647845E-002
  1.330000000000000E-002    2.598141858063574E-002
  1.340000000000000E-002    2.643122481743907E-002
  1.350000000000000E-002    2.688152590329281E-002
  1.360000000000000E-002    2.733203724586585E-002
  1.370000000000000E-002    2.778246520198238E-002
  1.380000000000000E-002    2.823250885042750E-002
  1.390000000000000E-002    2.868185462608803E-002
  1.400000000000000E-002    2.913018417264903E-002
  1.410000000000000E-002    2.957716867472883E-002
  1.420000000000000E-002    3.002247301652229E-002
  1.430000000000000E-002    3.046574798315569E-002
  1.440000000000000E-002    3.090664348997376E-002
  1.450000000000000E-002    3.134479857310638E-002
  1.460000000000000E-002    3.177983961092706E-002
  1.470000000000000E-002    3.221139118025629E-002
  1.480000000000000E-002    3.263906815778964E-002
  1.490000000000000E-002    3.306247886875864E-002
  1.500000000000000E-002    3.348121848285573E-002
  1.510000000000000E-002    3.389488402406386E-002
  1.520000000000000E-002    3.430305673280681E-002
  1.530000000000000E-002    3.470531579430479E-002
  1.540000000000000E-002    3.510123367083264E-002
  1.550000000000000E-002    3.549037582959139E-002
  1.560000000000000E-002    3.587230342026580E-002
  1.570000000000000E-002    3.624657091234857E-002
  1.580000000000000E-002    3.661272628639509E-002
  1.590000000000000E-002    3.697031108397906E-002
  1.600000000000000E-002    3.731886822616622E-002
  1.610000000000000E-002    3.765793028467385E-002
  1.620000000000000E-002    3.798702982900096E-002
  1.630000000000000E-002    3.830569158809026E-002
  1.640000000000000E-002    3.861343824375760E-002
  1.650000000000000E-002    3.890979551213303E-002
  1.660000000000000E-002    3.919427832880567E-002
  1.670000000000000E-002    3.946640329459060E-002
  1.680000000000000E-002    3.972568324693191E-002
  1.690000000000000E-002    3.997163446157007E-002
  1.700000000000000E-002    4.020376562280113E-002
  1.710000000000000E-002    4.042159275665996E-002
  1.720000000000000E-002    4.062462489042338E-002
  1.730000000000000E-002    4.081237368924032E-002
  1.740000000000000E-002    4.098435276126434E-002
  1.750000000000000E-002    4.114007721345595E-002
  1.760000000000000E-002    4.127906390113160E-002
  1.770000000000000E-002    4.140083252453437E-002
  1.780000000000000E-002    4.150490558487221E-002
  1.790000000000000E-002    4.159080732899725E-002
  1.800000000000000E-002    4.165806923901355E-002
  1.810000000000000E-002    4.170622672203361E-002
  1.820000000000000E-002    4.173482170320679E-002
  1.830000000000000E-002    4.174339877443012E-002
  1.840000000000000E-002    4.173150990352639E-002
  1.850000000000000E-002    4.169871424265210E-002
  1.860000000000000E-002    4.164458207420274E-002
  1.870000000000000E-002    4.156868909895070E-002