 -4.000000000000000E-002    0.000000000000000E+000
 -3.990000000000000E-002    0.000000000000000E+000
 -3.980000000000000E-002    0.000000000000000E+000
 -3.970000000000000E-002    0.000000000000000E+000
 -3.960000000000000E-002    0.000000000000000E+000
 -3.950000000000000E-002    0.000000000000000E+000
 -3.940000000000000E-002    0.000000000000000E+000
 -3.930000000000000E-002    0.000000000000000E+000
 -3.920000000000000E-002    0.000000000000000E+000
 -3.910000000000000E-002    0.000000000000000E+000
 -3.900000000000000E-002    0.000000000000000E+000
 -3.890000000000000E-002    0.000000000000000E+000
 -3.880000000000000E-002    0.000000000000000E+000
 -3.870000000000000E-002    0.000000000000000E+000
 -3.860000000000000E-002    0.000000000000000E+000
 -3.850000000000000E-002    0.000000000000000E+000
 -3.840000000000000E-002    0.000000000000000E+000
 -3.830000000000000E-002    0.000000000000000E+000
 -3.820000000000000E-002    0.000000000000000E+000
 -3.810000000000000E-002    0.000000000000000E+000
 -3.800000000000000E-002    0.000000000000000E+000
 -3.790000000000000E-002    0.000000000000000E+000
 -3.780000000000000E-002    0.000000000000000E+000
 -3.770000000000000E-002    0.000000000000000E+000
 -3.760000000000000E-002    0.000000000000000E+000
 -3.750000000000000E-002    0.000000000000000E+000
 -3.740000000000000E-002    0.000000000000000E+000
 -3.730000000000000E-002    0.000000000000000E+000
 -3.720000000000000E-002    0.000000000000000E+000
 -3.710000000000000E-002    0.000000000000000E+000
 -3.700000000000000E-002    0.000000000000000E+000
 -3.690000000000000E-002    0.000000000000000E+000
 -3.680000000000000E-002    0.000000000000000E+000
 -3.670000000000000E-002    0.000000000000000E+000
 -3.660000000000000E-002    0.000000000000000E+000
 -3.650000000000000E-002    0.000000000000000E+000
 -3.640000000000000E-002    0.000000000000000E+000
 -3.630000000000000E-002    0.000000000000000E+000
 -3.620000000000000E-002    0.000000000000000E+000
 -3.610000000000000E-002    0.000000000000000E+000
 -3.600000000000000E-002    0.000000000000000E+000
 -3.590000000000000E-002    0.000000000000000E+000
 -3.580000000000000E-002    0.000000000000000E+000
 -3.570000000000000E-002    0.000000000000000E+000
 -3.560000000000000E-002    0.000000000000000E+000
 -3.550000000000000E-002    0.000000000000000E+000
 -3.540000000000000E-002    0.000000000000000E+000
 -3.530000000000000E-002    0.000000000000000E+000
 -3.520000000000000E-002    0.000000000000000E+000
 -3.510000000000000E-002    0.000000000000000E+000
 -3.500000000000000E-002    0.000000000000000E+000
 -3.490000000000000E-002    0.000000000000000E+000
 -3.480000000000000E-002    0.000000000000000E+000
 -3.470000000000000E-002    0.000000000000000E+000
 -3.460000000000000E-002    0.000000000000000E+000
 -3.450000000000000E-002    0.000000000000000E+000
 -3.440000000000000E-002    0.000000000000000E+000
 -3.430000000000000E-002    0.000000000000000E+000
 -3.420000000000000E-002    0.000000000000000E+000
 -3.410000000000000E-002    0.000000000000000E+000
 -3.400000000000000E-002    0.000000000000000E+000
 -3.390000000000000E-002    0.000000000000000E+000
 -3.380000000000000E-002    0.000000000000000E+000
 -3.370000000000000E-002    0.000000000000000E+000
 -3.360000000000000E-002    0.000000000000000E+000
 -3.350000000000000E-002    0.000000000000000E+000
 -3.340000000000000E-002    0.000000000000000E+000
 -3.330000000000000E-002    0.000000000000000E+000
 -3.320000000000000E-002    0.000000000000000E+000
 -3.310000000000000E-002    0.000000000000000E+000
 -3.300000000000000E-002    0.000000000000000E+000
 -3.290000000000000E-002    0.000000000000000E+000
 -3.280000000000000E-002    0.000000000000000E+000
 -3.270000000000000E-002    0.000000000000000E+000
 -3.260000000000000E-002    0.000000000000000E+000
 -3.250000000000000E-002    0.000000000000000E+000
 -3.240000000000000E-002    0.000000000000000E+000
 -3.230000000000000E-002    0.000000000000000E+000
 -3.220000000000000E-002    0.000000000000000E+000
 -3.210000000000000E-002    0.000000000000000E+000
 -3.200000000000000E-002    0.000000000000000E+000
 -3.190000000000000E-002    0.000000000000000E+000
 -3.180000000000000E-002    0.000000000000000E+000
 -3.170000000000000E-002    0.000000000000000E+000
 -3.160000000000000E-002    0.000000000000000E+000
 -3.150000000000000E-002    0.000000000000000E+000
 -3.140000000000000E-002    0.000000000000000E+000
 -3.130000000000000E-002    0.000000000000000E+000
 -3.120000000000000E-002    0.000000000000000E+000
 -3.110000000000000E-002    0.000000000000000E+000
 -3.100000000000000E-002    0.000000000000000E+000
 -3.090000000000000E-002    0.000000000000000E+000
 -3.080000000000000E-002    0.000000000000000E+000
 -3.070000000000000E-002    0.000000000000000E+000
 -3.060000000000000E-002    0.000000000000000E+000
 -3.050000000000000E-002    0.000000000000000E+000
 -3.040000000000000E-002    0.000000000000000E+000
 -3.030000000000000E-002    0.000000000000000E+000
 -3.020000000000000E-002    0.000000000000000E+000
 -3.010000000000000E-002    0.000000000000000E+000
 -3.000000000000000E-002    0.000000000000000E+000
 -2.990000000000000E-002    0.000000000000000E+000
 -2.980000000000000E-002    0.000000000000000E+000
 -2.970000000000000E-002    0.000000000000000E+000
 -2.960000000000000E-002    0.000000000000000E+000
 -2.950000000000000E-002    0.000000000000000E+000
 -2.940000000000000E-002    0.000000000000000E+000
 -2.930000000000000E-002    0.000000000000000E+000
 -2.920000000000000E-002    0.000000000000000E+000
 -2.910000000000000E-002    0.000000000000000E+000
 -2.900000000000000E-002    0.000000000000000E+000
 -2.890000000000000E-002    0.000000000000000E+000
 -2.880000000000000E-002    0.000000000000000E+000
 -2.870000000000000E-002    0.000000000000000E+000
 -2.860000000000000E-002    0.000000000000000E+000
 -2.850000000000000E-002    0.000000000000000E+000
 -2.840000000000000E-002    0.000000000000000E+000
 -2.830000000000000E-002    0.000000000000000E+000
 -2.820000000000000E-002    0.000000000000000E+000
 -2.810000000000000E-002    0.000000000000000E+000
 -2.800000000000000E-002    0.000000000000000E+000
 -2.790000000000000E-002    0.000000000000000E+000
 -2.780000000000000E-002    0.000000000000000E+000
 -2.770000000000000E-002    0.000000000000000E+000
 -2.760000000000000E-002    0.000000000000000E+000
 -2.750000000000000E-002    0.000000000000000E+000
 -2.740000000000000E-002    0.000000000000000E+000
 -2.730000000000000E-002    0.000000000000000E+000
 -2.720000000000000E-002    0.000000000000000E+000
 -2.710000000000000E-002    0.000000000000000E+000
 -2.700000000000000E-002    0.000000000000000E+000
 -2.690000000000000E-002    0.000000000000000E+000
 -2.680000000000000E-002    0.000000000000000E+000
 -2.670000000000000E-002    0.000000000000000E+000
 -2.660000000000000E-002    0.000000000000000E+000
 -2.650000000000000E-002    0.000000000000000E+000
 -2.640000000000000E-002    0.000000000000000E+000
 -2.630000000000000E-002    0.000000000000000E+000
 -2.620000000000000E-002    0.000000000000000E+000
 -2.610000000000000E-002    0.000000000000000E+000
 -2.600000000000000E-002    0.000000000000000E+000
 -2.590000000000000E-002    0.000000000000000E+000
 -2.580000000000000E-002    0.000000000000000E+000
 -2.570000000000000E-002    0.000000000000000E+000
 -2.560000000000000E-002    0.000000000000000E+000
 -2.550000000000000E-002    0.000000000000000E+000
 -2.540000000000000E-002    0.000000000000000E+000
 -2.530000000000000E-002    0.000000000000000E+000
 -2.520000000000000E-002    0.000000000000000E+000
 -2.510000000000000E-002    0.000000000000000E+000
 -2.500000000000000E-002    0.000000000000000E+000
 -2.490000000000000E-002    0.000000000000000E+000
 -2.480000000000000E-002    0.000000000000000E+000
 -2.470000000000000E-002    0.000000000000000E+000
 -2.460000000000000E-002    0.000000000000000E+000
 -2.450000000000000E-002    0.000000000000000E+000
 -2.440000000000000E-002    0.000000000000000E+000
 -2.430000000000000E-002    0.000000000000000E+000
 -2.420000000000000E-002    0.000000000000000E+000
 -2.410000000000000E-002    0.000000000000000E+000
 -2.400000000000000E-002    0.000000000000000E+000
 -2.390000000000000E-002    0.000000000000000E+000
 -2.380000000000000E-002    0.000000000000000E+000
 -2.370000000000000E-002    0.000000000000000E+000
 -2.360000000000000E-002    0.000000000000000E+000
 -2.350000000000000E-002    0.000000000000000E+000
 -2.340000000000000E-002    0.000000000000000E+000
 -2.330000000000000E-002    0.000000000000000E+000
 -2.320000000000000E-002    0.000000000000000E+000
 -2.310000000000000E-002    0.000000000000000E+000
 -2.300000000000000E-002    0.000000000000000E+000
 -2.290000000000000E-002    0.000000000000000E+000
 -2.280000000000000E-002    0.000000000000000E+000
 -2.270000000000000E-002    0.000000000000000E+000
 -2.260000000000000E-002    0.000000000000000E+000
 -2.250000000000000E-002    0.000000000000000E+000
 -2.240000000000000E-002    0.000000000000000E+000
 -2.230000000000000E-002    0.000000000000000E+000
 -2.220000000000000E-002    0.000000000000000E+000
 -2.210000000000000E-002    0.000000000000000E+000
 -2.200000000000000E-002    0.000000000000000E+000
 -2.190000000000000E-002    0.000000000000000E+000
 -2.180000000000000E-002    0.000000000000000E+000
 -2.170000000000000E-002    0.000000000000000E+000
 -2.160000000000000E-002    0.000000000000000E+000
 -2.150000000000000E-002    0.000000000000000E+000
 -2.140000000000000E-002    0.000000000000000E+000
 -2.130000000000000E-002    0.000000000000000E+000
 -2.120000000000000E-002    0.000000000000000E+000
 -2.110000000000000E-002    0.000000000000000E+000
 -2.100000000000000E-002    0.000000000000000E+000
 -2.090000000000000E-002    0.000000000000000E+000
 -2.080000000000000E-002    0.000000000000000E+000
 -2.070000000000000E-002    0.000000000000000E+000
 -2.060000000000000E-002    0.000000000000000E+000
 -2.050000000000000E-002    0.000000000000000E+000
 -2.040000000000000E-002    0.000000000000000E+000
 -2.030000000000000E-002    0.000000000000000E+000
 -2.020000000000000E-002    0.000000000000000E+000
 -2.010000000000000E-002    0.000000000000000E+000
 -2.000000000000000E-002    0.000000000000000E+000
 -1.990000000000000E-002    0.000000000000000E+000
 -1.980000000000000E-002    0.000000000000000E+000
 -1.970000000000000E-002    0.000000000000000E+000
 -1.960000000000000E-002    0.000000000000000E+000
 -1.950000000000000E-002    0.000000000000000E+000
 -1.940000000000000E-002    0.000000000000000E+000
 -1.930000000000000E-002    0.000000000000000E+000
 -1.920000000000000E-002    0.000000000000000E+000
 -1.910000000000000E-002    0.000000000000000E+000
 -1.900000000000000E-002    0.000000000000000E+000
 -1.890000000000000E-002    0.000000000000000E+000
 -1.880000000000000E-002    0.000000000000000E+000
 -1.870000000000000E-002    0.000000000000000E+000
 -1.860000000000000E-002    0.000000000000000E+000
 -1.850000000000000E-002    0.000000000000000E+000
 -1.840000000000000E-002    0.000000000000000E+000
 -1.830000000000000E-002    0.000000000000000E+000
 -1.820000000000000E-002    0.000000000000000E+000
 -1.810000000000000E-002    0.000000000000000E+000
 -1.800000000000000E-002    0.000000000000000E+000
 -1.790000000000000E-002    0.000000000000000E+000
 -1.780000000000000E-002    0.000000000000000E+000
 -1.770000000000000E-002    0.000000000000000E+000
 -1.760000000000000E-002    0.000000000000000E+000
 -1.750000000000000E-002    0.000000000000000E+000
 -1.740000000000000E-002    0.000000000000000E+000
 -1.730000000000000E-002    0.000000000000000E+000
 -1.720000000000000E-002    0.000000000000000E+000
 -1.710000000000000E-002    0.000000000000000E+000
 -1.700000000000000E-002    0.000000000000000E+000
 -1.690000000000000E-002    0.000000000000000E+000
 -1.680000000000000E-002    0.000000000000000E+000
 -1.670000000000000E-002    0.000000000000000E+000
 -1.660000000000000E-002    6.414635304221270E-048
 -1.650000000000000E-002    1.282927060844254E-047
 -1.640000000000000E-002    1.282927060844254E-047
 -1.630000000000000E-002    1.282927060844254E-047
 -1.620000000000000E-002    6.414635304221270E-048
 -1.610000000000000E-002    0.000000000000000E+000
 -1.600000000000000E-002    6.614847958560634E-048
 -1.590000000000000E-002    1.322969591712127E-047
 -1.580000000000000E-002    1.342990857146063E-047
 -1.570000000000000E-002    6.494720365957015E-047
 -1.560000000000000E-002    9.060574487645523E-047
 -1.550000000000000E-002   -4.835080300340292E-047
 -1.540000000000000E-002   -2.003368341460430E-046
 -1.530000000000000E-002   -3.682791074753217E-046
 -1.520000000000000E-002   -7.087614568709020E-046
 -1.510000000000000E-002   -9.071998073149384E-046
 -1.500000000000000E-002   -1.023303401260450E-045
 -1.490000000000000E-002   -1.420046637235195E-045
 -1.480000000000000E-002   -1.640134060660537E-045
 -1.470000000000000E-002   -4.536599347017877E-046
 -1.460000000000000E-002    1.454004493427628E-045
 -1.450000000000000E-002    2.663441186690238E-045
 -1.440000000000000E-002    4.310046921771874E-045
 -1.430000000000000E-002    6.775117985949063E-045
 -1.420000000000000E-002    9.784961195000500E-045
 -1.410000000000000E-002    1.199072157814301E-044
 -1.400000000000000E-002    1.435275672452067E-044
 -1.390000000000000E-002    1.571646754994936E-044
 -1.380000000000000E-002    1.507931513630033E-044
 -1.370000000000000E-002    1.189291621276979E-044
 -1.360000000000000E-002    5.219216062938965E-045
 -1.350000000000000E-002   -6.337486173627596E-045
 -1.340000000000000E-002   -2.232397461363940E-044
 -1.330000000000000E-002   -4.473012675824828E-044
 -1.320000000000000E-002   -7.296455665062660E-044
 -1.310000000000000E-002   -1.060794562118313E-043
 -1.300000000000000E-002   -1.415259814453871E-043
 -1.290000000000000E-002   -1.758513923869323E-043
 -1.280000000000000E-002   -2.029819240916800E-043
 -1.270000000000000E-002   -2.144802435222808E-043
 -1.260000000000000E-002   -2.003491183081492E-043
 -1.250000000000000E-002   -1.483539925220505E-043
 -1.240000000000000E-002   -4.746219178071102E-044
 -1.230000000000000E-002    1.128141099669220E-043
 -1.220000000000000E-002    3.401519138522384E-043
 -1.210000000000000E-002    6.353352109843102E-043
 -1.200000000000000E-002    9.896717679288629E-043
 -1.190000000000000E-002    1.381778643754402E-042
 -1.180000000000000E-002    1.773004811041704E-042
 -1.170000000000000E-002    2.106181928586133E-042
 -1.160000000000000E-002    2.304382305878665E-042
 -1.150000000000000E-002    2.271975249472563E-042
 -1.140000000000000E-002    1.899700981443544E-042
 -1.130000000000000E-002    1.075437007757297E-042
 -1.120000000000000E-002   -3.021641846177014E-043
 -1.110000000000000E-002   -2.306713751672855E-042
 -1.100000000000000E-002   -4.956381723697656E-042
 -1.090000000000000E-002   -8.188924402901146E-042
 -1.080000000000000E-002   -1.183033981054000E-041
 -1.070000000000000E-002   -1.557039395479120E-041
 -1.060000000000000E-002   -1.894068224676571E-041
 -1.050000000000000E-002   -2.130583876367772E-041
 -1.040000000000000E-002   -2.187540140507650E-041
 -1.030000000000000E-002   -1.974429407092417E-041
 -1.020000000000000E-002   -1.395341681976298E-041
 -1.010000000000000E-002   -3.602622761241652E-042
 -1.000000000000000E-002    1.200716375100174E-041
 -9.899999999999999E-003    3.319201362914200E-041
 -9.800000000000000E-003    5.966867408883097E-041
 -9.699999999999999E-003    9.032734398629084E-041
 -9.599999999999999E-003    1.230079174530993E-040
 -9.500000000000000E-003    1.543152093244715E-040
 -9.399999999999999E-003    1.795111663313537E-040
 -9.299999999999999E-003    1.925339648360245E-040
 -9.200000000000000E-003    1.861991983440292E-040
 -9.099999999999999E-003    1.526297053480941E-040
 -8.999999999999999E-003    8.397349878366145E-041
 -8.900000000000000E-003   -2.656883088988486E-041
 -8.799999999999999E-003   -1.833875832697699E-040
 -8.699999999999999E-003   -3.868210262900223E-040
 -8.600000000000000E-003   -6.312949609170394E-040
 -8.499999999999999E-003   -9.033995354663921E-040
 -8.399999999999999E-003   -1.180126427266455E-039
 -8.300000000000000E-003   -1.427562855014256E-039
 -8.199999999999999E-003   -1.600425755012176E-039
 -8.100000000000000E-003   -1.642887682616811E-039
 -8.000000000000000E-003   -1.491150832752529E-039
 -7.899999999999999E-003   -1.078251284499505E-039
 -7.800000000000000E-003   -3.414376629003678E-040
 -7.699999999999999E-003    7.676733626958423E-040
 -7.599999999999999E-003    2.270270984721838E-039
 -7.499999999999999E-003    4.145376303850885E-039
 -7.399999999999999E-003    6.313751486186058E-039
 -7.299999999999999E-003    8.622384871651702E-039
 -7.199999999999999E-003    1.083187909649671E-038
 -7.100000000000000E-003    1.260979389314430E-038
 -6.999999999999999E-003    1.353348276021725E-038
 -6.899999999999999E-003    1.310630215603565E-038
 -6.800000000000000E-003    1.079093599622779E-038
 -6.699999999999999E-003    6.062908573297475E-039
 -6.599999999999999E-003   -1.514082209809949E-039
 -6.499999999999999E-003   -1.219160969172386E-038
 -6.399999999999999E-003   -2.592257778877025E-038
 -6.299999999999999E-003   -4.223775935076227E-038
 -6.199999999999999E-003   -6.012538574662754E-038
 -6.100000000000000E-003   -7.793142656015356E-038
 -5.999999999999999E-003   -9.330293618623208E-038
 -5.899999999999999E-003   -1.032005300701434E-037
 -5.800000000000000E-003   -1.040077456644922E-037
 -5.699999999999999E-003   -9.176364639005741E-038
 -5.599999999999999E-003   -6.253934746724394E-038
 -5.499999999999999E-003   -1.296843350790661E-038
 -5.399999999999999E-003    5.907556290555606E-038
 -5.299999999999999E-003    1.536838773701563E-037
 -5.199999999999999E-003    2.680567404270885E-037
 -5.099999999999999E-003    3.956760327255970E-037
 -4.999999999999999E-003    5.256273747281677E-037
 -4.899999999999999E-003    6.422225050090665E-037
 -4.799999999999999E-003    7.250928598280551E-037
 -4.699999999999999E-003    7.499317490357401E-037
 -4.599999999999999E-003    6.900475524842324E-037
 -4.499999999999999E-003    5.188474256900065E-037
 -4.399999999999999E-003    2.132964240485165E-037
 -4.299999999999999E-003   -2.417142711434929E-037
 -4.199999999999999E-003   -8.483000628691008E-037
 -4.099999999999999E-003   -1.590200229459787E-036
 -3.999999999999999E-003   -2.427652074276350E-036
 -3.899999999999999E-003   -3.293280479673007E-036
 -3.799999999999999E-003   -4.089921657469476E-036
 -3.699999999999999E-003   -4.691398285045595E-036
 -3.599999999999999E-003   -4.947269498503806E-036
 -3.499999999999999E-003   -4.692455202445798E-036
 -3.399999999999999E-003   -3.762348912869135E-036
 -3.299999999999999E-003   -2.013563759225963E-036
 -3.199999999999999E-003    6.502076317261089E-037
 -3.099999999999999E-003    4.248577731750916E-036
 -2.999999999999999E-003    8.693412758071318E-036
 -2.899999999999999E-003    1.375971343216472E-035
 -2.799999999999999E-003    1.906275708985779E-035
 -2.699999999999999E-003    2.404662166998502E-035
 -2.599999999999999E-003    2.798962690454076E-035
 -2.499999999999999E-003    3.003212919337259E-035
 -2.399999999999999E-003    2.923123213525907E-035
 -2.299999999999999E-003    2.464529686321725E-035
 -2.199999999999999E-003    1.544846921574610E-035
 -2.099999999999999E-003    1.071852692462962E-036
 -1.999999999999999E-003   -1.863654608171271E-035
 -1.899999999999999E-003   -4.324592824392687E-035
 -1.799999999999999E-003   -7.158890428488604E-035
 -1.699999999999999E-003   -1.016425396975479E-034
 -1.599999999999999E-003   -1.304706096152048E-034
 -1.499999999999999E-003   -1.542549737935897E-034
 -1.399999999999999E-003   -1.684427654388863E-034
 -1.299999999999999E-003   -1.680312339194712E-034
 -1.199999999999999E-003   -1.480028897236738E-034
 -1.099999999999999E-003   -1.039098344764879E-034
 -9.999999999999989E-004   -3.258837141220396E-035
 -8.999999999999990E-004    6.703733368128603E-035
 -7.999999999999990E-004    1.931273358171659E-034
 -6.999999999999989E-004    3.401629039588084E-034
 -5.999999999999990E-004    4.983594028908047E-034
 -4.999999999999989E-004    6.533808927168456E-034
 -3.999999999999989E-004    7.864886418285901E-034
 -2.999999999999989E-004    8.752464432298074E-034
 -1.999999999999989E-004    8.948822536734501E-034
 -9.999999999999892E-005    8.203588563327397E-034
  1.084202172485504E-018    6.291429178389855E-034
  1.000000000000011E-004    3.045775766392176E-034
  2.000000000000011E-004   -1.603379729797644E-034
  3.000000000000011E-004   -7.590633641483229E-034
  4.000000000000011E-004   -1.467937460953387E-033
  5.000000000000011E-004   -2.243407177197183E-033
  6.000000000000011E-004   -3.020630501492088E-033
  7.000000000000011E-004   -3.714041043120311E-033
  8.000000000000011E-004   -4.220415352822948E-033
  9.000000000000012E-004   -4.424870136154393E-033
  1.000000000000001E-003   -4.210014861728821E-033
  1.100000000000001E-003   -3.468197772595554E-033
  1.200000000000001E-003   -2.116416700432938E-033
  1.300000000000001E-003   -1.130405990702578E-034
  1.400000000000001E-003    2.524974736695623E-033
  1.500000000000001E-003    5.706140040312674E-033
  1.600000000000001E-003    9.251900312975928E-033
  1.700000000000001E-003    1.288992046599957E-032
  1.800000000000001E-003    1.625565793313670E-032
  1.900000000000001E-003    1.890449689437004E-032
  2.000000000000001E-003    2.033621812899695E-032
  2.100000000000001E-003    2.003274854646028E-032
  2.200000000000001E-003    1.750892951018033E-032
  2.300000000000001E-003    1.237454767685467E-032
  2.400000000000001E-003    4.404145905125762E-033
  2.500000000000001E-003   -6.390736267273584E-033
  2.600000000000001E-003   -1.969403374125731E-032
  2.700000000000001E-003   -3.483099391741059E-032
  2.800000000000001E-003   -5.073704003203525E-032
  2.900000000000001E-003   -6.595956207587534E-032
  3.000000000000001E-003   -7.870172975443010E-032
  3.100000000000001E-003   -8.691548942443890E-032
  3.200000000000001E-003   -8.844750084950765E-032
  3.300000000000001E-003   -8.123723467951950E-032
  3.400000000000001E-003   -6.356056944984680E-032
  3.500000000000001E-003   -3.430543580950887E-032
  3.600000000000001E-003    6.740919407003362E-033
  3.700000000000001E-003    5.862038484772342E-032
  3.800000000000001E-003    1.189814084506770E-031
  3.900000000000001E-003    1.839421138327870E-031
  4.000000000000001E-003    2.480770413013222E-031
  4.100000000000001E-003    3.045622173783276E-031
  4.200000000000001E-003    3.455060010339985E-031
  4.300000000000001E-003    3.624805327935115E-031
  4.400000000000001E-003    3.472517609624330E-031
  4.500000000000001E-003    2.926839682312285E-031
  4.600000000000002E-003    1.937703884285880E-031
  4.700000000000001E-003    4.871539248005723E-032
  4.800000000000001E-003   -1.400314079096911E-031
  4.900000000000002E-003   -3.649097159590755E-031
  5.000000000000001E-003   -6.126855284407350E-031
  5.100000000000001E-003   -8.643281708864552E-031
  5.200000000000001E-003   -1.095453235586497E-030
  5.300000000000002E-003   -1.277431886300877E-030
  5.400000000000001E-003   -1.379221057337808E-030
  5.500000000000001E-003   -1.369910933794972E-030
  5.600000000000002E-003   -1.221906542113920E-030
  5.700000000000001E-003   -9.145767800734913E-031
  5.800000000000001E-003   -4.381118353241974E-031
  5.900000000000002E-003    2.027558107533830E-031
  6.000000000000001E-003    9.855845708394649E-031
  6.100000000000001E-003    1.868073197716741E-030
  6.200000000000002E-003    2.787399530828049E-030
  6.300000000000002E-003    3.661483690966398E-030
  6.400000000000001E-003    4.392517521264256E-030
  6.500000000000001E-003    4.872956027592147E-030
  6.600000000000002E-003    4.993951147932603E-030
  6.700000000000001E-003    4.655966733746551E-030
  6.800000000000001E-003    3.781010841680485E-030
  6.900000000000002E-003    2.325630062535364E-030
  7.000000000000001E-003    2.935254369255028E-031
  7.100000000000001E-003   -2.253587273794033E-030
  7.200000000000002E-003   -5.188383490049769E-030
  7.300000000000002E-003   -8.315151503835441E-030
  7.400000000000001E-003   -1.137323875378933E-029
  7.500000000000001E-003   -1.404782087109023E-029
  7.600000000000002E-003   -1.598861784443806E-029
  7.700000000000001E-003   -1.683648763915670E-029
  7.800000000000001E-003   -1.625702911696203E-029
  7.900000000000001E-003   -1.397940881048769E-029
  8.000000000000002E-003   -9.837670560404415E-030
  8.100000000000001E-003   -3.810946991181535E-030
  8.200000000000001E-003    3.941763231539775E-030
  8.300000000000002E-003    1.305694059696563E-029
  8.400000000000001E-003    2.295678702811883E-029
  8.500000000000002E-003    3.285865001269290E-029
  8.600000000000002E-003    4.180692643399604E-029
  8.700000000000001E-003    4.872921750179411E-029
  8.800000000000002E-003    5.251637374843314E-029
  8.900000000000002E-003    5.212364500714791E-029
  9.000000000000001E-003    4.668734441171492E-029
  9.100000000000002E-003    3.564865789455668E-029
  9.200000000000002E-003    1.887378072205767E-029
  9.300000000000001E-003   -3.242545742757877E-030
  9.400000000000002E-003   -2.970390678468947E-029
  9.500000000000001E-003   -5.888334890186203E-029
  9.600000000000001E-003   -8.855092714150540E-029
  9.700000000000002E-003   -1.159668087327158E-028
  9.800000000000001E-003   -1.380441826253218E-028
  9.900000000000001E-003   -1.515802573247748E-028
  1.000000000000000E-002   -1.535462067594561E-028
  1.010000000000000E-002   -1.414191046507632E-028
  1.020000000000000E-002   -1.135314499475598E-028
  1.030000000000000E-002   -6.940636384957544E-029
  1.040000000000000E-002   -1.004258461534514E-029
  1.050000000000000E-002    6.188985438423170E-029
  1.060000000000000E-002    1.419804906226882E-028
  1.070000000000000E-002    2.241681004500128E-028
  1.080000000000000E-002    3.010116228042017E-028
  1.090000000000000E-002    3.641509857929631E-028
  1.100000000000000E-002    4.049488179272875E-028
  1.110000000000000E-002    4.152840157981295E-028
  1.120000000000000E-002    3.884470657437082E-028
  1.130000000000000E-002    3.200668382921985E-028
  1.140000000000000E-002    2.089817868111188E-028
  1.150000000000000E-002    5.795704087050126E-029
  1.160000000000000E-002   -1.258536744872837E-028
  1.170000000000000E-002   -3.307967001547291E-028
  1.180000000000000E-002   -5.410350095168749E-028
  1.190000000000000E-002   -7.373410133793124E-028
  1.200000000000000E-002   -8.983749868473039E-028
  1.210000000000000E-002   -1.002410496013769E-027
  1.220000000000000E-002   -1.029414575402137E-027
  1.230000000000000E-002   -9.633379667178938E-028
  1.240000000000000E-002   -7.944216892257345E-028
  1.250000000000000E-002   -5.212891824709350E-028
  1.260000000000000E-002   -1.525705510784764E-028
  1.270000000000000E-002    2.921899410979176E-028
  1.280000000000000E-002    7.825665815533194E-028
  1.290000000000000E-002    1.278391697370953E-027
  1.300000000000000E-002    1.732084313167677E-027
  1.310000000000000E-002    2.092144274388555E-027
  1.320000000000000E-002    2.307661085974521E-027
  1.330000000000000E-002    2.333554915396584E-027
  1.340000000000000E-002    2.136143292449026E-027
  1.350000000000000E-002    1.698514809055503E-027
  1.360000000000000E-002    1.025122585249366E-027
  1.370000000000000E-002    1.449823328232697E-028
  1.380000000000000E-002   -8.871009284985796E-028
  1.390000000000000E-002   -1.991753857259361E-027
  1.400000000000000E-002   -3.069008994481942E-027
  1.410000000000000E-002   -4.005100960953469E-027
  1.420000000000000E-002   -4.681874421823895E-027
  1.430000000000000E-002   -4.988278559529705E-027
  1.440000000000000E-002   -4.833109456856075E-027
  1.450000000000000E-002   -4.157890708296259E-027
  1.460000000000000E-002   -2.948555490721833E-027
  1.470000000000000E-002   -1.244498343726197E-027
  1.480000000000000E-002    8.564239320954764E-028
  1.490000000000000E-002    3.198175704060229E-027
  1.500000000000000E-002    5.573015746549357E-027
  1.510000000000000E-002    7.734558953698198E-027
  1.520000000000000E-002    9.417208945388161E-027
  1.530000000000000E-002    1.036102063208931E-026
  1.540000000000000E-002    1.034032724357733E-026
  1.550000000000000E-002    9.193737398487999E-027
  1.560000000000000E-002    6.852589264163111E-027
  1.570000000000000E-002    3.364546166812335E-027
  1.580000000000000E-002   -1.091024694356922E-027
  1.590000000000000E-002   -6.198974505641565E-027
  1.600000000000000E-002   -1.151804051573674E-026
  1.610000000000000E-002   -1.650565996945588E-026
  1.620000000000000E-002   -2.055799218973336E-026
  1.630000000000000E-002   -2.306359526787775E-026
  1.640000000000000E-002   -2.346749685468449E-026
  1.650000000000000E-002   -2.134069205893334E-026
  1.660000000000000E-002   -1.644869452694056E-026
  1.670000000000000E-002   -8.811716011119967E-027
  1.680000000000000E-002    1.251396271055906E-027
  1.690000000000000E-002    1.310296836556713E-026
  1.700000000000000E-002    2.579639332283696E-026
  1.710000000000000E-002    3.812041889382394E-026
  1.720000000000000E-002    4.867924382970286E-026
  1.730000000000000E-002    5.600635928038223E-026
  1.740000000000000E-002    5.870615813333844E-026
  1.750000000000000E-002    5.561341637104946E-026
  1.760000000000000E-002    4.595710090609996E-026
  1.770000000000000E-002    2.951228547855300E-026
  1.780000000000000E-002    6.722168284186890E-027
  1.790000000000000E-002   -2.122751726510273E-026
  1.800000000000000E-002   -5.239781003938962E-026
  1.810000000000000E-002   -8.416162662700401E-026
  1.820000000000000E-002   -1.133511157075603E-025
  1.830000000000000E-002   -1.364861909615485E-025
  1.840000000000000E-002   -1.500748310268359E-025
  1.850000000000000E-002   -1.509666076254681E-025
  1.860000000000000E-002   -1.367325117533475E-025
  1.870000000000000E-002   -1.060367542145355E-025