 -4.000000000000000E-002    0.000000000000000E+000
 -3.990000000000000E-002    0.000000000000000E+000
 -3.980000000000000E-002    0.000000000000000E+000
 -3.970000000000000E-002   -2.168382379368283E-014
 -3.960000000000000E-002   -1.369077118984569E-013
 -3.950000000000000E-002   -4.853922640511789E-013
 -3.940000000000000E-002   -1.266113779352216E-012
 -3.930000000000000E-002   -2.692942025019446E-012
 -3.920000000000000E-002   -4.913692601181317E-012
 -3.910000000000000E-002   -7.901272964543386E-012
 -3.900000000000000E-002   -1.133426144645714E-011
 -3.890000000000000E-002   -1.449049304719413E-011
 -3.880000000000000E-002   -1.617985115351273E-011
 -3.870000000000000E-002   -1.474080818374104E-011
 -3.860000000000000E-002   -8.119243685575157E-012
 -3.850000000000000E-002    5.961627613185005E-012
 -3.840000000000000E-002    2.974377087425233E-011
 -3.830000000000000E-002    6.510616881693606E-011
 -3.820000000000000E-002    1.131954907325161E-010
 -3.810000000000000E-002    1.740551605291981E-010
 -3.800000000000000E-002    2.462983883990468E-010
 -3.790000000000000E-002    3.268715348634113E-010
 -3.780000000000000E-002    4.109495080103564E-010
 -3.770000000000000E-002    4.919945383859862E-010
 -3.760000000000000E-002    5.619952473234016E-010
 -3.750000000000000E-002    6.118851923584274E-010
 -3.740000000000000E-002    6.321213593352748E-010
 -3.730000000000000E-002    6.133855000933229E-010
 -3.720000000000000E-002    5.473563097992950E-010
 -3.710000000000000E-002    4.274910920750153E-010
 -3.700000000000000E-002    2.497504010945526E-010
 -3.690000000000000E-002    1.320307491954049E-011
 -3.680000000000000E-002   -2.795439619821916E-010
 -3.670000000000000E-002   -6.221316778555938E-010
 -3.660000000000000E-002   -1.004474214034598E-009
 -3.650000000000000E-002   -1.413026816334603E-009
 -3.640000000000000E-002   -1.831280549225073E-009
 -3.630000000000000E-002   -2.240450119240145E-009
 -3.620000000000000E-002   -2.620307366107699E-009
 -3.610000000000000E-002   -2.950103039121584E-009
 -3.600000000000000E-002   -3.209517299465750E-009
 -3.590000000000000E-002   -3.379581314101821E-009
 -3.580000000000000E-002   -3.443518709612308E-009
 -3.570000000000000E-002   -3.387467494848847E-009
 -3.560000000000000E-002   -3.201056304669987E-009
 -3.550000000000000E-002   -2.877825963649684E-009
 -3.540000000000000E-002   -2.415498583022908E-009
 -3.530000000000000E-002   -1.816109381810558E-009
 -3.520000000000000E-002   -1.086027168828090E-009
 -3.510000000000000E-002   -2.358917943798858E-010
 -3.500000000000000E-002    7.195023281163607E-010
 -3.490000000000000E-002    1.761351230473281E-009
 -3.480000000000000E-002    2.866998607977279E-009
 -3.470000000000000E-002    4.010100520669166E-009
 -3.460000000000000E-002    5.160805305297319E-009
 -3.450000000000000E-002    6.285970067782403E-009
 -3.440000000000000E-002    7.349447122112153E-009
 -3.430000000000000E-002    8.312482202818520E-009
 -3.420000000000000E-002    9.134271654282907E-009
 -3.410000000000000E-002    9.772725728174507E-009
 -3.400000000000000E-002    1.018547321126800E-008
 -3.390000000000000E-002    1.033113486686056E-008
 -3.380000000000000E-002    1.017086857693193E-008
 -3.370000000000000E-002    9.670163798799717E-009
 -3.360000000000000E-002    8.800840667209226E-009
 -3.350000000000000E-002    7.543171008827647E-009
 -3.340000000000000E-002    5.888018164123534E-009
 -3.330000000000000E-002    3.838864748152929E-009
 -3.320000000000000E-002    1.413588074320741E-009
 -3.310000000000000E-002   -1.354170968050505E-009
 -3.300000000000000E-002   -4.414185993146074E-009
 -3.290000000000000E-002   -7.699499562546766E-009
 -3.280000000000000E-002   -1.112704768343883E-008
 -3.270000000000000E-002   -1.459911111104438E-008
 -3.260000000000000E-002   -1.800561380940750E-008
 -3.250000000000000E-002   -2.122720341196157E-008
 -3.240000000000000E-002   -2.413904600051022E-008
 -3.230000000000000E-002   -2.661517548166062E-008
 -3.220000000000000E-002   -2.853322716736180E-008
 -3.210000000000000E-002   -2.977933797187393E-008
 -3.200000000000000E-002   -3.025300013412203E-008
 -3.190000000000000E-002   -2.987163284448442E-008
 -3.180000000000000E-002   -2.857466877045861E-008
 -3.170000000000000E-002   -2.632698207694890E-008
 -3.160000000000000E-002   -2.312149693509257E-008
 -3.150000000000000E-002   -1.898088866227486E-008
 -3.140000000000000E-002   -1.395831599562491E-008
 -3.130000000000000E-002   -8.137180045679196E-009
 -3.120000000000000E-002   -1.629932546143000E-009
 -3.110000000000000E-002    5.423998007456408E-009
 -3.100000000000000E-002    1.286108155467935E-008
 -3.090000000000000E-002    2.049725798150294E-008
 -3.080000000000000E-002    2.813209964645638E-008
 -3.070000000000000E-002    3.555346606762700E-008
 -3.060000000000000E-002    4.254254004043877E-008
 -3.050000000000000E-002    4.887916460382132E-008
 -3.040000000000000E-002    5.434739219921262E-008
 -3.030000000000000E-002    5.874116477904378E-008
 -3.020000000000000E-002    6.187007275673607E-008
 -3.010000000000000E-002    6.356509695996482E-008
 -3.000000000000000E-002    6.368426916796879E-008
 -2.990000000000000E-002    6.211816954596318E-008
 -2.980000000000000E-002    5.879514874692588E-008
 -2.970000000000000E-002    5.368619462458397E-008
 -2.960000000000000E-002    4.680928968302315E-008
 -2.950000000000000E-002    3.823316472090649E-008
 -2.940000000000000E-002    2.808027186931687E-008
 -2.930000000000000E-002    1.652885612961888E-008
 -2.920000000000000E-002    3.813965647633355E-009
 -2.910000000000000E-002   -9.772726035798366E-009
 -2.900000000000000E-002   -2.388442884922369E-008
 -2.890000000000000E-002   -3.812212329492159E-008
 -2.880000000000000E-002   -5.203894418866610E-008
 -2.870000000000000E-002   -6.514601521930958E-008
 -2.860000000000000E-002   -7.691965020737437E-008
 -2.850000000000000E-002   -8.680986205758397E-008
 -2.840000000000000E-002   -9.424988165328417E-008
 -2.830000000000000E-002   -9.866640551854039E-008
 -2.820000000000000E-002   -9.949018710746912E-008
 -2.810000000000000E-002   -9.616654938988653E-008
 -2.800000000000000E-002   -8.816527060354412E-008
 -2.790000000000000E-002   -7.498940557089999E-008
 -2.780000000000000E-002   -5.618251552343732E-008
 -2.770000000000000E-002   -3.133395096678625E-008
 -2.760000000000000E-002   -8.184044234153665E-011
 -2.750000000000000E-002    3.788636391226317E-008
 -2.740000000000000E-002    8.283569439039204E-008
 -2.730000000000000E-002    1.349876574649581E-007
 -2.720000000000000E-002    1.945261814984856E-007
 -2.710000000000000E-002    2.616046424000966E-007
 -2.700000000000000E-002    3.363537100193784E-007
 -2.690000000000000E-002    4.188888096396630E-007
 -2.680000000000000E-002    5.093171444329614E-007
 -2.670000000000000E-002    6.077430303517939E-007
 -2.660000000000000E-002    7.142714888491456E-007
 -2.650000000000000E-002    8.290097128992945E-007
 -2.640000000000000E-002    9.520664960737025E-007
 -2.630000000000000E-002    1.083549811054495E-006
 -2.620000000000000E-002    1.223563323449077E-006
 -2.610000000000000E-002    1.372202483410048E-006
 -2.600000000000000E-002    1.529550948963543E-006
 -2.590000000000000E-002    1.695678986672912E-006
 -2.580000000000000E-002    1.870643741231098E-006
 -2.570000000000000E-002    2.054492749165572E-006
 -2.560000000000000E-002    2.247272381909110E-006
 -2.550000000000000E-002    2.449038512695177E-006
 -2.540000000000000E-002    2.659872107280281E-006
 -2.530000000000000E-002    2.879897929354220E-006
 -2.520000000000000E-002    3.109305741847335E-006
 -2.510000000000000E-002    3.348372414641442E-006
 -2.500000000000000E-002    3.597484469281356E-006
 -2.490000000000000E-002    3.857158483795768E-006
 -2.480000000000000E-002    4.128059515235942E-006
 -2.470000000000000E-002    4.411014832785492E-006
 -2.460000000000000E-002    4.707023126038396E-006
 -2.450000000000000E-002    5.017258666848010E-006
 -2.440000000000000E-002    5.343068350793893E-006
 -2.430000000000000E-002    5.685965187507517E-006
 -2.420000000000000E-002    6.047616387331675E-006
 -2.410000000000000E-002    6.429826015658314E-006
 -2.400000000000000E-002    6.834516356168512E-006
 -2.390000000000000E-002    7.263707668275867E-006
 -2.380000000000000E-002    7.719495264346991E-006
 -2.370000000000000E-002    8.204028596644195E-006
 -2.360000000000000E-002    8.719492532771540E-006
 -2.350000000000000E-002    9.268089483554920E-006
 -2.340000000000000E-002    9.852025444087348E-006
 -2.330000000000000E-002    1.047350031927333E-005
 -2.320000000000000E-002    1.113470172278724E-005
 -2.310000000000000E-002    1.183780113614089E-005
 -2.300000000000000E-002    1.258495933595378E-005
 -2.290000000000000E-002    1.337833288035110E-005
 -2.280000000000000E-002    1.422008658405983E-005
 -2.270000000000000E-002    1.511241193890836E-005
 -2.260000000000000E-002    1.605754598798928E-005
 -2.250000000000000E-002    1.705779600512474E-005
 -2.240000000000000E-002    1.811557373474458E-005
 -2.230000000000000E-002    1.923342054185790E-005
 -2.220000000000000E-002    2.041404130743384E-005
 -2.210000000000000E-002    2.166034118748365E-005
 -2.200000000000000E-002    2.297545022233606E-005
 -2.190000000000000E-002    2.436275726958907E-005
 -2.180000000000000E-002    2.582593148828185E-005
 -2.170000000000000E-002    2.736894391996985E-005
 -2.160000000000000E-002    2.899607246604634E-005
 -2.150000000000000E-002    3.071191522361360E-005
 -2.140000000000000E-002    3.252138173193702E-005
 -2.130000000000000E-002    3.442969181999836E-005
 -2.120000000000000E-002    3.644235461964315E-005
 -2.110000000000000E-002    3.856516010145622E-005
 -2.100000000000000E-002    4.080414984834004E-005
 -2.090000000000000E-002    4.316560246014694E-005
 -2.080000000000000E-002    4.565601777415404E-005
 -2.070000000000000E-002    4.828210103847468E-005
 -2.060000000000000E-002    5.105076087212952E-005
 -2.050000000000000E-002    5.396909376865771E-005
 -2.040000000000000E-002    5.704440725768126E-005
 -2.030000000000000E-002    6.028421851500843E-005
 -2.020000000000000E-002    6.369627049443309E-005
 -2.010000000000000E-002    6.728856450352602E-005
 -2.000000000000000E-002    7.106936961831285E-005
 -1.990000000000000E-002    7.504727033769451E-005
 -1.980000000000000E-002    7.923118414474154E-005
 -1.970000000000000E-002    8.363037458741231E-005
 -1.960000000000000E-002    8.825449697923675E-005
 -1.950000000000000E-002    9.311360231228132E-005
 -1.940000000000000E-002    9.821818988984754E-005
 -1.930000000000000E-002    1.035791926587448E-004
 -1.920000000000000E-002    1.092080073904042E-004
 -1.910000000000000E-002    1.151165108688883E-004
 -1.900000000000000E-002    1.213170964987714E-004
 -1.890000000000000E-002    1.278226583666176E-004
 -1.880000000000000E-002    1.346466617374803E-004
 -1.870000000000000E-002    1.418031113161790E-004
 -1.860000000000000E-002    1.493066020766808E-004
 -1.850000000000000E-002    1.571723345737930E-004
 -1.840000000000000E-002    1.654161676441615E-004
 -1.830000000000000E-002    1.740545880014530E-004
 -1.820000000000000E-002    1.831047680422884E-004
 -1.810000000000000E-002    1.925845477923887E-004
 -1.800000000000000E-002    2.025124827616787E-004
 -1.790000000000000E-002    2.129078215944478E-004
 -1.780000000000000E-002    2.237905461710394E-004
 -1.770000000000000E-002    2.351813499993556E-004
 -1.760000000000000E-002    2.471016011027256E-004
 -1.750000000000000E-002    2.595734553539226E-004
 -1.740000000000000E-002    2.726197661677471E-004
 -1.730000000000000E-002    2.862641341286471E-004
 -1.720000000000000E-002    3.005309099093944E-004
 -1.710000000000000E-002    3.154451898194441E-004
 -1.700000000000000E-002    3.310328817827732E-004
 -1.690000000000000E-002    3.473207242270645E-004
 -1.680000000000000E-002    3.643362757863637E-004
 -1.670000000000000E-002    3.821079842317508E-004
 -1.660000000000000E-002    4.006651892484055E-004
 -1.650000000000000E-002    4.200382381711450E-004
 -1.640000000000000E-002    4.402583977376858E-004
 -1.630000000000000E-002    4.613580222994750E-004
 -1.620000000000000E-002    4.833704692702585E-004
 -1.610000000000000E-002    5.063302175750588E-004
 -1.600000000000000E-002    5.302728356370634E-004
 -1.590000000000000E-002    5.552350181064977E-004
 -1.580000000000000E-002    5.812546409806983E-004
 -1.570000000000000E-002    6.083707803325418E-004
 -1.560000000000000E-002    6.366237161078180E-004
 -1.550000000000000E-002    6.660549790061710E-004
 -1.540000000000000E-002    6.967073578627909E-004
 -1.530000000000000E-002    7.286248557423632E-004
 -1.520000000000000E-002    7.618528111601000E-004
 -1.510000000000000E-002    7.964378567269263E-004
 -1.500000000000000E-002    8.324279166403519E-004
 -1.490000000000000E-002    8.698721527172637E-004
 -1.480000000000000E-002    9.088211648671254E-004
 -1.470000000000000E-002    9.493268710875807E-004
 -1.460000000000000E-002    9.914422678523346E-004
 -1.450000000000000E-002    1.035221903174787E-003
 -1.440000000000000E-002    1.080721614905392E-003
 -1.430000000000000E-002    1.127998570912519E-003
 -1.420000000000000E-002    1.177111133721061E-003
 -1.410000000000000E-002    1.228119278224315E-003
 -1.400000000000000E-002    1.281084113355711E-003
 -1.390000000000000E-002    1.336068179387101E-003
 -1.380000000000000E-002    1.393135641913792E-003
 -1.370000000000000E-002    1.452352044242930E-003
 -1.360000000000000E-002    1.513784304471785E-003
 -1.350000000000000E-002    1.577501003574737E-003
 -1.340000000000000E-002    1.643572128262563E-003
 -1.330000000000000E-002    1.712069228376191E-003
 -1.320000000000000E-002    1.783065344908952E-003
 -1.310000000000000E-002    1.856635143627700E-003
 -1.300000000000000E-002    1.932854535629069E-003
 -1.290000000000000E-002    2.011801242221248E-003
 -1.280000000000000E-002    2.093554091934307E-003
 -1.270000000000000E-002    2.178193546739117E-003
 -1.260000000000000E-002    2.265801269265000E-003
 -1.250000000000000E-002    2.356460433884439E-003
 -1.240000000000000E-002    2.450255226179633E-003
 -1.230000000000000E-002    2.547271475184106E-003
 -1.220000000000000E-002    2.647596032664874E-003
 -1.210000000000000E-002    2.751316918671514E-003
 -1.200000000000000E-002    2.858523567020812E-003
 -1.190000000000000E-002    2.969306420634438E-003
 -1.180000000000000E-002    3.083757453330784E-003
 -1.170000000000000E-002    3.201969266128021E-003
 -1.160000000000000E-002    3.324035768343984E-003
 -1.150000000000000E-002    3.450052140886723E-003
 -1.140000000000000E-002    3.580114369431469E-003
 -1.130000000000000E-002    3.714319202641310E-003
 -1.120000000000000E-002    3.852765016373205E-003
 -1.110000000000000E-002    3.995549799718856E-003
 -1.100000000000000E-002    4.142773132901499E-003
 -1.090000000000000E-002    4.294534952677517E-003
 -1.080000000000000E-002    4.450935295964755E-003
 -1.070000000000000E-002    4.612075307428081E-003
 -1.060000000000000E-002    4.778055762044027E-003
 -1.050000000000000E-002    4.948978435238251E-003
 -1.040000000000000E-002    5.124945404090180E-003
 -1.030000000000000E-002    5.306058098296394E-003
 -1.020000000000000E-002    5.492418839449969E-003
 -1.010000000000000E-002    5.684130012526720E-003
 -1.000000000000000E-002    5.881293334219266E-003
 -9.899999999999999E-003    6.084010683672872E-003
 -9.800000000000000E-003    6.292384017417703E-003
 -9.699999999999999E-003    6.506514453575868E-003
 -9.599999999999999E-003    6.726503173838386E-003
 -9.500000000000000E-003    6.952450296860224E-003
 -9.399999999999999E-003    7.184455776989755E-003
 -9.299999999999999E-003    7.422618341367251E-003
 -9.200000000000000E-003    7.667035081404755E-003
 -9.099999999999999E-003    7.917803361207076E-003
 -8.999999999999999E-003    8.175017551600904E-003
 -8.900000000000000E-003    8.438771673370619E-003
 -8.799999999999999E-003    8.709156773596596E-003
 -8.699999999999999E-003    8.986263159282970E-003
 -8.600000000000000E-003    9.270178960515317E-003
 -8.499999999999999E-003    9.560989105516034E-003
 -8.399999999999999E-003    9.858776731379023E-003
 -8.300000000000000E-003    1.016362222066095E-002
 -8.199999999999999E-003    1.047560205904840E-002
 -8.100000000000000E-003    1.079479141439540E-002
 -8.000000000000000E-003    1.112126030801159E-002
 -7.899999999999999E-003    1.145507634917821E-002
 -7.800000000000000E-003    1.179630308686632E-002
 -7.699999999999999E-003    1.214499938335514E-002
 -7.599999999999999E-003    1.250121903441096E-002
 -7.499999999999999E-003    1.286501333461443E-002
 -7.399999999999999E-003    1.323642664132693E-002
 -7.299999999999999E-003    1.361550008204051E-002
 -7.199999999999999E-003    1.400226849666468E-002
 -7.100000000000000E-003    1.439676229090072E-002
 -6.999999999999999E-003    1.479900437473952E-002
 -6.899999999999999E-003    1.520901253155443E-002
 -6.800000000000000E-003    1.562680062644515E-002
 -6.699999999999999E-003    1.605237401814678E-002
 -6.599999999999999E-003    1.648573251085253E-002
 -6.499999999999999E-003    1.692686772524470E-002
 -6.399999999999999E-003    1.737576525377722E-002
 -6.299999999999999E-003    1.783240334788470E-002
 -6.199999999999999E-003    1.829675188628395E-002
 -6.100000000000000E-003    1.876877410686661E-002
 -5.999999999999999E-003    1.924842278424234E-002
 -5.899999999999999E-003    1.973564436429634E-002
 -5.800000000000000E-003    2.023037500460551E-002
 -5.699999999999999E-003    2.073254173728816E-002
 -5.599999999999999E-003    2.124206273437565E-002
 -5.499999999999999E-003    2.175884606503861E-002
 -5.399999999999999E-003    2.228278766354575E-002
 -5.299999999999999E-003    2.281377568029143E-002
 -5.199999999999999E-003    2.335168633288861E-002
 -5.099999999999999E-003    2.389638561220425E-002
 -4.999999999999999E-003    2.444772722975162E-002
 -4.899999999999999E-003    2.500555690533318E-002
 -4.799999999999999E-003    2.556970250475270E-002
 -4.699999999999999E-003    2.613998421908407E-002
 -4.599999999999999E-003    2.671620771996308E-002
 -4.499999999999999E-003    2.729816796951668E-002
 -4.399999999999999E-003    2.788564326345111E-002
 -4.299999999999999E-003    2.847840418762237E-002
 -4.199999999999999E-003    2.907620292095425E-002
 -4.099999999999999E-003    2.967877887651277E-002
 -3.999999999999999E-003    3.028585867288636E-002
 -3.899999999999999E-003    3.089715145266558E-002
 -3.799999999999999E-003    3.151235784914946E-002
 -3.699999999999999E-003    3.213115691051530E-002
 -3.599999999999999E-003    3.275321886243186E-002
 -3.499999999999999E-003    3.337819469838418E-002
 -3.399999999999999E-003    3.400571994280540E-002
 -3.299999999999999E-003    3.463542016236362E-002
 -3.199999999999999E-003    3.526689970404184E-002
 -3.099999999999999E-003    3.589975020663698E-002
 -2.999999999999999E-003    3.653354365398057E-002
 -2.899999999999999E-003    3.716784026427816E-002
 -2.799999999999999E-003    3.780218350112098E-002
 -2.699999999999999E-003    3.843609665364307E-002
 -2.599999999999999E-003    3.906908702421725E-002
 -2.499999999999999E-003    3.970065033203223E-002
 -2.399999999999999E-003    4.033026135471529E-002
 -2.299999999999999E-003    4.095737544949839E-002
 -2.199999999999999E-003    4.158143383963883E-002
 -2.099999999999999E-003    4.220186209707972E-002
 -1.999999999999999E-003    4.281806501690120E-002
 -1.899999999999999E-003    4.342943269423472E-002
 -1.799999999999999E-003    4.403533810801119E-002
 -1.699999999999999E-003    4.463513654074046E-002
 -1.599999999999999E-003    4.522816810608656E-002
 -1.499999999999999E-003    4.581375024786317E-002
 -1.399999999999999E-003    4.639119025304753E-002
 -1.299999999999999E-003    4.695977375108909E-002
 -1.199999999999999E-003    4.751877049927735E-002
 -1.099999999999999E-003    4.806743873536272E-002
 -9.999999999999989E-004    4.860501459841034E-002
 -8.999999999999990E-004    4.913071807435784E-002
 -7.999999999999990E-004    4.964375809316085E-002
 -6.999999999999989E-004    5.014331967234106E-002
 -5.999999999999990E-004    5.062857454790862E-002
 -4.999999999999989E-004    5.109868355965439E-002
 -3.999999999999989E-004    5.155278631760896E-002
 -2.999999999999989E-004    5.199001344615058E-002
 -1.999999999999989E-004    5.240947189082083E-002
 -9.999999999999892E-005    5.281026546627025E-002
  1.084202172485504E-018    5.319147313405114E-002
  1.000000000000011E-004    5.355216778501662E-002
  2.000000000000011E-004    5.389140610605281E-002
  3.000000000000011E-004    5.420823037882534E-002
  4.000000000000011E-004    5.450167630855175E-002
  5.000000000000011E-004    5.477076277073435E-002
  6.000000000000011E-004    5.501449905026671E-002
  7.000000000000011E-004    5.523188480473110E-002
  8.000000000000011E-004    5.542190234662404E-002
  9.000000000000012E-004    5.558353350484718E-002
  1.000000000000001E-003    5.571574827948145E-002
  1.100000000000001E-003    5.581750814388737E-002
  1.200000000000001E-003    5.588776131493695E-002
  1.300000000000001E-003    5.592545394888414E-002
  1.400000000000001E-003    5.592952564334144E-002
  1.500000000000001E-003    5.589890554720651E-002
  1.600000000000001E-003    5.583252837286772E-002
  1.700000000000001E-003    5.572931182832286E-002
  1.800000000000001E-003    5.558818055504092E-002
  1.900000000000001E-003    5.540805216669073E-002
  2.000000000000001E-003    5.518784125369365E-002
  2.100000000000001E-003    5.492646623341046E-002
  2.200000000000001E-003    5.462284085915513E-002
  2.300000000000001E-003    5.427588675103921E-002
  2.400000000000001E-003    5.388451769966779E-002
  2.500000000000001E-003    5.344765719742522E-002
  2.600000000000001E-003    5.296422888666749E-002
  2.700000000000001E-003    5.243316433295282E-002
  2.800000000000001E-003    5.185339705199693E-002
  2.900000000000001E-003    5.122387124475392E-002
  3.000000000000001E-003    5.054353419307330E-002
  3.100000000000001E-003    4.981134633233854E-002
  3.200000000000001E-003    4.902627619481127E-002
  3.300000000000001E-003    4.818730276628894E-002
  3.400000000000001E-003    4.729341580325312E-002
  3.500000000000001E-003    4.634362198186069E-002
  3.600000000000001E-003    4.533694063264077E-002
  3.700000000000001E-003    4.427240350256931E-002
  3.800000000000001E-003    4.314906303598069E-002
  3.900000000000001E-003    4.196598431458661E-002
  4.000000000000001E-003    4.072225803869814E-002
  4.100000000000001E-003    3.941698757468931E-002
  4.200000000000001E-003    3.804929988798664E-002
  4.300000000000001E-003    3.661834613505011E-002
  4.400000000000001E-003    3.512330017412175E-002
  4.500000000000001E-003    3.356335754415514E-002
  4.600000000000002E-003    3.193774422985009E-002
  4.700000000000001E-003    3.024570882154795E-002
  4.800000000000001E-003    2.848653443217556E-002
  4.900000000000002E-003    2.665952702149555E-002
  5.000000000000001E-003    2.476402883710336E-002
  5.100000000000001E-003    2.279941163971667E-002
  5.200000000000001E-003    2.076508274940463E-002
  5.300000000000002E-003    1.866048144170473E-002
  5.400000000000001E-003    1.648508438817684E-002
  5.500000000000001E-003    1.423840491401063E-002
  5.600000000000002E-003    1.191999512490345E-002
  5.700000000000001E-003    9.529446343575101E-003
  5.800000000000001E-003    7.066390504579119E-003
  5.900000000000002E-003    4.530499866243985E-003
  6.000000000000001E-003    1.921489908876872E-003
  6.100000000000001E-003   -7.608787366950960E-004
  6.200000000000002E-003   -3.516802297375899E-003
  6.300000000000002E-003   -6.346429634849405E-003
  6.400000000000001E-003   -9.249863367697113E-003
  6.500000000000001E-003   -1.222715794968401E-002
  6.600000000000002E-003   -1.527831759446382E-002
  6.700000000000001E-003   -1.840330005358838E-002
  6.800000000000001E-003   -2.160200914581977E-002
  6.900000000000002E-003   -2.487429541858523E-002
  7.000000000000001E-003   -2.821996219514746E-002
  7.100000000000001E-003   -3.163875472180893E-002
  7.200000000000002E-003   -3.513036343720232E-002
  7.300000000000002E-003   -3.869442539824746E-002
  7.400000000000001E-003   -4.233052330084847E-002
  7.500000000000001E-003   -4.603818076933683E-002
  7.600000000000002E-003   -4.981686620650416E-002
  7.700000000000001E-003   -5.366598776782551E-002
  7.800000000000001E-003   -5.758489576681525E-002
  7.900000000000001E-003   -6.157287885399559E-002
  8.000000000000002E-003   -6.562916412983427E-002
  8.100000000000001E-003   -6.975293105712098E-002
  8.200000000000001E-003   -7.394328100293303E-002
  8.300000000000002E-003   -7.819926413113845E-002
  8.400000000000001E-003   -8.251986240444341E-002
  8.500000000000002E-003   -8.690400422938761E-002
  8.600000000000002E-003   -9.135054869788480E-002
  8.700000000000001E-003   -9.585828738025690E-002
  8.800000000000002E-003   -0.100425960713886     
  8.900000000000002E-003   -0.105052238078869     
  9.000000000000001E-003   -0.109735725956513     
  9.100000000000002E-003   -0.114474970283116     
  9.200000000000002E-003   -0.119268457453271     
  9.300000000000001E-003   -0.124114606990001     
  9.400000000000002E-003   -0.129011774294734     
  9.500000000000001E-003   -0.133958245704027     
  9.600000000000001E-003   -0.138952255858322     
  9.700000000000002E-003   -0.143991965587445     
  9.800000000000001E-003   -0.149075493341876     
  9.900000000000001E-003   -0.154200878598594     
  1.000000000000000E-002   -0.159366108670280     
  1.010000000000000E-002   -0.164569094738817     
  1.020000000000000E-002   -0.169807708515908     
  1.030000000000000E-002   -0.175079756949955     
  1.040000000000000E-002   -0.180382990985393     
  1.050000000000000E-002   -0.185715094622889     
  1.060000000000000E-002   -0.191073705506292     
  1.070000000000000E-002   -0.196456395486342     
  1.080000000000000E-002   -0.201860688781430     
  1.090000000000000E-002   -0.207284057026339     
  1.100000000000000E-002   -0.212723911199229     
  1.110000000000000E-002   -0.218177624650411     
  1.120000000000000E-002   -0.223642518588617     
  1.130000000000000E-002   -0.229115844017593     
  1.140000000000000E-002   -0.234594846666509     
  1.150000000000000E-002   -0.240076679096893     
  1.160000000000000E-002   -0.245558466004868     
  1.170000000000000E-002   -0.251037311564120     
  1.180000000000000E-002   -0.256510253131575     
  1.190000000000000E-002   -0.261974279574838     
  1.200000000000000E-002   -0.267426375083654     
  1.210000000000000E-002   -0.272863461921113     
  1.220000000000000E-002   -0.278282458592058     
  1.230000000000000E-002   -0.283680207260393     
  1.240000000000000E-002   -0.289053542544620     
  1.250000000000000E-002   -0.294399265271015     
  1.260000000000000E-002   -0.299714154931832     
  1.270000000000000E-002   -0.304994960015026     
  1.280000000000000E-002   -0.310238409786332     
  1.290000000000000E-002   -0.315441237940718     
  1.300000000000000E-002   -0.320600127584258     
  1.310000000000000E-002   -0.325711732404442     
  1.320000000000000E-002   -0.330772731806931     
  1.330000000000000E-002   -0.335779765597937     
  1.340000000000000E-002   -0.340729505537244     
  1.350000000000000E-002   -0.345618582310607     
  1.360000000000000E-002   -0.350443604542574     
  1.370000000000000E-002   -0.355201235315407     
  1.380000000000000E-002   -0.359888080834163     
  1.390000000000000E-002   -0.364500800600614     
  1.400000000000000E-002   -0.369036037814319     
  1.410000000000000E-002   -0.373490450537438     
  1.420000000000000E-002   -0.377860685818643     
  1.430000000000000E-002   -0.382143438038899     
  1.440000000000000E-002   -0.386335420402766     
  1.450000000000000E-002   -0.390433351150210     
  1.460000000000000E-002   -0.394433953495342     
  1.470000000000000E-002   -0.398333994398189     
  1.480000000000000E-002   -0.402130275363365     
  1.490000000000000E-002   -0.405819619430427     
  1.500000000000000E-002   -0.409398905254140     
  1.510000000000000E-002   -0.412865028210020     
  1.520000000000000E-002   -0.416214926880623     
  1.530000000000000E-002   -0.419445583078635     
  1.540000000000000E-002   -0.422554015622985     
  1.550000000000000E-002   -0.425537321429451     
  1.560000000000000E-002   -0.428392614425077     
  1.570000000000000E-002   -0.431117056709609     
  1.580000000000000E-002   -0.433707897037090     
  1.590000000000000E-002   -0.436162419751936     
  1.600000000000000E-002   -0.438477976739303     
  1.610000000000000E-002   -0.440652007045226     
  1.620000000000000E-002   -0.442681975342090     
  1.630000000000000E-002   -0.444565440569628     
  1.640000000000000E-002   -0.446300020155192     
  1.650000000000000E-002   -0.447883425669027     
  1.660000000000000E-002   -0.449313414915650     
  1.670000000000000E-002   -0.450587857610535     
  1.680000000000000E-002   -0.451704682047498     
  1.690000000000000E-002   -0.452661892310237     
  1.700000000000000E-002   -0.453457608619679     
  1.710000000000000E-002   -0.454090026638275     
  1.720000000000000E-002   -0.454557429379173     
  1.730000000000000E-002   -0.454858174376480     
  1.740000000000000E-002   -0.454990742125613     
  1.750000000000000E-002   -0.454953685355916     
  1.760000000000000E-002   -0.454745656428448     
  1.770000000000000E-002   -0.454365413897742     
  1.780000000000000E-002   -0.453811829538433     
  1.790000000000000E-002   -0.453083853434582     
  1.800000000000000E-002   -0.452180573222451     
  1.810000000000000E-002   -0.451101141810898     
  1.820000000000000E-002   -0.449844866408029     
  1.830000000000000E-002   -0.448411122902430     
  1.840000000000000E-002   -0.446799395127269     
  1.850000000000000E-002   -0.445009337248967     
  1.860000000000000E-002   -0.443040624198917     
  1.870000000000000E-002   -0.440893117763696     