 -4.000000000000000E-002    0.000000000000000E+000
 -3.990000000000000E-002    0.000000000000000E+000
 -3.980000000000000E-002    0.000000000000000E+000
 -3.970000000000000E-002    0.000000000000000E+000
 -3.960000000000000E-002    0.000000000000000E+000
 -3.950000000000000E-002    0.000000000000000E+000
 -3.940000000000000E-002   -1.055798398717472E-022
 -3.930000000000000E-002   -1.249738458225483E-021
 -3.920000000000000E-002   -7.904205673073342E-021
 -3.910000000000000E-002   -3.541016328220499E-020
 -3.900000000000000E-002   -1.257496222936051E-019
 -3.890000000000000E-002   -3.757671634131160E-019
 -3.880000000000000E-002   -9.797153796994889E-019
 -3.870000000000000E-002   -2.282146569337395E-018
 -3.860000000000000E-002   -4.826696635674324E-018
 -3.850000000000000E-002   -9.371462773029881E-018
 -3.840000000000000E-002   -1.682456764932682E-017
 -3.830000000000000E-002   -2.803854595589882E-017
 -3.820000000000000E-002   -4.339606173740208E-017
 -3.810000000000000E-002   -6.213038045226292E-017
 -3.800000000000000E-002   -8.136016357022167E-017
 -3.790000000000000E-002   -9.488538651133550E-017
 -3.780000000000000E-002   -9.189018711424973E-017
 -3.770000000000000E-002   -5.582251839064636E-017
 -3.760000000000000E-002    3.614784140674876E-017
 -3.750000000000000E-002    2.125782954875949E-016
 -3.740000000000000E-002    5.055362296135769E-016
 -3.730000000000000E-002    9.461773108414211E-016
 -3.720000000000000E-002    1.557745690669423E-015
 -3.710000000000000E-002    2.345941480219156E-015
 -3.700000000000000E-002    3.287077209824164E-015
 -3.690000000000000E-002    4.315051135940158E-015
 -3.680000000000000E-002    5.308839598935321E-015
 -3.670000000000000E-002    6.082857195441071E-015
 -3.660000000000000E-002    6.383028557496865E-015
 -3.650000000000000E-002    5.891609074131401E-015
 -3.640000000000000E-002    4.243581547025645E-015
 -3.630000000000000E-002    1.056699422717372E-015
 -3.620000000000000E-002   -4.024060737039289E-015
 -3.610000000000000E-002   -1.126870088004435E-014
 -3.600000000000000E-002   -2.079434325168292E-014
 -3.590000000000000E-002   -3.249297336370814E-014
 -3.580000000000000E-002   -4.596265813409763E-014
 -3.570000000000000E-002   -6.045179564037350E-014
 -3.560000000000000E-002   -7.482678310470567E-014
 -3.550000000000000E-002   -8.757312207162019E-014
 -3.540000000000000E-002   -9.683817662162436E-014
 -3.530000000000000E-002   -1.005207006745416E-013
 -3.520000000000000E-002   -9.640791143497509E-014
 -3.510000000000000E-002   -8.235560926889421E-014
 -3.500000000000000E-002   -5.650139168449872E-014
 -3.490000000000000E-002   -1.749606489138493E-014
 -3.480000000000000E-002    3.526565259312064E-014
 -3.470000000000000E-002    1.014362544868340E-013
 -3.460000000000000E-002    1.795493314070562E-013
 -3.450000000000000E-002    2.669147786361151E-013
 -3.440000000000000E-002    3.595894592926186E-013
 -3.430000000000000E-002    4.524310067166808E-013
 -3.420000000000000E-002    5.392356965435243E-013
 -3.410000000000000E-002    6.129544677011758E-013
 -3.400000000000000E-002    6.659757961561685E-013
 -3.390000000000000E-002    6.904608279890563E-013
 -3.380000000000000E-002    6.787162247083694E-013
 -3.370000000000000E-002    6.235918611669454E-013
 -3.360000000000000E-002    5.188955425766518E-013
 -3.350000000000000E-002    3.598228121309698E-013
 -3.340000000000000E-002    1.434044858240159E-013
 -3.330000000000000E-002   -1.310224834916177E-013
 -3.320000000000000E-002   -4.613166399501814E-013
 -3.310000000000000E-002   -8.420094122780934E-013
 -3.300000000000000E-002   -1.263774630906694E-012
 -3.290000000000000E-002   -1.712925159230145E-012
 -3.280000000000000E-002   -2.170995180177508E-012
 -3.270000000000000E-002   -2.614488247171255E-012
 -3.260000000000000E-002   -3.014892344048019E-012
 -3.250000000000000E-002   -3.339073597450981E-012
 -3.240000000000000E-002   -3.550160882200664E-012
 -3.230000000000000E-002   -3.609012812110892E-012
 -3.220000000000000E-002   -3.476326092978651E-012
 -3.210000000000000E-002   -3.115382982870515E-012
 -3.200000000000000E-002   -2.495370966232729E-012
 -3.190000000000000E-002   -1.595119126661029E-012
 -3.180000000000000E-002   -4.070137456166378E-013
 -3.170000000000000E-002    1.059223606028067E-012
 -3.160000000000000E-002    2.773271168958219E-012
 -3.150000000000000E-002    4.681862803201971E-012
 -3.140000000000000E-002    6.707767341204513E-012
 -3.130000000000000E-002    8.750440942331244E-012
 -3.120000000000000E-002    1.068861365769508E-011
 -3.110000000000000E-002    1.238493427745061E-011
 -3.100000000000000E-002    1.369263116632066E-011
 -3.090000000000000E-002    1.446396467886062E-011
 -3.080000000000000E-002    1.456005930511120E-011
 -3.070000000000000E-002    1.386153386619580E-011
 -3.060000000000000E-002    1.227921890500121E-011
 -3.050000000000000E-002    9.764167581198163E-012
 -3.040000000000000E-002    6.316147118848164E-012
 -3.030000000000000E-002    1.989855438052673E-012
 -3.020000000000000E-002   -3.101775493016057E-012
 -3.010000000000000E-002   -8.787646833962894E-012
 -3.000000000000000E-002   -1.484216403110636E-011
 -2.990000000000000E-002   -2.099249603209670E-011
 -2.980000000000000E-002   -2.692916667714016E-011
 -2.970000000000000E-002   -3.231947565738178E-011
 -2.960000000000000E-002   -3.682307963260382E-011
 -2.950000000000000E-002   -4.010891888923140E-011
 -2.940000000000000E-002   -4.187262944603215E-011
 -2.930000000000000E-002   -4.185356052151514E-011
 -2.920000000000000E-002   -3.985058415225769E-011
 -2.910000000000000E-002   -3.573600065726478E-011
 -2.900000000000000E-002   -2.946694743786734E-011
 -2.890000000000000E-002   -2.109389081457798E-011
 -2.880000000000000E-002   -1.076587663384108E-011
 -2.870000000000000E-002    1.267655841018138E-012
 -2.860000000000000E-002    1.465863255230570E-011
 -2.850000000000000E-002    2.896577084502274E-011
 -2.840000000000000E-002    4.366372551185439E-011
 -2.830000000000000E-002    5.815603393696604E-011
 -2.820000000000000E-002    7.179189334269402E-011
 -2.810000000000000E-002    8.388672932501579E-011
 -2.800000000000000E-002    9.374647174788803E-011
 -2.790000000000000E-002    1.006952488792123E-010
 -2.780000000000000E-002    1.041059588144290E-010
 -2.770000000000000E-002    1.034329866508344E-010
 -2.760000000000000E-002    9.824592043078299E-011
 -2.750000000000000E-002    8.826284734687298E-011
 -2.740000000000000E-002    7.338146816929951E-011
 -2.730000000000000E-002    5.370606697439279E-011
 -2.720000000000000E-002    2.956824896661596E-011
 -2.710000000000000E-002    1.539281208784951E-012
 -2.700000000000000E-002   -2.956785811791142E-011
 -2.690000000000000E-002   -6.270836124928216E-011
 -2.680000000000000E-002   -9.662848997111735E-011
 -2.670000000000000E-002   -1.299019489618818E-010
 -2.660000000000000E-002   -1.609794328510036E-010
 -2.650000000000000E-002   -1.882502390803024E-010
 -2.640000000000000E-002   -2.101139199218876E-010
 -2.630000000000000E-002   -2.250592592839600E-010
 -2.620000000000000E-002   -2.317470596925177E-010
 -2.610000000000000E-002   -2.290927688576361E-010
 -2.600000000000000E-002   -2.163445332364821E-010
 -2.590000000000000E-002   -1.931521298948863E-010
 -2.580000000000000E-002   -1.596223872468230E-010
 -2.570000000000000E-002   -1.163569207570923E-010
 -2.560000000000000E-002   -6.446872219681794E-011
 -2.550000000000000E-002   -5.574695844973415E-012
 -2.540000000000000E-002    5.823750716870841E-011
 -2.530000000000000E-002    1.244691502120306E-010
 -2.520000000000000E-002    1.902958552985347E-010
 -2.510000000000000E-002    2.526768502684406E-010
 -2.500000000000000E-002    3.084847721755572E-010
 -2.490000000000000E-002    3.546511837185764E-010
 -2.480000000000000E-002    3.883218948517046E-010
 -2.470000000000000E-002    4.070150498696884E-010
 -2.460000000000000E-002    4.087740220065817E-010
 -2.450000000000000E-002    3.923068466670354E-010
 -2.440000000000000E-002    3.571035228384637E-010
 -2.430000000000000E-002    3.035233524727319E-010
 -2.420000000000000E-002    2.328449143918594E-010
 -2.410000000000000E-002    1.472729333165559E-010
 -2.400000000000000E-002    4.989824640194998E-011
 -2.390000000000000E-002   -5.539088683878089E-011
 -2.380000000000000E-002   -1.640449992286272E-010
 -2.370000000000000E-002   -2.710334935102744E-010
 -2.360000000000000E-002   -3.710619614143455E-010
 -2.350000000000000E-002   -4.588178863282679E-010
 -2.340000000000000E-002   -5.292334932744967E-010
 -2.330000000000000E-002   -5.777532165855989E-010
 -2.320000000000000E-002   -6.005920517387913E-010
 -2.310000000000000E-002   -5.949718122509354E-010
 -2.300000000000000E-002   -5.593216865464666E-010
 -2.290000000000000E-002   -4.934327427931008E-010
 -2.280000000000000E-002   -3.985565559783966E-010
 -2.270000000000000E-002   -2.774419385305408E-010
 -2.260000000000000E-002   -1.343055409307512E-010
 -2.250000000000000E-002    2.526379564114216E-011
 -2.240000000000000E-002    1.944653332266894E-010
 -2.230000000000000E-002    3.655066105378169E-010
 -2.220000000000000E-002    5.298770931154331E-010
 -2.210000000000000E-002    6.786670356592521E-010
 -2.200000000000000E-002    8.029221049245403E-010
 -2.190000000000000E-002    8.940236998225727E-010
 -2.180000000000000E-002    9.440837935085429E-010
 -2.170000000000000E-002    9.463433283343666E-010
 -2.160000000000000E-002    8.955611654698252E-010
 -2.150000000000000E-002    7.883810283434515E-010
 -2.140000000000000E-002    6.236626479995138E-010
 -2.130000000000000E-002    4.027611154748013E-010
 -2.120000000000000E-002    1.297384028855627E-010
 -2.110000000000000E-002   -1.885093909582516E-010
 -2.100000000000000E-002   -5.422264188318866E-010
 -2.090000000000000E-002   -9.188894696550492E-010
 -2.080000000000000E-002   -1.303430301617143E-009
 -2.070000000000000E-002   -1.678599049044482E-009
 -2.060000000000000E-002   -2.025470206797713E-009
 -2.050000000000000E-002   -2.324089012885356E-009
 -2.040000000000000E-002   -2.554244356079137E-009
 -2.030000000000000E-002   -2.696346119349282E-009
 -2.020000000000000E-002   -2.732374697578161E-009
 -2.010000000000000E-002   -2.646862273336793E-009
 -2.000000000000000E-002   -2.427856795907458E-009
 -1.990000000000000E-002   -2.067817017321799E-009
 -1.980000000000000E-002   -1.564382155314788E-009
 -1.970000000000000E-002   -9.209663366871538E-010
 -1.960000000000000E-002   -1.471331029697934E-010
 -1.950000000000000E-002    7.412863434758072E-010
 -1.940000000000000E-002    1.722351446874031E-009
 -1.930000000000000E-002    2.768450110158288E-009
 -1.920000000000000E-002    3.847004088525215E-009
 -1.910000000000000E-002    4.921414155848053E-009
 -1.900000000000000E-002    5.952197460864969E-009
 -1.890000000000000E-002    6.898262685217685E-009
 -1.880000000000000E-002    7.718260536968135E-009
 -1.870000000000000E-002    8.371946573325791E-009
 -1.860000000000000E-002    8.821491928894105E-009
 -1.850000000000000E-002    9.032697505079913E-009
 -1.840000000000000E-002    8.976074120680433E-009
 -1.830000000000000E-002    8.627769870969124E-009
 -1.820000000000000E-002    7.970343080062467E-009
 -1.810000000000000E-002    6.993404146557615E-009
 -1.800000000000000E-002    5.694155710152808E-009
 -1.790000000000000E-002    4.077875034008480E-009
 -1.780000000000000E-002    2.158387549509171E-009
 -1.770000000000000E-002   -4.142345911540189E-011
 -1.760000000000000E-002   -2.489035880796573E-009
 -1.750000000000000E-002   -5.141613314238399E-009
 -1.740000000000000E-002   -7.945234094775029E-009
 -1.730000000000000E-002   -1.083405269733515E-008
 -1.720000000000000E-002   -1.372941981270907E-008
 -1.710000000000000E-002   -1.653904351547325E-008
 -1.700000000000000E-002   -1.915624712554619E-008
 -1.690000000000000E-002   -2.145941781809211E-008
 -1.680000000000000E-002   -2.331171489772908E-008
 -1.670000000000000E-002   -2.456110421897906E-008
 -1.660000000000000E-002   -2.504077637726918E-008
 -1.650000000000000E-002   -2.456993820944863E-008
 -1.640000000000000E-002   -2.295499958795827E-008
 -1.630000000000000E-002   -1.999106673238662E-008
 -1.620000000000000E-002   -1.546369547544613E-008
 -1.610000000000000E-002   -9.150788216847221E-009
 -1.600000000000000E-002   -8.245045951231392E-010
 -1.590000000000000E-002    9.746927861256190E-009
 -1.580000000000000E-002    2.279762471231976E-008
 -1.570000000000000E-002    3.856278461904141E-008
 -1.560000000000000E-002    5.727782662047101E-008
 -1.550000000000000E-002    7.917794918016131E-008
 -1.540000000000000E-002    1.044980839614074E-007
 -1.530000000000000E-002    1.334732717573202E-007
 -1.520000000000000E-002    1.663392152370635E-007
 -1.510000000000000E-002    2.033330557455638E-007
 -1.500000000000000E-002    2.446941537797888E-007
 -1.490000000000000E-002    2.906646226045253E-007
 -1.480000000000000E-002    3.414896734455710E-007
 -1.470000000000000E-002    3.974175948477390E-007
 -1.460000000000000E-002    4.586993083191792E-007
 -1.450000000000000E-002    5.255872890314524E-007
 -1.440000000000000E-002    5.983342917660293E-007
 -1.430000000000000E-002    6.771917399944460E-007
 -1.420000000000000E-002    7.624079253749033E-007
 -1.410000000000000E-002    8.542264149561832E-007
 -1.400000000000000E-002    9.528846308469402E-007
 -1.390000000000000E-002    1.058612995543415E-006
 -1.380000000000000E-002    1.171634976454736E-006
 -1.370000000000000E-002    1.292168257048989E-006
 -1.360000000000000E-002    1.420426658143085E-006
 -1.350000000000000E-002    1.556623993822957E-006
 -1.340000000000000E-002    1.700978376068505E-006
 -1.330000000000000E-002    1.853718593807974E-006
 -1.320000000000000E-002    2.015090770753713E-006
 -1.310000000000000E-002    2.185366679221129E-006
 -1.300000000000000E-002    2.364851925147443E-006
 -1.290000000000000E-002    2.553894904748472E-006
 -1.280000000000000E-002    2.752895530462282E-006
 -1.270000000000000E-002    2.962313309707779E-006
 -1.260000000000000E-002    3.182674197524804E-006
 -1.250000000000000E-002    3.414578239221450E-006
 -1.240000000000000E-002    3.658703427850686E-006
 -1.230000000000000E-002    3.915808842214960E-006
 -1.220000000000000E-002    4.186737846349954E-006
 -1.210000000000000E-002    4.472416957242237E-006
 -1.200000000000000E-002    4.773856135106532E-006
 -1.190000000000000E-002    5.092144128840723E-006
 -1.180000000000000E-002    5.428446814308775E-006
 -1.170000000000000E-002    5.784001950628625E-006
 -1.160000000000000E-002    6.160114410706340E-006
 -1.150000000000000E-002    6.558151775192588E-006
 -1.140000000000000E-002    6.979540158440062E-006
 -1.130000000000000E-002    7.425761008483608E-006
 -1.120000000000000E-002    7.898347866932228E-006
 -1.110000000000000E-002    8.398885267245990E-006
 -1.100000000000000E-002    8.929010381861243E-006
 -1.090000000000000E-002    9.490413480072527E-006
 -1.080000000000000E-002    1.008484302191513E-005
 -1.070000000000000E-002    1.071411070430072E-005
 -1.060000000000000E-002    1.138009630629497E-005
 -1.050000000000000E-002    1.208475703620245E-005
 -1.040000000000000E-002    1.283013439234636E-005
 -1.030000000000000E-002    1.361836454659649E-005
 -1.020000000000000E-002    1.445168538829748E-005
 -1.010000000000000E-002    1.533244330096411E-005
 -1.000000000000000E-002    1.626310602453798E-005
 -9.899999999999999E-003    1.724626334428249E-005
 -9.800000000000000E-003    1.828463641580433E-005
 -9.699999999999999E-003    1.938107950301659E-005
 -9.599999999999999E-003    2.053858563706566E-005
 -9.500000000000000E-003    2.176028890951021E-005
 -9.399999999999999E-003    2.304946104676726E-005
 -9.299999999999999E-003    2.440952005116545E-005
 -9.200000000000000E-003    2.584402340144496E-005
 -9.099999999999999E-003    2.735667682392527E-005
 -8.999999999999999E-003    2.895133213620577E-005
 -8.900000000000000E-003    3.063198894686592E-005
 -8.799999999999999E-003    3.240280426977413E-005
 -8.699999999999999E-003    3.426809837001753E-005
 -8.600000000000000E-003    3.623235689302554E-005
 -8.499999999999999E-003    3.830025129366731E-005
 -8.399999999999999E-003    4.047664193111008E-005
 -8.300000000000000E-003    4.276659784018955E-005
 -8.199999999999999E-003    4.517541031834439E-005
 -8.100000000000000E-003    4.770861092230730E-005
 -8.000000000000000E-003    5.037198800495057E-005
 -7.899999999999999E-003    5.317160516400178E-005
 -7.800000000000000E-003    5.611381009197058E-005
 -7.699999999999999E-003    5.920526207250470E-005
 -7.599999999999999E-003    6.245294209447470E-005
 -7.499999999999999E-003    6.586416492238711E-005
 -7.399999999999999E-003    6.944659880616633E-005
 -7.299999999999999E-003    7.320826268592758E-005
 -7.199999999999999E-003    7.715754873556275E-005
 -7.100000000000000E-003    8.130322341867971E-005
 -6.999999999999999E-003    8.565442904571354E-005
 -6.899999999999999E-003    9.022070190390894E-005
 -6.800000000000000E-003    9.501196422970352E-005
 -6.699999999999999E-003    1.000385385175108E-004
 -6.599999999999999E-003    1.053111396147995E-004
 -6.499999999999999E-003    1.108409039311536E-004
 -6.399999999999999E-003    1.166393615583761E-004
 -6.299999999999999E-003    1.227184819417676E-004
 -6.199999999999999E-003    1.290906490428064E-004
 -6.100000000000000E-003    1.357686966278098E-004
 -5.999999999999999E-003    1.427658943935735E-004
 -5.899999999999999E-003    1.500959734941298E-004
 -5.800000000000000E-003    1.577731449578659E-004
 -5.699999999999999E-003    1.658121041253484E-004
 -5.599999999999999E-003    1.742280396201526E-004
 -5.499999999999999E-003    1.830366579676809E-004
 -5.399999999999999E-003    1.922541699916926E-004
 -5.299999999999999E-003    2.018973569702704E-004
 -5.199999999999999E-003    2.119835323858152E-004
 -5.099999999999999E-003    2.225305853742485E-004
 -4.999999999999999E-003    2.335569503119515E-004
 -4.899999999999999E-003    2.450816912612121E-004
 -4.799999999999999E-003    2.571244668354960E-004
 -4.699999999999999E-003    2.697055635116734E-004
 -4.599999999999999E-003    2.828458795704432E-004
 -4.499999999999999E-003    2.965670213059532E-004
 -4.399999999999999E-003    3.108912123161966E-004
 -4.299999999999999E-003    3.258414463151081E-004
 -4.199999999999999E-003    3.414414010755397E-004
 -4.099999999999999E-003    3.577155464735470E-004
 -3.999999999999999E-003    3.746891205958642E-004
 -3.899999999999999E-003    3.923881743076708E-004
 -3.799999999999999E-003    4.108396221273306E-004
 -3.699999999999999E-003    4.300712115698525E-004
 -3.599999999999999E-003    4.501116393745428E-004
 -3.499999999999999E-003    4.709904864328031E-004
 -3.399999999999999E-003    4.927382624655782E-004
 -3.299999999999999E-003    5.153864301649637E-004
 -3.199999999999999E-003    5.389674617931648E-004
 -3.099999999999999E-003    5.635147519281272E-004
 -2.999999999999999E-003    5.890627455202018E-004
 -2.899999999999999E-003    6.156467391917404E-004
 -2.799999999999999E-003    6.433031137602010E-004
 -2.699999999999999E-003    6.720691955514959E-004
 -2.599999999999999E-003    7.019831903117096E-004
 -2.499999999999999E-003    7.330843794425520E-004
 -2.399999999999999E-003    7.654129306698062E-004
 -2.299999999999999E-003    7.990099356208081E-004
 -2.199999999999999E-003    8.339174059564566E-004
 -2.099999999999999E-003    8.701783803864271E-004
 -1.999999999999999E-003    9.078366609734851E-004
 -1.899999999999999E-003    9.469371089812677E-004
 -1.799999999999999E-003    9.875255093972492E-004
 -1.699999999999999E-003    1.029648578406827E-003
 -1.599999999999999E-003    1.073353836613401E-003
 -1.499999999999999E-003    1.118689874274536E-003
 -1.399999999999999E-003    1.165706261845521E-003
 -1.299999999999999E-003    1.214453342722869E-003
 -1.199999999999999E-003    1.264982634649464E-003
 -1.099999999999999E-003    1.317346563669647E-003
 -9.999999999999989E-004    1.371598580909461E-003
 -8.999999999999990E-004    1.427793042555665E-003
 -7.999999999999990E-004    1.485985377706058E-003
 -6.999999999999989E-004    1.546232018287220E-003
 -5.999999999999990E-004    1.608590506726587E-003
 -4.999999999999989E-004    1.673119265484329E-003
 -3.999999999999989E-004    1.739877841308201E-003
 -2.999999999999989E-004    1.808926837209741E-003
 -1.999999999999989E-004    1.880327716603015E-003
 -9.999999999999892E-005    1.954143239766173E-003
  1.084202172485504E-018    2.030436991396540E-003
  1.000000000000011E-004    2.109273365669606E-003
  2.000000000000011E-004    2.190718143193779E-003
  3.000000000000011E-004    2.274837598414756E-003
  4.000000000000011E-004    2.361699151669166E-003
  5.000000000000011E-004    2.451370742129669E-003
  6.000000000000011E-004    2.543921398412303E-003
  7.000000000000011E-004    2.639420490342748E-003
  8.000000000000011E-004    2.737938306731563E-003
  9.000000000000012E-004    2.839545453362163E-003
  1.000000000000001E-003    2.944313189937071E-003
  1.100000000000001E-003    3.052313090653840E-003
  1.200000000000001E-003    3.163617195270359E-003
  1.300000000000001E-003    3.278297590039043E-003
  1.400000000000001E-003    3.396426710453046E-003
  1.500000000000001E-003    3.518077060068824E-003
  1.600000000000001E-003    3.643321299607450E-003
  1.700000000000001E-003    3.772231926893961E-003
  1.800000000000001E-003    3.904881594078215E-003
  1.900000000000001E-003    4.041342866139571E-003
  2.000000000000001E-003    4.181688305920583E-003
  2.100000000000001E-003    4.325989666779566E-003
  2.200000000000001E-003    4.474318930207410E-003
  2.300000000000001E-003    4.626747944726902E-003
  2.400000000000001E-003    4.783347510424469E-003
  2.500000000000001E-003    4.944188940176656E-003
  2.600000000000001E-003    5.109341789576663E-003
  2.700000000000001E-003    5.278876348367700E-003
  2.800000000000001E-003    5.452861301540711E-003
  2.900000000000001E-003    5.631364802198212E-003
  3.000000000000001E-003    5.814453914040832E-003
  3.100000000000001E-003    6.002195471139019E-003
  3.200000000000001E-003    6.194654476902394E-003
  3.300000000000001E-003    6.391894835890091E-003
  3.400000000000001E-003    6.593978946589824E-003
  3.500000000000001E-003    6.800968083364446E-003
  3.600000000000001E-003    7.012921078688884E-003
  3.700000000000001E-003    7.229895861630417E-003
  3.800000000000001E-003    7.451948000315985E-003
  3.900000000000001E-003    7.679130577660192E-003
  4.000000000000001E-003    7.911494523144267E-003
  4.100000000000001E-003    8.149088385443950E-003
  4.200000000000001E-003    8.391957595398821E-003
  4.300000000000001E-003    8.640145939190652E-003
  4.400000000000001E-003    8.893693321944975E-003
  4.500000000000001E-003    9.152636752420694E-003
  4.600000000000002E-003    9.417008938972852E-003
  4.700000000000001E-003    9.686841134263345E-003
  4.800000000000001E-003    9.962159985397900E-003
  4.900000000000002E-003    1.024298866299408E-002
  5.000000000000001E-003    1.052934576606927E-002
  5.100000000000001E-003    1.082124812660009E-002
  5.200000000000001E-003    1.111870564527118E-002
  5.300000000000002E-003    1.142172667104787E-002
  5.400000000000001E-003    1.173031315441673E-002
  5.500000000000001E-003    1.204446331528187E-002
  5.600000000000002E-003    1.236417056604177E-002
  5.700000000000001E-003    1.268942404246791E-002
  5.800000000000001E-003    1.302020694938888E-002
  5.900000000000002E-003    1.335649780760992E-002
  6.000000000000001E-003    1.369827019089255E-002
  6.100000000000001E-003    1.404549108520659E-002
  6.200000000000002E-003    1.439812279574467E-002
  6.300000000000002E-003    1.475612089445321E-002
  6.400000000000001E-003    1.511943574623496E-002
  6.500000000000001E-003    1.548801020242989E-002
  6.600000000000002E-003    1.586178325783244E-002
  6.700000000000001E-003    1.624068371807344E-002
  6.800000000000001E-003    1.662463580593810E-002
  6.900000000000002E-003    1.701355452726910E-002
  7.000000000000001E-003    1.740735169908736E-002
  7.100000000000001E-003    1.780592851417929E-002
  7.200000000000002E-003    1.820917895402461E-002
  7.300000000000002E-003    1.861699040256126E-002
  7.400000000000001E-003    1.902924168401328E-002
  7.500000000000001E-003    1.944580458692373E-002
  7.600000000000002E-003    1.986654242144239E-002
  7.700000000000001E-003    2.029130943360009E-002
  7.800000000000001E-003    2.071995302834628E-002
  7.900000000000001E-003    2.115231210735262E-002
  8.000000000000002E-003    2.158821557438561E-002
  8.100000000000001E-003    2.202748671596750E-002
  8.200000000000001E-003    2.246993708028635E-002
  8.300000000000002E-003    2.291537149794037E-002
  8.400000000000001E-003    2.336358429174738E-002
  8.500000000000002E-003    2.381436314524385E-002
  8.600000000000002E-003    2.426748693667820E-002
  8.700000000000001E-003    2.472272278957754E-002
  8.800000000000002E-003    2.517983021596222E-002
  8.900000000000002E-003    2.563856242956246E-002
  9.000000000000001E-003    2.609865874211797E-002
  9.100000000000002E-003    2.655985443165452E-002
  9.200000000000002E-003    2.702187288108761E-002
  9.300000000000001E-003    2.748442774812578E-002
  9.400000000000002E-003    2.794722551230963E-002
  9.500000000000001E-003    2.840996283168058E-002
  9.600000000000001E-003    2.887232687559199E-002
  9.700000000000002E-003    2.933399747484500E-002
  9.800000000000001E-003    2.979464459922575E-002
  9.900000000000001E-003    3.025392836086512E-002
  1.000000000000000E-002    3.071150019135383E-002
  1.010000000000000E-002    3.116700341269302E-002
  1.020000000000000E-002    3.162007267761912E-002
  1.030000000000000E-002    3.207033342772102E-002
  1.040000000000000E-002    3.251740143667845E-002
  1.050000000000000E-002    3.296088810191988E-002
  1.060000000000000E-002    3.340039358275809E-002
  1.070000000000000E-002    3.383551138525201E-002
  1.080000000000000E-002    3.426582544458824E-002
  1.090000000000000E-002    3.469091548010209E-002
  1.100000000000000E-002    3.511034821262826E-002
  1.110000000000000E-002    3.552369039350970E-002
  1.120000000000000E-002    3.593049497035418E-002
  1.130000000000000E-002    3.633031502007539E-002
  1.140000000000000E-002    3.672269203846151E-002
  1.150000000000000E-002    3.710716254699942E-002
  1.160000000000000E-002    3.748326263065515E-002
  1.170000000000000E-002    3.785051670418811E-002
  1.180000000000000E-002    3.820844648907280E-002
  1.190000000000000E-002    3.855657069557958E-002
  1.200000000000000E-002    3.889440253287477E-002
  1.210000000000000E-002    3.922145108799636E-002
  1.220000000000000E-002    3.953722089148752E-002
  1.230000000000000E-002    3.984121428510774E-002
  1.240000000000000E-002    4.013293264515995E-002
  1.250000000000000E-002    4.041187291082685E-002
  1.260000000000000E-002    4.067753298255673E-002
  1.270000000000000E-002    4.092940874896855E-002
  1.280000000000000E-002    4.116699185748465E-002
  1.290000000000000E-002    4.138977577471501E-002
  1.300000000000000E-002    4.159725475001392E-002
  1.310000000000000E-002    4.178892241755337E-002
  1.320000000000000E-002    4.196427403668010E-002
  1.330000000000000E-002    4.212280536850001E-002
  1.340000000000000E-002    4.226401616941804E-002
  1.350000000000000E-002    4.238741014342420E-002
  1.360000000000000E-002    4.249248783017612E-002
  1.370000000000000E-002    4.257875913839716E-002
  1.380000000000000E-002    4.264573735087589E-002
  1.390000000000000E-002    4.269294092370289E-002
  1.400000000000000E-002    4.271989514589288E-002
  1.410000000000000E-002    4.272612708058723E-002
  1.420000000000000E-002    4.271117591590649E-002
  1.430000000000000E-002    4.267458275308839E-002
  1.440000000000000E-002    4.261590227030980E-002
  1.450000000000000E-002    4.253469431257136E-002
  1.460000000000000E-002    4.243052974097751E-002
  1.470000000000000E-002    4.230298907708134E-002
  1.480000000000000E-002    4.215166328508789E-002
  1.490000000000000E-002    4.197615221507585E-002
  1.500000000000000E-002    4.177607352432680E-002
  1.510000000000000E-002    4.155104919042777E-002
  1.520000000000000E-002    4.130071983511803E-002
  1.530000000000000E-002    4.102474034766533E-002
  1.540000000000000E-002    4.072277797609829E-002
  1.550000000000000E-002    4.039451096675650E-002
  1.560000000000000E-002    4.003963907604902E-002
  1.570000000000000E-002    3.965787548598090E-002
  1.580000000000000E-002    3.924894829154291E-002
  1.590000000000000E-002    3.881260640228731E-002
  1.600000000000000E-002    3.834861272791829E-002
  1.610000000000000E-002    3.785675194874337E-002
  1.620000000000000E-002    3.733682302784092E-002
  1.630000000000000E-002    3.678864979177368E-002
  1.640000000000000E-002    3.621207086049629E-002
  1.650000000000000E-002    3.560694553880916E-002
  1.660000000000000E-002    3.497315886414568E-002
  1.670000000000000E-002    3.431061144572398E-002
  1.680000000000000E-002    3.361922946654322E-002
  1.690000000000000E-002    3.289895870340573E-002
  1.700000000000000E-002    3.214977255671003E-002
  1.710000000000000E-002    3.137166222411167E-002
  1.720000000000000E-002    3.056464447923312E-002
  1.730000000000000E-002    2.972875818002382E-002
  1.740000000000000E-002    2.886407017967119E-002
  1.750000000000000E-002    2.797066895261453E-002
  1.760000000000000E-002    2.704866961332033E-002
  1.770000000000000E-002    2.609820900909635E-002
  1.780000000000000E-002    2.511945290481382E-002
  1.790000000000000E-002    2.411259088017377E-002
  1.800000000000000E-002    2.307783820849279E-002
  1.810000000000000E-002    2.201543823514520E-002
  1.820000000000000E-002    2.092565698889476E-002
  1.830000000000000E-002    1.980878647975469E-002
  1.840000000000000E-002    1.866514590738329E-002
  1.850000000000000E-002    1.749508086084867E-002
  1.860000000000000E-002    1.629896221027911E-002
  1.870000000000000E-002    1.507718691671920E-002