 -4.000000000000000E-002    0.000000000000000E+000
 -3.990000000000000E-002    0.000000000000000E+000
 -3.980000000000000E-002    0.000000000000000E+000
 -3.970000000000000E-002    0.000000000000000E+000
 -3.960000000000000E-002    0.000000000000000E+000
 -3.950000000000000E-002    0.000000000000000E+000
 -3.940000000000000E-002    0.000000000000000E+000
 -3.930000000000000E-002    0.000000000000000E+000
 -3.920000000000000E-002    0.000000000000000E+000
 -3.910000000000000E-002    0.000000000000000E+000
 -3.900000000000000E-002    0.000000000000000E+000
 -3.890000000000000E-002    0.000000000000000E+000
 -3.880000000000000E-002    0.000000000000000E+000
 -3.870000000000000E-002    0.000000000000000E+000
 -3.860000000000000E-002    0.000000000000000E+000
 -3.850000000000000E-002    0.000000000000000E+000
 -3.840000000000000E-002    0.000000000000000E+000
 -3.830000000000000E-002    0.000000000000000E+000
 -3.820000000000000E-002    0.000000000000000E+000
 -3.810000000000000E-002    0.000000000000000E+000
 -3.800000000000000E-002    0.000000000000000E+000
 -3.790000000000000E-002    0.000000000000000E+000
 -3.780000000000000E-002    0.000000000000000E+000
 -3.770000000000000E-002    0.000000000000000E+000
 -3.760000000000000E-002    0.000000000000000E+000
 -3.750000000000000E-002    0.000000000000000E+000
 -3.740000000000000E-002    0.000000000000000E+000
 -3.730000000000000E-002    0.000000000000000E+000
 -3.720000000000000E-002   -5.908138235028213E-047
 -3.710000000000000E-002   -2.106669881842435E-046
 -3.700000000000000E-002   -7.685523504587290E-046
 -3.690000000000000E-002   -2.635769731321839E-045
 -3.680000000000000E-002   -8.332131046714368E-045
 -3.670000000000000E-002   -2.476319458232017E-044
 -3.660000000000000E-002   -6.890045495072392E-044
 -3.650000000000000E-002   -1.823105795053690E-043
 -3.640000000000000E-002   -4.586155271964285E-043
 -3.630000000000000E-002   -1.096948519570478E-042
 -3.620000000000000E-002   -2.501800457874138E-042
 -3.610000000000000E-002   -5.435481757776175E-042
 -3.600000000000000E-002   -1.124235536483931E-041
 -3.590000000000000E-002   -2.208634122003290E-041
 -3.580000000000000E-002   -4.104451942160206E-041
 -3.570000000000000E-002   -7.161996900613614E-041
 -3.560000000000000E-002   -1.157373830456357E-040
 -3.550000000000000E-002   -1.684481292640001E-040
 -3.540000000000000E-002   -2.062387722366470E-040
 -3.530000000000000E-002   -1.640870898198261E-040
 -3.520000000000000E-002    1.056084067967965E-040
 -3.510000000000000E-002    9.005407512323059E-040
 -3.500000000000000E-002    2.770091434689120E-039
 -3.490000000000000E-002    6.652847113973455E-039
 -3.480000000000000E-002    1.403633510161555E-038
 -3.470000000000000E-002    2.709343298111970E-038
 -3.460000000000000E-002    4.869394277149201E-038
 -3.450000000000000E-002    8.210224466895400E-038
 -3.440000000000000E-002    1.300495656691381E-037
 -3.430000000000000E-002    1.927192950799807E-037
 -3.420000000000000E-002    2.640332678535267E-037
 -3.410000000000000E-002    3.255350490144201E-037
 -3.400000000000000E-002    3.372380703750977E-037
 -3.390000000000000E-002    2.252017657427316E-037
 -3.380000000000000E-002   -1.334646390622986E-037
 -3.370000000000000E-002   -9.257362415870959E-037
 -3.360000000000000E-002   -2.412731840077414E-036
 -3.350000000000000E-002   -4.925516144125942E-036
 -3.340000000000000E-002   -8.832399717287297E-036
 -3.330000000000000E-002   -1.445789425928172E-035
 -3.320000000000000E-002   -2.192855950219719E-035
 -3.310000000000000E-002   -3.091891257683338E-035
 -3.300000000000000E-002   -4.027461824659158E-035
 -3.290000000000000E-002   -4.750467617345191E-035
 -3.280000000000000E-002   -4.816443750678929E-035
 -3.270000000000000E-002   -3.520216926124086E-035
 -3.260000000000000E-002    1.582693731866514E-036
 -3.250000000000000E-002    7.572115942913493E-035
 -3.240000000000000E-002    2.035283781278627E-034
 -3.230000000000000E-002    4.023386368214112E-034
 -3.220000000000000E-002    6.869316434045876E-034
 -3.210000000000000E-002    1.063527787989512E-033
 -3.200000000000000E-002    1.520821597276162E-033
 -3.190000000000000E-002    2.017811389306931E-033
 -3.180000000000000E-002    2.468739583238824E-033
 -3.170000000000000E-002    2.726358534663670E-033
 -3.160000000000000E-002    2.566015474403811E-033
 -3.150000000000000E-002    1.674698552004505E-033
 -3.140000000000000E-002   -3.488896921104850E-034
 -3.130000000000000E-002   -3.975186240348219E-033
 -3.120000000000000E-002   -9.695810815239122E-033
 -3.110000000000000E-002   -1.793620462872377E-032
 -3.100000000000000E-002   -2.891891353867859E-032
 -3.090000000000000E-002   -4.247055786561178E-032
 -3.080000000000000E-002   -5.777179308519880E-032
 -3.070000000000000E-002   -7.305987559428262E-032
 -3.060000000000000E-002   -8.530863044514039E-032
 -3.050000000000000E-002   -8.993067338931358E-032
 -3.040000000000000E-002   -8.057134850400727E-032
 -3.030000000000000E-002   -4.909142511796224E-032
 -3.020000000000000E-002    1.413703886384415E-032
 -3.010000000000000E-002    1.194742780889709E-031
 -3.000000000000000E-002    2.766372444046690E-031
 -2.990000000000000E-002    4.925551143501817E-031
 -2.980000000000000E-002    7.683455562435472E-031
 -2.970000000000000E-002    1.095384676853552E-030
 -2.960000000000000E-002    1.450580481067705E-030
 -2.950000000000000E-002    1.791162431493880E-030
 -2.940000000000000E-002    2.049572156881744E-030
 -2.930000000000000E-002    2.129377903796643E-030
 -2.920000000000000E-002    1.903522536637796E-030
 -2.910000000000000E-002    1.216609244771013E-030
 -2.900000000000000E-002   -1.067262924153963E-031
 -2.890000000000000E-002   -2.245107806942883E-030
 -2.880000000000000E-002   -5.353190492961323E-030
 -2.870000000000000E-002   -9.522202529570104E-030
 -2.860000000000000E-002   -1.472759415176647E-029
 -2.850000000000000E-002   -2.076489230713592E-029
 -2.840000000000000E-002   -2.717747430686194E-029
 -2.830000000000000E-002   -3.318341435985326E-029
 -2.820000000000000E-002   -3.761278537243587E-029
 -2.810000000000000E-002   -3.887142190933972E-029
 -2.800000000000000E-002   -3.495168946358951E-029
 -2.790000000000000E-002   -2.351436524953376E-029
 -2.780000000000000E-002   -2.067217890811894E-030
 -2.770000000000000E-002    3.173609143275769E-029
 -2.760000000000000E-002    7.966000762129156E-029
 -2.750000000000000E-002    1.423104258237287E-028
 -2.740000000000000E-002    2.184341561071001E-028
 -2.730000000000000E-002    3.041394172964687E-028
 -2.720000000000000E-002    3.921169553221545E-028
 -2.710000000000000E-002    4.709803298460407E-028
 -2.700000000000000E-002    5.248830686993240E-028
 -2.690000000000000E-002    5.336033724120887E-028
 -2.680000000000000E-002    4.733058561844366E-028
 -2.670000000000000E-002    3.181852579275966E-028
 -2.660000000000000E-002    4.315916980464927E-029
 -2.650000000000000E-002   -3.723025577852101E-028
 -2.640000000000000E-002   -9.392509494784180E-028
 -2.630000000000000E-002   -1.653448165530195E-027
 -2.620000000000000E-002   -2.489106515112869E-027
 -2.610000000000000E-002   -3.392851321053489E-027
 -2.600000000000000E-002   -4.278828089420673E-027
 -2.590000000000000E-002   -5.026086365176804E-027
 -2.580000000000000E-002   -5.479509386858635E-027
 -2.570000000000000E-002   -5.455567442083132E-027
 -2.560000000000000E-002   -4.754017988199282E-027
 -2.550000000000000E-002   -3.176303369442813E-027
 -2.540000000000000E-002   -5.508007361487636E-028
 -2.530000000000000E-002    3.235749969478572E-027
 -2.520000000000000E-002    8.202336933862004E-027
 -2.510000000000000E-002    1.423612429355895E-026
 -2.500000000000000E-002    2.105724286956601E-026
 -2.490000000000000E-002    2.819093664479117E-026
 -2.480000000000000E-002    3.495277177862786E-026
 -2.470000000000000E-002    4.045285631395529E-026
 -2.460000000000000E-002    4.362460762284205E-026
 -2.450000000000000E-002    4.328241084313302E-026
 -2.440000000000000E-002    3.821051506081313E-026
 -2.430000000000000E-002    2.728273201556646E-026
 -2.420000000000000E-002    9.609025771648038E-027
 -2.410000000000000E-002   -1.529876840651302E-026
 -2.400000000000000E-002   -4.735379840073527E-026
 -2.390000000000000E-002   -8.572897851666882E-026
 -2.380000000000000E-002   -1.287178668601253E-025
 -2.370000000000000E-002   -1.736414649375934E-025
 -2.360000000000000E-002   -2.168208791908979E-025
 -2.350000000000000E-002   -2.536341403491884E-025
 -2.340000000000000E-002   -2.786718183136736E-025
 -2.330000000000000E-002   -2.860010387768603E-025
 -2.320000000000000E-002   -2.695405368810531E-025
 -2.310000000000000E-002   -2.235416974156329E-025
 -2.300000000000000E-002   -1.431621864677103E-025
 -2.290000000000000E-002   -2.511008197097690E-026
 -2.280000000000000E-002    1.316719423747303E-025
 -2.270000000000000E-002    3.253204305038212E-025
 -2.260000000000000E-002    5.504089872080742E-025
 -2.250000000000000E-002    7.974028906634902E-025
 -2.240000000000000E-002    1.052270299727847E-024
 -2.230000000000000E-002    1.296316386374915E-024
 -2.220000000000000E-002    1.506313215563935E-024
 -2.210000000000000E-002    1.655001913412851E-024
 -2.200000000000000E-002    1.712045556001782E-024
 -2.190000000000000E-002    1.645506442268556E-024
 -2.180000000000000E-002    1.423907617440840E-024
 -2.170000000000000E-002    1.018910682901929E-024
 -2.160000000000000E-002    4.086014467453189E-025
 -2.150000000000000E-002   -4.186919047690280E-025
 -2.140000000000000E-002   -1.460202794737518E-024
 -2.130000000000000E-002   -2.694412417284268E-024
 -2.120000000000000E-002   -4.076989097836277E-024
 -2.110000000000000E-002   -5.537468979327048E-024
 -2.100000000000000E-002   -6.977273254721634E-024
 -2.090000000000000E-002   -8.269719321248840E-024
 -2.080000000000000E-002   -9.262710282860619E-024
 -2.070000000000000E-002   -9.784716783566607E-024
 -2.060000000000000E-002   -9.654514746334355E-024
 -2.050000000000000E-002   -8.694874137701880E-024
 -2.040000000000000E-002   -6.750013649510699E-024
 -2.030000000000000E-002   -3.706164900716426E-024
 -2.020000000000000E-002    4.859603320261957E-025
 -2.010000000000000E-002    5.788579984115026E-024
 -2.000000000000000E-002    1.205641755476373E-023
 -1.990000000000000E-002    1.902115798437010E-023
 -1.980000000000000E-002    2.628369748310490E-023
 -1.970000000000000E-002    3.331699212205441E-023
 -1.960000000000000E-002    3.948194284914170E-023
 -1.950000000000000E-002    4.405787757492063E-023
 -1.940000000000000E-002    4.628804843692710E-023
 -1.930000000000000E-002    4.543903200554789E-023
 -1.920000000000000E-002    4.087118316607716E-023
 -1.910000000000000E-002    3.211545725633144E-023
 -1.900000000000000E-002    1.895032041818779E-023
 -1.890000000000000E-002    1.471060257396668E-024
 -1.880000000000000E-002   -1.985680691901729E-023
 -1.870000000000000E-002   -4.416831169873532E-023
 -1.860000000000000E-002   -7.020121426329039E-023
 -1.850000000000000E-002   -9.633477176148685E-023
 -1.840000000000000E-002   -1.206672662763423E-022
 -1.830000000000000E-002   -1.411307161116340E-022
 -1.820000000000000E-002   -1.556369729840503E-022
 -1.810000000000000E-002   -1.622450978432567E-022
 -1.800000000000000E-002   -1.593362504653852E-022
 -1.790000000000000E-002   -1.457794819367866E-022
 -1.780000000000000E-002   -1.210705556456647E-022
 -1.770000000000000E-002   -8.542683428575715E-023
 -1.760000000000000E-002   -3.982382068694578E-023
 -1.750000000000000E-002    1.403570295567490E-023
 -1.740000000000000E-002    7.382259949163592E-023
 -1.730000000000000E-002    1.367464843337518E-022
 -1.720000000000000E-002    1.997710146127847E-022
 -1.710000000000000E-002    2.598569737638951E-022
 -1.700000000000000E-002    3.142052527787965E-022
 -1.690000000000000E-002    3.604674024434731E-022
 -1.680000000000000E-002    3.968930198406533E-022
 -1.670000000000000E-002    4.223864477700682E-022
 -1.660000000000000E-002    4.364545813332530E-022
 -1.650000000000000E-002    4.390416749246884E-022
 -1.640000000000000E-002    4.302593463741018E-022
 -1.630000000000000E-002    4.100402665673668E-022
 -1.620000000000000E-002    3.777576963493005E-022
 -1.610000000000000E-002    3.318670714696958E-022
 -1.600000000000000E-002    2.696339604231248E-022
 -1.590000000000000E-002    1.870132049582573E-022
 -1.580000000000000E-002    7.873805023428407E-023
 -1.570000000000000E-002   -6.133688859001034E-023
 -1.560000000000000E-002   -2.396202243599066E-022
 -1.550000000000000E-002   -4.619029500983248E-022
 -1.540000000000000E-002   -7.322534367058937E-022
 -1.530000000000000E-002   -1.051762513597524E-021
 -1.520000000000000E-002   -1.417238895950440E-021
 -1.510000000000000E-002   -1.819977999174625E-021
 -1.500000000000000E-002   -2.244737260409416E-021
 -1.490000000000000E-002   -2.669051453647690E-021
 -1.480000000000000E-002   -3.063003498995443E-021
 -1.470000000000000E-002   -3.389542164478877E-021
 -1.460000000000000E-002   -3.605409893754611E-021
 -1.450000000000000E-002   -3.662693171510898E-021
 -1.440000000000000E-002   -3.510984571608283E-021
 -1.430000000000000E-002   -3.100102534224416E-021
 -1.420000000000000E-002   -2.383292776740474E-021
 -1.410000000000000E-002   -1.320834638972895E-021
 -1.400000000000000E-002    1.160388213718165E-022
 -1.390000000000000E-002    1.940982288379225E-021
 -1.380000000000000E-002    4.148214948533820E-021
 -1.370000000000000E-002    6.708089241200761E-021
 -1.360000000000000E-002    9.562658874179274E-021
 -1.350000000000000E-002    1.262136279806579E-020
 -1.340000000000000E-002    1.575704635206563E-020
 -1.330000000000000E-002    1.880266437594007E-020
 -1.320000000000000E-002    2.154915055445983E-020
 -1.310000000000000E-002    2.374511747523773E-020
 -1.300000000000000E-002    2.509925703675923E-020
 -1.290000000000000E-002    2.528639890385226E-020
 -1.280000000000000E-002    2.395832831038353E-020
 -1.270000000000000E-002    2.076037605905103E-020
 -1.260000000000000E-002    1.535464382373240E-020
 -1.250000000000000E-002    7.450317670561649E-021
 -1.240000000000000E-002   -3.159029953305911E-021
 -1.230000000000000E-002   -1.655203672718710E-020
 -1.220000000000000E-002   -3.263195715839055E-020
 -1.210000000000000E-002   -5.107782093634419E-020
 -1.200000000000000E-002   -7.129850123079552E-020
 -1.190000000000000E-002   -9.239485187114044E-020
 -1.180000000000000E-002   -1.131360643980127E-019
 -1.170000000000000E-002   -1.319566527750698E-019
 -1.160000000000000E-002   -1.469808727912705E-019
 -1.150000000000000E-002   -1.560801786149653E-019
 -1.140000000000000E-002   -1.569684431318396E-019
 -1.130000000000000E-002   -1.473371052932920E-019
 -1.120000000000000E-002   -1.250295149142490E-019
 -1.110000000000000E-002   -8.825020369650420E-020
 -1.100000000000000E-002   -3.580046927889757E-020
 -1.090000000000000E-002    3.267276285407006E-020
 -1.080000000000000E-002    1.164317871981884E-019
 -1.070000000000000E-002    2.134277327050840E-019
 -1.060000000000000E-002    3.201284963647077E-019
 -1.050000000000000E-002    4.314202205009508E-019
 -1.040000000000000E-002    5.406066482467345E-019
 -1.030000000000000E-002    6.395289156187132E-019
 -1.020000000000000E-002    7.188222342606308E-019
 -1.010000000000000E-002    7.683210515116583E-019
 -1.000000000000000E-002    7.776120619746246E-019
 -9.899999999999999E-003    7.367265035744496E-019
 -9.800000000000000E-003    6.369482627862352E-019
 -9.699999999999999E-003    4.717038534041573E-019
 -9.599999999999999E-003    2.374854415242764E-019
 -9.500000000000000E-003   -6.525139476081430E-020
 -9.399999999999999E-003   -4.312825817891212E-019
 -9.299999999999999E-003   -8.499782764694132E-019
 -9.200000000000000E-003   -1.304907172508097E-018
 -9.099999999999999E-003   -1.773756802007436E-018
 -8.999999999999999E-003   -2.228631655729995E-018
 -8.900000000000000E-003   -2.636782283990236E-018
 -8.799999999999999E-003   -2.961795690700415E-018
 -8.699999999999999E-003   -3.165252770580188E-018
 -8.600000000000000E-003   -3.208833439498161E-018
 -8.499999999999999E-003   -3.056817525635691E-018
 -8.399999999999999E-003   -2.678891706402217E-018
 -8.300000000000000E-003   -2.053145011652544E-018
 -8.199999999999999E-003   -1.169098992176553E-018
 -8.100000000000000E-003   -3.059095529869627E-020
 -8.000000000000000E-003    1.341696621155853E-018
 -7.899999999999999E-003    2.908277537498495E-018
 -7.800000000000000E-003    4.609704286187846E-018
 -7.699999999999999E-003    6.366428822855735E-018
 -7.599999999999999E-003    8.079881708179042E-018
 -7.499999999999999E-003    9.634931422885044E-018
 -7.399999999999999E-003    1.090384114049320E-017
 -7.299999999999999E-003    1.175175458438631E-017
 -7.199999999999999E-003    1.204367878484886E-017
 -7.100000000000000E-003    1.165281574601390E-017
 -6.999999999999999E-003    1.046999175811713E-017
 -6.899999999999999E-003    8.413815406780398E-018
 -6.800000000000000E-003    5.441082652186170E-018
 -6.699999999999999E-003    1.556814161939484E-018
 -6.599999999999999E-003   -3.176752527912506E-018
 -6.499999999999999E-003   -8.632999552865008E-018
 -6.399999999999999E-003   -1.461638638675794E-017
 -6.299999999999999E-003   -2.086134347880159E-017
 -6.199999999999999E-003   -2.703532248009279E-017
 -6.100000000000000E-003   -3.274663898976766E-017
 -5.999999999999999E-003   -3.755752615276379E-017
 -5.899999999999999E-003   -4.100258037422519E-017
 -5.800000000000000E-003   -4.261248965258903E-017
 -5.699999999999999E-003   -4.194249170027728E-017
 -5.599999999999999E-003   -3.860471049799583E-017
 -5.499999999999999E-003   -3.230301122124301E-017
 -5.399999999999999E-003   -2.286862147060576E-017
 -5.299999999999999E-003   -1.029438148011518E-017
 -5.199999999999999E-003    5.234785913205329E-018
 -5.099999999999999E-003    2.331789249835328E-017
 -4.999999999999999E-003    4.332308214203817E-017
 -4.899999999999999E-003    6.438465328382427E-017
 -4.799999999999999E-003    8.541421933169698E-017
 -4.699999999999999E-003    1.051279716228489E-016
 -4.599999999999999E-003    1.220910204878137E-016
 -4.499999999999999E-003    1.347792145544262E-016
 -4.399999999999999E-003    1.416575690585044E-016
 -4.299999999999999E-003    1.412731878520031E-016
 -4.199999999999999E-003    1.323594801497083E-016
 -4.099999999999999E-003    1.139469415861880E-016
 -3.999999999999999E-003    8.547474097017233E-017
 -3.899999999999999E-003    4.689617191413029E-017
 -3.799999999999999E-003   -1.229638755068451E-018
 -3.699999999999999E-003   -5.766780615895281E-017
 -3.599999999999999E-003   -1.204676861046728E-016
 -3.499999999999999E-003   -1.869601699950730E-016
 -3.399999999999999E-003   -2.537987911813139E-016
 -3.299999999999999E-003   -3.170491094442165E-016
 -3.199999999999999E-003   -3.723290754383264E-016
 -3.099999999999999E-003   -4.149998775800963E-016
 -2.999999999999999E-003   -4.404038387581355E-016
 -2.899999999999999E-003   -4.441422464434955E-016
 -2.799999999999999E-003   -4.223830098151484E-016
 -2.699999999999999E-003   -3.721833768021004E-016
 -2.599999999999999E-003   -2.918114368664527E-016
 -2.499999999999999E-003   -1.810459253747978E-016
 -2.399999999999999E-003   -4.143340008606036E-017
 -2.299999999999999E-003    1.235199052827847E-016
 -2.199999999999999E-003    3.082429294772311E-016
 -2.099999999999999E-003    5.051015655004338E-016
 -1.999999999999999E-003    7.045235177202338E-016
 -1.899999999999999E-003    8.952582159024646E-016
 -1.799999999999999E-003    1.064776514716141E-015
 -1.699999999999999E-003    1.199809753274242E-015
 -1.599999999999999E-003    1.287014413155384E-015
 -1.499999999999999E-003    1.313745977444033E-015
 -1.399999999999999E-003    1.268909839871034E-015
 -1.299999999999999E-003    1.143853116295121E-015
 -1.199999999999999E-003    9.332493751233266E-016
 -1.099999999999999E-003    6.359233767096692E-016
 -9.999999999999989E-004    2.555600036807220E-016
 -8.999999999999990E-004   -1.987651527936020E-016
 -7.999999999999990E-004   -7.122890539753030E-016
 -6.999999999999989E-004   -1.264551854666976E-015
 -5.999999999999990E-004   -1.829720474682977E-015
 -4.999999999999989E-004   -2.377273233218489E-015
 -3.999999999999989E-004   -2.873063644058661E-015
 -2.999999999999989E-004   -3.280754979672077E-015
 -1.999999999999989E-004   -3.563599493469992E-015
 -9.999999999999892E-005   -3.686508351488592E-015
  1.084202172485504E-018   -3.618334869928784E-015
  1.000000000000011E-004   -3.334269862967838E-015
  2.000000000000011E-004   -2.818224265872504E-015
  3.000000000000011E-004   -2.065058427107406E-015
  4.000000000000011E-004   -1.082503028191601E-015
  5.000000000000011E-004    1.073858432039871E-016
  6.000000000000011E-004    1.467390474659963E-015
  7.000000000000011E-004    2.945056737220242E-015
  8.000000000000011E-004    4.473496226362714E-015
  9.000000000000012E-004    5.973147054568297E-015
  1.000000000000001E-003    7.354526297351031E-015
  1.100000000000001E-003    8.521962559606265E-015
  1.200000000000001E-003    9.378221857069674E-015
  1.300000000000001E-003    9.829899077319832E-015
  1.400000000000001E-003    9.793347691234182E-015
  1.500000000000001E-003    9.200896648391587E-015
  1.600000000000001E-003    8.007015568331682E-015
  1.700000000000001E-003    6.194065144342182E-015
  1.800000000000001E-003    3.777239230419057E-015
  1.900000000000001E-003    8.082914180823335E-016
  2.000000000000001E-003   -2.622342428745182E-015
  2.100000000000001E-003   -6.385363522972115E-015
  2.200000000000001E-003   -1.031466898012229E-014
  2.300000000000001E-003   -1.421180470190950E-014
  2.400000000000001E-003   -1.785291859510806E-014
  2.500000000000001E-003   -2.099810859019315E-014
  2.600000000000001E-003   -2.340297698870503E-014
  2.700000000000001E-003   -2.483199208713308E-014
  2.800000000000001E-003   -2.507312626036423E-014
  2.900000000000001E-003   -2.395309580259685E-014
  3.000000000000001E-003   -2.135239259708962E-014
  3.100000000000001E-003   -1.721920103939409E-014
  3.200000000000001E-003   -1.158126878048448E-014
  3.300000000000001E-003   -4.554756346513085E-015
  3.400000000000001E-003    3.650820484150037E-015
  3.500000000000001E-003    1.273235237971787E-014
  3.600000000000001E-003    2.229820329130817E-014
  3.700000000000001E-003    3.187899814132997E-014
  3.800000000000001E-003    4.094417379691030E-014
  3.900000000000001E-003    4.892415140310144E-014
  4.000000000000001E-003    5.523751061306960E-014
  4.100000000000001E-003    5.932222746187370E-014
  4.200000000000001E-003    6.066973446251490E-014
  4.300000000000001E-003    5.886018279377485E-014
  4.400000000000001E-003    5.359704993867214E-014
  4.500000000000001E-003    4.473904257562737E-014
  4.600000000000002E-003    3.232714669958628E-014
  4.700000000000001E-003    1.660471026711273E-014
  4.800000000000001E-003   -1.971412653401648E-015
  4.900000000000002E-003   -2.273039295204539E-014
  5.000000000000001E-003   -4.479893196076034E-014
  5.100000000000001E-003   -6.712549310716772E-014
  5.200000000000001E-003   -8.851741686175243E-014
  5.300000000000002E-003   -1.076903942969951E-013
  5.400000000000001E-003   -1.233288860137089E-013
  5.500000000000001E-003   -1.341554115993445E-013
  5.600000000000002E-003   -1.390059492222325E-013
  5.700000000000001E-003   -1.369077282969594E-013
  5.800000000000001E-003   -1.271554633533749E-013
  5.900000000000002E-003   -1.093815895333227E-013
  6.000000000000001E-003   -8.361571723523838E-014
  6.100000000000001E-003   -5.032899955868735E-014
  6.200000000000002E-003   -1.045887985268415E-014
  6.300000000000002E-003    3.458913293127215E-014
  6.400000000000001E-003    8.296546142530667E-014
  6.500000000000001E-003    1.324278654221196E-013
  6.600000000000002E-003    1.804204169862839E-013
  6.700000000000001E-003    2.241786632120761E-013
  6.800000000000001E-003    2.608582013768693E-013
  6.900000000000002E-003    2.876819484082667E-013
  7.000000000000001E-003    3.021000677763948E-013
  7.100000000000001E-003    3.019549347519639E-013
  7.200000000000002E-003    2.856427121065224E-013
  7.300000000000002E-003    2.522618437455870E-013
  7.400000000000001E-003    2.017391272348678E-013
  7.500000000000001E-003    1.349236523003667E-013
  7.600000000000002E-003    5.364011720623526E-014
  7.700000000000001E-003   -3.930605190994117E-014
  7.800000000000001E-003   -1.401768861365015E-013
  7.900000000000001E-003   -2.444066748725163E-013
  8.000000000000002E-003   -3.467632800564468E-013
  8.100000000000001E-003   -4.415631569181661E-013
  8.200000000000001E-003   -5.229337554693049E-013
  8.300000000000002E-003   -5.851134549650293E-013
  8.400000000000001E-003   -6.227765690039643E-013
  8.500000000000002E-003   -6.313680145350023E-013
  8.600000000000002E-003   -6.074297961753039E-013
  8.700000000000001E-003   -5.489007440969312E-013
  8.800000000000002E-003   -4.553699567380641E-013
  8.900000000000002E-003   -3.282659803531938E-013
  9.000000000000001E-003   -1.709637305725649E-013
  9.100000000000002E-003    1.120389724925896E-014
  9.200000000000002E-003    2.110401199478315E-013
  9.300000000000001E-003    4.196891144382549E-013
  9.400000000000002E-003    6.269517350480835E-013
  9.500000000000001E-003    8.217043500092953E-013
  9.600000000000001E-003    9.924087520744895E-013
  9.700000000000002E-003    1.127693401842751E-012
  9.800000000000001E-003    1.216981031849421E-012
  9.900000000000001E-003    1.251132692222208E-012
  1.000000000000000E-002    1.223074512679043E-012
  1.010000000000000E-002    1.128371731737732E-012
  1.020000000000000E-002    9.657134147734228E-013
  1.030000000000000E-002    7.372733420907516E-013
  1.040000000000000E-002    4.489164324489095E-013
  1.050000000000000E-002    1.102251637044280E-013
  1.060000000000000E-002   -2.656714976917160E-013
  1.070000000000000E-002   -6.624748673175526E-013
  1.080000000000000E-002   -1.061297581234197E-012
  1.090000000000000E-002   -1.441435579230696E-012
  1.100000000000000E-002   -1.781305429799861E-012
  1.110000000000000E-002   -2.059511605575113E-012
  1.120000000000000E-002   -2.255998294864375E-012
  1.130000000000000E-002   -2.353229311272561E-012
  1.140000000000000E-002   -2.337337674894865E-012
  1.150000000000000E-002   -2.199178028609462E-012
  1.160000000000000E-002   -1.935220029517198E-012
  1.170000000000000E-002   -1.548218646958408E-012
  1.180000000000000E-002   -1.047608628760453E-012
  1.190000000000000E-002   -4.495788736640831E-013
  1.200000000000000E-002    2.232057032994347E-013
  1.210000000000000E-002    9.422483548143055E-013
  1.220000000000000E-002    1.674225441366427E-012
  1.230000000000000E-002    2.382331370479049E-012
  1.240000000000000E-002    3.027918806524764E-012
  1.250000000000000E-002    3.572370142332172E-012
  1.260000000000000E-002    3.979121669821416E-012
  1.270000000000000E-002    4.215745526677440E-012
  1.280000000000000E-002    4.255982579523992E-012
  1.290000000000000E-002    4.081616278132129E-012
  1.300000000000000E-002    3.684075145214261E-012
  1.310000000000000E-002    3.065657808038404E-012
  1.320000000000000E-002    2.240285807663435E-012
  1.330000000000000E-002    1.233707998952705E-012
  1.340000000000000E-002    8.310109536451665E-014
  1.350000000000000E-002   -1.163958701282545E-012
  1.360000000000000E-002   -2.451148718198585E-012
  1.370000000000000E-002   -3.715636973738972E-012
  1.380000000000000E-002   -4.890833646496646E-012
  1.390000000000000E-002   -5.909551508066723E-012
  1.400000000000000E-002   -6.707439988657708E-012
  1.410000000000000E-002   -7.226531687144859E-012
  1.420000000000000E-002   -7.418730823060987E-012
  1.430000000000000E-002   -7.249047343632175E-012
  1.440000000000000E-002   -6.698397457761347E-012
  1.450000000000000E-002   -5.765784092280305E-012
  1.460000000000000E-002   -4.469706274954983E-012
  1.470000000000000E-002   -2.848658908127127E-012
  1.480000000000000E-002   -9.606382024777260E-013
  1.490000000000000E-002    1.118400458608413E-012
  1.500000000000000E-002    3.297120139863066E-012
  1.510000000000000E-002    5.472365620609301E-012
  1.520000000000000E-002    7.533581837188522E-012
  1.530000000000000E-002    9.367937390293542E-012
  1.540000000000000E-002    1.086592413800730E-011
  1.550000000000000E-002    1.192717711951608E-011
  1.560000000000000E-002    1.246623965626533E-011
  1.570000000000000E-002    1.241796422340601E-011
  1.580000000000000E-002    1.174224796304180E-011
  1.590000000000000E-002    1.042781732428297E-011
  1.600000000000000E-002    8.494801742053466E-012
  1.610000000000000E-002    5.995890939833692E-012
  1.620000000000000E-002    3.015911661322370E-012
  1.630000000000000E-002   -3.302409814942509E-013
  1.640000000000000E-002   -3.901338776067941E-012
  1.650000000000000E-002   -7.535119756222624E-012
  1.660000000000000E-002   -1.105499567130087E-011
  1.670000000000000E-002   -1.427790846318225E-011
  1.680000000000000E-002   -1.702302546874877E-011
  1.690000000000000E-002   -1.912087339396098E-011
  1.700000000000000E-002   -2.042248641414499E-011
  1.710000000000000E-002   -2.080811614311070E-011
  1.720000000000000E-002   -2.019503446216261E-011
  1.730000000000000E-002   -1.854399852189229E-011
  1.740000000000000E-002   -1.586396594722022E-011
  1.750000000000000E-002   -1.221473482772615E-011
  1.760000000000000E-002   -7.707256796623550E-012
  1.770000000000000E-002   -2.501470669236301E-012
  1.780000000000000E-002    3.198374562451410E-012
  1.790000000000000E-002    9.150815113468937E-012
  1.800000000000000E-002    1.508649216935551E-011
  1.810000000000000E-002    2.071933788860749E-011
  1.820000000000000E-002    2.575921912752944E-011
  1.830000000000000E-002    2.992548360295852E-011
  1.840000000000000E-002    3.296082017687006E-011
  1.850000000000000E-002    3.464478476446838E-011
  1.860000000000000E-002    3.480632284813993E-011
  1.870000000000000E-002    3.333465775789562E-011