 -4.000000000000000E-002    0.000000000000000E+000
 -3.990000000000000E-002    0.000000000000000E+000
 -3.980000000000000E-002    2.255132742400345E-010
 -3.970000000000000E-002    1.015054180651837E-009
 -3.960000000000000E-002    2.707000148305352E-009
 -3.950000000000000E-002    5.541138142530594E-009
 -3.940000000000000E-002    9.587170644394151E-009
 -3.930000000000000E-002    1.470811722136476E-008
 -3.920000000000000E-002    2.056165582384445E-008
 -3.910000000000000E-002    2.663709923300242E-008
 -3.900000000000000E-002    3.232134689524438E-008
 -3.890000000000000E-002    3.698332934967533E-008
 -3.880000000000000E-002    4.006418949780955E-008
 -3.870000000000000E-002    4.116085698567973E-008
 -3.860000000000000E-002    4.009026166598509E-008
 -3.850000000000000E-002    3.692521795971725E-008
 -3.840000000000000E-002    3.199684277799373E-008
 -3.830000000000000E-002    2.586229355680235E-008
 -3.820000000000000E-002    1.924222672183452E-008
 -3.810000000000000E-002    1.293336393625719E-008
 -3.800000000000000E-002    7.708988160509609E-009
 -3.790000000000000E-002    4.220589567415129E-009
 -3.780000000000000E-002    2.909061310733348E-009
 -3.770000000000000E-002    3.942726329188194E-009
 -3.760000000000000E-002    7.185668326364345E-009
 -3.750000000000000E-002    1.220227610694539E-008
 -3.740000000000000E-002    1.830039834651743E-008
 -3.730000000000000E-002    2.460564433959889E-008
 -3.720000000000000E-002    3.015844009892599E-008
 -3.710000000000000E-002    3.402638427331890E-008
 -3.700000000000000E-002    3.541048762136976E-008
 -3.690000000000000E-002    3.374127098001986E-008
 -3.680000000000000E-002    2.874445081447843E-008
 -3.670000000000000E-002    2.047352536773475E-008
 -3.660000000000000E-002    9.296951644914066E-009
 -3.650000000000000E-002   -4.149511895451700E-009
 -3.640000000000000E-002   -1.905307116470860E-008
 -3.630000000000000E-002   -3.453953959375592E-008
 -3.620000000000000E-002   -4.979775346204815E-008
 -3.610000000000000E-002   -6.421168744668271E-008
 -3.600000000000000E-002   -7.746959278385225E-008
 -3.590000000000000E-002   -8.964430107006872E-008
 -3.580000000000000E-002   -1.012321354292968E-007
 -3.570000000000000E-002   -1.131444135283341E-007
 -3.560000000000000E-002   -1.266385753516420E-007
 -3.550000000000000E-002   -1.432125446778334E-007
 -3.540000000000000E-002   -1.644648107367686E-007
 -3.530000000000000E-002   -1.919169580925787E-007
 -3.520000000000000E-002   -2.268452430051661E-007
 -3.510000000000000E-002   -2.701133986184576E-007
 -3.500000000000000E-002   -3.220444783907721E-007
 -3.490000000000000E-002   -3.823442608509096E-007
 -3.480000000000000E-002   -4.500627457681632E-007
 -3.470000000000000E-002   -5.236366098976623E-007
 -3.460000000000000E-002   -6.009911722953905E-007
 -3.450000000000000E-002   -6.796915861623256E-007
 -3.440000000000000E-002   -7.571358755587069E-007
 -3.430000000000000E-002   -8.307737308405065E-007
 -3.420000000000000E-002   -8.983266090098847E-007
 -3.410000000000000E-002   -9.579878087468948E-007
 -3.400000000000000E-002   -1.008580299846742E-006
 -3.390000000000000E-002   -1.049673919264960E-006
 -3.380000000000000E-002   -1.081611089696173E-006
 -3.370000000000000E-002   -1.105486146811433E-006
 -3.360000000000000E-002   -1.123042121503953E-006
 -3.350000000000000E-002   -1.136523065338757E-006
 -3.340000000000000E-002   -1.148484904922795E-006
 -3.330000000000000E-002   -1.161571210995443E-006
 -3.320000000000000E-002   -1.178310411531038E-006
 -3.310000000000000E-002   -1.200924669242269E-006
 -3.300000000000000E-002   -1.231194458617359E-006
 -3.290000000000000E-002   -1.270360772434323E-006
 -3.280000000000000E-002   -1.319111189466202E-006
 -3.270000000000000E-002   -1.377620111191828E-006
 -3.260000000000000E-002   -1.445659740172212E-006
 -3.250000000000000E-002   -1.522741412643237E-006
 -3.240000000000000E-002   -1.608272145527456E-006
 -3.230000000000000E-002   -1.701751986317538E-006
 -3.220000000000000E-002   -1.802957677531319E-006
 -3.210000000000000E-002   -1.912016889633719E-006
 -3.200000000000000E-002   -2.029535691667671E-006
 -3.190000000000000E-002   -2.156556897773282E-006
 -3.180000000000000E-002   -2.294558599938361E-006
 -3.170000000000000E-002   -2.445324641222068E-006
 -3.160000000000000E-002   -2.610776935153295E-006
 -3.150000000000000E-002   -2.792782650975586E-006
 -3.140000000000000E-002   -2.993013674579735E-006
 -3.130000000000000E-002   -3.212667530915664E-006
 -3.120000000000000E-002   -3.452441271497553E-006
 -3.110000000000000E-002   -3.712354876481047E-006
 -3.100000000000000E-002   -3.991777870585093E-006
 -3.090000000000000E-002   -4.289411219065539E-006
 -3.080000000000000E-002   -4.603516742725767E-006
 -3.070000000000000E-002   -4.931961355749155E-006
 -3.060000000000000E-002   -5.272526786798183E-006
 -3.050000000000000E-002   -5.623037096403203E-006
 -3.040000000000000E-002   -5.981732713710691E-006
 -3.030000000000000E-002   -6.347229723907661E-006
 -3.020000000000000E-002   -6.718937190500280E-006
 -3.010000000000000E-002   -7.096930033336085E-006
 -3.000000000000000E-002   -7.482132253857924E-006
 -2.990000000000000E-002   -7.876180933291289E-006
 -2.980000000000000E-002   -8.281340186998414E-006
 -2.970000000000000E-002   -8.700349768986962E-006
 -2.960000000000000E-002   -9.136283953606127E-006
 -2.950000000000000E-002   -9.592264248236410E-006
 -2.940000000000000E-002   -1.007143714483973E-005
 -2.930000000000000E-002   -1.057665315405223E-005
 -2.920000000000000E-002   -1.111051406891943E-005
 -2.910000000000000E-002   -1.167529429574497E-005
 -2.900000000000000E-002   -1.227295308479901E-005
 -2.890000000000000E-002   -1.290513954998245E-005
 -2.880000000000000E-002   -1.357342565060137E-005
 -2.870000000000000E-002   -1.427927623928849E-005
 -2.860000000000000E-002   -1.502435132843904E-005
 -2.850000000000000E-002   -1.581044408016281E-005
 -2.840000000000000E-002   -1.663969063654217E-005
 -2.830000000000000E-002   -1.751458192256146E-005
 -2.820000000000000E-002   -1.843789188787394E-005
 -2.810000000000000E-002   -1.941266307774832E-005
 -2.800000000000000E-002   -2.044207797516692E-005
 -2.790000000000000E-002   -2.152934178130324E-005
 -2.780000000000000E-002   -2.267743378925259E-005
 -2.770000000000000E-002   -2.388900472561663E-005
 -2.760000000000000E-002   -2.516603139058845E-005
 -2.750000000000000E-002   -2.651010111415160E-005
 -2.740000000000000E-002   -2.792211887992912E-005
 -2.730000000000000E-002   -2.940247675966580E-005
 -2.720000000000000E-002   -3.095086105378233E-005
 -2.710000000000000E-002   -3.256671267235872E-005
 -2.700000000000000E-002   -3.424932842869931E-005
 -2.690000000000000E-002   -3.599810315609990E-005
 -2.680000000000000E-002   -3.781266812490726E-005
 -2.670000000000000E-002   -3.969324928338824E-005
 -2.660000000000000E-002   -4.164114326253175E-005
 -2.650000000000000E-002   -4.365785281586448E-005
 -2.640000000000000E-002   -4.574666767809352E-005
 -2.630000000000000E-002   -4.791126755096227E-005
 -2.620000000000000E-002   -5.015676828735668E-005
 -2.610000000000000E-002   -5.248871449690180E-005
 -2.600000000000000E-002   -5.491366135401536E-005
 -2.590000000000000E-002   -5.743839083037397E-005
 -2.580000000000000E-002   -6.006988328262049E-005
 -2.570000000000000E-002   -6.281513997090198E-005
 -2.560000000000000E-002   -6.568087431920735E-005
 -2.550000000000000E-002   -6.867363312353905E-005
 -2.540000000000000E-002   -7.179934915915525E-005
 -2.530000000000000E-002   -7.506350459465143E-005
 -2.520000000000000E-002   -7.847085954140764E-005
 -2.510000000000000E-002   -8.202571948999699E-005
 -2.500000000000000E-002   -8.573279976769547E-005
 -2.490000000000000E-002   -8.959617450372544E-005
 -2.480000000000000E-002   -9.362004204835871E-005
 -2.470000000000000E-002   -9.780808163493233E-005
 -2.460000000000000E-002   -1.021651489851521E-004
 -2.450000000000000E-002   -1.066958776668769E-004
 -2.440000000000000E-002   -1.114055846523074E-004
 -2.430000000000000E-002   -1.162990131210126E-004
 -2.420000000000000E-002   -1.213818452006649E-004
 -2.410000000000000E-002   -1.266598094995372E-004
 -2.400000000000000E-002   -1.321388235657845E-004
 -2.390000000000000E-002   -1.378244187698260E-004
 -2.380000000000000E-002   -1.437219520079747E-004
 -2.370000000000000E-002   -1.498363415335744E-004
 -2.360000000000000E-002   -1.561734191607780E-004
 -2.350000000000000E-002   -1.627366902913251E-004
 -2.340000000000000E-002   -1.695306500595791E-004
 -2.330000000000000E-002   -1.765600507844908E-004
 -2.320000000000000E-002   -1.838285321057636E-004
 -2.310000000000000E-002   -1.913414086989265E-004
 -2.300000000000000E-002   -1.991029271054836E-004
 -2.290000000000000E-002   -2.071194522478784E-004
 -2.280000000000000E-002   -2.153963881363153E-004
 -2.270000000000000E-002   -2.239414675054008E-004
 -2.260000000000000E-002   -2.327616426594900E-004
 -2.250000000000000E-002   -2.418661764498399E-004
 -2.240000000000000E-002   -2.512640213426574E-004
 -2.230000000000000E-002   -2.609650102867781E-004
 -2.220000000000000E-002   -2.709795751404311E-004
 -2.210000000000000E-002   -2.813182810163144E-004
 -2.200000000000000E-002   -2.919903310529149E-004
 -2.190000000000000E-002   -3.030063969804335E-004
 -2.180000000000000E-002   -3.143747739539730E-004
 -2.170000000000000E-002   -3.261046812796076E-004
 -2.160000000000000E-002   -3.382053452272217E-004
 -2.150000000000000E-002   -3.506838775745981E-004
 -2.140000000000000E-002   -3.635466985616618E-004
 -2.130000000000000E-002   -3.767996488247532E-004
 -2.120000000000000E-002   -3.904498477344288E-004
 -2.110000000000000E-002   -4.045026550334721E-004
 -2.100000000000000E-002   -4.189636796301495E-004
 -2.090000000000000E-002   -4.338385674957750E-004
 -2.080000000000000E-002   -4.491339028461737E-004
 -2.070000000000000E-002   -4.648566347508348E-004
 -2.060000000000000E-002   -4.810128868309718E-004
 -2.050000000000000E-002   -4.976103814064324E-004
 -2.040000000000000E-002   -5.146580355203101E-004
 -2.030000000000000E-002   -5.321617208364155E-004
 -2.020000000000000E-002   -5.501284229652344E-004
 -2.010000000000000E-002   -5.685648825135125E-004
 -2.000000000000000E-002   -5.874757718801237E-004
 -1.990000000000000E-002   -6.068707208065419E-004
 -1.980000000000000E-002   -6.267546848590204E-004
 -1.970000000000000E-002   -6.471306703186670E-004
 -1.960000000000000E-002   -6.680041141446493E-004
 -1.950000000000000E-002   -6.893806579216658E-004
 -1.940000000000000E-002   -7.112614069663056E-004
 -1.930000000000000E-002   -7.336520889355989E-004
 -1.920000000000000E-002   -7.565535457700152E-004
 -1.910000000000000E-002   -7.799688786895203E-004
 -1.900000000000000E-002   -8.039019602461613E-004
 -1.890000000000000E-002   -8.283563592071455E-004
 -1.880000000000000E-002   -8.533362166436489E-004
 -1.870000000000000E-002   -8.788436911178043E-004
 -1.860000000000000E-002   -9.048818442546729E-004
 -1.850000000000000E-002   -9.314567589254422E-004
 -1.840000000000000E-002   -9.585701136661066E-004
 -1.830000000000000E-002   -9.862243392885668E-004
 -1.820000000000000E-002   -1.014425334048262E-003
 -1.810000000000000E-002   -1.043171888373084E-003
 -1.800000000000000E-002   -1.072466939790304E-003
 -1.790000000000000E-002   -1.102307643245761E-003
 -1.780000000000000E-002   -1.132694772350503E-003
 -1.770000000000000E-002   -1.163625683933786E-003
 -1.760000000000000E-002   -1.195094627358170E-003
 -1.750000000000000E-002   -1.227098241342010E-003
 -1.740000000000000E-002   -1.259631703749473E-003
 -1.730000000000000E-002   -1.292687470848338E-003
 -1.720000000000000E-002   -1.326264509628645E-003
 -1.710000000000000E-002   -1.360347788496171E-003
 -1.700000000000000E-002   -1.394938750766014E-003
 -1.690000000000000E-002   -1.430025738460378E-003
 -1.680000000000000E-002   -1.465600670761314E-003
 -1.670000000000000E-002   -1.501655404116205E-003
 -1.660000000000000E-002   -1.538182169900584E-003
 -1.650000000000000E-002   -1.575174516031603E-003
 -1.640000000000000E-002   -1.612617491521060E-003
 -1.630000000000000E-002   -1.650500973744879E-003
 -1.620000000000000E-002   -1.688811509157799E-003
 -1.610000000000000E-002   -1.727534088088798E-003
 -1.600000000000000E-002   -1.766658201081635E-003
 -1.590000000000000E-002   -1.806163218011678E-003
 -1.580000000000000E-002   -1.846032383760611E-003
 -1.570000000000000E-002   -1.886245636774832E-003
 -1.560000000000000E-002   -1.926785119784231E-003
 -1.550000000000000E-002   -1.967624808516852E-003
 -1.540000000000000E-002   -2.008745233057045E-003
 -1.530000000000000E-002   -2.050127732251349E-003
 -1.520000000000000E-002   -2.091749155944275E-003
 -1.510000000000000E-002   -2.133585392424447E-003
 -1.500000000000000E-002   -2.175612080723054E-003
 -1.490000000000000E-002   -2.217808627173974E-003
 -1.480000000000000E-002   -2.260145063297199E-003
 -1.470000000000000E-002   -2.302594319470636E-003
 -1.460000000000000E-002   -2.345133653171357E-003
 -1.450000000000000E-002   -2.387732344817674E-003
 -1.440000000000000E-002   -2.430363461657564E-003
 -1.430000000000000E-002   -2.472998386777878E-003
 -1.420000000000000E-002   -2.515606733639358E-003
 -1.410000000000000E-002   -2.558146620138937E-003
 -1.400000000000000E-002   -2.600594529395855E-003
 -1.390000000000000E-002   -2.642910245497180E-003
 -1.380000000000000E-002   -2.685057143344341E-003
 -1.370000000000000E-002   -2.726994687828981E-003
 -1.360000000000000E-002   -2.768693838920314E-003
 -1.350000000000000E-002   -2.810109157945346E-003
 -1.340000000000000E-002   -2.851193213091522E-003
 -1.330000000000000E-002   -2.891914505155361E-003
 -1.320000000000000E-002   -2.932226011299256E-003
 -1.310000000000000E-002   -2.972088033853668E-003
 -1.300000000000000E-002   -3.011458139140274E-003
 -1.290000000000000E-002   -3.050291203057595E-003
 -1.280000000000000E-002   -3.088544905594150E-003
 -1.270000000000000E-002   -3.126168041753932E-003
 -1.260000000000000E-002   -3.163113964926179E-003
 -1.250000000000000E-002   -3.199337008799402E-003
 -1.240000000000000E-002   -3.234787834691132E-003
 -1.230000000000000E-002   -3.269414380692455E-003
 -1.220000000000000E-002   -3.303172083991238E-003
 -1.210000000000000E-002   -3.336009162679818E-003
 -1.200000000000000E-002   -3.367872932176660E-003
 -1.190000000000000E-002   -3.398705032771124E-003
 -1.180000000000000E-002   -3.428458957833076E-003
 -1.170000000000000E-002   -3.457086901549743E-003
 -1.160000000000000E-002   -3.484524704943554E-003
 -1.150000000000000E-002   -3.510722378574610E-003
 -1.140000000000000E-002   -3.535630639761873E-003
 -1.130000000000000E-002   -3.559200625271569E-003
 -1.120000000000000E-002   -3.581364626399734E-003
 -1.110000000000000E-002   -3.602086625331877E-003
 -1.100000000000000E-002   -3.621307909354277E-003
 -1.090000000000000E-002   -3.638972402418825E-003
 -1.080000000000000E-002   -3.655038540229253E-003
 -1.070000000000000E-002   -3.669453841341486E-003
 -1.060000000000000E-002   -3.682161749805533E-003
 -1.050000000000000E-002   -3.693113509916565E-003
 -1.040000000000000E-002   -3.702249355790665E-003
 -1.030000000000000E-002   -3.709529924297798E-003
 -1.020000000000000E-002   -3.714899440071147E-003
 -1.010000000000000E-002   -3.718309470688880E-003
 -1.000000000000000E-002   -3.719703377480402E-003
 -9.899999999999999E-003   -3.719041407914847E-003
 -9.800000000000000E-003   -3.716269483863777E-003
 -9.699999999999999E-003   -3.711331663336797E-003
 -9.599999999999999E-003   -3.704189971078058E-003
 -9.500000000000000E-003   -3.694796084376825E-003
 -9.399999999999999E-003   -3.683111842078680E-003
 -9.299999999999999E-003   -3.669084416861913E-003
 -9.200000000000000E-003   -3.652685499544225E-003
 -9.099999999999999E-003   -3.633868034464600E-003
 -8.999999999999999E-003   -3.612593125140229E-003
 -8.900000000000000E-003   -3.588828296741096E-003
 -8.799999999999999E-003   -3.562530247123028E-003
 -8.699999999999999E-003   -3.533675416221269E-003
 -8.600000000000000E-003   -3.502223847395649E-003
 -8.499999999999999E-003   -3.468143088283908E-003
 -8.399999999999999E-003   -3.431397616089130E-003
 -8.300000000000000E-003   -3.391965183483892E-003
 -8.199999999999999E-003   -3.349811584427799E-003
 -8.100000000000000E-003   -3.304916487383514E-003
 -8.000000000000000E-003   -3.257259939528565E-003
 -7.899999999999999E-003   -3.206818100712175E-003
 -7.800000000000000E-003   -3.153572631545743E-003
 -7.699999999999999E-003   -3.097507832261728E-003
 -7.599999999999999E-003   -3.038613869279481E-003
 -7.499999999999999E-003   -2.976883499732463E-003
 -7.399999999999999E-003   -2.912300975586087E-003
 -7.299999999999999E-003   -2.844867954730337E-003
 -7.199999999999999E-003   -2.774582030373368E-003
 -7.100000000000000E-003   -2.701438724937832E-003
 -6.999999999999999E-003   -2.625450448396176E-003
 -6.899999999999999E-003   -2.546623314546009E-003
 -6.800000000000000E-003   -2.464965929906200E-003
 -6.699999999999999E-003   -2.380491147044261E-003
 -6.599999999999999E-003   -2.293213725702898E-003
 -6.499999999999999E-003   -2.203152242226140E-003
 -6.399999999999999E-003   -2.110328984656323E-003
 -6.299999999999999E-003   -2.014764741731279E-003
 -6.199999999999999E-003   -1.916486541497514E-003
 -6.100000000000000E-003   -1.815520991512116E-003
 -5.999999999999999E-003   -1.711901506819177E-003
 -5.899999999999999E-003   -1.605661535993660E-003
 -5.800000000000000E-003   -1.496837535729783E-003
 -5.699999999999999E-003   -1.385467333861945E-003
 -5.599999999999999E-003   -1.271594187614643E-003
 -5.499999999999999E-003   -1.155265597870128E-003
 -5.399999999999999E-003   -1.036530449953435E-003
 -5.299999999999999E-003   -9.154422119341437E-004
 -5.199999999999999E-003   -7.920589139147841E-004
 -5.099999999999999E-003   -6.664393830059260E-004
 -4.999999999999999E-003   -5.386448688083660E-004
 -4.899999999999999E-003   -4.087439482608696E-004
 -4.799999999999999E-003   -2.768061527167040E-004
 -4.699999999999999E-003   -1.429011933050551E-004
 -4.599999999999999E-003   -7.101298778462717E-006
 -4.499999999999999E-003    1.305135295663097E-004
 -4.399999999999999E-003    2.698664453929626E-004
 -4.299999999999999E-003    4.108746827778485E-004
 -4.199999999999999E-003    5.534545300774647E-004
 -4.099999999999999E-003    6.975181915666560E-004
 -3.999999999999999E-003    8.429789384116516E-004
 -3.899999999999999E-003    9.897426044284501E-004
 -3.799999999999999E-003    1.137719956446384E-003
 -3.699999999999999E-003    1.286810070569308E-003
 -3.599999999999999E-003    1.436916240833188E-003
 -3.499999999999999E-003    1.587942832665242E-003
 -3.399999999999999E-003    1.739777920602309E-003
 -3.299999999999999E-003    1.892321034915184E-003
 -3.199999999999999E-003    2.045458908659537E-003
 -3.099999999999999E-003    2.199085583544546E-003
 -2.999999999999999E-003    2.353089334950487E-003
 -2.899999999999999E-003    2.507350271033881E-003
 -2.799999999999999E-003    2.661761200990542E-003
 -2.699999999999999E-003    2.816203899390728E-003
 -2.599999999999999E-003    2.970565340599796E-003
 -2.499999999999999E-003    3.124731304694317E-003
 -2.399999999999999E-003    3.278576568501140E-003
 -2.299999999999999E-003    3.431994135529328E-003
 -2.199999999999999E-003    3.584856642940917E-003
 -2.099999999999999E-003    3.737054326840284E-003
 -1.999999999999999E-003    3.888464283987716E-003
 -1.899999999999999E-003    4.038962550796610E-003
 -1.799999999999999E-003    4.188436412534823E-003
 -1.699999999999999E-003    4.336775063479334E-003
 -1.599999999999999E-003    4.483840282791661E-003
 -1.499999999999999E-003    4.629527920571926E-003
 -1.399999999999999E-003    4.773713086521754E-003
 -1.299999999999999E-003    4.916263393487469E-003
 -1.199999999999999E-003    5.057080360180155E-003
 -1.099999999999999E-003    5.196036881310331E-003
 -9.999999999999989E-004    5.333009965124438E-003
 -8.999999999999990E-004    5.467895038456849E-003
 -7.999999999999990E-004    5.600574910838527E-003
 -6.999999999999989E-004    5.730931522310231E-003
 -5.999999999999990E-004    5.858854280192088E-003
 -4.999999999999989E-004    5.984233434750220E-003
 -3.999999999999989E-004    6.106960877089174E-003
 -2.999999999999989E-004    6.226932869621379E-003
 -1.999999999999989E-004    6.344045067796129E-003
 -9.999999999999892E-005    6.458203497450625E-003
  1.084202172485504E-018    6.569304329589562E-003
  1.000000000000011E-004    6.677255653383757E-003
  2.000000000000011E-004    6.781951457754301E-003
  3.000000000000011E-004    6.883317130797477E-003
  4.000000000000011E-004    6.981249197925810E-003
  5.000000000000011E-004    7.075666937798611E-003
  6.000000000000011E-004    7.166482994638929E-003
  7.000000000000011E-004    7.253632793154149E-003
  8.000000000000011E-004    7.337016052384272E-003
  9.000000000000012E-004    7.416559447606941E-003
  1.000000000000001E-003    7.492202675159230E-003
  1.100000000000001E-003    7.563877560318490E-003
  1.200000000000001E-003    7.631516887207562E-003
  1.300000000000001E-003    7.695071471046817E-003
  1.400000000000001E-003    7.754474855198597E-003
  1.500000000000001E-003    7.809684067810900E-003
  1.600000000000001E-003    7.860645378499842E-003
  1.700000000000001E-003    7.907309203650986E-003
  1.800000000000001E-003    7.949638224968365E-003
  1.900000000000001E-003    7.987598918220699E-003
  2.000000000000001E-003    8.021165483392913E-003
  2.100000000000001E-003    8.050301335801889E-003
  2.200000000000001E-003    8.074982434634947E-003
  2.300000000000001E-003    8.095200454270125E-003
  2.400000000000001E-003    8.110936594669403E-003
  2.500000000000001E-003    8.122177337600130E-003
  2.600000000000001E-003    8.128925567035532E-003
  2.700000000000001E-003    8.131174215974014E-003
  2.800000000000001E-003    8.128919226222574E-003
  2.900000000000001E-003    8.122168451653783E-003
  3.000000000000001E-003    8.110922143271859E-003
  3.100000000000001E-003    8.095215559302711E-003
  3.200000000000001E-003    8.075065635090840E-003
  3.300000000000001E-003    8.050487543187261E-003
  3.400000000000001E-003    8.021502923076143E-003
  3.500000000000001E-003    7.988150606142358E-003
  3.600000000000001E-003    7.950474655572359E-003
  3.700000000000001E-003    7.908495385826844E-003
  3.800000000000001E-003    7.862254860271450E-003
  3.900000000000001E-003    7.811812631576723E-003
  4.000000000000001E-003    7.757210319645866E-003
  4.100000000000001E-003    7.698501272002459E-003
  4.200000000000001E-003    7.635735516371811E-003
  4.300000000000001E-003    7.568988328261299E-003
  4.400000000000001E-003    7.498318778585318E-003
  4.500000000000001E-003    7.423800954695442E-003
  4.600000000000002E-003    7.345504454888560E-003
  4.700000000000001E-003    7.263493231672198E-003
  4.800000000000001E-003    7.177860039471309E-003
  4.900000000000002E-003    7.088684484570139E-003
  5.000000000000001E-003    6.996049089997326E-003
  5.100000000000001E-003    6.900033781133699E-003
  5.200000000000001E-003    6.800734861556114E-003
  5.300000000000002E-003    6.698236578069852E-003
  5.400000000000001E-003    6.592647863761542E-003
  5.500000000000001E-003    6.484058688110035E-003
  5.600000000000002E-003    6.372565301672087E-003
  5.700000000000001E-003    6.258274825669013E-003
  5.800000000000001E-003    6.141297686625816E-003
  5.900000000000002E-003    6.021729848693341E-003
  6.000000000000001E-003    5.899681494358690E-003
  6.100000000000001E-003    5.775258645720933E-003
  6.200000000000002E-003    5.648575167933649E-003
  6.300000000000002E-003    5.519740295459846E-003
  6.400000000000001E-003    5.388860720057662E-003
  6.500000000000001E-003    5.256056894110100E-003
  6.600000000000002E-003    5.121429814361325E-003
  6.700000000000001E-003    4.985101276236678E-003
  6.800000000000001E-003    4.847195498462006E-003
  6.900000000000002E-003    4.707814407542074E-003
  7.000000000000001E-003    4.567068053153767E-003
  7.100000000000001E-003    4.425080431394696E-003
  7.200000000000002E-003    4.281971386235053E-003
  7.300000000000002E-003    4.137850076974633E-003
  7.400000000000001E-003    3.992836221521807E-003
  7.500000000000001E-003    3.847047727195310E-003
  7.600000000000002E-003    3.700588745955677E-003
  7.700000000000001E-003    3.553577854901603E-003
  7.800000000000001E-003    3.406129865413561E-003
  7.900000000000001E-003    3.258350164009927E-003
  8.000000000000002E-003    3.110355714266277E-003
  8.100000000000001E-003    2.962253748464615E-003
  8.200000000000001E-003    2.814155731410375E-003
  8.300000000000002E-003    2.666165289596976E-003
  8.400000000000001E-003    2.518389025416377E-003
  8.500000000000002E-003    2.370935529277737E-003
  8.600000000000002E-003    2.223896104182020E-003
  8.700000000000001E-003    2.077380459069127E-003
  8.800000000000002E-003    1.931480830539501E-003
  8.900000000000002E-003    1.786292623595979E-003
  9.000000000000001E-003    1.641909893366059E-003
  9.100000000000002E-003    1.498426943807866E-003
  9.200000000000002E-003    1.355930223282986E-003
  9.300000000000001E-003    1.214508856112979E-003
  9.400000000000002E-003    1.074243496300786E-003
  9.500000000000001E-003    9.352224443531856E-004
  9.600000000000001E-003    7.975201205421834E-004
  9.700000000000002E-003    6.612180589854206E-004
  9.800000000000001E-003    5.263862026238710E-004
  9.900000000000001E-003    3.931054811326402E-004
  1.000000000000000E-002    2.614414598023727E-004
  1.010000000000000E-002    1.314606478253280E-004
  1.020000000000000E-002    3.230046373274911E-006
  1.030000000000000E-002   -1.231887409101854E-004
  1.040000000000000E-002   -2.477365216203755E-004
  1.050000000000000E-002   -3.703540980513134E-004
  1.060000000000000E-002   -4.909942014950574E-004
  1.070000000000000E-002   -6.096030797925547E-004
  1.080000000000000E-002   -7.261276329699217E-004
  1.090000000000000E-002   -8.405312589084384E-004
  1.100000000000000E-002   -9.527702520062561E-004
  1.110000000000000E-002   -1.062804536079579E-003
  1.120000000000000E-002   -1.170600214770823E-003
  1.130000000000000E-002   -1.276123457818001E-003
  1.140000000000000E-002   -1.379347500323262E-003
  1.150000000000000E-002   -1.480242328414143E-003
  1.160000000000000E-002   -1.578787417723253E-003
  1.170000000000000E-002   -1.674960188527756E-003
  1.180000000000000E-002   -1.768742443838990E-003
  1.190000000000000E-002   -1.860120001243285E-003
  1.200000000000000E-002   -1.949078212718326E-003
  1.210000000000000E-002   -2.035604307505979E-003
  1.220000000000000E-002   -2.119695763005098E-003
  1.230000000000000E-002   -2.201341733913821E-003
  1.240000000000000E-002   -2.280547964540806E-003
  1.250000000000000E-002   -2.357311961508395E-003
  1.260000000000000E-002   -2.431637314860388E-003
  1.270000000000000E-002   -2.503526657650615E-003
  1.280000000000000E-002   -2.572994872488341E-003
  1.290000000000000E-002   -2.640047230937238E-003
  1.300000000000000E-002   -2.704695047419409E-003
  1.310000000000000E-002   -2.766950735077506E-003
  1.320000000000000E-002   -2.826830532587442E-003
  1.330000000000000E-002   -2.884355244805965E-003
  1.340000000000000E-002   -2.939539912506749E-003
  1.350000000000000E-002   -2.992409850533000E-003
  1.360000000000000E-002   -3.042980299964831E-003
  1.370000000000000E-002   -3.091279137150633E-003
  1.380000000000000E-002   -3.137329102429226E-003
  1.390000000000000E-002   -3.181154326913994E-003
  1.400000000000000E-002   -3.222782779247282E-003
  1.410000000000000E-002   -3.262238432494801E-003
  1.420000000000000E-002   -3.299551878490264E-003
  1.430000000000000E-002   -3.334757370916853E-003
  1.440000000000000E-002   -3.367878987986916E-003
  1.450000000000000E-002   -3.398957240864517E-003
  1.460000000000000E-002   -3.428022252358040E-003
  1.470000000000000E-002   -3.455110872068141E-003
  1.480000000000000E-002   -3.480260301595997E-003
  1.490000000000000E-002   -3.503515981706708E-003
  1.500000000000000E-002   -3.524912858513009E-003
  1.510000000000000E-002   -3.544488948799520E-003
  1.520000000000000E-002   -3.562290366181109E-003
  1.530000000000000E-002   -3.578355258891434E-003
  1.540000000000000E-002   -3.592718812207268E-003
  1.550000000000000E-002   -3.605421214334929E-003
  1.560000000000000E-002   -3.616505770387905E-003
  1.570000000000000E-002   -3.626009293010556E-003
  1.580000000000000E-002   -3.633972094369949E-003
  1.590000000000000E-002   -3.640427834608100E-003
  1.600000000000000E-002   -3.645419034161108E-003
  1.610000000000000E-002   -3.648980722747226E-003
  1.620000000000000E-002   -3.651153610341677E-003
  1.630000000000000E-002   -3.651967207884570E-003
  1.640000000000000E-002   -3.651464341473530E-003
  1.650000000000000E-002   -3.649685631437475E-003
  1.660000000000000E-002   -3.646665831996951E-003
  1.670000000000000E-002   -3.642433923227089E-003
  1.680000000000000E-002   -3.637035984876209E-003
  1.690000000000000E-002   -3.630498015936540E-003
  1.700000000000000E-002   -3.622858663663464E-003
  1.710000000000000E-002   -3.614153615348475E-003
  1.720000000000000E-002   -3.604419549112378E-003
  1.730000000000000E-002   -3.593677416159777E-003
  1.740000000000000E-002   -3.581964434766691E-003
  1.750000000000000E-002   -3.569308062975000E-003
  1.760000000000000E-002   -3.555742546734415E-003
  1.770000000000000E-002   -3.541288292983745E-003
  1.780000000000000E-002   -3.525976197799045E-003
  1.790000000000000E-002   -3.509836944890904E-003
  1.800000000000000E-002   -3.492891973267423E-003
  1.810000000000000E-002   -3.475169647652276E-003
  1.820000000000000E-002   -3.456685984108539E-003
  1.830000000000000E-002   -3.437470445408500E-003
  1.840000000000000E-002   -3.417545466352211E-003
  1.850000000000000E-002   -3.396936547971258E-003
  1.860000000000000E-002   -3.375664674956994E-003
  1.870000000000000E-002   -3.353748535617235E-003