 -4.000000000000000E-002    0.000000000000000E+000
 -3.990000000000000E-002    0.000000000000000E+000
 -3.980000000000000E-002    0.000000000000000E+000
 -3.970000000000000E-002    0.000000000000000E+000
 -3.960000000000000E-002    1.805225503158802E-019
 -3.950000000000000E-002    9.536525535040638E-018
 -3.940000000000000E-002    7.516025915998583E-017
 -3.930000000000000E-002    3.356989628714139E-016
 -3.920000000000000E-002    1.079470080324431E-015
 -3.910000000000000E-002    2.755764430620800E-015
 -3.900000000000000E-002    5.858430976693534E-015
 -3.890000000000000E-002    1.058835023333533E-014
 -3.880000000000000E-002    1.621953243116180E-014
 -3.870000000000000E-002    2.015145274530129E-014
 -3.860000000000000E-002    1.672902203552572E-014
 -3.850000000000000E-002   -3.958786572746308E-015
 -3.840000000000000E-002   -5.695074348551352E-014
 -3.830000000000000E-002   -1.624844371750965E-013
 -3.820000000000000E-002   -3.447334880777256E-013
 -3.810000000000000E-002   -6.287095654869517E-013
 -3.800000000000000E-002   -1.034981566185938E-012
 -3.790000000000000E-002   -1.572161948842885E-012
 -3.780000000000000E-002   -2.227530029865246E-012
 -3.770000000000000E-002   -2.956683927976275E-012
 -3.760000000000000E-002   -3.673662290398422E-012
 -3.750000000000000E-002   -4.243457488023318E-012
 -3.740000000000000E-002   -4.479164852136617E-012
 -3.730000000000000E-002   -4.146061257891970E-012
 -3.720000000000000E-002   -2.974565213333643E-012
 -3.710000000000000E-002   -6.833067206966730E-013
 -3.700000000000000E-002    2.987663989273470E-012
 -3.690000000000000E-002    8.234962487537600E-012
 -3.680000000000000E-002    1.514447920420626E-011
 -3.670000000000000E-002    2.364336416057988E-011
 -3.660000000000000E-002    3.345771431802001E-011
 -3.650000000000000E-002    4.408316106536367E-011
 -3.640000000000000E-002    5.477551990117729E-011
 -3.630000000000000E-002    6.456779598454326E-011
 -3.620000000000000E-002    7.231760199153939E-011
 -3.610000000000000E-002    7.678599972512787E-011
 -3.600000000000000E-002    7.674472785821227E-011
 -3.590000000000000E-002    7.110448374835673E-011
 -3.580000000000000E-002    5.905256796285732E-011
 -3.570000000000000E-002    4.018477590742822E-011
 -3.560000000000000E-002    1.461419609917165E-011
 -3.550000000000000E-002   -1.696059552544698E-011
 -3.540000000000000E-002   -5.324324104017707E-011
 -3.530000000000000E-002   -9.239407531036634E-011
 -3.520000000000000E-002   -1.321553371199632E-010
 -3.510000000000000E-002   -1.700424675720689E-010
 -3.500000000000000E-002   -2.035875486412807E-010
 -3.490000000000000E-002   -2.306119280983371E-010
 -3.480000000000000E-002   -2.494974099248429E-010
 -3.470000000000000E-002   -2.594206526947959E-010
 -3.460000000000000E-002   -2.605148245914276E-010
 -3.450000000000000E-002   -2.539260665586906E-010
 -3.440000000000000E-002   -2.417410076406418E-010
 -3.430000000000000E-002   -2.267746176416026E-010
 -3.420000000000000E-002   -2.122236389127909E-010
 -3.410000000000000E-002   -2.012095638819053E-010
 -3.400000000000000E-002   -1.962520140588238E-010
 -3.390000000000000E-002   -1.987288279803495E-010
 -3.380000000000000E-002   -2.083893523152980E-010
 -3.370000000000000E-002   -2.229909852876513E-010
 -3.360000000000000E-002   -2.381233965788335E-010
 -3.350000000000000E-002   -2.472724021266178E-010
 -3.340000000000000E-002   -2.421545616848904E-010
 -3.330000000000000E-002   -2.133247304242490E-010
 -3.320000000000000E-002   -1.510292145227194E-010
 -3.310000000000000E-002   -4.624479190868853E-011
 -3.300000000000000E-002    1.081839814657019E-010
 -3.290000000000000E-002    3.164174802436239E-010
 -3.280000000000000E-002    5.786235632652713E-010
 -3.270000000000000E-002    8.902273385643056E-010
 -3.260000000000000E-002    1.241512753346239E-009
 -3.250000000000000E-002    1.617648894479027E-009
 -3.240000000000000E-002    1.999181549031332E-009
 -3.230000000000000E-002    2.362979724684862E-009
 -3.220000000000000E-002    2.683583729983862E-009
 -3.210000000000000E-002    2.934855424573221E-009
 -3.200000000000000E-002    3.091792747456212E-009
 -3.190000000000000E-002    3.132350848028530E-009
 -3.180000000000000E-002    3.039103054521512E-009
 -3.170000000000000E-002    2.800584897425556E-009
 -3.160000000000000E-002    2.412194432494660E-009
 -3.150000000000000E-002    1.876563128138802E-009
 -3.140000000000000E-002    1.203368363607457E-009
 -3.130000000000000E-002    4.086150639366236E-010
 -3.120000000000000E-002   -4.865250299358581E-010
 -3.110000000000000E-002   -1.457183343926098E-009
 -3.100000000000000E-002   -2.476400778030110E-009
 -3.090000000000000E-002   -3.516686572542184E-009
 -3.080000000000000E-002   -4.551350337577473E-009
 -3.070000000000000E-002   -5.555456149187257E-009
 -3.060000000000000E-002   -6.506297653328978E-009
 -3.050000000000000E-002   -7.383346210088616E-009
 -3.040000000000000E-002   -8.167715140194098E-009
 -3.030000000000000E-002   -8.841226194059636E-009
 -3.020000000000000E-002   -9.385248899369076E-009
 -3.010000000000000E-002   -9.779518567028628E-009
 -3.000000000000000E-002   -1.000116366208200E-008
 -2.990000000000000E-002   -1.002417237224317E-008
 -2.980000000000000E-002   -9.819499275939093E-009
 -2.970000000000000E-002   -9.355959050217208E-009
 -2.960000000000000E-002   -8.601975173544761E-009
 -2.950000000000000E-002   -7.528163299091811E-009
 -2.940000000000000E-002   -6.110637898411493E-009
 -2.930000000000000E-002   -4.334833617589088E-009
 -2.920000000000000E-002   -2.199561714632177E-009
 -2.910000000000000E-002    2.790406893860999E-010
 -2.900000000000000E-002    3.064035262327007E-009
 -2.890000000000000E-002    6.095051078106666E-009
 -2.880000000000000E-002    9.286826378209599E-009
 -2.870000000000000E-002    1.252920783404339E-008
 -2.860000000000000E-002    1.568878415934970E-008
 -2.850000000000000E-002    1.861225610934953E-008
 -2.840000000000000E-002    2.113151497203025E-008
 -2.830000000000000E-002    2.307030655272507E-008
 -2.820000000000000E-002    2.425225500345680E-008
 -2.810000000000000E-002    2.450994207451595E-008
 -2.800000000000000E-002    2.369467865667649E-008
 -2.790000000000000E-002    2.168657301906382E-008
 -2.780000000000000E-002    1.840450139090643E-008
 -2.770000000000000E-002    1.381559028021312E-008
 -2.760000000000000E-002    7.943877419720761E-009
 -2.750000000000000E-002    8.778688478957442E-010
 -2.740000000000000E-002   -7.223224415335560E-009
 -2.730000000000000E-002   -1.612472416323529E-008
 -2.720000000000000E-002   -2.551326257341741E-008
 -2.710000000000000E-002   -3.499513615325642E-008
 -2.700000000000000E-002   -4.409620391236334E-008
 -2.690000000000000E-002   -5.226328041751748E-008
 -2.680000000000000E-002   -5.886696124751515E-008
 -2.670000000000000E-002   -6.320578025853485E-008
 -2.660000000000000E-002   -6.451166604338091E-008
 -2.650000000000000E-002   -6.195663614817544E-008
 -2.640000000000000E-002   -5.466069411508764E-008
 -2.630000000000000E-002   -4.170089266570878E-008
 -2.620000000000000E-002   -2.212154405524544E-008
 -2.610000000000000E-002    5.054450808181461E-009
 -2.600000000000000E-002    4.081320169901469E-008
 -2.590000000000000E-002    8.613659207204903E-008
 -2.580000000000000E-002    1.419880635749169E-007
 -2.570000000000000E-002    2.092981916807671E-007
 -2.560000000000000E-002    2.889497899380604E-007
 -2.550000000000000E-002    3.817633639107765E-007
 -2.540000000000000E-002    4.884833524548264E-007
 -2.530000000000000E-002    6.097655502915070E-007
 -2.520000000000000E-002    7.461664380481779E-007
 -2.510000000000000E-002    8.981350067316803E-007
 -2.500000000000000E-002    1.066007756928112E-006
 -2.490000000000000E-002    1.250007244575730E-006
 -2.480000000000000E-002    1.450244739627674E-006
 -2.470000000000000E-002    1.666727397561767E-006
 -2.460000000000000E-002    1.899370049871601E-006
 -2.450000000000000E-002    2.148011733422613E-006
 -2.440000000000000E-002    2.412435884229688E-006
 -2.430000000000000E-002    2.692396190198552E-006
 -2.420000000000000E-002    2.987644353433350E-006
 -2.410000000000000E-002    3.297961255513202E-006
 -2.400000000000000E-002    3.623190320315748E-006
 -2.390000000000000E-002    3.963271396601087E-006
 -2.380000000000000E-002    4.318274149454824E-006
 -2.370000000000000E-002    4.688431348366980E-006
 -2.360000000000000E-002    5.074168718902860E-006
 -2.350000000000000E-002    5.476132021609680E-006
 -2.340000000000000E-002    5.895209718555014E-006
 -2.330000000000000E-002    6.332549971061772E-006
 -2.320000000000000E-002    6.789573028290920E-006
 -2.310000000000000E-002    7.267975839103833E-006
 -2.300000000000000E-002    7.769731347721967E-006
 -2.290000000000000E-002    8.297078479898805E-006
 -2.280000000000000E-002    8.852510458960467E-006
 -2.270000000000000E-002    9.438750623495447E-006
 -2.260000000000000E-002    1.005872897383262E-005
 -2.250000000000000E-002    1.071554869130410E-005
 -2.240000000000000E-002    1.141245356687717E-005
 -2.230000000000000E-002    1.215279140712125E-005
 -2.220000000000000E-002    1.293997765497652E-005
 -2.210000000000000E-002    1.377745936516401E-005
 -2.200000000000000E-002    1.466868678119719E-005
 -2.190000000000000E-002    1.561708136639573E-005
 -2.180000000000000E-002    1.662602126784863E-005
 -2.170000000000000E-002    1.769882583296523E-005
 -2.160000000000000E-002    1.883875763231000E-005
 -2.150000000000000E-002    2.004902691227299E-005
 -2.140000000000000E-002    2.133280804920834E-005
 -2.130000000000000E-002    2.269327127839204E-005
 -2.120000000000000E-002    2.413361821190072E-005
 -2.110000000000000E-002    2.565712157664160E-005
 -2.100000000000000E-002    2.726717868624090E-005
 -2.090000000000000E-002    2.896736316747095E-005
 -2.080000000000000E-002    3.076148172275472E-005
 -2.070000000000000E-002    3.265362002561655E-005
 -2.060000000000000E-002    3.464819827954086E-005
 -2.050000000000000E-002    3.675000881250607E-005
 -2.040000000000000E-002    3.896425552312447E-005
 -2.030000000000000E-002    4.129657541128759E-005
 -2.020000000000000E-002    4.375306208012300E-005
 -2.010000000000000E-002    4.634026992843087E-005
 -2.000000000000000E-002    4.906521416863870E-005
 -1.990000000000000E-002    5.193537390502704E-005
 -1.980000000000000E-002    5.495867338115784E-005
 -1.970000000000000E-002    5.814346654667692E-005
 -1.960000000000000E-002    6.149853022633250E-005
 -1.950000000000000E-002    6.503303903224368E-005
 -1.940000000000000E-002    6.875657254289659E-005
 -1.930000000000000E-002    7.267909211309902E-005
 -1.920000000000000E-002    7.681094081502372E-005
 -1.910000000000000E-002    8.116285473817399E-005
 -1.900000000000000E-002    8.574596504896769E-005
 -1.890000000000000E-002    9.057180767988993E-005
 -1.880000000000000E-002    9.565235380944276E-005
 -1.870000000000000E-002    1.010000174766056E-004
 -1.860000000000000E-002    1.066276757764905E-004
 -1.850000000000000E-002    1.125487022332515E-004
 -1.840000000000000E-002    1.187769659645804E-004
 -1.830000000000000E-002    1.253268820143618E-004
 -1.820000000000000E-002    1.322133980635083E-004
 -1.810000000000000E-002    1.394520285898932E-004
 -1.800000000000000E-002    1.470588876540918E-004
 -1.790000000000000E-002    1.550506790701680E-004
 -1.780000000000000E-002    1.634447143510456E-004
 -1.770000000000000E-002    1.722589743831084E-004
 -1.760000000000000E-002    1.815120817616327E-004
 -1.750000000000000E-002    1.912233435654097E-004
 -1.740000000000000E-002    2.014127985850821E-004
 -1.730000000000000E-002    2.121012389482927E-004
 -1.720000000000000E-002    2.233102453685138E-004
 -1.710000000000000E-002    2.350622343106977E-004
 -1.700000000000000E-002    2.473805449757134E-004
 -1.690000000000000E-002    2.602893881202598E-004
 -1.680000000000000E-002    2.738139850579862E-004
 -1.670000000000000E-002    2.879805588082525E-004
 -1.660000000000000E-002    3.028164150669447E-004
 -1.650000000000000E-002    3.183499174701480E-004
 -1.640000000000000E-002    3.346106327750978E-004
 -1.630000000000000E-002    3.516292368033929E-004
 -1.620000000000000E-002    3.694376287547182E-004
 -1.610000000000000E-002    3.880688997083237E-004
 -1.600000000000000E-002    4.075574078128486E-004
 -1.590000000000000E-002    4.279386859128895E-004
 -1.580000000000000E-002    4.492495808870904E-004
 -1.570000000000000E-002    4.715281756009798E-004
 -1.560000000000000E-002    4.948139189233834E-004
 -1.550000000000000E-002    5.191474089137493E-004
 -1.540000000000000E-002    5.445705801956849E-004
 -1.530000000000000E-002    5.711267342346371E-004
 -1.520000000000000E-002    5.988604565679057E-004
 -1.510000000000000E-002    6.278176894886405E-004
 -1.500000000000000E-002    6.580457373900544E-004
 -1.490000000000000E-002    6.895933051329438E-004
 -1.480000000000000E-002    7.225105116669384E-004
 -1.470000000000000E-002    7.568489881627535E-004
 -1.460000000000000E-002    7.926618142683890E-004
 -1.450000000000000E-002    8.300035992035870E-004
 -1.440000000000000E-002    8.689304519741771E-004
 -1.430000000000000E-002    9.095002877508271E-004
 -1.420000000000000E-002    9.517725205799748E-004
 -1.410000000000000E-002    9.958082577523118E-004
 -1.400000000000000E-002    1.041670394621324E-003
 -1.390000000000000E-002    1.089423554094541E-003
 -1.380000000000000E-002    1.139134308776764E-003
 -1.370000000000000E-002    1.190870889407144E-003
 -1.360000000000000E-002    1.244703426218792E-003
 -1.350000000000000E-002    1.300704008956002E-003
 -1.340000000000000E-002    1.358946494055049E-003
 -1.330000000000000E-002    1.419506773880194E-003
 -1.320000000000000E-002    1.482462485194897E-003
 -1.310000000000000E-002    1.547893420011931E-003
 -1.300000000000000E-002    1.615881200473878E-003
 -1.290000000000000E-002    1.686509313435328E-003
 -1.280000000000000E-002    1.759863315189596E-003
 -1.270000000000000E-002    1.836030544494956E-003
 -1.260000000000000E-002    1.915100212801262E-003
 -1.250000000000000E-002    1.997163928123504E-003
 -1.240000000000000E-002    2.082314457849971E-003
 -1.230000000000000E-002    2.170646894404876E-003
 -1.220000000000000E-002    2.262258282367043E-003
 -1.210000000000000E-002    2.357247338030612E-003
 -1.200000000000000E-002    2.455714722983206E-003
 -1.190000000000000E-002    2.557762888474206E-003
 -1.180000000000000E-002    2.663496324017103E-003
 -1.170000000000000E-002    2.773020948648888E-003
 -1.160000000000000E-002    2.886444602778187E-003
 -1.150000000000000E-002    3.003876958203552E-003
 -1.140000000000000E-002    3.125429130309598E-003
 -1.130000000000000E-002    3.251213992300733E-003
 -1.120000000000000E-002    3.381346143489138E-003
 -1.110000000000000E-002    3.515941307388725E-003
 -1.100000000000000E-002    3.655117134449677E-003
 -1.090000000000000E-002    3.798992751653714E-003
 -1.080000000000000E-002    3.947688069985505E-003
 -1.070000000000000E-002    4.101324711764930E-003
 -1.060000000000000E-002    4.260025826989958E-003
 -1.050000000000000E-002    4.423915675811453E-003
 -1.040000000000000E-002    4.593119597093937E-003
 -1.030000000000000E-002    4.767763829041586E-003
 -1.020000000000000E-002    4.947976209531624E-003
 -1.010000000000000E-002    5.133884995843344E-003
 -1.000000000000000E-002    5.325619692291249E-003
 -9.899999999999999E-003    5.523310620332307E-003
 -9.800000000000000E-003    5.727088301973561E-003
 -9.699999999999999E-003    5.937084056437990E-003
 -9.599999999999999E-003    6.153429722942015E-003
 -9.500000000000000E-003    6.376257230197547E-003
 -9.399999999999999E-003    6.605698064113926E-003
 -9.299999999999999E-003    6.841884215993809E-003
 -9.200000000000000E-003    7.084946808922639E-003
 -9.099999999999999E-003    7.335016588206898E-003
 -8.999999999999999E-003    7.592223478875591E-003
 -8.900000000000000E-003    7.856696589490918E-003
 -8.799999999999999E-003    8.128564038747796E-003
 -8.699999999999999E-003    8.407952479017562E-003
 -8.600000000000000E-003    8.694987279099255E-003
 -8.499999999999999E-003    8.989791006496271E-003
 -8.399999999999999E-003    9.292485387492375E-003
 -8.300000000000000E-003    9.603190283985263E-003
 -8.199999999999999E-003    9.922021746843854E-003
 -8.100000000000000E-003    1.024909543469557E-002
 -8.000000000000000E-003    1.058452192959571E-002
 -7.899999999999999E-003    1.092841075181505E-002
 -7.800000000000000E-003    1.128086767432954E-002
 -7.699999999999999E-003    1.164199541066114E-002
 -7.599999999999999E-003    1.201189219406940E-002
 -7.499999999999999E-003    1.239065275436469E-002
 -7.399999999999999E-003    1.277836673094765E-002
 -7.299999999999999E-003    1.317511992671016E-002
 -7.199999999999999E-003    1.358099259853034E-002
 -7.100000000000000E-003    1.399606070653475E-002
 -6.999999999999999E-003    1.442039307908575E-002
 -6.899999999999999E-003    1.485405370878783E-002
 -6.800000000000000E-003    1.529709983083061E-002
 -6.699999999999999E-003    1.574958254072412E-002
 -6.599999999999999E-003    1.621154527985181E-002
 -6.499999999999999E-003    1.668302359527211E-002
 -6.399999999999999E-003    1.716404576792666E-002
 -6.299999999999999E-003    1.765463280563011E-002
 -6.199999999999999E-003    1.815479593990190E-002
 -6.100000000000000E-003    1.866453794794368E-002
 -5.999999999999999E-003    1.918385328955707E-002
 -5.899999999999999E-003    1.971272645229531E-002
 -5.800000000000000E-003    2.025112923769235E-002
 -5.699999999999999E-003    2.079902798126816E-002
 -5.599999999999999E-003    2.135637396717323E-002
 -5.499999999999999E-003    2.192310747217577E-002
 -5.399999999999999E-003    2.249915997663080E-002
 -5.299999999999999E-003    2.308444787256264E-002
 -5.199999999999999E-003    2.367887796054841E-002
 -5.099999999999999E-003    2.428234128731767E-002
 -4.999999999999999E-003    2.489471697074696E-002
 -4.899999999999999E-003    2.551587193441112E-002
 -4.799999999999999E-003    2.614565546873408E-002
 -4.699999999999999E-003    2.678390620935992E-002
 -4.599999999999999E-003    2.743044641665986E-002
 -4.499999999999999E-003    2.808508087611191E-002
 -4.399999999999999E-003    2.874760309572266E-002
 -4.299999999999999E-003    2.941778718112568E-002
 -4.199999999999999E-003    3.009539292490932E-002
 -4.099999999999999E-003    3.078016348756767E-002
 -3.999999999999999E-003    3.147182473222788E-002
 -3.899999999999999E-003    3.217008431537285E-002
 -3.799999999999999E-003    3.287463192318437E-002
 -3.699999999999999E-003    3.358513711201555E-002
 -3.599999999999999E-003    3.430125685626117E-002
 -3.499999999999999E-003    3.502262549818082E-002
 -3.399999999999999E-003    3.574885944556365E-002
 -3.299999999999999E-003    3.647955271840940E-002
 -3.199999999999999E-003    3.721427915599178E-002
 -3.099999999999999E-003    3.795259453361607E-002
 -2.999999999999999E-003    3.869403462706869E-002
 -2.899999999999999E-003    3.943811194234762E-002
 -2.799999999999999E-003    4.018432220856080E-002
 -2.699999999999999E-003    4.093213478833349E-002
 -2.599999999999999E-003    4.168100053012728E-002
 -2.499999999999999E-003    4.243034763588336E-002
 -2.399999999999999E-003    4.317958111456810E-002
 -2.299999999999999E-003    4.392808750047127E-002
 -2.199999999999999E-003    4.467523046335803E-002
 -2.099999999999999E-003    4.542034880443441E-002
 -1.999999999999999E-003    4.616276035808427E-002
 -1.899999999999999E-003    4.690176397702512E-002
 -1.799999999999999E-003    4.763663148061022E-002
 -1.699999999999999E-003    4.836661260833595E-002
 -1.599999999999999E-003    4.909093761075015E-002
 -1.499999999999999E-003    4.980881222629908E-002
 -1.399999999999999E-003    5.051942472525115E-002
 -1.299999999999999E-003    5.122193373706061E-002
 -1.199999999999999E-003    5.191547703035058E-002
 -1.099999999999999E-003    5.259917752128417E-002
 -9.999999999999989E-004    5.327212775293988E-002
 -8.999999999999990E-004    5.393340262442220E-002
 -7.999999999999990E-004    5.458205942031283E-002
 -6.999999999999989E-004    5.521713050028031E-002
 -5.999999999999990E-004    5.583762754971399E-002
 -4.999999999999989E-004    5.644254452914802E-002
 -3.999999999999989E-004    5.703085460125508E-002
 -2.999999999999989E-004    5.760151801039813E-002
 -1.999999999999989E-004    5.815346698664395E-002
 -9.999999999999892E-005    5.868561889575113E-002
  1.084202172485504E-018    5.919687738815525E-002
  1.000000000000011E-004    5.968612296239453E-002
  2.000000000000011E-004    6.015222774060117E-002
  3.000000000000011E-004    6.059403724673321E-002
  4.000000000000011E-004    6.101039086513495E-002
  5.000000000000011E-004    6.140010977978828E-002
  6.000000000000011E-004    6.176199912487644E-002
  7.000000000000011E-004    6.209485235814806E-002
  8.000000000000011E-004    6.239745720440294E-002
  9.000000000000012E-004    6.266858160663333E-002
  1.000000000000001E-003    6.290699161584276E-002
  1.100000000000001E-003    6.311143536394372E-002
  1.200000000000001E-003    6.328065972887419E-002
  1.300000000000001E-003    6.341340446588487E-002
  1.400000000000001E-003    6.350839973573857E-002
  1.500000000000001E-003    6.356437154209697E-002
  1.600000000000001E-003    6.358004756811679E-002
  1.700000000000001E-003    6.355415012676503E-002
  1.800000000000001E-003    6.348540415014511E-002
  1.900000000000001E-003    6.337252762008645E-002
  2.000000000000001E-003    6.321424736376634E-002
  2.100000000000001E-003    6.300929051486587E-002
  2.200000000000001E-003    6.275638942526347E-002
  2.300000000000001E-003    6.245427619884947E-002
  2.400000000000001E-003    6.210169997726403E-002
  2.500000000000001E-003    6.169741499373518E-002
  2.600000000000001E-003    6.124018109820321E-002
  2.700000000000001E-003    6.072877507163475E-002
  2.800000000000001E-003    6.016198945663333E-002
  2.900000000000001E-003    5.953862614097599E-002
  3.000000000000001E-003    5.885750882963042E-002
  3.100000000000001E-003    5.811747441019799E-002
  3.200000000000001E-003    5.731738753976465E-002
  3.300000000000001E-003    5.645612986396631E-002
  3.400000000000001E-003    5.553260606388574E-002
  3.500000000000001E-003    5.454574964871197E-002
  3.600000000000001E-003    5.349452020901187E-002
  3.700000000000001E-003    5.237790124780789E-002
  3.800000000000001E-003    5.119491774258886E-002
  3.900000000000001E-003    4.994461680090034E-002
  4.000000000000001E-003    4.862608696435561E-002
  4.100000000000001E-003    4.723844572269963E-002
  4.200000000000001E-003    4.578085722368747E-002
  4.300000000000001E-003    4.425251713245650E-002
  4.400000000000001E-003    4.265266520113992E-002
  4.500000000000001E-003    4.098058301631648E-002
  4.600000000000002E-003    3.923560319231265E-002
  4.700000000000001E-003    3.741709879594779E-002
  4.800000000000001E-003    3.552449242799970E-002
  4.900000000000002E-003    3.355726002636238E-002
  5.000000000000001E-003    3.151492603158390E-002
  5.100000000000001E-003    2.939707215432893E-002
  5.200000000000001E-003    2.720333430666814E-002
  5.300000000000002E-003    2.493340229930670E-002
  5.400000000000001E-003    2.258702805913976E-002
  5.500000000000001E-003    2.016402279024704E-002
  5.600000000000002E-003    1.766426074703161E-002
  5.700000000000001E-003    1.508767613212951E-002
  5.800000000000001E-003    1.243427138281455E-002
  5.900000000000002E-003    9.704112959138774E-003
  6.000000000000001E-003    6.897334409350919E-003
  6.100000000000001E-003    4.014139317931330E-003
  6.200000000000002E-003    1.054799766145100E-003
  6.300000000000002E-003   -1.980337234449951E-003
  6.400000000000001E-003   -5.090854956600096E-003
  6.500000000000001E-003   -8.276263991136009E-003
  6.600000000000002E-003   -1.153599949145755E-002
  6.700000000000001E-003   -1.486941984383894E-002
  6.800000000000001E-003   -1.827580485203661E-002
  6.900000000000002E-003   -2.175436139625903E-002
  7.000000000000001E-003   -2.530421533895912E-002
  7.100000000000001E-003   -2.892441108009227E-002
  7.200000000000002E-003   -3.261391789213652E-002
  7.300000000000002E-003   -3.637162012854268E-002
  7.400000000000001E-003   -4.019632323041676E-002
  7.500000000000001E-003   -4.408675119873444E-002
  7.600000000000002E-003   -4.804155020197790E-002
  7.700000000000001E-003   -5.205928105084393E-002
  7.800000000000001E-003   -5.613842137046605E-002
  7.900000000000001E-003   -6.027737656091999E-002
  8.000000000000002E-003   -6.447445692617126E-002
  8.100000000000001E-003   -6.872789462695268E-002
  8.200000000000001E-003   -7.303585558462927E-002
  8.300000000000002E-003   -7.739639998713033E-002
  8.400000000000001E-003   -8.180753208728825E-002
  8.500000000000002E-003   -8.626715929677559E-002
  8.600000000000002E-003   -9.077311939748968E-002
  8.700000000000001E-003   -9.532316229211844E-002
  8.800000000000002E-003   -9.991497185729623E-002
  8.900000000000002E-003   -0.104546147091149     
  9.000000000000001E-003   -0.109214212977090     
  9.100000000000002E-003   -0.113916626214434     
  9.200000000000002E-003   -0.118650752341257     
  9.300000000000001E-003   -0.123413915769789     
  9.400000000000002E-003   -0.128203345547379     
  9.500000000000001E-003   -0.133016203016610     
  9.600000000000001E-003   -0.137849594647891     
  9.700000000000002E-003   -0.142700541081348     
  9.800000000000001E-003   -0.147566032269937     
  9.900000000000001E-003   -0.152442963831710     
  1.000000000000000E-002   -0.157328192712688     
  1.010000000000000E-002   -0.162218510635291     
  1.020000000000000E-002   -0.167110661606419     
  1.030000000000000E-002   -0.172001320733173     
  1.040000000000000E-002   -0.176887128637675     
  1.050000000000000E-002   -0.181764684022437     
  1.060000000000000E-002   -0.186630513802083     
  1.070000000000000E-002   -0.191481111463910     
  1.080000000000000E-002   -0.196312949289201     
  1.090000000000000E-002   -0.201122445834846     
  1.100000000000000E-002   -0.205905994503748     
  1.110000000000000E-002   -0.210659947518087     
  1.120000000000000E-002   -0.215380627652182     
  1.130000000000000E-002   -0.220064350006161     
  1.140000000000000E-002   -0.224707393845212     
  1.150000000000000E-002   -0.229306027254468     
  1.160000000000000E-002   -0.233856508734270     
  1.170000000000000E-002   -0.238355068389016     
  1.180000000000000E-002   -0.242797956042920     
  1.190000000000000E-002   -0.247181383604648     
  1.200000000000000E-002   -0.251501580809961     
  1.210000000000000E-002   -0.255754782598391     
  1.220000000000000E-002   -0.259937250835627     
  1.230000000000000E-002   -0.264045218544878     
  1.240000000000000E-002   -0.268074948307031     
  1.250000000000000E-002   -0.272022721222506     
  1.260000000000000E-002   -0.275884842338446     
  1.270000000000000E-002   -0.279657651304142     
  1.280000000000000E-002   -0.283337478893009     
  1.290000000000000E-002   -0.286920740036563     
  1.300000000000000E-002   -0.290403863515109     
  1.310000000000000E-002   -0.293783325740365     
  1.320000000000000E-002   -0.297055616573229     
  1.330000000000000E-002   -0.300217320437115     
  1.340000000000000E-002   -0.303265035893662     
  1.350000000000000E-002   -0.306195467938710     
  1.360000000000000E-002   -0.309005306098744     
  1.370000000000000E-002   -0.311691375139356     
  1.380000000000000E-002   -0.314250505299572     
  1.390000000000000E-002   -0.316679636345360     
  1.400000000000000E-002   -0.318975774346865     
  1.410000000000000E-002   -0.321136022416909     
  1.420000000000000E-002   -0.323157519059834     
  1.430000000000000E-002   -0.325037530260949     
  1.440000000000000E-002   -0.326773369673525     
  1.450000000000000E-002   -0.328362494974212     
  1.460000000000000E-002   -0.329802411167334     
  1.470000000000000E-002   -0.331090728666313     
  1.480000000000000E-002   -0.332225196610764     
  1.490000000000000E-002   -0.333203617041995     
  1.500000000000000E-002   -0.334023916695453     
  1.510000000000000E-002   -0.334684154292127     
  1.520000000000000E-002   -0.335182475592636     
  1.530000000000000E-002   -0.335517143685798     
  1.540000000000000E-002   -0.335686536639464     
  1.550000000000000E-002   -0.335689140254264     
  1.560000000000000E-002   -0.335523594097387     
  1.570000000000000E-002   -0.335188631119453     
  1.580000000000000E-002   -0.334683129124818     
  1.590000000000000E-002   -0.334006091992176     
  1.600000000000000E-002   -0.333156651503251     
  1.610000000000000E-002   -0.332134039674484     
  1.620000000000000E-002   -0.330937668532352     
  1.630000000000000E-002   -0.329567063012816     
  1.640000000000000E-002   -0.328021874180281     
  1.650000000000000E-002   -0.326301897578883     
  1.660000000000000E-002   -0.324407060252524     
  1.670000000000000E-002   -0.322337441372413     
  1.680000000000000E-002   -0.320093257671829     
  1.690000000000000E-002   -0.317674829171848     
  1.700000000000000E-002   -0.315082651812446     
  1.710000000000000E-002   -0.312317349909377     
  1.720000000000000E-002   -0.309379683975571     
  1.730000000000000E-002   -0.306270548060469     
  1.740000000000000E-002   -0.302990983309936     
  1.750000000000000E-002   -0.299542164489655     
  1.760000000000000E-002   -0.295925406094637     
  1.770000000000000E-002   -0.292142150457639     
  1.780000000000000E-002   -0.288194016665458     
  1.790000000000000E-002   -0.284082731381708     
  1.800000000000000E-002   -0.279810125113091     
  1.810000000000000E-002   -0.275378215734428     
  1.820000000000000E-002   -0.270789126473238     
  1.830000000000000E-002   -0.266045091447260     
  1.840000000000000E-002   -0.261148488791052     
  1.850000000000000E-002   -0.256101849867128     
  1.860000000000000E-002   -0.250907803306201     
  1.870000000000000E-002   -0.245569094347278     