 -4.000000000000000E-002    0.000000000000000E+000
 -3.990000000000000E-002    0.000000000000000E+000
 -3.980000000000000E-002    0.000000000000000E+000
 -3.970000000000000E-002    0.000000000000000E+000
 -3.960000000000000E-002    0.000000000000000E+000
 -3.950000000000000E-002    0.000000000000000E+000
 -3.940000000000000E-002    0.000000000000000E+000
 -3.930000000000000E-002    0.000000000000000E+000
 -3.920000000000000E-002    0.000000000000000E+000
 -3.910000000000000E-002    0.000000000000000E+000
 -3.900000000000000E-002    0.000000000000000E+000
 -3.890000000000000E-002    0.000000000000000E+000
 -3.880000000000000E-002    0.000000000000000E+000
 -3.870000000000000E-002    0.000000000000000E+000
 -3.860000000000000E-002    0.000000000000000E+000
 -3.850000000000000E-002    0.000000000000000E+000
 -3.840000000000000E-002    0.000000000000000E+000
 -3.830000000000000E-002    0.000000000000000E+000
 -3.820000000000000E-002    0.000000000000000E+000
 -3.810000000000000E-002    0.000000000000000E+000
 -3.800000000000000E-002    0.000000000000000E+000
 -3.790000000000000E-002    0.000000000000000E+000
 -3.780000000000000E-002    0.000000000000000E+000
 -3.770000000000000E-002    0.000000000000000E+000
 -3.760000000000000E-002    0.000000000000000E+000
 -3.750000000000000E-002    0.000000000000000E+000
 -3.740000000000000E-002    0.000000000000000E+000
 -3.730000000000000E-002    0.000000000000000E+000
 -3.720000000000000E-002    0.000000000000000E+000
 -3.710000000000000E-002    0.000000000000000E+000
 -3.700000000000000E-002    0.000000000000000E+000
 -3.690000000000000E-002    0.000000000000000E+000
 -3.680000000000000E-002    0.000000000000000E+000
 -3.670000000000000E-002    0.000000000000000E+000
 -3.660000000000000E-002    0.000000000000000E+000
 -3.650000000000000E-002    0.000000000000000E+000
 -3.640000000000000E-002    0.000000000000000E+000
 -3.630000000000000E-002    0.000000000000000E+000
 -3.620000000000000E-002    0.000000000000000E+000
 -3.610000000000000E-002    0.000000000000000E+000
 -3.600000000000000E-002    0.000000000000000E+000
 -3.590000000000000E-002    0.000000000000000E+000
 -3.580000000000000E-002    0.000000000000000E+000
 -3.570000000000000E-002    0.000000000000000E+000
 -3.560000000000000E-002    0.000000000000000E+000
 -3.550000000000000E-002    0.000000000000000E+000
 -3.540000000000000E-002    0.000000000000000E+000
 -3.530000000000000E-002    0.000000000000000E+000
 -3.520000000000000E-002    0.000000000000000E+000
 -3.510000000000000E-002    0.000000000000000E+000
 -3.500000000000000E-002    0.000000000000000E+000
 -3.490000000000000E-002    0.000000000000000E+000
 -3.480000000000000E-002    0.000000000000000E+000
 -3.470000000000000E-002    0.000000000000000E+000
 -3.460000000000000E-002    0.000000000000000E+000
 -3.450000000000000E-002    0.000000000000000E+000
 -3.440000000000000E-002    0.000000000000000E+000
 -3.430000000000000E-002    0.000000000000000E+000
 -3.420000000000000E-002    0.000000000000000E+000
 -3.410000000000000E-002    0.000000000000000E+000
 -3.400000000000000E-002    0.000000000000000E+000
 -3.390000000000000E-002    0.000000000000000E+000
 -3.380000000000000E-002    0.000000000000000E+000
 -3.370000000000000E-002    0.000000000000000E+000
 -3.360000000000000E-002    0.000000000000000E+000
 -3.350000000000000E-002    0.000000000000000E+000
 -3.340000000000000E-002    0.000000000000000E+000
 -3.330000000000000E-002    0.000000000000000E+000
 -3.320000000000000E-002    0.000000000000000E+000
 -3.310000000000000E-002    0.000000000000000E+000
 -3.300000000000000E-002    0.000000000000000E+000
 -3.290000000000000E-002    0.000000000000000E+000
 -3.280000000000000E-002    0.000000000000000E+000
 -3.270000000000000E-002    0.000000000000000E+000
 -3.260000000000000E-002    0.000000000000000E+000
 -3.250000000000000E-002    0.000000000000000E+000
 -3.240000000000000E-002    0.000000000000000E+000
 -3.230000000000000E-002    0.000000000000000E+000
 -3.220000000000000E-002    0.000000000000000E+000
 -3.210000000000000E-002    0.000000000000000E+000
 -3.200000000000000E-002    0.000000000000000E+000
 -3.190000000000000E-002    0.000000000000000E+000
 -3.180000000000000E-002    0.000000000000000E+000
 -3.170000000000000E-002    0.000000000000000E+000
 -3.160000000000000E-002    0.000000000000000E+000
 -3.150000000000000E-002    0.000000000000000E+000
 -3.140000000000000E-002    0.000000000000000E+000
 -3.130000000000000E-002    0.000000000000000E+000
 -3.120000000000000E-002    0.000000000000000E+000
 -3.110000000000000E-002    0.000000000000000E+000
 -3.100000000000000E-002    0.000000000000000E+000
 -3.090000000000000E-002    0.000000000000000E+000
 -3.080000000000000E-002    0.000000000000000E+000
 -3.070000000000000E-002    0.000000000000000E+000
 -3.060000000000000E-002    0.000000000000000E+000
 -3.050000000000000E-002    0.000000000000000E+000
 -3.040000000000000E-002    0.000000000000000E+000
 -3.030000000000000E-002    0.000000000000000E+000
 -3.020000000000000E-002    0.000000000000000E+000
 -3.010000000000000E-002    0.000000000000000E+000
 -3.000000000000000E-002    0.000000000000000E+000
 -2.990000000000000E-002    0.000000000000000E+000
 -2.980000000000000E-002    0.000000000000000E+000
 -2.970000000000000E-002    0.000000000000000E+000
 -2.960000000000000E-002    0.000000000000000E+000
 -2.950000000000000E-002    0.000000000000000E+000
 -2.940000000000000E-002    0.000000000000000E+000
 -2.930000000000000E-002    0.000000000000000E+000
 -2.920000000000000E-002    0.000000000000000E+000
 -2.910000000000000E-002    0.000000000000000E+000
 -2.900000000000000E-002    0.000000000000000E+000
 -2.890000000000000E-002    0.000000000000000E+000
 -2.880000000000000E-002    0.000000000000000E+000
 -2.870000000000000E-002    0.000000000000000E+000
 -2.860000000000000E-002    0.000000000000000E+000
 -2.850000000000000E-002    0.000000000000000E+000
 -2.840000000000000E-002    0.000000000000000E+000
 -2.830000000000000E-002    0.000000000000000E+000
 -2.820000000000000E-002    0.000000000000000E+000
 -2.810000000000000E-002    0.000000000000000E+000
 -2.800000000000000E-002    0.000000000000000E+000
 -2.790000000000000E-002    0.000000000000000E+000
 -2.780000000000000E-002    0.000000000000000E+000
 -2.770000000000000E-002    2.138211768073757E-048
 -2.760000000000000E-002    4.276423536147513E-048
 -2.750000000000000E-002    6.414635304221270E-048
 -2.740000000000000E-002    6.414635304221270E-048
 -2.730000000000000E-002    6.414635304221270E-048
 -2.720000000000000E-002    4.276423536147513E-048
 -2.710000000000000E-002   -2.138211768073757E-048
 -2.700000000000000E-002   -1.282927060844254E-047
 -2.690000000000000E-002   -4.283097291292159E-047
 -2.680000000000000E-002   -1.405336421914242E-046
 -2.670000000000000E-002   -2.661665395577787E-046
 -2.660000000000000E-002   -4.681199885218982E-046
 -2.650000000000000E-002   -7.485989384033030E-046
 -2.640000000000000E-002   -1.084016322201735E-045
 -2.630000000000000E-002   -1.400189800087504E-045
 -2.620000000000000E-002   -1.732613687410633E-045
 -2.610000000000000E-002   -1.840310739967457E-045
 -2.600000000000000E-002   -1.380793871697214E-045
 -2.590000000000000E-002   -3.696188892882993E-046
 -2.580000000000000E-002    1.444346521794320E-045
 -2.570000000000000E-002    5.140710863021204E-045
 -2.560000000000000E-002    1.052706021440279E-044
 -2.550000000000000E-002    1.798548963083031E-044
 -2.540000000000000E-002    2.670894456865027E-044
 -2.530000000000000E-002    3.657518240829936E-044
 -2.520000000000000E-002    4.723904873368190E-044
 -2.510000000000000E-002    5.561869178535147E-044
 -2.500000000000000E-002    6.005429903901425E-044
 -2.490000000000000E-002    5.489008728680765E-044
 -2.480000000000000E-002    3.546231260937558E-044
 -2.470000000000000E-002   -6.160990147381630E-045
 -2.460000000000000E-002   -7.785417478586800E-044
 -2.450000000000000E-002   -1.853141861420347E-043
 -2.440000000000000E-002   -3.328530535526834E-043
 -2.430000000000000E-002   -5.202533813210071E-043
 -2.420000000000000E-002   -7.395107494518421E-043
 -2.410000000000000E-002   -9.694104431085805E-043
 -2.400000000000000E-002   -1.173649503644574E-042
 -2.390000000000000E-002   -1.295663263050755E-042
 -2.380000000000000E-002   -1.256137992126162E-042
 -2.370000000000000E-002   -9.545093462960360E-043
 -2.360000000000000E-002   -2.725837895455352E-043
 -2.350000000000000E-002    9.152659521950707E-043
 -2.340000000000000E-002    2.722885812099291E-042
 -2.330000000000000E-002    5.226293003776710E-042
 -2.320000000000000E-002    8.426639017950594E-042
 -2.310000000000000E-002    1.220477609740747E-041
 -2.300000000000000E-002    1.626680321497623E-041
 -2.290000000000000E-002    2.009045339341595E-041
 -2.280000000000000E-002    2.287526014559577E-041
 -2.270000000000000E-002    2.351583543811899E-041
 -2.260000000000000E-002    2.059877006523504E-041
 -2.250000000000000E-002    1.246256740567011E-041
 -2.240000000000000E-002   -2.679674949273354E-042
 -2.230000000000000E-002   -2.652066292350540E-041
 -2.220000000000000E-002   -6.033688420163193E-041
 -2.210000000000000E-002   -1.045448033070902E-040
 -2.200000000000000E-002   -1.581514782791076E-040
 -2.190000000000000E-002   -2.181253450258504E-040
 -2.180000000000000E-002   -2.787290471681208E-040
 -2.170000000000000E-002   -3.309124561778231E-040
 -2.160000000000000E-002   -3.618870153045950E-040
 -2.150000000000000E-002   -3.550268084670096E-040
 -2.140000000000000E-002   -2.903153193778482E-040
 -2.130000000000000E-002   -1.455216331015587E-040
 -2.120000000000000E-002    1.016674662904834E-040
 -2.110000000000000E-002    4.703777441762963E-040
 -2.100000000000000E-002    9.720510042710275E-040
 -2.090000000000000E-002    1.604735180099939E-039
 -2.080000000000000E-002    2.346390419512255E-039
 -2.070000000000000E-002    3.147671219705979E-039
 -2.060000000000000E-002    3.924964011009016E-039
 -2.050000000000000E-002    4.554807878750945E-039
 -2.040000000000000E-002    4.871172547127494E-039
 -2.030000000000000E-002    4.667396753171501E-039
 -2.020000000000000E-002    3.704793479880628E-039
 -2.010000000000000E-002    1.729954783686879E-039
 -2.000000000000000E-002   -1.497422461027545E-039
 -1.990000000000000E-002   -6.165010487288237E-039
 -1.980000000000000E-002   -1.235644998246732E-038
 -1.970000000000000E-002   -1.998948366248163E-038
 -1.960000000000000E-002   -2.874709284857496E-038
 -1.950000000000000E-002   -3.800765400986692E-038
 -1.940000000000000E-002   -4.678302911782799E-038
 -1.930000000000000E-002   -5.367650207338239E-038
 -1.920000000000000E-002   -5.687521822129841E-038
 -1.910000000000000E-002   -5.419382955655474E-038
 -1.900000000000000E-002   -4.318678944557856E-038
 -1.890000000000000E-002   -2.134551239970887E-038
 -1.880000000000000E-002    1.360715361544312E-038
 -1.870000000000000E-002    6.331988118406799E-038
 -1.860000000000000E-002    1.283186334091570E-037
 -1.850000000000000E-002    2.074354639942103E-037
 -1.840000000000000E-002    2.971987821990624E-037
 -1.830000000000000E-002    3.912449218107763E-037
 -1.820000000000000E-002    4.798333534285303E-037
 -1.810000000000000E-002    5.495700341863498E-037
 -1.800000000000000E-002    5.834612895679235E-037
 -1.790000000000000E-002    5.614315639914898E-037
 -1.780000000000000E-002    4.614368937565540E-037
 -1.770000000000000E-002    2.612887401427535E-037
 -1.760000000000000E-002   -5.873587903985973E-038
 -1.750000000000000E-002   -5.124846037278028E-037
 -1.740000000000000E-002   -1.103796753652357E-036
 -1.730000000000000E-002   -1.821839888074705E-036
 -1.720000000000000E-002   -2.636248585724504E-036
 -1.710000000000000E-002   -3.492554872930448E-036
 -1.700000000000000E-002   -4.308560612752776E-036
 -1.690000000000000E-002   -4.972452497160250E-036
 -1.680000000000000E-002   -5.343577389941906E-036
 -1.670000000000000E-002   -5.256852022059601E-036
 -1.660000000000000E-002   -4.531750811406736E-036
 -1.650000000000000E-002   -2.986667192255272E-036
 -1.640000000000000E-002   -4.591447014944543E-037
 -1.630000000000000E-002    3.167988947110107E-036
 -1.620000000000000E-002    7.935207648238572E-036
 -1.610000000000000E-002    1.377104025561861E-035
 -1.600000000000000E-002    2.045543284651834E-035
 -1.590000000000000E-002    2.758526472700428E-035
 -1.580000000000000E-002    3.454668124960876E-035
 -1.570000000000000E-002    4.049998685354016E-035
 -1.560000000000000E-002    4.438362308015036E-035
 -1.550000000000000E-002    4.494422553924130E-035
 -1.540000000000000E-002    4.079955164903248E-035
 -1.530000000000000E-002    3.054006155969306E-035
 -1.520000000000000E-002    1.287298404737895E-035
 -1.510000000000000E-002   -1.319058394702293E-035
 -1.500000000000000E-002   -4.810936733215927E-035
 -1.490000000000000E-002   -9.155613849370259E-035
 -1.480000000000000E-002   -1.421490499810298E-034
 -1.470000000000000E-002   -1.971945455959122E-034
 -1.460000000000000E-002   -2.524743574961899E-034
 -1.450000000000000E-002   -3.021168283375731E-034
 -1.440000000000000E-002   -3.385989052524063E-034
 -1.430000000000000E-002   -3.529286923009574E-034
 -1.420000000000000E-002   -3.350575343407783E-034
 -1.410000000000000E-002   -2.745644737627815E-034
 -1.400000000000000E-002   -1.616418785674880E-034
 -1.390000000000000E-002    1.161062787933285E-035
 -1.380000000000000E-002    2.496083357377402E-034
 -1.370000000000000E-002    5.514843881812024E-034
 -1.360000000000000E-002    9.091873525582700E-034
 -1.350000000000000E-002    1.305640994490053E-033
 -1.340000000000000E-002    1.713192266373688E-033
 -1.330000000000000E-002    2.092623844541285E-033
 -1.320000000000000E-002    2.393053593692823E-033
 -1.310000000000000E-002    2.553061817272062E-033
 -1.300000000000000E-002    2.503383161607448E-033
 -1.290000000000000E-002    2.171451362807660E-033
 -1.280000000000000E-002    1.487988229768221E-033
 -1.270000000000000E-002    3.956737529965098E-034
 -1.260000000000000E-002   -1.140281022381868E-033
 -1.250000000000000E-002   -3.120112212197941E-033
 -1.240000000000000E-002   -5.496813432397647E-033
 -1.230000000000000E-002   -8.163920466293575E-033
 -1.220000000000000E-002   -1.094527514611418E-032
 -1.210000000000000E-002   -1.358860332097272E-032
 -1.200000000000000E-002   -1.576499739522976E-032
 -1.190000000000000E-002   -1.707648567777399E-032
 -1.180000000000000E-002   -1.707378738769387E-032
 -1.170000000000000E-002   -1.528597673245979E-032
 -1.160000000000000E-002   -1.126309618224837E-032
 -1.150000000000000E-002   -4.631708537337834E-033
 -1.140000000000000E-002    4.838034864197309E-033
 -1.130000000000000E-002    1.715700535381866E-032
 -1.120000000000000E-002    3.203862080590316E-032
 -1.110000000000000E-002    4.882466653385529E-032
 -1.100000000000000E-002    6.642497103930871E-032
 -1.090000000000000E-002    8.328224500824428E-032
 -1.080000000000000E-002    9.737467961781745E-032
 -1.070000000000000E-002    1.062690434899943E-031
 -1.060000000000000E-002    1.072360777601352E-031
 -1.050000000000000E-002    9.743717183549398E-032
 -1.040000000000000E-002    7.418670885567772E-032
 -1.030000000000000E-002    3.528786294532601E-032
 -1.020000000000000E-002   -2.056916448819579E-032
 -1.010000000000000E-002   -9.336781900575093E-032
 -1.000000000000000E-002   -1.813177005570591E-031
 -9.899999999999999E-003   -2.804438869567588E-031
 -9.800000000000000E-003   -3.842689107645098E-031
 -9.699999999999999E-003   -4.836519686197750E-031
 -9.599999999999999E-003   -5.668546574191105E-031
 -9.500000000000000E-003   -6.199008637710923E-031
 -9.399999999999999E-003   -6.272899097204279E-031
 -9.299999999999999E-003   -5.731035017787890E-031
 -9.200000000000000E-003   -4.425187875535951E-031
 -9.099999999999999E-003   -2.237010334640625E-031
 -8.999999999999999E-003    8.999905206241010E-032
 -8.900000000000000E-003    4.976740550344178E-031
 -8.799999999999999E-003    9.885057763193844E-031
 -8.699999999999999E-003    1.539677605730411E-030
 -8.600000000000000E-003    2.114853984034119E-030
 -8.499999999999999E-003    2.663563779950774E-030
 -8.399999999999999E-003    3.121835949748475E-030
 -8.300000000000000E-003    3.414414822122744E-030
 -8.199999999999999E-003    3.458823649145669E-030
 -8.100000000000000E-003    3.171435462529597E-030
 -8.000000000000000E-003    2.475557222186750E-030
 -7.899999999999999E-003    1.311328388331068E-030
 -7.800000000000000E-003   -3.530112159262957E-031
 -7.699999999999999E-003   -2.509199857877151E-030
 -7.599999999999999E-003   -5.097380251396325E-030
 -7.499999999999999E-003   -7.996141802499074E-030
 -7.399999999999999E-003   -1.101566140280622E-029
 -7.299999999999999E-003   -1.389556843428162E-029
 -7.199999999999999E-003   -1.630915875271359E-029
 -7.100000000000000E-003   -1.787544964378851E-029
 -6.999999999999999E-003   -1.818022131356228E-029
 -6.899999999999999E-003   -1.680663569581457E-029
 -6.800000000000000E-003   -1.337527651951896E-029
 -6.699999999999999E-003   -7.592449350458273E-030
 -6.599999999999999E-003    6.955353415749254E-031
 -6.499999999999999E-003    1.144564882236006E-029
 -6.399999999999999E-003    2.436378592386841E-029
 -6.299999999999999E-003    3.885873812514056E-029
 -6.199999999999999E-003    5.401137336242568E-029
 -6.100000000000000E-003    6.856639329630625E-029
 -5.999999999999999E-003    8.095399664103969E-029
 -5.899999999999999E-003    8.934797058155961E-029
 -5.800000000000000E-003    9.176515143285069E-029
 -5.699999999999999E-003    8.620857411166089E-029
 -5.599999999999999E-003    7.085316776215273E-029
 -5.499999999999999E-003    4.426847867184075E-029
 -5.399999999999999E-003    5.667804294840465E-030
 -5.299999999999999E-003   -4.483232900530991E-029
 -5.199999999999999E-003   -1.059639161156220E-028
 -5.099999999999999E-003   -1.750970123748471E-028
 -4.999999999999999E-003   -2.480974603139914E-028
 -4.899999999999999E-003   -3.192852708256468E-028
 -4.799999999999999E-003   -3.815256527515497E-028
 -4.699999999999999E-003   -4.264813231803660E-028
 -4.599999999999999E-003   -4.450472042915229E-028
 -4.499999999999999E-003   -4.279780342131635E-028
 -4.399999999999999E-003   -3.667035960351353E-028
 -4.299999999999999E-003   -2.543081559945823E-028
 -4.199999999999999E-003   -8.662852459666455E-029
 -4.099999999999999E-003    1.365979858043894E-028
 -3.999999999999999E-003    4.106278692992361E-028
 -3.899999999999999E-003    7.247612023377156E-028
 -3.799999999999999E-003    1.061676236519867E-027
 -3.699999999999999E-003    1.397187779318443E-027
 -3.599999999999999E-003    1.700565403429829E-027
 -3.499999999999999E-003    1.935533869217924E-027
 -3.399999999999999E-003    2.062048932597387E-027
 -3.299999999999999E-003    2.038893249682474E-027
 -3.199999999999999E-003    1.827078231282049E-027
 -3.099999999999999E-003    1.393957260832767E-027
 -2.999999999999999E-003    7.178658559666435E-028
 -2.899999999999999E-003   -2.069879439923862E-028
 -2.799999999999999E-003   -1.365760424571725E-027
 -2.699999999999999E-003   -2.718798110631299E-027
 -2.599999999999999E-003   -4.198582861419275E-027
 -2.499999999999999E-003   -5.708363208900585E-027
 -2.399999999999999E-003   -7.123034584120794E-027
 -2.299999999999999E-003   -8.292776505859180E-027
 -2.199999999999999E-003   -9.049832526307223E-027
 -2.099999999999999E-003   -9.218644646994051E-027
 -1.999999999999999E-003   -8.629304436275969E-027
 -1.899999999999999E-003   -7.133972022305251E-027
 -1.799999999999999E-003   -4.625571384794557E-027
 -1.699999999999999E-003   -1.057686915183189E-027
 -1.599999999999999E-003    3.535798701407439E-027
 -1.499999999999999E-003    9.023109859873053E-027
 -1.399999999999999E-003    1.516109921943568E-026
 -1.299999999999999E-003    2.158810844284114E-026
 -1.199999999999999E-003    2.782535284976248E-026
 -1.099999999999999E-003    3.328887614903297E-026
 -9.999999999999989E-004    3.731361758759515E-026
 -8.999999999999990E-004    3.919050536249184E-026
 -7.999999999999990E-004    3.821656596960525E-026
 -6.999999999999989E-004    3.375687594438754E-026
 -5.999999999999990E-004    2.531590338318183E-026
 -4.999999999999989E-004    1.261433906160349E-026
 -3.999999999999989E-004   -4.333893269295666E-027
 -2.999999999999989E-004   -2.515099132756451E-026
 -1.999999999999989E-004   -4.903866980872758E-026
 -9.999999999999892E-005   -7.474376029800041E-026
  1.084202172485504E-018   -1.005543273268051E-025
  1.000000000000011E-004   -1.243338552491206E-025
  2.000000000000011E-004   -1.435996435796328E-025
  3.000000000000011E-004   -1.556491843861142E-025
  4.000000000000011E-004   -1.577350829318471E-025
  5.000000000000011E-004   -1.472850411830777E-025
  6.000000000000011E-004   -1.221588449267148E-025
  7.000000000000011E-004   -8.092928705313566E-026
  8.000000000000011E-004   -2.316880432888166E-026
  9.000000000000012E-004    5.028090125284613E-026
  1.000000000000001E-003    1.370828611805383E-025
  1.100000000000001E-003    2.332513076539845E-025
  1.200000000000001E-003    3.331002161721403E-025
  1.300000000000001E-003    4.293212674331548E-025
  1.400000000000001E-003    5.132141705745810E-025
  1.500000000000001E-003    5.750846723837112E-025
  1.600000000000001E-003    6.048146252553109E-025
  1.700000000000001E-003    5.925960836315001E-025
  1.800000000000001E-003    5.298046721121334E-025
  1.900000000000001E-003    4.099714600570354E-025
  2.000000000000001E-003    2.297950297700958E-025
  2.100000000000001E-003   -9.880757817744382E-027
  2.200000000000001E-003   -3.032111815690964E-025
  2.300000000000001E-003   -6.387142957983062E-025
  2.400000000000001E-003   -9.989534760651271E-025
  2.500000000000001E-003   -1.360635502905450E-024
  2.600000000000001E-003   -1.695204025161968E-024
  2.700000000000001E-003   -1.969989996497694E-024
  2.800000000000001E-003   -2.149943641465304E-024
  2.900000000000001E-003   -2.199932895267866E-024
  3.000000000000001E-003   -2.087542076480688E-024
  3.100000000000001E-003   -1.786253403611980E-024
  3.200000000000001E-003   -1.278831577562715E-024
  3.300000000000001E-003   -5.606856424094487E-025
  3.400000000000001E-003    3.570711816142046E-025
  3.500000000000001E-003    1.445172108695557E-024
  3.600000000000001E-003    2.654679756722907E-024
  3.700000000000001E-003    3.916723572038378E-024
  3.800000000000001E-003    5.143765248754786E-024
  3.900000000000001E-003    6.232614323023795E-024
  4.000000000000001E-003    7.069310904193935E-024
  4.100000000000001E-003    7.535866996168894E-024
  4.200000000000001E-003    7.518713307968151E-024
  4.300000000000001E-003    6.918528406284586E-024
  4.400000000000001E-003    5.660945368032953E-024
  4.500000000000001E-003    3.707469973792809E-024
  4.600000000000002E-003    1.065784978694977E-024
  4.700000000000001E-003   -2.201495578565685E-024
  4.800000000000001E-003   -5.970619010714824E-024
  4.900000000000002E-003   -1.005404091451453E-023
  5.000000000000001E-003   -1.420222518385276E-023
  5.100000000000001E-003   -1.811064443759606E-023
  5.200000000000001E-003   -2.143245012595777E-023
  5.300000000000002E-003   -2.379692728481316E-023
  5.400000000000001E-003   -2.483342524077659E-023
  5.500000000000001E-003   -2.419994825127718E-023
  5.600000000000002E-003   -2.161507681373514E-023
  5.700000000000001E-003   -1.689138213849920E-023
  5.800000000000001E-003   -9.968001261525586E-024
  5.900000000000002E-003   -9.397122055868005E-025
  6.000000000000001E-003    9.920456448719075E-024
  6.100000000000001E-003    2.214800335906725E-023
  6.200000000000002E-003    3.508597029670458E-023
  6.300000000000002E-003    4.789852463361637E-023
  6.400000000000001E-003    5.960077339992198E-023
  6.500000000000001E-003    6.910559178476118E-023
  6.600000000000002E-003    7.528695027283065E-023
  6.700000000000001E-003    7.705792444616979E-023
  6.800000000000001E-003    7.346013518405132E-023
  6.900000000000002E-003    6.375981596861425E-023
  7.000000000000001E-003    4.754436427409535E-023
  7.100000000000001E-003    2.481212515626461E-023
  7.200000000000002E-003   -3.952692512099171E-024
  7.300000000000002E-003   -3.772833756396846E-023
  7.400000000000001E-003   -7.493512972863089E-023
  7.500000000000001E-003   -1.134534890910663E-022
  7.600000000000002E-003   -1.506857868945393E-022
  7.700000000000001E-003   -1.836650881329512E-022
  7.800000000000001E-003   -2.092106459639579E-022
  7.900000000000001E-003   -2.241267574556196E-022
  8.000000000000002E-003   -2.254373131795262E-022
  8.100000000000001E-003   -2.106446901195246E-022
  8.200000000000001E-003   -1.779976133871272E-022
  8.300000000000002E-003   -1.267494201987781E-022
  8.400000000000001E-003   -5.738594533046002E-023
  8.500000000000002E-003    2.819950037913110E-023
  8.600000000000002E-003    1.266057386651927E-022
  8.700000000000001E-003    2.329178834839494E-022
  8.800000000000002E-003    3.408126045654926E-022
  8.900000000000002E-003    4.427844811628127E-022
  9.000000000000001E-003    5.304971690787081E-022
  9.100000000000002E-003    5.952534013334756E-022
  9.200000000000002E-003    6.285686500229220E-022
  9.300000000000001E-003    6.228229137345774E-022
  9.400000000000002E-003    5.719549589969439E-022
  9.500000000000001E-003    4.721549358930695E-022
  9.600000000000001E-003    3.225040977957741E-022
  9.700000000000002E-003    1.255062036728646E-022
  9.800000000000001E-003   -1.125451685646769E-022
  9.900000000000001E-003   -3.814163766039631E-022
  1.000000000000000E-002   -6.670451914257448E-022
  1.010000000000000E-002   -9.519462962482988E-022
  1.020000000000000E-002   -1.215927310733136E-021
  1.030000000000000E-002   -1.437109877458119E-021
  1.040000000000000E-002   -1.593229902976327E-021
  1.050000000000000E-002   -1.663163292404057E-021
  1.060000000000000E-002   -1.628602635326514E-021
  1.070000000000000E-002   -1.475784831340828E-021
  1.080000000000000E-002   -1.197154136931842E-021
  1.090000000000000E-002   -7.928312235893039E-022
  1.100000000000000E-002   -2.717535640312737E-022
  1.110000000000000E-002    3.476419607695370E-022
  1.120000000000000E-002    1.037310009289228E-021
  1.130000000000000E-002    1.760151164333748E-021
  1.140000000000000E-002    2.471286485008085E-021
  1.150000000000000E-002    3.120064254925156E-021
  1.160000000000000E-002    3.652758931363622E-021
  1.170000000000000E-002    4.015870361555208E-021
  1.180000000000000E-002    4.159873434040880E-021
  1.190000000000000E-002    4.043215819046292E-021
  1.200000000000000E-002    3.636316257182557E-021
  1.210000000000000E-002    2.925284985802128E-021
  1.220000000000000E-002    1.915063903425208E-021
  1.230000000000000E-002    6.316914561722074E-022
  1.240000000000000E-002   -8.765843991441837E-022
  1.250000000000000E-002   -2.539575384799048E-021
  1.260000000000000E-002   -4.266971384267667E-021
  1.270000000000000E-002   -5.951780928431293E-021
  1.280000000000000E-002   -7.475370802303657E-021
  1.290000000000000E-002   -8.713964482411551E-021
  1.300000000000000E-002   -9.546335333683232E-021
  1.310000000000000E-002   -9.862324418402847E-021
  1.320000000000000E-002   -9.571699796614796E-021
  1.330000000000000E-002   -8.612797168967564E-021
  1.340000000000000E-002   -6.960325494099606E-021
  1.350000000000000E-002   -4.631703515174239E-021
  1.360000000000000E-002   -1.691322049294134E-021
  1.370000000000000E-002    1.747814962221690E-021
  1.380000000000000E-002    5.525495566570763E-021
  1.390000000000000E-002    9.439012684625657E-021
  1.400000000000000E-002    1.325127776999003E-020
  1.410000000000000E-002    1.670217668625761E-020
  1.420000000000000E-002    1.952281188624000E-020
  1.430000000000000E-002    2.145199666709789E-020
  1.440000000000000E-002    2.225419405669028E-020
  1.450000000000000E-002    2.173786590093105E-020
  1.460000000000000E-002    1.977308782501175E-020
  1.470000000000000E-002    1.630718768042258E-020
  1.480000000000000E-002    1.137717055613698E-020
  1.490000000000000E-002    5.117780536663061E-021
  1.500000000000000E-002   -2.235816841734755E-021
  1.510000000000000E-002   -1.035146483491717E-020
  1.520000000000000E-002   -1.881001885004074E-020
  1.530000000000000E-002   -2.712196749459775E-020
  1.540000000000000E-002   -3.475032172280221E-020
  1.550000000000000E-002   -4.113898327993544E-020
  1.560000000000000E-002   -4.574538197347930E-020
  1.570000000000000E-002   -4.807575980456927E-020
  1.580000000000000E-002   -4.772119744458057E-020
  1.590000000000000E-002   -4.439220681149799E-020
  1.600000000000000E-002   -3.794960527622047E-020
  1.610000000000000E-002   -2.842940845076929E-020
  1.620000000000000E-002   -1.605960906559295E-020
  1.630000000000000E-002   -1.267039144695824E-021
  1.640000000000000E-002    1.532713006028669E-020
  1.650000000000000E-002    3.292404776893609E-020
  1.660000000000000E-002    5.057625081837798E-020
  1.670000000000000E-002    6.722857608363927E-020
  1.680000000000000E-002    8.176969616622430E-020
  1.690000000000000E-002    9.309225451964462E-020
  1.700000000000000E-002    1.001589148799857E-019
  1.710000000000000E-002    1.020710603540412E-019
  1.720000000000000E-002    9.813640544488015E-020
  1.730000000000000E-002    8.793152431396046E-020
  1.740000000000000E-002    7.135519527774040E-020
  1.750000000000000E-002    4.866861770493512E-020
  1.760000000000000E-002    2.051888693433238E-020
  1.770000000000000E-002   -1.205719476020107E-020
  1.780000000000000E-002   -4.765121281347957E-020
  1.790000000000000E-002   -8.452435850642123E-020
  1.800000000000000E-002   -1.206716783022210E-019
  1.810000000000000E-002   -1.539082240230549E-019
  1.820000000000000E-002   -1.819745662045065E-019
  1.830000000000000E-002   -2.026577557527774E-019
  1.840000000000000E-002   -2.139227035912590E-019
  1.850000000000000E-002   -2.140478161425047E-019
  1.860000000000000E-002   -2.017578062539960E-019
  1.870000000000000E-002   -1.763460099519350E-019