 -4.000000000000000E-002    0.000000000000000E+000
 -3.990000000000000E-002   -7.262308979314282E-007
 -3.980000000000000E-002   -2.176793783367038E-006
 -3.970000000000000E-002   -4.331407371796982E-006
 -3.960000000000000E-002   -7.155492520911263E-006
 -3.950000000000000E-002   -1.060435654327267E-005
 -3.940000000000000E-002   -1.462728263399590E-005
 -3.930000000000000E-002   -1.917136387370567E-005
 -3.920000000000000E-002   -2.418493215842801E-005
 -3.910000000000000E-002   -2.962046807857933E-005
 -3.900000000000000E-002   -3.543692603879604E-005
 -3.890000000000000E-002   -4.160143444092831E-005
 -3.880000000000000E-002   -4.809036644539814E-005
 -3.870000000000000E-002   -5.488982700620756E-005
 -3.860000000000000E-002   -6.199562984938405E-005
 -3.850000000000000E-002   -6.941285073470278E-005
 -3.840000000000000E-002   -7.715507037920961E-005
 -3.830000000000000E-002   -8.524338953339737E-005
 -3.820000000000000E-002   -9.370537047581781E-005
 -3.810000000000000E-002   -1.025739593496930E-004
 -3.800000000000000E-002   -1.118864916574578E-004
 -3.790000000000000E-002   -1.216838112478935E-004
 -3.780000000000000E-002   -1.320095365174039E-004
 -3.770000000000000E-002   -1.429095368069597E-004
 -3.760000000000000E-002   -1.544315310899235E-004
 -3.750000000000000E-002   -1.666247972386019E-004
 -3.740000000000000E-002   -1.795400788587282E-004
 -3.730000000000000E-002   -1.932294988370792E-004
 -3.720000000000000E-002   -2.077465243085103E-004
 -3.710000000000000E-002   -2.231460369467569E-004
 -3.700000000000000E-002   -2.394843230501757E-004
 -3.690000000000000E-002   -2.568191690778569E-004
 -3.680000000000000E-002   -2.752099304481600E-004
 -3.670000000000000E-002   -2.947176615170075E-004
 -3.660000000000000E-002   -3.154052789718292E-004
 -3.650000000000000E-002   -3.373377856215329E-004
 -3.640000000000000E-002   -3.605825656717193E-004
 -3.630000000000000E-002   -3.852097503141964E-004
 -3.620000000000000E-002   -4.112926329785084E-004
 -3.610000000000000E-002   -4.389081986952373E-004
 -3.600000000000000E-002   -4.681375042202230E-004
 -3.590000000000000E-002   -4.990663161154882E-004
 -3.580000000000000E-002   -5.317854862735787E-004
 -3.570000000000000E-002   -5.663913495081128E-004
 -3.560000000000000E-002   -6.029862675709962E-004
 -3.550000000000000E-002   -6.416786370732670E-004
 -3.540000000000000E-002   -6.825834000167351E-004
 -3.530000000000000E-002   -7.258220470893878E-004
 -3.520000000000000E-002   -7.715227315551718E-004
 -3.510000000000000E-002   -8.198203504578845E-004
 -3.500000000000000E-002   -8.708568323868301E-004
 -3.490000000000000E-002   -9.247810364358833E-004
 -3.480000000000000E-002   -9.817490093162995E-004
 -3.470000000000000E-002   -1.041924380313081E-003
 -3.460000000000000E-002   -1.105478491203775E-003
 -3.450000000000000E-002   -1.172591012479574E-003
 -3.440000000000000E-002   -1.243450310287443E-003
 -3.430000000000000E-002   -1.318253841570972E-003
 -3.420000000000000E-002   -1.397209072308563E-003
 -3.410000000000000E-002   -1.480533713168980E-003
 -3.400000000000000E-002   -1.568456277742056E-003
 -3.390000000000000E-002   -1.661216798973826E-003
 -3.380000000000000E-002   -1.759067245088933E-003
 -3.370000000000000E-002   -1.862271671722447E-003
 -3.360000000000000E-002   -1.971106856510369E-003
 -3.350000000000000E-002   -2.085862493595604E-003
 -3.340000000000000E-002   -2.206841462532391E-003
 -3.330000000000000E-002   -2.334360178404102E-003
 -3.320000000000000E-002   -2.468748713489033E-003
 -3.310000000000000E-002   -2.610351487755277E-003
 -3.300000000000000E-002   -2.759527140107318E-003
 -3.290000000000000E-002   -2.916649478043792E-003
 -3.280000000000000E-002   -3.082107485327681E-003
 -3.270000000000000E-002   -3.256306247373341E-003
 -3.260000000000000E-002   -3.439667248479070E-003
 -3.250000000000000E-002   -3.632629501652261E-003
 -3.240000000000000E-002   -3.835649838736816E-003
 -3.230000000000000E-002   -4.049204006452351E-003
 -3.220000000000000E-002   -4.273787343761477E-003
 -3.210000000000000E-002   -4.509915874585428E-003
 -3.200000000000000E-002   -4.758126649888755E-003
 -3.190000000000000E-002   -5.018979494806552E-003
 -3.180000000000000E-002   -5.293056997104396E-003
 -3.170000000000000E-002   -5.580966012321955E-003
 -3.160000000000000E-002   -5.883338193293943E-003
 -3.150000000000000E-002   -6.200831626701373E-003
 -3.140000000000000E-002   -6.534130777810305E-003
 -3.130000000000000E-002   -6.883947723149151E-003
 -3.120000000000000E-002   -7.251023861951250E-003
 -3.110000000000000E-002   -7.636129450675102E-003
 -3.100000000000000E-002   -8.040065496779608E-003
 -3.090000000000000E-002   -8.463664810677403E-003
 -3.080000000000000E-002   -8.907792122491405E-003
 -3.070000000000000E-002   -9.373345556920393E-003
 -3.060000000000000E-002   -9.861258418656127E-003
 -3.050000000000000E-002   -1.037249832871981E-002
 -3.040000000000000E-002   -1.090806879092004E-002
 -3.030000000000000E-002   -1.146901211240110E-002
 -3.020000000000000E-002   -1.205640828542806E-002
 -3.010000000000000E-002   -1.267137662277630E-002
 -3.000000000000000E-002   -1.331507738052489E-002
 -2.990000000000000E-002   -1.398871319225914E-002
 -2.980000000000000E-002   -1.469352976370807E-002
 -2.970000000000000E-002   -1.543081660398379E-002
 -2.960000000000000E-002   -1.620190803131346E-002
 -2.950000000000000E-002   -1.700818629936928E-002
 -2.940000000000000E-002   -1.785108050534210E-002
 -2.930000000000000E-002   -1.873206822280810E-002
 -2.920000000000000E-002   -1.965267612877752E-002
 -2.910000000000000E-002   -2.061448184110478E-002
 -2.900000000000000E-002   -2.161911413260845E-002
 -2.890000000000000E-002   -2.266825607618038E-002
 -2.880000000000000E-002   -2.376364436554068E-002
 -2.870000000000000E-002   -2.490706854211373E-002
 -2.860000000000000E-002   -2.610037351630227E-002
 -2.850000000000000E-002   -2.734546496404226E-002
 -2.840000000000000E-002   -2.864430432855446E-002
 -2.830000000000000E-002   -2.999891163725022E-002
 -2.820000000000000E-002   -3.141136986443745E-002
 -2.810000000000000E-002   -3.288382437864509E-002
 -2.800000000000000E-002   -3.441848534175296E-002
 -2.790000000000000E-002   -3.601762503540176E-002
 -2.780000000000000E-002   -3.768358224966246E-002
 -2.770000000000000E-002   -3.941876766521238E-002
 -2.760000000000000E-002   -4.122565656926237E-002
 -2.750000000000000E-002   -4.310679573354916E-002
 -2.740000000000000E-002   -4.506480002089779E-002
 -2.730000000000000E-002   -4.710236289098416E-002
 -2.720000000000000E-002   -4.922224346465380E-002
 -2.710000000000000E-002   -5.142727746447168E-002
 -2.700000000000000E-002   -5.372037519995722E-002
 -2.690000000000000E-002   -5.610451977087173E-002
 -2.680000000000000E-002   -5.858277570748284E-002
 -2.670000000000000E-002   -6.115827463293037E-002
 -2.660000000000000E-002   -6.383423152836483E-002
 -2.650000000000000E-002   -6.661394008630611E-002
 -2.640000000000000E-002   -6.950076805312602E-002
 -2.630000000000000E-002   -7.249816725447310E-002
 -2.620000000000000E-002   -7.560966528183746E-002
 -2.610000000000000E-002   -7.883887263772633E-002
 -2.600000000000000E-002   -8.218947300797802E-002
 -2.590000000000000E-002   -8.566523967940459E-002
 -2.580000000000000E-002   -8.927002751326421E-002
 -2.570000000000000E-002   -9.300775999942422E-002
 -2.560000000000000E-002   -9.688245421475289E-002
 -2.550000000000000E-002   -0.100898202538436     
 -2.540000000000000E-002   -0.105059168383001     
 -2.530000000000000E-002   -0.109369611089872     
 -2.520000000000000E-002   -0.113833852167758     
 -2.510000000000000E-002   -0.118456299714155     
 -2.500000000000000E-002   -0.123241437241030     
 -2.490000000000000E-002   -0.128193817380708     
 -2.480000000000000E-002   -0.133318078937162     
 -2.470000000000000E-002   -0.138618934881790     
 -2.460000000000000E-002   -0.144101157666281     
 -2.450000000000000E-002   -0.149769612403324     
 -2.440000000000000E-002   -0.155629215715858     
 -2.430000000000000E-002   -0.161684958695584     
 -2.420000000000000E-002   -0.167941916453476     
 -2.410000000000000E-002   -0.174405208691556     
 -2.400000000000000E-002   -0.181080018292529     
 -2.390000000000000E-002   -0.187971612175175     
 -2.380000000000000E-002   -0.195085285610475     
 -2.370000000000000E-002   -0.202426409181283     
 -2.360000000000000E-002   -0.210000398766226     
 -2.350000000000000E-002   -0.217812723484232     
 -2.340000000000000E-002   -0.225868893006238     
 -2.330000000000000E-002   -0.234174466193614     
 -2.320000000000000E-002   -0.242735028948061     
 -2.310000000000000E-002   -0.251556205002349     
 -2.300000000000000E-002   -0.260643676390941     
 -2.290000000000000E-002   -0.270003107460167     
 -2.280000000000000E-002   -0.279640195133340     
 -2.270000000000000E-002   -0.289560668699299     
 -2.260000000000000E-002   -0.299770264866363     
 -2.250000000000000E-002   -0.310274750482087     
 -2.240000000000000E-002   -0.321079841606798     
 -2.230000000000000E-002   -0.332191289352666     
 -2.220000000000000E-002   -0.343614828926726     
 -2.210000000000000E-002   -0.355356165046434     
 -2.200000000000000E-002   -0.367420972069691     
 -2.190000000000000E-002   -0.379814936807280     
 -2.180000000000000E-002   -0.392543682140904     
 -2.170000000000000E-002   -0.405612765274024     
 -2.160000000000000E-002   -0.419027729135541     
 -2.150000000000000E-002   -0.432794042420543     
 -2.140000000000000E-002   -0.446917106938114     
 -2.130000000000000E-002   -0.461402234287020     
 -2.120000000000000E-002   -0.476254692638188     
 -2.110000000000000E-002   -0.491479615940126     
 -2.100000000000000E-002   -0.507082052360363     
 -2.090000000000000E-002   -0.523066936315816     
 -2.080000000000000E-002   -0.539439066275168     
 -2.070000000000000E-002   -0.556203187830514     
 -2.060000000000000E-002   -0.573363798729740     
 -2.050000000000000E-002   -0.590925331586386     
 -2.040000000000000E-002   -0.608892045651969     
 -2.030000000000000E-002   -0.627268025382058     
 -2.020000000000000E-002   -0.646057152250535     
 -2.010000000000000E-002   -0.665263103365029     
 -2.000000000000000E-002   -0.684889446870392     
 -1.990000000000000E-002   -0.704939426273099     
 -1.980000000000000E-002   -0.725416148255144     
 -1.970000000000000E-002   -0.746322381511007     
 -1.960000000000000E-002   -0.767660797744478     
 -1.950000000000000E-002   -0.789433682229917     
 -1.940000000000000E-002   -0.811643089261949     
 -1.930000000000000E-002   -0.834290779089622     
 -1.920000000000000E-002   -0.857378276000475     
 -1.910000000000000E-002   -0.880906703955854     
 -1.900000000000000E-002   -0.904876952712914     
 -1.890000000000000E-002   -0.929289543564509     
 -1.880000000000000E-002   -0.954144631637904     
 -1.870000000000000E-002   -0.979442045676499     
 -1.860000000000000E-002    -1.00518126322066     
 -1.850000000000000E-002    -1.03136128612535     
 -1.840000000000000E-002    -1.05798082879326     
 -1.830000000000000E-002    -1.08503815675616     
 -1.820000000000000E-002    -1.11253114629769     
 -1.810000000000000E-002    -1.14045722669346     
 -1.800000000000000E-002    -1.16881329517268     
 -1.790000000000000E-002    -1.19759587930906     
 -1.780000000000000E-002    -1.22680099691527     
 -1.770000000000000E-002    -1.25642428440585     
 -1.760000000000000E-002    -1.28646076505420     
 -1.750000000000000E-002    -1.31690499265152     
 -1.740000000000000E-002    -1.34775099405595     
 -1.730000000000000E-002    -1.37899229138759     
 -1.720000000000000E-002    -1.41062191652750     
 -1.710000000000000E-002    -1.44263230517817     
 -1.700000000000000E-002    -1.47501524677650     
 -1.690000000000000E-002    -1.50776207571163     
 -1.680000000000000E-002    -1.54086354731856     
 -1.670000000000000E-002    -1.57430976103487     
 -1.660000000000000E-002    -1.60809029785574     
 -1.650000000000000E-002    -1.64219405131782     
 -1.640000000000000E-002    -1.67660932081081     
 -1.630000000000000E-002    -1.71132374056669     
 -1.620000000000000E-002    -1.74632452766163     
 -1.610000000000000E-002    -1.78159798263194     
 -1.600000000000000E-002    -1.81712993687434     
 -1.590000000000000E-002    -1.85290552286940     
 -1.580000000000000E-002    -1.88890918356764     
 -1.570000000000000E-002    -1.92512478114533     
 -1.560000000000000E-002    -1.96153542459946     
 -1.550000000000000E-002    -1.99812362886115     
 -1.540000000000000E-002    -2.03487125492139     
 -1.530000000000000E-002    -2.07175945487200     
 -1.520000000000000E-002    -2.10876859883876     
 -1.510000000000000E-002    -2.14587852013877     
 -1.500000000000000E-002    -2.18306858712774     
 -1.490000000000000E-002    -2.22031720280056     
 -1.480000000000000E-002    -2.25760207686532     
 -1.470000000000000E-002    -2.29490029888144     
 -1.460000000000000E-002    -2.33218851505208     
 -1.450000000000000E-002    -2.36944242417210     
 -1.440000000000000E-002    -2.40663735517196     
 -1.430000000000000E-002    -2.44374773679987     
 -1.420000000000000E-002    -2.48074768171610     
 -1.410000000000000E-002    -2.51761027100143     
 -1.400000000000000E-002    -2.55430823789194     
 -1.390000000000000E-002    -2.59081357568069     
 -1.380000000000000E-002    -2.62709792525232     
 -1.370000000000000E-002    -2.66313215441904     
 -1.360000000000000E-002    -2.69888644701127     
 -1.350000000000000E-002    -2.73433051154410     
 -1.340000000000000E-002    -2.76943362284049     
 -1.330000000000000E-002    -2.80416448704608     
 -1.320000000000000E-002    -2.83849143954746     
 -1.310000000000000E-002    -2.87238186128568     
 -1.300000000000000E-002    -2.90580329033724     
 -1.290000000000000E-002    -2.93872224981080     
 -1.280000000000000E-002    -2.97110537204638     
 -1.270000000000000E-002    -3.00291838990391     
 -1.260000000000000E-002    -3.03412691091159     
 -1.250000000000000E-002    -3.06469613618846     
 -1.240000000000000E-002    -3.09459116347604     
 -1.230000000000000E-002    -3.12377633214286     
 -1.220000000000000E-002    -3.15221610280237     
 -1.210000000000000E-002    -3.17987446876560     
 -1.200000000000000E-002    -3.20671544164651     
 -1.190000000000000E-002    -3.23270254822401     
 -1.180000000000000E-002    -3.25779940999943     
 -1.170000000000000E-002    -3.28196931296288     
 -1.160000000000000E-002    -3.30517571520995     
 -1.150000000000000E-002    -3.32738177305312     
 -1.140000000000000E-002    -3.34855069994208     
 -1.130000000000000E-002    -3.36864587338608     
 -1.120000000000000E-002    -3.38763045323353     
 -1.110000000000000E-002    -3.40546801535009     
 -1.100000000000000E-002    -3.42212182895033     
 -1.090000000000000E-002    -3.43755573118236     
 -1.080000000000000E-002    -3.45173388330658     
 -1.070000000000000E-002    -3.46462011813818     
 -1.060000000000000E-002    -3.47617903979012     
 -1.050000000000000E-002    -3.48637534718796     
 -1.040000000000000E-002    -3.49517419402832     
 -1.030000000000000E-002    -3.50254143509483     
 -1.020000000000000E-002    -3.50844264959401     
 -1.010000000000000E-002    -3.51284464543708     
 -1.000000000000000E-002    -3.51571440907872     
 -9.899999999999999E-003    -3.51701968815933     
 -9.800000000000000E-003    -3.51672857370531     
 -9.699999999999999E-003    -3.51481017372818     
 -9.599999999999999E-003    -3.51123424050174     
 -9.500000000000000E-003    -3.50597106246527     
 -9.399999999999999E-003    -3.49899186455197     
 -9.299999999999999E-003    -3.49026871778243     
 -9.200000000000000E-003    -3.47977469955696     
 -9.099999999999999E-003    -3.46748357363122     
 -8.999999999999999E-003    -3.45337037925859     
 -8.900000000000000E-003    -3.43741098758291     
 -8.799999999999999E-003    -3.41958225272350     
 -8.699999999999999E-003    -3.39986240297099     
 -8.600000000000000E-003    -3.37823047751250     
 -8.499999999999999E-003    -3.35466694300996     
 -8.399999999999999E-003    -3.32915353615657     
 -8.300000000000000E-003    -3.30167295895861     
 -8.199999999999999E-003    -3.27220946562932     
 -8.100000000000000E-003    -3.24074855992748     
 -8.000000000000000E-003    -3.20727711879606     
 -7.899999999999999E-003    -3.17178356008171     
 -7.800000000000000E-003    -3.13425742955705     
 -7.699999999999999E-003    -3.09469018554858     
 -7.599999999999999E-003    -3.05307437153364     
 -7.499999999999999E-003    -3.00940422260744     
 -7.399999999999999E-003    -2.96367584868651     
 -7.299999999999999E-003    -2.91588644603282     
 -7.199999999999999E-003    -2.86603508704943     
 -7.100000000000000E-003    -2.81412264853255     
 -6.999999999999999E-003    -2.76015132568531     
 -6.899999999999999E-003    -2.70412526019541     
 -6.800000000000000E-003    -2.64605014627093     
 -6.699999999999999E-003    -2.58593363301312     
 -6.599999999999999E-003    -2.52378514106947     
 -6.499999999999999E-003    -2.45961544725730     
 -6.399999999999999E-003    -2.39343735630624     
 -6.299999999999999E-003    -2.32526572146925     
 -6.199999999999999E-003    -2.25511676290954     
 -6.100000000000000E-003    -2.18300873043604     
 -5.999999999999999E-003    -2.10896151147659     
 -5.899999999999999E-003    -2.03299708562751     
 -5.800000000000000E-003    -1.95513912247468     
 -5.699999999999999E-003    -1.87541304141979     
 -5.599999999999999E-003    -1.79384620944754     
 -5.499999999999999E-003    -1.71046761338055     
 -5.399999999999999E-003    -1.62530824690063     
 -5.299999999999999E-003    -1.53840076410393     
 -5.199999999999999E-003    -1.44977962045091     
 -5.099999999999999E-003    -1.35948106754748     
 -4.999999999999999E-003    -1.26754312076783     
 -4.899999999999999E-003    -1.17400545534919     
 -4.799999999999999E-003    -1.07890956800074     
 -4.699999999999999E-003   -0.982298530946526     
 -4.599999999999999E-003   -0.884217176708897     
 -4.499999999999999E-003   -0.784711885738616     
 -4.399999999999999E-003   -0.683830741969871     
 -4.299999999999999E-003   -0.581623388643839     
 -4.199999999999999E-003   -0.478140978748445     
 -4.099999999999999E-003   -0.373436217339449     
 -3.999999999999999E-003   -0.267563245686011     
 -3.899999999999999E-003   -0.160577714852033     
 -3.799999999999999E-003   -5.253658962744051E-002
 -3.699999999999999E-003    5.650179463013941E-002
 -3.599999999999999E-003    0.166477772236196     
 -3.499999999999999E-003    0.277330404971815     
 -3.399999999999999E-003    0.388997637839380     
 -3.299999999999999E-003    0.501416152103737     
 -3.199999999999999E-003    0.614521596663500     
 -3.099999999999999E-003    0.728248524883155     
 -2.999999999999999E-003    0.842530499855319     
 -2.899999999999999E-003    0.957300181148631     
 -2.799999999999999E-003     1.07248930286902     
 -2.699999999999999E-003     1.18802873242462     
 -2.599999999999999E-003     1.30384868829312     
 -2.499999999999999E-003     1.41987867479239     
 -2.399999999999999E-003     1.53604760223951     
 -2.299999999999999E-003     1.65228362999884     
 -2.199999999999999E-003     1.76851464384247     
 -2.099999999999999E-003     1.88466800177935     
 -1.999999999999999E-003     2.00067066657148     
 -1.899999999999999E-003     2.11644932470680     
 -1.799999999999999E-003     2.23193041906598     
 -1.699999999999999E-003     2.34704026848292     
 -1.599999999999999E-003     2.46170513345542     
 -1.499999999999999E-003     2.57585127350701     
 -1.399999999999999E-003     2.68940501832966     
 -1.299999999999999E-003     2.80229254863072     
 -1.199999999999999E-003     2.91444071664006     
 -1.099999999999999E-003     3.02577639555069     
 -9.999999999999989E-004     3.13622667612653     
 -8.999999999999990E-004     3.24571941126291     
 -7.999999999999990E-004     3.35418260127898     
 -6.999999999999989E-004     3.46154508866755     
 -5.999999999999990E-004     3.56773628180012     
 -4.999999999999989E-004     3.67268618016627     
 -3.999999999999989E-004     3.77632562852450     
 -2.999999999999989E-004     3.87858614444689     
 -1.999999999999989E-004     3.97940053362381     
 -9.999999999999892E-005     4.07870240645225     
  1.084202172485504E-018     4.17642636838865     
  1.000000000000011E-004     4.27250809420529     
  2.000000000000011E-004     4.36688434761164     
  3.000000000000011E-004     4.45949356301665     
  4.000000000000011E-004     4.55027511773669     
  5.000000000000011E-004     4.63916958761233     
  6.000000000000011E-004     4.72611947557525     
  7.000000000000011E-004     4.81106873426773     
  8.000000000000011E-004     4.89396240160566     
  9.000000000000012E-004     4.97474737253072     
  1.000000000000001E-003     5.05337205644089     
  1.100000000000001E-003     5.12978671518578     
  1.200000000000001E-003     5.20394316799127     
  1.300000000000001E-003     5.27579553306751     
  1.400000000000001E-003     5.34529900653810     
  1.500000000000001E-003     5.41241148900742     
  1.600000000000001E-003     5.47709202149768     
  1.700000000000001E-003     5.53930164339261     
  1.800000000000001E-003     5.59900400097933     
  1.900000000000001E-003     5.65616442287375     
  2.000000000000001E-003     5.71075035812324     
  2.100000000000001E-003     5.76273101340775     
  2.200000000000001E-003     5.81207837608756     
  2.300000000000001E-003     5.85876581011973     
  2.400000000000001E-003     5.90276900068054     
  2.500000000000001E-003     5.94406645504488     
  2.600000000000001E-003     5.98263810160936     
  2.700000000000001E-003     6.01846654095518     
  2.800000000000001E-003     6.05153629796668     
  2.900000000000001E-003     6.08183406907453     
  3.000000000000001E-003     6.10934938513758     
  3.100000000000001E-003     6.13407331096452     
  3.200000000000001E-003     6.15599930642639     
  3.300000000000001E-003     6.17512353696809     
  3.400000000000001E-003     6.19144383933445     
  3.500000000000001E-003     6.20496049268536     
  3.600000000000001E-003     6.21567600184257     
  3.700000000000001E-003     6.22359480153604     
  3.800000000000001E-003     6.22872384322486     
  3.900000000000001E-003     6.23107221815249     
  4.000000000000001E-003     6.23065129291491     
  4.100000000000001E-003     6.22747382975707     
  4.200000000000001E-003     6.22155585457045     
  4.300000000000001E-003     6.21291425026303     
  4.400000000000001E-003     6.20156911999685     
  4.500000000000001E-003     6.18754147445648     
  4.600000000000002E-003     6.17085537717801     
  4.700000000000001E-003     6.15153634452799     
  4.800000000000001E-003     6.12961130015268     
  4.900000000000002E-003     6.10510991480665     
  5.000000000000001E-003     6.07806310482511     
  5.100000000000001E-003     6.04850408044519     
  5.200000000000001E-003     6.01646753080610     
  5.300000000000002E-003     5.98198967591975     
  5.400000000000001E-003     5.94510863010914     
  5.500000000000001E-003     5.90586434188908     
  5.600000000000002E-003     5.86429793651552     
  5.700000000000001E-003     5.82045217733684     
  5.800000000000001E-003     5.77437103458293     
  5.900000000000002E-003     5.72610043585021     
  6.000000000000001E-003     5.67568713786602     
  6.100000000000001E-003     5.62317943539954     
  6.200000000000002E-003     5.56862674195081     
  6.300000000000002E-003     5.51208002025517     
  6.400000000000001E-003     5.45359107307390     
  6.500000000000001E-003     5.39321220200867     
  6.600000000000002E-003     5.33099776024352     
  6.700000000000001E-003     5.26700258927735     
  6.800000000000001E-003     5.20128196675575     
  6.900000000000002E-003     5.13389287525777     
  7.000000000000001E-003     5.06489190892605     
  7.100000000000001E-003     4.99433744175390     
  7.200000000000002E-003     4.92228768523871     
  7.300000000000002E-003     4.84880200463418     
  7.400000000000001E-003     4.77393989608844     
  7.500000000000001E-003     4.69776114219890     
  7.600000000000002E-003     4.62032649951514     
  7.700000000000001E-003     4.54169671839712     
  7.800000000000001E-003     4.46193260022141     
  7.900000000000001E-003     4.38109526108964     
  8.000000000000002E-003     4.29924598592267     
  8.100000000000001E-003     4.21644634003370     
  8.200000000000001E-003     4.13275758517371     
  8.300000000000002E-003     4.04824103178535     
  8.400000000000001E-003     3.96295779644920     
  8.500000000000002E-003     3.87696901037905     
  8.600000000000002E-003     3.79033571943640     
  8.700000000000001E-003     3.70311826020132     
  8.800000000000002E-003     3.61537699418643     
  8.900000000000002E-003     3.52717164642954     
  9.000000000000001E-003     3.43856160103961     
  9.100000000000002E-003     3.34960588244353     
  9.200000000000002E-003     3.26036285414714     
  9.300000000000001E-003     3.17089032117940     
  9.400000000000002E-003     3.08124552141472     
  9.500000000000001E-003     2.99148491781094     
  9.600000000000001E-003     2.90166421772543     
  9.700000000000002E-003     2.81183850915022     
  9.800000000000001E-003     2.72206176641159     
  9.900000000000001E-003     2.63238768221136     
  1.000000000000000E-002     2.54286867267704     
  1.010000000000000E-002     2.45355614693557     
  1.020000000000000E-002     2.36450096658780     
  1.030000000000000E-002     2.27575268870192     
  1.040000000000000E-002     2.18735981096202     
  1.050000000000000E-002     2.09937000914194     
  1.060000000000000E-002     2.01182984461163     
  1.070000000000000E-002     1.92478461455204     
  1.080000000000000E-002     1.83827847675157     
  1.090000000000000E-002     1.75235471158637     
  1.100000000000000E-002     1.66705511317351     
  1.110000000000000E-002     1.58242052078890     
  1.120000000000000E-002     1.49849041090613     
  1.130000000000000E-002     1.41530307382661     
  1.140000000000000E-002     1.33289551607074     
  1.150000000000000E-002     1.25130359894503     
  1.160000000000000E-002     1.17056197237559     
  1.170000000000000E-002     1.09070371425610     
  1.180000000000000E-002     1.01176088876459     
  1.190000000000000E-002    0.933764149552618     
  1.200000000000000E-002    0.856742877194871     
  1.210000000000000E-002    0.780725176507541     
  1.220000000000000E-002    0.705737821716210     
  1.230000000000000E-002    0.631806312335444     
  1.240000000000000E-002    0.558954763607577     
  1.250000000000000E-002    0.487206102188508     
  1.260000000000000E-002    0.416581885823717     
  1.270000000000000E-002    0.347102413913756     
  1.280000000000000E-002    0.278786658609247     
  1.290000000000000E-002    0.211652328060392     
  1.300000000000000E-002    0.145715921312761     
  1.310000000000000E-002    8.099262168602775E-002
  1.320000000000000E-002    1.749641075767064E-002
  1.330000000000000E-002   -4.475998980930820E-002
  1.340000000000000E-002   -0.105765093423926     
  1.350000000000000E-002   -0.165508616074420     
  1.360000000000000E-002   -0.223981387038505     
  1.370000000000000E-002   -0.281175506773434     
  1.380000000000000E-002   -0.337084159202158     
  1.390000000000000E-002   -0.391701738091001     
  1.400000000000000E-002   -0.445023646969852     
  1.410000000000000E-002   -0.497046471648749     
  1.420000000000000E-002   -0.547767842030607     
  1.430000000000000E-002   -0.597186406579811     
  1.440000000000000E-002   -0.645301939565273     
  1.450000000000000E-002   -0.692115103449325     
  1.460000000000000E-002   -0.737627606231150     
  1.470000000000000E-002   -0.781842063587578     
  1.480000000000000E-002   -0.824762099750437     
  1.490000000000000E-002   -0.866392206643707     
  1.500000000000000E-002   -0.906737779944378     
  1.510000000000000E-002   -0.945804995516903     
  1.520000000000000E-002   -0.983600939299208     
  1.530000000000000E-002    -1.02013340255262     
  1.540000000000000E-002    -1.05541113591297     
  1.550000000000000E-002    -1.08944338163797     
  1.560000000000000E-002    -1.12224030177874     
  1.570000000000000E-002    -1.15381268845672     
  1.580000000000000E-002    -1.18417199500134     
  1.590000000000000E-002    -1.21333027021963     
  1.600000000000000E-002    -1.24130019912704     
  1.610000000000000E-002    -1.26809510116098     
  1.620000000000000E-002    -1.29372887958932     
  1.630000000000000E-002    -1.31821577889781     
  1.640000000000000E-002    -1.34157075526646     
  1.650000000000000E-002    -1.36380912620917     
  1.660000000000000E-002    -1.38494665025546     
  1.670000000000000E-002    -1.40499954004972     
  1.680000000000000E-002    -1.42398446046289     
  1.690000000000000E-002    -1.44191825066498     
  1.700000000000000E-002    -1.45881828462930     
  1.710000000000000E-002    -1.47470208282675     
  1.720000000000000E-002    -1.48958760945342     
  1.730000000000000E-002    -1.50349306987123     
  1.740000000000000E-002    -1.51643677063381     
  1.750000000000000E-002    -1.52843743437330     
  1.760000000000000E-002    -1.53951379448737     
  1.770000000000000E-002    -1.54968487758101     
  1.780000000000000E-002    -1.55896976352832     
  1.790000000000000E-002    -1.56738775690013     
  1.800000000000000E-002    -1.57495823254296     
  1.810000000000000E-002    -1.58170061720218     
  1.820000000000000E-002    -1.58763444573212     
  1.830000000000000E-002    -1.59277919947982     
  1.840000000000000E-002    -1.59715451664617     
  1.850000000000000E-002    -1.60077999006847     
  1.860000000000000E-002    -1.60367508985170     
  1.870000000000000E-002    -1.60585941733578     