 -4.000000000000000E-002    0.000000000000000E+000
 -3.990000000000000E-002    0.000000000000000E+000
 -3.980000000000000E-002    0.000000000000000E+000
 -3.970000000000000E-002    0.000000000000000E+000
 -3.960000000000000E-002    0.000000000000000E+000
 -3.950000000000000E-002    0.000000000000000E+000
 -3.940000000000000E-002    0.000000000000000E+000
 -3.930000000000000E-002    9.229521934608171E-027
 -3.920000000000000E-002    1.280910370229635E-025
 -3.910000000000000E-002    9.350834047466611E-025
 -3.900000000000000E-002    4.761047960634430E-024
 -3.890000000000000E-002    1.891465837118308E-023
 -3.880000000000000E-002    6.217152580346939E-023
 -3.870000000000000E-002    1.749486772049492E-022
 -3.860000000000000E-002    4.299966964507608E-022
 -3.850000000000000E-002    9.321747739665709E-022
 -3.840000000000000E-002    1.781412693853348E-021
 -3.830000000000000E-002    2.952963992823828E-021
 -3.820000000000000E-002    4.028694832014273E-021
 -3.810000000000000E-002    3.705290644047362E-021
 -3.800000000000000E-002   -9.679161500526531E-022
 -3.790000000000000E-002   -1.557618040341342E-020
 -3.780000000000000E-002   -4.931286283778685E-020
 -3.770000000000000E-002   -1.153778292878329E-019
 -3.760000000000000E-002   -2.297875882155458E-019
 -3.750000000000000E-002   -4.070533123668713E-019
 -3.740000000000000E-002   -6.507071576706561E-019
 -3.730000000000000E-002   -9.364535912555641E-019
 -3.720000000000000E-002   -1.186158405186477E-018
 -3.710000000000000E-002   -1.232336130179581E-018
 -3.700000000000000E-002   -7.756875667359709E-019
 -3.690000000000000E-002    6.570851169760099E-019
 -3.680000000000000E-002    3.741590944079932E-018
 -3.670000000000000E-002    9.348944194873854E-018
 -3.660000000000000E-002    1.847489018680474E-017
 -3.650000000000000E-002    3.207011558311868E-017
 -3.640000000000000E-002    5.073636157503045E-017
 -3.630000000000000E-002    7.426003682415810E-017
 -3.620000000000000E-002    1.009749799670079E-016
 -3.610000000000000E-002    1.269798743961450E-016
 -3.600000000000000E-002    1.452873870160754E-016
 -3.590000000000000E-002    1.450470630265145E-016
 -3.580000000000000E-002    1.110581460890620E-016
 -3.570000000000000E-002    2.386199302098858E-017
 -3.560000000000000E-002   -1.392430003677389E-016
 -3.550000000000000E-002   -4.019031701562169E-016
 -3.540000000000000E-002   -7.848172469748178E-016
 -3.530000000000000E-002   -1.300064698785251E-015
 -3.520000000000000E-002   -1.943705673080752E-015
 -3.510000000000000E-002   -2.687040668620493E-015
 -3.500000000000000E-002   -3.467348461300848E-015
 -3.490000000000000E-002   -4.179416406447490E-015
 -3.480000000000000E-002   -4.669664870206030E-015
 -3.470000000000000E-002   -4.735080656362887E-015
 -3.460000000000000E-002   -4.129364584851990E-015
 -3.450000000000000E-002   -2.578636666058697E-015
 -3.440000000000000E-002    1.915217315108336E-016
 -3.430000000000000E-002    4.416856344841712E-015
 -3.420000000000000E-002    1.024383976684312E-014
 -3.410000000000000E-002    1.767039845956894E-014
 -3.400000000000000E-002    2.648308758640385E-014
 -3.390000000000000E-002    3.619825196915021E-014
 -3.380000000000000E-002    4.601689277233452E-014
 -3.370000000000000E-002    5.480444829371230E-014
 -3.360000000000000E-002    6.110714189327958E-014
 -3.350000000000000E-002    6.321532184067261E-014
 -3.340000000000000E-002    5.928114857957821E-014
 -3.330000000000000E-002    4.749296242599783E-014
 -3.320000000000000E-002    2.630163718512340E-014
 -3.310000000000000E-002   -5.314114663943410E-015
 -3.300000000000000E-002   -4.756585649995463E-014
 -3.290000000000000E-002   -9.958770204618798E-014
 -3.280000000000000E-002   -1.592206689954398E-013
 -3.270000000000000E-002   -2.228906492439553E-013
 -3.260000000000000E-002   -2.856201875679034E-013
 -3.250000000000000E-002   -3.412079182099604E-013
 -3.240000000000000E-002   -3.825960173580858E-013
 -3.230000000000000E-002   -4.024269602088651E-013
 -3.220000000000000E-002   -3.937663014462236E-013
 -3.210000000000000E-002   -3.509411517239662E-013
 -3.200000000000000E-002   -2.704168716993929E-013
 -3.190000000000000E-002   -1.516111107077222E-013
 -3.180000000000000E-002    2.470426987898729E-015
 -3.170000000000000E-002    1.848958769751207E-013
 -3.160000000000000E-002    3.848731304415718E-013
 -3.150000000000000E-002    5.882972641488725E-013
 -3.140000000000000E-002    7.788090892410336E-013
 -3.130000000000000E-002    9.393356673720680E-013
 -3.120000000000000E-002    1.054008312234988E-012
 -3.110000000000000E-002    1.110284362005123E-012
 -3.100000000000000E-002    1.101031097754692E-012
 -3.090000000000000E-002    1.026280851312575E-012
 -3.080000000000000E-002    8.943497212208327E-013
 -3.070000000000000E-002    7.220272067718051E-013
 -3.060000000000000E-002    5.336056515902776E-013
 -3.050000000000000E-002    3.586231141023560E-013
 -3.040000000000000E-002    2.283395518944475E-013
 -3.030000000000000E-002    1.711375731810191E-013
 -3.020000000000000E-002    2.072300195024245E-013
 -3.010000000000000E-002    3.432305959204965E-013
 -3.000000000000000E-002    5.672906295491456E-013
 -2.990000000000000E-002    8.455878165574111E-013
 -2.980000000000000E-002    1.120955287202783E-012
 -2.970000000000000E-002    1.314341190230202E-012
 -2.960000000000000E-002    1.329583020814246E-012
 -2.950000000000000E-002    1.061677749041893E-012
 -2.940000000000000E-002    4.083238870915843E-013
 -2.930000000000000E-002   -7.159115668771482E-013
 -2.920000000000000E-002   -2.363934312329513E-012
 -2.910000000000000E-002   -4.540483465484849E-012
 -2.900000000000000E-002   -7.188357486339299E-012
 -2.890000000000000E-002   -1.017848920143176E-011
 -2.880000000000000E-002   -1.330581123296411E-011
 -2.870000000000000E-002   -1.629257621816717E-011
 -2.860000000000000E-002   -1.880027017922173E-011
 -2.850000000000000E-002   -2.045052751727168E-011
 -2.840000000000000E-002   -2.085455333960474E-011
 -2.830000000000000E-002   -1.964953286099742E-011
 -2.820000000000000E-002   -1.653953149474077E-011
 -2.810000000000000E-002   -1.133747144613347E-011
 -2.800000000000000E-002   -4.004114539939148E-012
 -2.790000000000000E-002    5.320363782703504E-012
 -2.780000000000000E-002    1.629655196764720E-011
 -2.770000000000000E-002    2.838153276175671E-011
 -2.760000000000000E-002    4.084294762061172E-011
 -2.750000000000000E-002    5.279278611546093E-011
 -2.740000000000000E-002    6.324048512529935E-011
 -2.730000000000000E-002    7.116298290135586E-011
 -2.720000000000000E-002    7.558745151421001E-011
 -2.710000000000000E-002    7.568060878433243E-011
 -2.700000000000000E-002    7.083712612423568E-011
 -2.690000000000000E-002    6.075892408598208E-011
 -2.680000000000000E-002    4.551691279651563E-011
 -2.670000000000000E-002    2.558756134603860E-011
 -2.660000000000000E-002    1.858159212304369E-012
 -2.650000000000000E-002   -2.440312145986249E-011
 -2.640000000000000E-002   -5.161336647981218E-011
 -2.630000000000000E-002   -7.797496873060745E-011
 -2.620000000000000E-002   -1.016040229456349E-010
 -2.610000000000000E-002   -1.206782971919599E-010
 -2.600000000000000E-002   -1.335933320170055E-010
 -2.590000000000000E-002   -1.391134826317660E-010
 -2.580000000000000E-002   -1.365039392046722E-010
 -2.570000000000000E-002   -1.256300685250811E-010
 -2.560000000000000E-002   -1.070123923250754E-010
 -2.550000000000000E-002   -8.182812295224512E-011
 -2.540000000000000E-002   -5.185452886119799E-011
 -2.530000000000000E-002   -1.935391700036632E-011
 -2.520000000000000E-002    1.309455985885694E-011
 -2.510000000000000E-002    4.280596064544699E-011
 -2.500000000000000E-002    6.722828638886096E-011
 -2.490000000000000E-002    8.418984863119986E-011
 -2.480000000000000E-002    9.213359766809495E-011
 -2.470000000000000E-002    9.031600651058139E-011
 -2.460000000000000E-002    7.894875087006627E-011
 -2.450000000000000E-002    5.926463106674836E-011
 -2.440000000000000E-002    3.349392982822863E-011
 -2.430000000000000E-002    4.743927993438274E-012
 -2.420000000000000E-002   -2.321781956669600E-011
 -2.410000000000000E-002   -4.626711498925401E-011
 -2.400000000000000E-002   -6.029561763947467E-011
 -2.390000000000000E-002   -6.162589837577504E-011
 -2.380000000000000E-002   -4.743570416105267E-011
 -2.370000000000000E-002   -1.615368923750473E-011
 -2.360000000000000E-002    3.221366959692122E-011
 -2.350000000000000E-002    9.586245592192313E-011
 -2.340000000000000E-002    1.711128132267775E-010
 -2.330000000000000E-002    2.524968581861462E-010
 -2.320000000000000E-002    3.330258929293092E-010
 -2.310000000000000E-002    4.046356706498172E-010
 -2.300000000000000E-002    4.587911198834179E-010
 -2.290000000000000E-002    4.872154217103138E-010
 -2.280000000000000E-002    4.826917299575409E-010
 -2.270000000000000E-002    4.398721908507585E-010
 -2.260000000000000E-002    3.560196704186167E-010
 -2.250000000000000E-002    2.316044210614879E-010
 -2.240000000000000E-002    7.068062487362141E-011
 -2.230000000000000E-002   -1.190206150618171E-010
 -2.220000000000000E-002   -3.263267905703672E-010
 -2.210000000000000E-002   -5.372074126676636E-010
 -2.200000000000000E-002   -7.356937050341635E-010
 -2.190000000000000E-002   -9.050888250104775E-010
 -2.180000000000000E-002   -1.029388921399454E-009
 -2.170000000000000E-002   -1.094805239885438E-009
 -2.160000000000000E-002   -1.091252642055798E-009
 -2.150000000000000E-002   -1.013657645139860E-009
 -2.140000000000000E-002   -8.629380785222454E-010
 -2.130000000000000E-002   -6.465210875037411E-010
 -2.120000000000000E-002   -3.782955087015559E-010
 -2.110000000000000E-002   -7.793943152894822E-011
 -2.100000000000000E-002    2.303821154900608E-010
 -2.090000000000000E-002    5.198906927795454E-010
 -2.080000000000000E-002    7.635173911675863E-010
 -2.070000000000000E-002    9.364937903469171E-010
 -2.060000000000000E-002    1.018981928518048E-009
 -2.050000000000000E-002    9.984855347592189E-010
 -2.040000000000000E-002    8.717772710511191E-010
 -2.030000000000000E-002    6.460980478335962E-010
 -2.020000000000000E-002    3.394320527140009E-010
 -2.010000000000000E-002   -2.026596445874413E-011
 -2.000000000000000E-002   -3.969201794907817E-010
 -1.990000000000000E-002   -7.491823258731930E-010
 -1.980000000000000E-002   -1.034091789954757E-009
 -1.970000000000000E-002   -1.211257798204870E-009
 -1.960000000000000E-002   -1.247190091208516E-009
 -1.950000000000000E-002   -1.119356814945433E-009
 -1.940000000000000E-002   -8.195308020513519E-010
 -1.930000000000000E-002   -3.560203534729841E-010
 -1.920000000000000E-002    2.455457220355424E-010
 -1.910000000000000E-002    9.430884164142431E-010
 -1.900000000000000E-002    1.680665751703963E-009
 -1.890000000000000E-002    2.392667433616991E-009
 -1.880000000000000E-002    3.009329759827784E-009
 -1.870000000000000E-002    3.463130579701551E-009
 -1.860000000000000E-002    3.695489767909880E-009
 -1.850000000000000E-002    3.663124252138936E-009
 -1.840000000000000E-002    3.343392307229795E-009
 -1.830000000000000E-002    2.738009505368024E-009
 -1.820000000000000E-002    1.874636784374365E-009
 -1.810000000000000E-002    8.060253509157421E-010
 -1.800000000000000E-002   -3.933709305564377E-010
 -1.790000000000000E-002   -1.633153518012516E-009
 -1.780000000000000E-002   -2.814685055405275E-009
 -1.770000000000000E-002   -3.840091203009289E-009
 -1.760000000000000E-002   -4.621730460445643E-009
 -1.750000000000000E-002   -5.091193047125529E-009
 -1.740000000000000E-002   -5.206879534198536E-009
 -1.730000000000000E-002   -4.959290861830213E-009
 -1.720000000000000E-002   -4.373343219808424E-009
 -1.710000000000000E-002   -3.507285616986209E-009
 -1.700000000000000E-002   -2.448119686209197E-009
 -1.690000000000000E-002   -1.303783330950005E-009
 -1.680000000000000E-002   -1.927129752724238E-010
 -1.670000000000000E-002    7.682971156651132E-010
 -1.660000000000000E-002    1.476773847865485E-009
 -1.650000000000000E-002    1.856501535752359E-009
 -1.640000000000000E-002    1.867422798494504E-009
 -1.630000000000000E-002    1.512351969787381E-009
 -1.620000000000000E-002    8.396030198974306E-010
 -1.610000000000000E-002   -5.899583526880564E-011
 -1.600000000000000E-002   -1.054785379260176E-009
 -1.590000000000000E-002   -1.993261884620835E-009
 -1.580000000000000E-002   -2.708512679443663E-009
 -1.570000000000000E-002   -3.039844788082422E-009
 -1.560000000000000E-002   -2.849057928572863E-009
 -1.550000000000000E-002   -2.036661452667956E-009
 -1.540000000000000E-002   -5.553616353926499E-010
 -1.530000000000000E-002    1.580678121578391E-009
 -1.520000000000000E-002    4.291951498866260E-009
 -1.510000000000000E-002    7.435750889941917E-009
 -1.500000000000000E-002    1.081444476888784E-008
 -1.490000000000000E-002    1.418937732118113E-008
 -1.480000000000000E-002    1.729930342035503E-008
 -1.470000000000000E-002    1.988180333544826E-008
 -1.460000000000000E-002    2.169573603053800E-008
 -1.450000000000000E-002    2.254264758761138E-008
 -1.440000000000000E-002    2.228507409063947E-008
 -1.430000000000000E-002    2.085990968399675E-008
 -1.420000000000000E-002    1.828546420297534E-008
 -1.410000000000000E-002    1.466137629408617E-008
 -1.400000000000000E-002    1.016127385510984E-008
 -1.390000000000000E-002    5.018757254431880E-009
 -1.380000000000000E-002   -4.920313476640768E-010
 -1.370000000000000E-002   -6.079420953426098E-009
 -1.360000000000000E-002   -1.145856769399407E-008
 -1.350000000000000E-002   -1.637472122790616E-008
 -1.340000000000000E-002   -2.062300757258109E-008
 -1.330000000000000E-002   -2.406261310094175E-008
 -1.320000000000000E-002   -2.662373745913352E-008
 -1.310000000000000E-002   -2.830634245669827E-008
 -1.300000000000000E-002   -2.917051800548352E-008
 -1.290000000000000E-002   -2.931904149747234E-008
 -1.280000000000000E-002   -2.887352966549275E-008
 -1.270000000000000E-002   -2.794617782016534E-008
 -1.260000000000000E-002   -2.660957794723852E-008
 -1.250000000000000E-002   -2.486733149871632E-008
 -1.240000000000000E-002   -2.262815366721570E-008
 -1.230000000000000E-002   -1.968589042610148E-008
 -1.220000000000000E-002   -1.570736268038104E-008
 -1.210000000000000E-002   -1.022924147069909E-008
 -1.200000000000000E-002   -2.664352732241920E-009
 -1.190000000000000E-002    7.683080503520812E-009
 -1.180000000000000E-002    2.159457137825136E-008
 -1.170000000000000E-002    3.990896765642092E-008
 -1.160000000000000E-002    6.349104132543851E-008
 -1.150000000000000E-002    9.320004896426619E-008
 -1.140000000000000E-002    1.298612474328182E-007
 -1.130000000000000E-002    1.742429614515491E-007
 -1.120000000000000E-002    2.270417281538533E-007
 -1.110000000000000E-002    2.888768507881017E-007
 -1.100000000000000E-002    3.602952637628789E-007
 -1.090000000000000E-002    4.417864801794580E-007
 -1.080000000000000E-002    5.338063982921446E-007
 -1.070000000000000E-002    6.368085368558456E-007
 -1.060000000000000E-002    7.512793108977096E-007
 -1.050000000000000E-002    8.777748640136231E-007
 -1.040000000000000E-002    1.016956268102266E-006
 -1.030000000000000E-002    1.169619433124026E-006
 -1.020000000000000E-002    1.336717185194643E-006
 -1.010000000000000E-002    1.519371889299325E-006
 -1.000000000000000E-002    1.718876458254277E-006
 -9.899999999999999E-003    1.936683906867816E-006
 -9.800000000000000E-003    2.174385362176066E-006
 -9.699999999999999E-003    2.433680663386939E-006
 -9.599999999999999E-003    2.716340486237815E-006
 -9.500000000000000E-003    3.024166112591837E-006
 -9.399999999999999E-003    3.358949356055284E-006
 -9.299999999999999E-003    3.722437306507555E-006
 -9.200000000000000E-003    4.116304296200283E-006
 -9.099999999999999E-003    4.542136076913647E-006
 -8.999999999999999E-003    5.001425860769871E-006
 -8.900000000000000E-003    5.495587923485190E-006
 -8.799999999999999E-003    6.025981652245387E-006
 -8.699999999999999E-003    6.593955308592409E-006
 -8.600000000000000E-003    7.200894068633493E-006
 -8.499999999999999E-003    7.848282409418364E-006
 -8.399999999999999E-003    8.537765001308612E-006
 -8.300000000000000E-003    9.271209045124161E-006
 -8.199999999999999E-003    1.005076062774229E-005
 -8.100000000000000E-003    1.087888839963944E-005
 -8.000000000000000E-003    1.175841432162211E-005
 -7.899999999999999E-003    1.269252621839931E-005
 -7.800000000000000E-003    1.368477221368830E-005
 -7.699999999999999E-003    1.473903924318862E-005
 -7.599999999999999E-003    1.585951437485130E-005
 -7.499999999999999E-003    1.705063168631949E-005
 -7.399999999999999E-003    1.831701227827657E-005
 -7.299999999999999E-003    1.966340462637664E-005
 -7.199999999999999E-003    2.109463177580051E-005
 -7.100000000000000E-003    2.261554075286226E-005
 -6.999999999999999E-003    2.423097605329706E-005
 -6.899999999999999E-003    2.594577437922332E-005
 -6.800000000000000E-003    2.776477260743032E-005
 -6.699999999999999E-003    2.969284728302968E-005
 -6.599999999999999E-003    3.173497860733595E-005
 -6.499999999999999E-003    3.389633095765930E-005
 -6.399999999999999E-003    3.618233902072814E-005
 -6.299999999999999E-003    3.859881815403962E-005
 -6.199999999999999E-003    4.115205546895344E-005
 -6.100000000000000E-003    4.384890647322871E-005
 -5.999999999999999E-003    4.669686753173975E-005
 -5.899999999999999E-003    4.970412982230318E-005
 -5.800000000000000E-003    5.287961863070921E-005
 -5.699999999999999E-003    5.623297855908023E-005
 -5.599999999999999E-003    5.977457059017441E-005
 -5.499999999999999E-003    6.351540650795178E-005
 -5.399999999999999E-003    6.746709599393448E-005
 -5.299999999999999E-003    7.164176045460094E-005
 -5.199999999999999E-003    7.605197970315917E-005
 -5.099999999999999E-003    8.071070086897180E-005
 -4.999999999999999E-003    8.563119231085880E-005
 -4.899999999999999E-003    9.082702526695093E-005
 -4.799999999999999E-003    9.631206436801303E-005
 -4.699999999999999E-003    1.021004981637855E-004
 -4.599999999999999E-003    1.082069074269425E-004
 -4.499999999999999E-003    1.146463643673969E-004
 -4.399999999999999E-003    1.214345136118872E-004
 -4.299999999999999E-003    1.285877427708778E-004
 -4.199999999999999E-003    1.361233092112698E-004
 -4.099999999999999E-003    1.440594452358011E-004
 -3.999999999999999E-003    1.524155388422967E-004
 -3.899999999999999E-003    1.612121778080243E-004
 -3.799999999999999E-003    1.704712644608267E-004
 -3.699999999999999E-003    1.802160407233554E-004
 -3.599999999999999E-003    1.904711038662618E-004
 -3.499999999999999E-003    2.012624409074457E-004
 -3.399999999999999E-003    2.126173180451057E-004
 -3.299999999999999E-003    2.245642937235886E-004
 -3.199999999999999E-003    2.371331783116016E-004
 -3.099999999999999E-003    2.503548765040260E-004
 -2.999999999999999E-003    2.642614753430584E-004
 -2.899999999999999E-003    2.788861235923403E-004
 -2.799999999999999E-003    2.942630999384220E-004
 -2.699999999999999E-003    3.104278055024694E-004
 -2.599999999999999E-003    3.274168485693639E-004
 -2.499999999999999E-003    3.452681387946897E-004
 -2.399999999999999E-003    3.640209539437618E-004
 -2.299999999999999E-003    3.837160997461312E-004
 -2.199999999999999E-003    4.043960467937333E-004
 -2.099999999999999E-003    4.261050970922968E-004
 -1.999999999999999E-003    4.488894113756242E-004
 -1.899999999999999E-003    4.727972277934763E-004
 -1.799999999999999E-003    4.978789325393550E-004
 -1.699999999999999E-003    5.241871217571426E-004
 -1.599999999999999E-003    5.517766466589872E-004
 -1.499999999999999E-003    5.807046706845797E-004
 -1.399999999999999E-003    6.110306714561415E-004
 -1.299999999999999E-003    6.428164042260484E-004
 -1.199999999999999E-003    6.761259878717698E-004
 -1.099999999999999E-003    7.110258049823942E-004
 -9.999999999999989E-004    7.475846851358120E-004
 -8.999999999999990E-004    7.858738161923356E-004
 -7.999999999999990E-004    8.259667578670676E-004
 -6.999999999999989E-004    8.679396566505270E-004
 -5.999999999999990E-004    9.118712342811652E-004
 -4.999999999999989E-004    9.578429357853636E-004
 -3.999999999999989E-004    1.005939150844302E-003
 -2.999999999999989E-004    1.056247070809133E-003
 -1.999999999999989E-004    1.108857194585044E-003
 -9.999999999999892E-005    1.163863204601081E-003
  1.084202172485504E-018    1.221362121104942E-003
  1.000000000000011E-004    1.281454613318058E-003
  2.000000000000011E-004    1.344244785230315E-003
  3.000000000000011E-004    1.409840407028518E-003
  4.000000000000011E-004    1.478353116785649E-003
  5.000000000000011E-004    1.549898143866975E-003
  6.000000000000011E-004    1.624594452559389E-003
  7.000000000000011E-004    1.702564887304720E-003
  8.000000000000011E-004    1.783936209940410E-003
  9.000000000000012E-004    1.868838953432670E-003
  1.000000000000001E-003    1.957407438746933E-003
  1.100000000000001E-003    2.049780030416610E-003
  1.200000000000001E-003    2.146099054657347E-003
  1.300000000000001E-003    2.246510953366311E-003
  1.400000000000001E-003    2.351166387890194E-003
  1.500000000000001E-003    2.460220584361080E-003
  1.600000000000001E-003    2.573833027866511E-003
  1.700000000000001E-003    2.692167718354129E-003
  1.800000000000001E-003    2.815393712429487E-003
  1.900000000000001E-003    2.943684815740491E-003
  2.000000000000001E-003    3.077219945002954E-003
  2.100000000000001E-003    3.216183177133175E-003
  2.200000000000001E-003    3.360763897479390E-003
  2.300000000000001E-003    3.511156651250173E-003
  2.400000000000001E-003    3.667561443635098E-003
  2.500000000000001E-003    3.830183573025838E-003
  2.600000000000001E-003    3.999233575981184E-003
  2.700000000000001E-003    4.174927608070111E-003
  2.800000000000001E-003    4.357486838258182E-003
  2.900000000000001E-003    4.547137836572936E-003
  3.000000000000001E-003    4.744112173693839E-003
  3.100000000000001E-003    4.948646832481687E-003
  3.200000000000001E-003    5.160984051781243E-003
  3.300000000000001E-003    5.381370745018300E-003
  3.400000000000001E-003    5.610059812994707E-003
  3.500000000000001E-003    5.847308860304696E-003
  3.600000000000001E-003    6.093381083839013E-003
  3.700000000000001E-003    6.348545008831727E-003
  3.800000000000001E-003    6.613074752614849E-003
  3.900000000000001E-003    6.887249760051231E-003
  4.000000000000001E-003    7.171355124484046E-003
  4.100000000000001E-003    7.465681774255422E-003
  4.200000000000001E-003    7.770526079184971E-003
  4.300000000000001E-003    8.086190850893302E-003
  4.400000000000001E-003    8.412983596152081E-003
  4.500000000000001E-003    8.751218664417864E-003
  4.600000000000002E-003    9.101214361268959E-003
  4.700000000000001E-003    9.463295407980384E-003
  4.800000000000001E-003    9.837791327201997E-003
  4.900000000000002E-003    1.022503654449182E-002
  5.000000000000001E-003    1.062537122723098E-002
  5.100000000000001E-003    1.103913920905731E-002
  5.200000000000001E-003    1.146668957802691E-002
  5.300000000000002E-003    1.190837478026936E-002
  5.400000000000001E-003    1.236455139408354E-002
  5.500000000000001E-003    1.283558092553135E-002
  5.600000000000002E-003    1.332182848715880E-002
  5.700000000000001E-003    1.382366132630527E-002
  5.800000000000001E-003    1.434145034257022E-002
  5.900000000000002E-003    1.487557220175467E-002
  6.000000000000001E-003    1.542640376160014E-002
  6.100000000000001E-003    1.599432601961317E-002
  6.200000000000002E-003    1.657972119956352E-002
  6.300000000000002E-003    1.718297569141679E-002
  6.400000000000001E-003    1.780447694663619E-002
  6.500000000000001E-003    1.844461358138608E-002
  6.600000000000002E-003    1.910377751812206E-002
  6.700000000000001E-003    1.978235983262799E-002
  6.800000000000001E-003    2.048075515267489E-002
  6.900000000000002E-003    2.119935383080277E-002
  7.000000000000001E-003    2.193854883285890E-002
  7.100000000000001E-003    2.269873323406860E-002
  7.200000000000002E-003    2.348029593441823E-002
  7.300000000000002E-003    2.428362572916887E-002
  7.400000000000001E-003    2.510911037623400E-002
  7.500000000000001E-003    2.595713442880092E-002
  7.600000000000002E-003    2.682807865937031E-002
  7.700000000000001E-003    2.772232196025564E-002
  7.800000000000001E-003    2.864023500542707E-002
  7.900000000000001E-003    2.958219013595859E-002
  8.000000000000002E-003    3.054854862281600E-002
  8.100000000000001E-003    3.153966995097554E-002
  8.200000000000001E-003    3.255590470082734E-002
  8.300000000000002E-003    3.359759554569637E-002
  8.400000000000001E-003    3.466508125034662E-002
  8.500000000000002E-003    3.575868743243170E-002
  8.600000000000002E-003    3.687873372772242E-002
  8.700000000000001E-003    3.802552670414475E-002
  8.800000000000002E-003    3.919936612177007E-002
  8.900000000000002E-003    4.040053728200921E-002
  9.000000000000001E-003    4.162931502117406E-002
  9.100000000000002E-003    4.288595486108130E-002
  9.200000000000002E-003    4.417070730416010E-002
  9.300000000000001E-003    4.548380124021929E-002
  9.400000000000002E-003    4.682545500426957E-002
  9.500000000000001E-003    4.819586517233654E-002
  9.600000000000001E-003    4.959521743605377E-002
  9.700000000000002E-003    5.102367203488342E-002
  9.800000000000001E-003    5.248137579751092E-002
  9.900000000000001E-003    5.396845051409693E-002
  1.000000000000000E-002    5.548500295659871E-002
  1.010000000000000E-002    5.703111210128921E-002
  1.020000000000000E-002    5.860683311428945E-002
  1.030000000000000E-002    6.021220553053309E-002
  1.040000000000000E-002    6.184723911896380E-002
  1.050000000000000E-002    6.351192105094605E-002
  1.060000000000000E-002    6.520619941995137E-002
  1.070000000000000E-002    6.693000830047315E-002
  1.080000000000000E-002    6.868323878079115E-002
  1.090000000000000E-002    7.046576563978167E-002
  1.100000000000000E-002    7.227742592859229E-002
  1.110000000000000E-002    7.411802610161856E-002
  1.120000000000000E-002    7.598733504544540E-002
  1.130000000000000E-002    7.788508861247347E-002
  1.140000000000000E-002    7.981098909196524E-002
  1.150000000000000E-002    8.176470342903205E-002
  1.160000000000000E-002    8.374585930857795E-002
  1.170000000000000E-002    8.575404721140963E-002
  1.180000000000000E-002    8.778881644592448E-002
  1.190000000000000E-002    8.984967622424744E-002
  1.200000000000000E-002    9.193609486811526E-002
  1.210000000000000E-002    9.404750741593283E-002
  1.220000000000000E-002    9.618329244213589E-002
  1.230000000000000E-002    9.834279197546114E-002
  1.240000000000000E-002    0.100525298394575     
  1.250000000000000E-002    0.102730060764786     
  1.260000000000000E-002    0.104956280530294     
  1.270000000000000E-002    0.107203116334103     
  1.280000000000000E-002    0.109469666610079     
  1.290000000000000E-002    0.111754993598047     
  1.300000000000000E-002    0.114058092903712     
  1.310000000000000E-002    0.116377927655943     
  1.320000000000000E-002    0.118713394673937     
  1.330000000000000E-002    0.121063345277410     
  1.340000000000000E-002    0.123426569486873     
  1.350000000000000E-002    0.125801816800556     
  1.360000000000000E-002    0.128187765808710     
  1.370000000000000E-002    0.130583059025072     
  1.380000000000000E-002    0.132986269400209     
  1.390000000000000E-002    0.135395927002550     
  1.400000000000000E-002    0.137810492529542     
  1.410000000000000E-002    0.140228367698306     
  1.420000000000000E-002    0.142647914013835     
  1.430000000000000E-002    0.145067431092477     
  1.440000000000000E-002    0.147485156858782     
  1.450000000000000E-002    0.149899270610876     
  1.460000000000000E-002    0.152307896056293     
  1.470000000000000E-002    0.154709104827290     
  1.480000000000000E-002    0.157100904172199     
  1.490000000000000E-002    0.159481243129394     
  1.500000000000000E-002    0.161848030024263     
  1.510000000000000E-002    0.164199093520406     
  1.520000000000000E-002    0.166532233698946     
  1.530000000000000E-002    0.168845174711765     
  1.540000000000000E-002    0.171135581907693     
  1.550000000000000E-002    0.173401083883851     
  1.560000000000000E-002    0.175639249001856     
  1.570000000000000E-002    0.177847584011571     
  1.580000000000000E-002    0.180023547779017     
  1.590000000000000E-002    0.182164564299303     
  1.600000000000000E-002    0.184267990788568     
  1.610000000000000E-002    0.186331133443056     
  1.620000000000000E-002    0.188351276236380     
  1.630000000000000E-002    0.190325616463138     
  1.640000000000000E-002    0.192251342020495     
  1.650000000000000E-002    0.194125595276459     
  1.660000000000000E-002    0.195945459461507     
  1.670000000000000E-002    0.197707989805230     
  1.680000000000000E-002    0.199410194878863     
  1.690000000000000E-002    0.201049060488579     
  1.700000000000000E-002    0.202621509091528     
  1.710000000000000E-002    0.204124473986347     
  1.720000000000000E-002    0.205554818483048     
  1.730000000000000E-002    0.206909411987989     
  1.740000000000000E-002    0.208185072225178     
  1.750000000000000E-002    0.209378598919699     
  1.760000000000000E-002    0.210486777245893     
  1.770000000000000E-002    0.211506377863792     
  1.780000000000000E-002    0.212434133489725     
  1.790000000000000E-002    0.213266796250380     
  1.800000000000000E-002    0.214001085516815     
  1.810000000000000E-002    0.214633730577374     
  1.820000000000000E-002    0.215161447944958     
  1.830000000000000E-002    0.215580968890236     
  1.840000000000000E-002    0.215888998240946     
  1.850000000000000E-002    0.216082273844277     
  1.860000000000000E-002    0.216157529776390     
  1.870000000000000E-002    0.216111517881869     