 -4.000000000000000E-002    0.000000000000000E+000
 -3.990000000000000E-002    0.000000000000000E+000
 -3.980000000000000E-002    5.377625229482488E-011
 -3.970000000000000E-002    2.436702141755624E-010
 -3.960000000000000E-002    6.698668925914769E-010
 -3.950000000000000E-002    1.460244672617091E-009
 -3.940000000000000E-002    2.802827439627196E-009
 -3.930000000000000E-002    4.999068088066928E-009
 -3.920000000000000E-002    8.533245678376514E-009
 -3.910000000000000E-002    1.415099851439705E-008
 -3.900000000000000E-002    2.293901628370164E-008
 -3.890000000000000E-002    3.639758630441312E-008
 -3.880000000000000E-002    5.649821848192464E-008
 -3.870000000000000E-002    8.571980678327618E-008
 -3.860000000000000E-002    1.270585242068223E-007
 -3.850000000000000E-002    1.840080135035286E-007
 -3.840000000000000E-002    2.605092858347421E-007
 -3.830000000000000E-002    3.608705203065439E-007
 -3.820000000000000E-002    4.896606525101038E-007
 -3.810000000000000E-002    6.515806826240903E-007
 -3.800000000000000E-002    8.513195359237849E-007
 -3.790000000000000E-002    1.093402579821136E-006
 -3.780000000000000E-002    1.382040732939832E-006
 -3.770000000000000E-002    1.720990784587780E-006
 -3.760000000000000E-002    2.113434104883636E-006
 -3.750000000000000E-002    2.561885946167225E-006
 -3.740000000000000E-002    3.068137698373994E-006
 -3.730000000000000E-002    3.633240818474606E-006
 -3.720000000000000E-002    4.257533444694116E-006
 -3.710000000000000E-002    4.940707770421122E-006
 -3.700000000000000E-002    5.681916730111836E-006
 -3.690000000000000E-002    6.479910938460931E-006
 -3.680000000000000E-002    7.333193110850915E-006
 -3.670000000000000E-002    8.240188607531141E-006
 -3.660000000000000E-002    9.199404557795354E-006
 -3.650000000000000E-002    1.020958037302464E-005
 -3.640000000000000E-002    1.126980934882181E-005
 -3.630000000000000E-002    1.237962589244699E-005
 -3.620000000000000E-002    1.353905605863614E-005
 -3.610000000000000E-002    1.474863351086002E-005
 -3.600000000000000E-002    1.600937456118188E-005
 -3.590000000000000E-002    1.732273149495159E-005
 -3.580000000000000E-002    1.869052724489641E-005
 -3.570000000000000E-002    2.011488590846481E-005
 -3.560000000000000E-002    2.159816582073311E-005
 -3.550000000000000E-002    2.314291447775570E-005
 -3.540000000000000E-002    2.475184033151921E-005
 -3.530000000000000E-002    2.642781909135284E-005
 -3.520000000000000E-002    2.817392038287852E-005
 -3.510000000000000E-002    2.999346127496376E-005
 -3.500000000000000E-002    3.189007132991992E-005
 -3.490000000000000E-002    3.386776124647435E-005
 -3.480000000000000E-002    3.593098926194720E-005
 -3.470000000000000E-002    3.808470359282185E-005
 -3.460000000000000E-002    4.033436713004419E-005
 -3.450000000000000E-002    4.268595054612553E-005
 -3.440000000000000E-002    4.514589218201185E-005
 -3.430000000000000E-002    4.772103246858611E-005
 -3.420000000000000E-002    5.041854600169309E-005
 -3.410000000000000E-002    5.324584823803260E-005
 -3.400000000000000E-002    5.621052221503678E-005
 -3.390000000000000E-002    5.932026863761203E-005
 -3.380000000000000E-002    6.258286848836658E-005
 -3.370000000000000E-002    6.600621206523747E-005
 -3.360000000000000E-002    6.959833345315735E-005
 -3.350000000000000E-002    7.336751596918675E-005
 -3.340000000000000E-002    7.732239941859786E-005
 -3.330000000000000E-002    8.147211062444090E-005
 -3.320000000000000E-002    8.582639632269154E-005
 -3.310000000000000E-002    9.039573963884615E-005
 -3.300000000000000E-002    9.519147605885399E-005
 -3.290000000000000E-002    1.002257925188643E-004
 -3.280000000000000E-002    1.055117869665511E-004
 -3.270000000000000E-002    1.110634116401838E-004
 -3.260000000000000E-002    1.168953866697947E-004
 -3.250000000000000E-002    1.230231562465585E-004
 -3.240000000000000E-002    1.294627451266269E-004
 -3.230000000000000E-002    1.362307024180623E-004
 -3.220000000000000E-002    1.433440175012956E-004
 -3.210000000000000E-002    1.508201136538112E-004
 -3.200000000000000E-002    1.586768833475244E-004
 -3.190000000000000E-002    1.669327574036757E-004
 -3.180000000000000E-002    1.756068025286900E-004
 -3.170000000000000E-002    1.847189111222260E-004
 -3.160000000000000E-002    1.942899087570382E-004
 -3.150000000000000E-002    2.043417528910943E-004
 -3.140000000000000E-002    2.148976041802910E-004
 -3.130000000000000E-002    2.259819350349154E-004
 -3.120000000000000E-002    2.376204826641342E-004
 -3.110000000000000E-002    2.498402341121692E-004
 -3.100000000000000E-002    2.626692772503462E-004
 -3.090000000000000E-002    2.761366554511792E-004
 -3.080000000000000E-002    2.902721319203088E-004
 -3.070000000000000E-002    3.051059963301420E-004
 -3.060000000000000E-002    3.206689062073970E-004
 -3.050000000000000E-002    3.369917249768976E-004
 -3.040000000000000E-002    3.541054703278370E-004
 -3.030000000000000E-002    3.720413489103441E-004
 -3.020000000000000E-002    3.908309148721304E-004
 -3.010000000000000E-002    4.105062060803588E-004
 -3.000000000000000E-002    4.310999617500278E-004
 -2.990000000000000E-002    4.526460576019545E-004
 -2.980000000000000E-002    4.751796801729610E-004
 -2.970000000000000E-002    4.987376896455958E-004
 -2.960000000000000E-002    5.233587124544598E-004
 -2.950000000000000E-002    5.490834451080191E-004
 -2.940000000000000E-002    5.759545479884283E-004
 -2.930000000000000E-002    6.040165403148833E-004
 -2.920000000000000E-002    6.333157666989445E-004
 -2.910000000000000E-002    6.639000436122116E-004
 -2.900000000000000E-002    6.958185169343004E-004
 -2.890000000000000E-002    7.291212590001252E-004
 -2.880000000000000E-002    7.638590143258073E-004
 -2.870000000000000E-002    8.000832147145366E-004
 -2.860000000000000E-002    8.378456783974334E-004
 -2.850000000000000E-002    8.771987971978333E-004
 -2.840000000000000E-002    9.181956150579697E-004
 -2.830000000000000E-002    9.608898948215872E-004
 -2.820000000000000E-002    1.005336574408201E-003
 -2.810000000000000E-002    1.051592094709922E-003
 -2.800000000000000E-002    1.099714676393004E-003
 -2.790000000000000E-002    1.149764255555144E-003
 -2.780000000000000E-002    1.201803164368684E-003
 -2.770000000000000E-002    1.255895954662599E-003
 -2.760000000000000E-002    1.312108964088723E-003
 -2.750000000000000E-002    1.370510970655649E-003
 -2.740000000000000E-002    1.431172081605063E-003
 -2.730000000000000E-002    1.494163730656260E-003
 -2.720000000000000E-002    1.559558278765206E-003
 -2.710000000000000E-002    1.627428639299488E-003
 -2.700000000000000E-002    1.697847889505691E-003
 -2.690000000000000E-002    1.770888627439032E-003
 -2.680000000000000E-002    1.846623752515098E-003
 -2.670000000000000E-002    1.925125536151679E-003
 -2.660000000000000E-002    2.006466099690888E-003
 -2.650000000000000E-002    2.090717794894754E-003
 -2.640000000000000E-002    2.177953175637983E-003
 -2.630000000000000E-002    2.268245262756217E-003
 -2.620000000000000E-002    2.361667971616112E-003
 -2.610000000000000E-002    2.458295957200545E-003
 -2.600000000000000E-002    2.558204994901060E-003
 -2.590000000000000E-002    2.661471635321364E-003
 -2.580000000000000E-002    2.768173268822390E-003
 -2.570000000000000E-002    2.878387639516367E-003
 -2.560000000000000E-002    2.992191984690949E-003
 -2.550000000000000E-002    3.109662763495622E-003
 -2.540000000000000E-002    3.230875644110317E-003
 -2.530000000000000E-002    3.355903641888948E-003
 -2.520000000000000E-002    3.484818025095701E-003
 -2.510000000000000E-002    3.617686417312105E-003
 -2.500000000000000E-002    3.754573930712728E-003
 -2.490000000000000E-002    3.895543236157103E-003
 -2.480000000000000E-002    4.040652681190348E-003
 -2.470000000000000E-002    4.189958253836735E-003
 -2.460000000000000E-002    4.343513038119048E-003
 -2.450000000000000E-002    4.501367761825668E-003
 -2.440000000000000E-002    4.663570127220640E-003
 -2.430000000000000E-002    4.830165660862064E-003
 -2.420000000000000E-002    5.001197797261079E-003
 -2.410000000000000E-002    5.176706786107521E-003
 -2.400000000000000E-002    5.356730209062168E-003
 -2.390000000000000E-002    5.541301889891293E-003
 -2.380000000000000E-002    5.730450271481296E-003
 -2.370000000000000E-002    5.924200333398934E-003
 -2.360000000000000E-002    6.122570021015373E-003
 -2.350000000000000E-002    6.325569243200522E-003
 -2.340000000000000E-002    6.533202232341519E-003
 -2.330000000000000E-002    6.745462992114102E-003
 -2.320000000000000E-002    6.962337253108982E-003
 -2.310000000000000E-002    7.183801040086667E-003
 -2.300000000000000E-002    7.409821742386297E-003
 -2.290000000000000E-002    7.640353874331913E-003
 -2.280000000000000E-002    7.875343307896195E-003
 -2.270000000000000E-002    8.114726378308346E-003
 -2.260000000000000E-002    8.358428083661497E-003
 -2.250000000000000E-002    8.606364774454128E-003
 -2.240000000000000E-002    8.858437953841372E-003
 -2.230000000000000E-002    9.114539629647568E-003
 -2.220000000000000E-002    9.374549784256107E-003
 -2.210000000000000E-002    9.638334836878861E-003
 -2.200000000000000E-002    9.905748264847641E-003
 -2.190000000000000E-002    1.017662779773293E-002
 -2.180000000000000E-002    1.045079690652374E-002
 -2.170000000000000E-002    1.072805765755145E-002
 -2.160000000000000E-002    1.100819682902924E-002
 -2.150000000000000E-002    1.129098100113608E-002
 -2.140000000000000E-002    1.157615822270617E-002
 -2.130000000000000E-002    1.186345303312528E-002
 -2.120000000000000E-002    1.215257114639177E-002
 -2.110000000000000E-002    1.244319414771298E-002
 -2.100000000000000E-002    1.273498366353159E-002
 -2.090000000000000E-002    1.302757706848633E-002
 -2.080000000000000E-002    1.332059096452983E-002
 -2.070000000000000E-002    1.361361597569268E-002
 -2.060000000000000E-002    1.390622171637504E-002
 -2.050000000000000E-002    1.419795459401119E-002
 -2.040000000000000E-002    1.448833025322554E-002
 -2.030000000000000E-002    1.477683672354517E-002
 -2.020000000000000E-002    1.506294232389173E-002
 -2.010000000000000E-002    1.534608302814775E-002
 -2.000000000000000E-002    1.562566600640453E-002
 -1.990000000000000E-002    1.590105911902651E-002
 -1.980000000000000E-002    1.617161132871420E-002
 -1.970000000000000E-002    1.643663104277445E-002
 -1.960000000000000E-002    1.669539439020083E-002
 -1.950000000000000E-002    1.694713566278070E-002
 -1.940000000000000E-002    1.719106403801864E-002
 -1.930000000000000E-002    1.742634372251664E-002
 -1.920000000000000E-002    1.765210498839917E-002
 -1.910000000000000E-002    1.786743907522520E-002
 -1.900000000000000E-002    1.807139923280395E-002
 -1.890000000000000E-002    1.826300109089126E-002
 -1.880000000000000E-002    1.844122199245515E-002
 -1.870000000000000E-002    1.860500027340219E-002
 -1.860000000000000E-002    1.875323246980910E-002
 -1.850000000000000E-002    1.888476780718007E-002
 -1.840000000000000E-002    1.899841841703359E-002
 -1.830000000000000E-002    1.909296615906558E-002
 -1.820000000000000E-002    1.916712452823364E-002
 -1.810000000000000E-002    1.921957386779275E-002
 -1.800000000000000E-002    1.924894919829616E-002
 -1.790000000000000E-002    1.925384054330176E-002
 -1.780000000000000E-002    1.923278249210138E-002
 -1.770000000000000E-002    1.918427040297010E-002
 -1.760000000000000E-002    1.910674850236007E-002
 -1.750000000000000E-002    1.899861372218685E-002
 -1.740000000000000E-002    1.885821665986939E-002
 -1.730000000000000E-002    1.868385224028839E-002
 -1.720000000000000E-002    1.847376929692739E-002
 -1.710000000000000E-002    1.822617656340419E-002
 -1.700000000000000E-002    1.793922301769369E-002
 -1.690000000000000E-002    1.761102482786125E-002
 -1.680000000000000E-002    1.723964365770238E-002
 -1.670000000000000E-002    1.682308757280259E-002
 -1.660000000000000E-002    1.635932407502892E-002
 -1.650000000000000E-002    1.584627751873700E-002
 -1.640000000000000E-002    1.528181360004566E-002
 -1.630000000000000E-002    1.466374963381387E-002
 -1.620000000000000E-002    1.398986499192459E-002
 -1.610000000000000E-002    1.325788501403397E-002
 -1.600000000000000E-002    1.246550206281148E-002
 -1.590000000000000E-002    1.161034557818236E-002
 -1.580000000000000E-002    1.069000857788485E-002
 -1.570000000000000E-002    9.702044305875429E-003
 -1.560000000000000E-002    8.643963722733128E-003
 -1.550000000000000E-002    7.513216717575974E-003
 -1.540000000000000E-002    6.307246301615832E-003
 -1.530000000000000E-002    5.023429053696044E-003
 -1.520000000000000E-002    3.659113537975128E-003
 -1.510000000000000E-002    2.211601718748929E-003
 -1.500000000000000E-002    6.781996794188172E-004
 -1.490000000000000E-002   -9.438535165677137E-004
 -1.480000000000000E-002   -2.657349779580945E-003
 -1.470000000000000E-002   -4.465101364871105E-003
 -1.460000000000000E-002   -6.369920275533347E-003
 -1.450000000000000E-002   -8.374686457956540E-003
 -1.440000000000000E-002   -1.048228481265610E-002
 -1.430000000000000E-002   -1.269563046229183E-002
 -1.420000000000000E-002   -1.501763679001236E-002
 -1.410000000000000E-002   -1.745124403161347E-002
 -1.400000000000000E-002   -1.999940065241296E-002
 -1.390000000000000E-002   -2.266506811545838E-002
 -1.380000000000000E-002   -2.545121537342987E-002
 -1.370000000000000E-002   -2.836081800427967E-002
 -1.360000000000000E-002   -3.139685394854819E-002
 -1.350000000000000E-002   -3.456230290762810E-002
 -1.340000000000000E-002   -3.786009212916563E-002
 -1.330000000000000E-002   -4.129318760590131E-002
 -1.320000000000000E-002   -4.486453498855314E-002
 -1.310000000000000E-002   -4.857704602299906E-002
 -1.300000000000000E-002   -5.243359375706605E-002
 -1.290000000000000E-002   -5.643707563557507E-002
 -1.280000000000000E-002   -6.059033038620393E-002
 -1.270000000000000E-002   -6.489616238397466E-002
 -1.260000000000000E-002   -6.935731671150891E-002
 -1.250000000000000E-002   -7.397653333571555E-002
 -1.240000000000000E-002   -7.875650336901224E-002
 -1.230000000000000E-002   -8.369983099082290E-002
 -1.220000000000000E-002   -8.880907572637042E-002
 -1.210000000000000E-002   -9.408675158770996E-002
 -1.200000000000000E-002   -9.953533997685443E-002
 -1.190000000000000E-002   -0.105157142776763     
 -1.180000000000000E-002   -0.110954476834304     
 -1.170000000000000E-002   -0.116929555596022     
 -1.160000000000000E-002   -0.123084494117795     
 -1.150000000000000E-002   -0.129421292962785     
 -1.140000000000000E-002   -0.135941895460759     
 -1.130000000000000E-002   -0.142648124534480     
 -1.120000000000000E-002   -0.149541705603449     
 -1.110000000000000E-002   -0.156624259100327     
 -1.100000000000000E-002   -0.163897213083683     
 -1.090000000000000E-002   -0.171361986363284     
 -1.080000000000000E-002   -0.179019806668253     
 -1.070000000000000E-002   -0.186871735441383     
 -1.060000000000000E-002   -0.194918780380261     
 -1.050000000000000E-002   -0.203161707288198     
 -1.040000000000000E-002   -0.211601210116773     
 -1.030000000000000E-002   -0.220237756026714     
 -1.020000000000000E-002   -0.229071691872004     
 -1.010000000000000E-002   -0.238103158413805     
 -1.000000000000000E-002   -0.247332163900682     
 -9.899999999999999E-003   -0.256758528405786     
 -9.800000000000000E-003   -0.266381870992733     
 -9.699999999999999E-003   -0.276201645337315     
 -9.599999999999999E-003   -0.286217053300314     
 -9.500000000000000E-003   -0.296427151084426     
 -9.399999999999999E-003   -0.306830813096419     
 -9.299999999999999E-003   -0.317426633405768     
 -9.200000000000000E-003   -0.328213004789514     
 -9.099999999999999E-003   -0.339188159288813     
 -8.999999999999999E-003   -0.350350070982135     
 -8.900000000000000E-003   -0.361696488072863     
 -8.799999999999999E-003   -0.373224947426129     
 -8.699999999999999E-003   -0.384932781623431     
 -8.600000000000000E-003   -0.396816971032112     
 -8.499999999999999E-003   -0.408874380631636     
 -8.399999999999999E-003   -0.421101551546486     
 -8.300000000000000E-003   -0.433494792631843     
 -8.199999999999999E-003   -0.446050196439320     
 -8.100000000000000E-003   -0.458763605531738     
 -8.000000000000000E-003   -0.471630537120822     
 -7.899999999999999E-003   -0.484646298777907     
 -7.800000000000000E-003   -0.497805943613458     
 -7.699999999999999E-003   -0.511104225134114     
 -7.599999999999999E-003   -0.524535729980574     
 -7.499999999999999E-003   -0.538094718144797     
 -7.399999999999999E-003   -0.551775145817514     
 -7.299999999999999E-003   -0.565570780171569     
 -7.199999999999999E-003   -0.579475166546387     
 -7.100000000000000E-003   -0.593481473435509     
 -6.999999999999999E-003   -0.607582669385989     
 -6.899999999999999E-003   -0.621771451173055     
 -6.800000000000000E-003   -0.636040263035821     
 -6.699999999999999E-003   -0.650381346046331     
 -6.599999999999999E-003   -0.664786601254953     
 -6.499999999999999E-003   -0.679247690977972     
 -6.399999999999999E-003   -0.693756106738119     
 -6.299999999999999E-003   -0.708303059357404     
 -6.199999999999999E-003   -0.722879475603770     
 -6.100000000000000E-003   -0.737476064405979     
 -5.999999999999999E-003   -0.752083325551131     
 -5.899999999999999E-003   -0.766691528525551     
 -5.800000000000000E-003   -0.781290690660707     
 -5.699999999999999E-003   -0.795870619630568     
 -5.599999999999999E-003   -0.810420948217868     
 -5.499999999999999E-003   -0.824931082117779     
 -5.399999999999999E-003   -0.839390213662898     
 -5.299999999999999E-003   -0.853787352279987     
 -5.199999999999999E-003   -0.868111377322113     
 -5.099999999999999E-003   -0.882350956226059     
 -4.999999999999999E-003   -0.896494550313486     
 -4.899999999999999E-003   -0.910530510668189     
 -4.799999999999999E-003   -0.924447029985454     
 -4.699999999999999E-003   -0.938232127495730     
 -4.599999999999999E-003   -0.951873729743844     
 -4.499999999999999E-003   -0.965359703153092     
 -4.399999999999999E-003   -0.978677645102896     
 -4.299999999999999E-003   -0.991815212313975     
 -4.199999999999999E-003    -1.00475987476685     
 -4.099999999999999E-003    -1.01749914143878     
 -3.999999999999999E-003    -1.03002027856082     
 -3.899999999999999E-003    -1.04231063115309     
 -3.799999999999999E-003    -1.05435749135180     
 -3.699999999999999E-003    -1.06614816334285     
 -3.599999999999999E-003    -1.07766978784097     
 -3.499999999999999E-003    -1.08890969274980     
 -3.399999999999999E-003    -1.09985511420906     
 -3.299999999999999E-003    -1.11049340148736     
 -3.199999999999999E-003    -1.12081174583042     
 -3.099999999999999E-003    -1.13079758640464     
 -2.999999999999999E-003    -1.14043832407582     
 -2.899999999999999E-003    -1.14972145250821     
 -2.799999999999999E-003    -1.15863463800151     
 -2.699999999999999E-003    -1.16716556582842     
 -2.599999999999999E-003    -1.17530214758684     
 -2.499999999999999E-003    -1.18303236351214     
 -2.399999999999999E-003    -1.19034431319245     
 -2.299999999999999E-003    -1.19722633116557     
 -2.199999999999999E-003    -1.20366692348970     
 -2.099999999999999E-003    -1.20965480166335     
 -1.999999999999999E-003    -1.21517882780035     
 -1.899999999999999E-003    -1.22022819187548     
 -1.799999999999999E-003    -1.22479223770747     
 -1.699999999999999E-003    -1.22886064864074     
 -1.599999999999999E-003    -1.23242329965336     
 -1.499999999999999E-003    -1.23547035625665     
 -1.399999999999999E-003    -1.23799235510737     
 -1.299999999999999E-003    -1.23998008015923     
 -1.199999999999999E-003    -1.24142472034737     
 -1.099999999999999E-003    -1.24231762120034     
 -9.999999999999989E-004    -1.24265073547505     
 -8.999999999999990E-004    -1.24241618293664     
 -7.999999999999990E-004    -1.24160653638419     
 -6.999999999999989E-004    -1.24021473506368     
 -5.999999999999990E-004    -1.23823415743561     
 -4.999999999999989E-004    -1.23565861865610     
 -3.999999999999989E-004    -1.23248230197588     
 -2.999999999999989E-004    -1.22869985614724     
 -1.999999999999989E-004    -1.22430634086822     
 -9.999999999999892E-005    -1.21929730378358     
  1.084202172485504E-018    -1.21366882670533     
  1.000000000000011E-004    -1.20741734451114     
  2.000000000000011E-004    -1.20053984996784     
  3.000000000000011E-004    -1.19303379468872     
  4.000000000000011E-004    -1.18489713402792     
  5.000000000000011E-004    -1.17612833749925     
  6.000000000000011E-004    -1.16672647120147     
  7.000000000000011E-004    -1.15669096799271     
  8.000000000000011E-004    -1.14602187919884     
  9.000000000000012E-004    -1.13471972463942     
  1.000000000000001E-003    -1.12278568130356     
  1.100000000000001E-003    -1.11022135057818     
  1.200000000000001E-003    -1.09702890435888     
  1.300000000000001E-003    -1.08321107517690     
  1.400000000000001E-003    -1.06877115736004     
  1.500000000000001E-003    -1.05371295559597     
  1.600000000000001E-003    -1.03804085111927     
  1.700000000000001E-003    -1.02175975164541     
  1.800000000000001E-003    -1.00487508956834     
  1.900000000000001E-003   -0.987392889385935     
  2.000000000000001E-003   -0.969319661319894     
  2.100000000000001E-003   -0.950662503761852     
  2.200000000000001E-003   -0.931429060783677     
  2.300000000000001E-003   -0.911627451105550     
  2.400000000000001E-003   -0.891266357557575     
  2.500000000000001E-003   -0.870354954545994     
  2.600000000000001E-003   -0.848903000209301     
  2.700000000000001E-003   -0.826920686458936     
  2.800000000000001E-003   -0.804418738364743     
  2.900000000000001E-003   -0.781408378680990     
  3.000000000000001E-003   -0.757901238617610     
  3.100000000000001E-003   -0.733909574220918     
  3.200000000000001E-003   -0.709446002496702     
  3.300000000000001E-003   -0.684523641625714     
  3.400000000000001E-003   -0.659155978939030     
  3.500000000000001E-003   -0.633357019335782     
  3.600000000000001E-003   -0.607141140874614     
  3.700000000000001E-003   -0.580523129431806     
  3.800000000000001E-003   -0.553518167812644     
  3.900000000000001E-003   -0.526141817456300     
  4.000000000000001E-003   -0.498409976081929     
  4.100000000000001E-003   -0.470338943208489     
  4.200000000000001E-003   -0.441945307740120     
  4.300000000000001E-003   -0.413245985331521     
  4.400000000000001E-003   -0.384258159738030     
  4.500000000000001E-003   -0.354999383859023     
  4.600000000000002E-003   -0.325487341120283     
  4.700000000000001E-003   -0.295740082352668     
  4.800000000000001E-003   -0.265775886588304     
  4.900000000000002E-003   -0.235613163422085     
  5.000000000000001E-003   -0.205270629022817     
  5.100000000000001E-003   -0.174767043776844     
  5.200000000000001E-003   -0.144121446408343     
  5.300000000000002E-003   -0.113352918776372     
  5.400000000000001E-003   -8.248076724289058E-002
  5.500000000000001E-003   -5.152429773325076E-002
  5.600000000000002E-003   -2.050296432279569E-002
  5.700000000000001E-003    1.056382012253310E-002
  5.800000000000001E-003    4.165650703678048E-002
  5.900000000000002E-003    7.275556092448615E-002
  6.000000000000001E-003    0.103841411429851     
  6.100000000000001E-003    0.134894566001682     
  6.200000000000002E-003    0.165895530625270     
  6.300000000000002E-003    0.196824863165071     
  6.400000000000001E-003    0.227663207187530     
  6.500000000000001E-003    0.258391343469741     
  6.600000000000002E-003    0.288990112840691     
  6.700000000000001E-003    0.319440483944854     
  6.800000000000001E-003    0.349723653296330     
  6.900000000000002E-003    0.379820952165635     
  7.000000000000001E-003    0.409713918033021     
  7.100000000000001E-003    0.439384276724091     
  7.200000000000002E-003    0.468813947732314     
  7.300000000000002E-003    0.497985213106865     
  7.400000000000001E-003    0.526880496010844     
  7.500000000000001E-003    0.555482594660364     
  7.600000000000002E-003    0.583774529149940     
  7.700000000000001E-003    0.611739710351745     
  7.800000000000001E-003    0.639361870660692     
  7.900000000000001E-003    0.666624977235207     
  8.000000000000002E-003    0.693513491973848     
  8.100000000000001E-003    0.720012148225788     
  8.200000000000001E-003    0.746106084280094     
  8.300000000000002E-003    0.771780915161934     
  8.400000000000001E-003    0.797022634244157     
  8.500000000000002E-003    0.821817624624343     
  8.600000000000002E-003    0.846152715000842     
  8.700000000000001E-003    0.870015176101219     
  8.800000000000002E-003    0.893392853516509     
  8.900000000000002E-003    0.916273866843723     
  9.000000000000001E-003    0.938646864902045     
  9.100000000000002E-003    0.960501080320841     
  9.200000000000002E-003    0.981826234763163     
  9.300000000000001E-003     1.00261241345621     
  9.400000000000002E-003     1.02285035429875     
  9.500000000000001E-003     1.04253122454883     
  9.600000000000001E-003     1.06164679350751     
  9.700000000000002E-003     1.08018921649665     
  9.800000000000001E-003     1.09815123169877     
  9.900000000000001E-003     1.11552618646162     
  1.000000000000000E-002     1.13230792143067     
  1.010000000000000E-002     1.14849075097948     
  1.020000000000000E-002     1.16406961632361     
  1.030000000000000E-002     1.17903994396880     
  1.040000000000000E-002     1.19339771645874     
  1.050000000000000E-002     1.20713933734790     
  1.060000000000000E-002     1.22026195483607     
  1.070000000000000E-002     1.23276321467791     
  1.080000000000000E-002     1.24464109898226     
  1.090000000000000E-002     1.25589433308148     
  1.100000000000000E-002     1.26652205622627     
  1.110000000000000E-002     1.27652403142187     
  1.120000000000000E-002     1.28590042892856     
  1.130000000000000E-002     1.29465185468004     
  1.140000000000000E-002     1.30277960380973     
  1.150000000000000E-002     1.31028542771387     
  1.160000000000000E-002     1.31717145480044     
  1.170000000000000E-002     1.32344042328885     
  1.180000000000000E-002     1.32909544020823     
  1.190000000000000E-002     1.33414010832917     
  1.200000000000000E-002     1.33857857742653     
  1.210000000000000E-002     1.34241535000233     
  1.220000000000000E-002     1.34565534963962     
  1.230000000000000E-002     1.34830401036407     
  1.240000000000000E-002     1.35036705874986     
  1.250000000000000E-002     1.35185087953756     
  1.260000000000000E-002     1.35276194629293     
  1.270000000000000E-002     1.35310734487603     
  1.280000000000000E-002     1.35289440776920     
  1.290000000000000E-002     1.35213086024532     
  1.300000000000000E-002     1.35082469083824     
  1.310000000000000E-002     1.34898445635806     
  1.320000000000000E-002     1.34661871045542     
  1.330000000000000E-002     1.34373658742544     
  1.340000000000000E-002     1.34034728527100     
  1.350000000000000E-002     1.33646054185534     
  1.360000000000000E-002     1.33208605849524     
  1.370000000000000E-002     1.32723409284607     
  1.380000000000000E-002     1.32191486398217     
  1.390000000000000E-002     1.31613899394195     
  1.400000000000000E-002     1.30991726004994     
  1.410000000000000E-002     1.30326061967374     
  1.420000000000000E-002     1.29618021733598     
  1.430000000000000E-002     1.28868739967411     
  1.440000000000000E-002     1.28079358306523     
  1.450000000000000E-002     1.27251044844390     
  1.460000000000000E-002     1.26384969974557     
  1.470000000000000E-002     1.25482313920680     
  1.480000000000000E-002     1.24544278469601     
  1.490000000000000E-002     1.23572058666840     
  1.500000000000000E-002     1.22566866444372     
  1.510000000000000E-002     1.21529909511330     
  1.520000000000000E-002     1.20462411551800     
  1.530000000000000E-002     1.19365591773552     
  1.540000000000000E-002     1.18240668919573     
  1.550000000000000E-002     1.17088866057028     
  1.560000000000000E-002     1.15911410077435     
  1.570000000000000E-002     1.14709515526479     
  1.580000000000000E-002     1.13484403501946     
  1.590000000000000E-002     1.12237279166932     
  1.600000000000000E-002     1.10969355162569     
  1.610000000000000E-002     1.09681832546546     
  1.620000000000000E-002     1.08375903790578     
  1.630000000000000E-002     1.07052750764716     
  1.640000000000000E-002     1.05713543919996     
  1.650000000000000E-002     1.04359447993280     
  1.660000000000000E-002     1.02991613076036     
  1.670000000000000E-002     1.01611173452405     
  1.680000000000000E-002     1.00219252927842     
  1.690000000000000E-002    0.988169576919483     
  1.700000000000000E-002    0.974053770652300     
  1.710000000000000E-002    0.959855852391819     
  1.720000000000000E-002    0.945586437123844     
  1.730000000000000E-002    0.931255907238255     
  1.740000000000000E-002    0.916874477256575     
  1.750000000000000E-002    0.902452201764144     
  1.760000000000000E-002    0.887998928005935     
  1.770000000000000E-002    0.873524324083112     
  1.780000000000000E-002    0.859037792872422     
  1.790000000000000E-002    0.844548568700565     
  1.800000000000000E-002    0.830065657392838     
  1.810000000000000E-002    0.815597842463684     
  1.820000000000000E-002    0.801153691474993     
  1.830000000000000E-002    0.786741535756623     
  1.840000000000000E-002    0.772369472263747     
  1.850000000000000E-002    0.758045348633034     
  1.860000000000000E-002    0.743776768822233     
  1.870000000000000E-002    0.729571120543620     