 -4.000000000000000E-002    0.000000000000000E+000
 -3.990000000000000E-002    0.000000000000000E+000
 -3.980000000000000E-002    0.000000000000000E+000
 -3.970000000000000E-002    0.000000000000000E+000
 -3.960000000000000E-002    0.000000000000000E+000
 -3.950000000000000E-002    0.000000000000000E+000
 -3.940000000000000E-002    0.000000000000000E+000
 -3.930000000000000E-002    0.000000000000000E+000
 -3.920000000000000E-002    0.000000000000000E+000
 -3.910000000000000E-002    0.000000000000000E+000
 -3.900000000000000E-002    0.000000000000000E+000
 -3.890000000000000E-002    0.000000000000000E+000
 -3.880000000000000E-002    0.000000000000000E+000
 -3.870000000000000E-002    0.000000000000000E+000
 -3.860000000000000E-002    0.000000000000000E+000
 -3.850000000000000E-002    0.000000000000000E+000
 -3.840000000000000E-002    0.000000000000000E+000
 -3.830000000000000E-002    0.000000000000000E+000
 -3.820000000000000E-002    0.000000000000000E+000
 -3.810000000000000E-002    0.000000000000000E+000
 -3.800000000000000E-002    0.000000000000000E+000
 -3.790000000000000E-002    0.000000000000000E+000
 -3.780000000000000E-002    0.000000000000000E+000
 -3.770000000000000E-002    0.000000000000000E+000
 -3.760000000000000E-002    0.000000000000000E+000
 -3.750000000000000E-002    0.000000000000000E+000
 -3.740000000000000E-002    0.000000000000000E+000
 -3.730000000000000E-002    0.000000000000000E+000
 -3.720000000000000E-002    0.000000000000000E+000
 -3.710000000000000E-002    0.000000000000000E+000
 -3.700000000000000E-002    0.000000000000000E+000
 -3.690000000000000E-002    0.000000000000000E+000
 -3.680000000000000E-002    0.000000000000000E+000
 -3.670000000000000E-002    0.000000000000000E+000
 -3.660000000000000E-002    0.000000000000000E+000
 -3.650000000000000E-002    0.000000000000000E+000
 -3.640000000000000E-002    0.000000000000000E+000
 -3.630000000000000E-002    0.000000000000000E+000
 -3.620000000000000E-002    0.000000000000000E+000
 -3.610000000000000E-002    0.000000000000000E+000
 -3.600000000000000E-002    0.000000000000000E+000
 -3.590000000000000E-002    0.000000000000000E+000
 -3.580000000000000E-002    0.000000000000000E+000
 -3.570000000000000E-002    0.000000000000000E+000
 -3.560000000000000E-002    0.000000000000000E+000
 -3.550000000000000E-002    0.000000000000000E+000
 -3.540000000000000E-002    0.000000000000000E+000
 -3.530000000000000E-002    0.000000000000000E+000
 -3.520000000000000E-002    0.000000000000000E+000
 -3.510000000000000E-002    0.000000000000000E+000
 -3.500000000000000E-002    0.000000000000000E+000
 -3.490000000000000E-002    0.000000000000000E+000
 -3.480000000000000E-002    0.000000000000000E+000
 -3.470000000000000E-002    0.000000000000000E+000
 -3.460000000000000E-002    0.000000000000000E+000
 -3.450000000000000E-002    0.000000000000000E+000
 -3.440000000000000E-002    0.000000000000000E+000
 -3.430000000000000E-002    0.000000000000000E+000
 -3.420000000000000E-002    0.000000000000000E+000
 -3.410000000000000E-002    0.000000000000000E+000
 -3.400000000000000E-002    0.000000000000000E+000
 -3.390000000000000E-002    0.000000000000000E+000
 -3.380000000000000E-002    0.000000000000000E+000
 -3.370000000000000E-002    0.000000000000000E+000
 -3.360000000000000E-002    0.000000000000000E+000
 -3.350000000000000E-002    0.000000000000000E+000
 -3.340000000000000E-002    0.000000000000000E+000
 -3.330000000000000E-002    0.000000000000000E+000
 -3.320000000000000E-002    0.000000000000000E+000
 -3.310000000000000E-002    0.000000000000000E+000
 -3.300000000000000E-002    0.000000000000000E+000
 -3.290000000000000E-002    0.000000000000000E+000
 -3.280000000000000E-002    0.000000000000000E+000
 -3.270000000000000E-002    0.000000000000000E+000
 -3.260000000000000E-002    0.000000000000000E+000
 -3.250000000000000E-002    0.000000000000000E+000
 -3.240000000000000E-002    0.000000000000000E+000
 -3.230000000000000E-002    0.000000000000000E+000
 -3.220000000000000E-002    0.000000000000000E+000
 -3.210000000000000E-002    0.000000000000000E+000
 -3.200000000000000E-002    0.000000000000000E+000
 -3.190000000000000E-002    0.000000000000000E+000
 -3.180000000000000E-002    0.000000000000000E+000
 -3.170000000000000E-002    0.000000000000000E+000
 -3.160000000000000E-002    0.000000000000000E+000
 -3.150000000000000E-002    0.000000000000000E+000
 -3.140000000000000E-002    0.000000000000000E+000
 -3.130000000000000E-002    0.000000000000000E+000
 -3.120000000000000E-002    0.000000000000000E+000
 -3.110000000000000E-002    0.000000000000000E+000
 -3.100000000000000E-002    0.000000000000000E+000
 -3.090000000000000E-002    0.000000000000000E+000
 -3.080000000000000E-002    0.000000000000000E+000
 -3.070000000000000E-002    0.000000000000000E+000
 -3.060000000000000E-002    0.000000000000000E+000
 -3.050000000000000E-002    0.000000000000000E+000
 -3.040000000000000E-002    0.000000000000000E+000
 -3.030000000000000E-002    0.000000000000000E+000
 -3.020000000000000E-002    0.000000000000000E+000
 -3.010000000000000E-002    0.000000000000000E+000
 -3.000000000000000E-002    0.000000000000000E+000
 -2.990000000000000E-002    0.000000000000000E+000
 -2.980000000000000E-002    0.000000000000000E+000
 -2.970000000000000E-002    0.000000000000000E+000
 -2.960000000000000E-002    0.000000000000000E+000
 -2.950000000000000E-002    0.000000000000000E+000
 -2.940000000000000E-002    0.000000000000000E+000
 -2.930000000000000E-002    0.000000000000000E+000
 -2.920000000000000E-002    0.000000000000000E+000
 -2.910000000000000E-002    0.000000000000000E+000
 -2.900000000000000E-002    0.000000000000000E+000
 -2.890000000000000E-002    0.000000000000000E+000
 -2.880000000000000E-002    0.000000000000000E+000
 -2.870000000000000E-002    0.000000000000000E+000
 -2.860000000000000E-002    0.000000000000000E+000
 -2.850000000000000E-002    0.000000000000000E+000
 -2.840000000000000E-002    0.000000000000000E+000
 -2.830000000000000E-002    0.000000000000000E+000
 -2.820000000000000E-002    0.000000000000000E+000
 -2.810000000000000E-002    0.000000000000000E+000
 -2.800000000000000E-002    0.000000000000000E+000
 -2.790000000000000E-002    0.000000000000000E+000
 -2.780000000000000E-002    0.000000000000000E+000
 -2.770000000000000E-002    0.000000000000000E+000
 -2.760000000000000E-002    0.000000000000000E+000
 -2.750000000000000E-002    0.000000000000000E+000
 -2.740000000000000E-002    0.000000000000000E+000
 -2.730000000000000E-002    0.000000000000000E+000
 -2.720000000000000E-002    0.000000000000000E+000
 -2.710000000000000E-002    0.000000000000000E+000
 -2.700000000000000E-002    0.000000000000000E+000
 -2.690000000000000E-002    0.000000000000000E+000
 -2.680000000000000E-002    0.000000000000000E+000
 -2.670000000000000E-002    0.000000000000000E+000
 -2.660000000000000E-002    0.000000000000000E+000
 -2.650000000000000E-002    0.000000000000000E+000
 -2.640000000000000E-002    0.000000000000000E+000
 -2.630000000000000E-002    0.000000000000000E+000
 -2.620000000000000E-002    0.000000000000000E+000
 -2.610000000000000E-002    0.000000000000000E+000
 -2.600000000000000E-002    0.000000000000000E+000
 -2.590000000000000E-002    0.000000000000000E+000
 -2.580000000000000E-002    0.000000000000000E+000
 -2.570000000000000E-002    0.000000000000000E+000
 -2.560000000000000E-002    0.000000000000000E+000
 -2.550000000000000E-002    0.000000000000000E+000
 -2.540000000000000E-002    0.000000000000000E+000
 -2.530000000000000E-002    0.000000000000000E+000
 -2.520000000000000E-002    0.000000000000000E+000
 -2.510000000000000E-002    0.000000000000000E+000
 -2.500000000000000E-002    0.000000000000000E+000
 -2.490000000000000E-002    0.000000000000000E+000
 -2.480000000000000E-002    0.000000000000000E+000
 -2.470000000000000E-002    0.000000000000000E+000
 -2.460000000000000E-002    0.000000000000000E+000
 -2.450000000000000E-002    0.000000000000000E+000
 -2.440000000000000E-002    0.000000000000000E+000
 -2.430000000000000E-002    0.000000000000000E+000
 -2.420000000000000E-002    0.000000000000000E+000
 -2.410000000000000E-002    0.000000000000000E+000
 -2.400000000000000E-002    0.000000000000000E+000
 -2.390000000000000E-002    0.000000000000000E+000
 -2.380000000000000E-002    0.000000000000000E+000
 -2.370000000000000E-002    0.000000000000000E+000
 -2.360000000000000E-002    0.000000000000000E+000
 -2.350000000000000E-002    0.000000000000000E+000
 -2.340000000000000E-002    0.000000000000000E+000
 -2.330000000000000E-002    0.000000000000000E+000
 -2.320000000000000E-002    0.000000000000000E+000
 -2.310000000000000E-002    0.000000000000000E+000
 -2.300000000000000E-002    0.000000000000000E+000
 -2.290000000000000E-002    0.000000000000000E+000
 -2.280000000000000E-002    0.000000000000000E+000
 -2.270000000000000E-002    0.000000000000000E+000
 -2.260000000000000E-002    0.000000000000000E+000
 -2.250000000000000E-002    0.000000000000000E+000
 -2.240000000000000E-002    0.000000000000000E+000
 -2.230000000000000E-002    0.000000000000000E+000
 -2.220000000000000E-002    0.000000000000000E+000
 -2.210000000000000E-002    0.000000000000000E+000
 -2.200000000000000E-002    0.000000000000000E+000
 -2.190000000000000E-002    0.000000000000000E+000
 -2.180000000000000E-002    0.000000000000000E+000
 -2.170000000000000E-002    0.000000000000000E+000
 -2.160000000000000E-002    0.000000000000000E+000
 -2.150000000000000E-002    0.000000000000000E+000
 -2.140000000000000E-002    0.000000000000000E+000
 -2.130000000000000E-002    0.000000000000000E+000
 -2.120000000000000E-002    0.000000000000000E+000
 -2.110000000000000E-002    0.000000000000000E+000
 -2.100000000000000E-002    0.000000000000000E+000
 -2.090000000000000E-002    0.000000000000000E+000
 -2.080000000000000E-002    0.000000000000000E+000
 -2.070000000000000E-002    0.000000000000000E+000
 -2.060000000000000E-002    0.000000000000000E+000
 -2.050000000000000E-002    0.000000000000000E+000
 -2.040000000000000E-002    0.000000000000000E+000
 -2.030000000000000E-002    0.000000000000000E+000
 -2.020000000000000E-002    0.000000000000000E+000
 -2.010000000000000E-002    0.000000000000000E+000
 -2.000000000000000E-002    0.000000000000000E+000
 -1.990000000000000E-002    0.000000000000000E+000
 -1.980000000000000E-002    0.000000000000000E+000
 -1.970000000000000E-002    0.000000000000000E+000
 -1.960000000000000E-002    0.000000000000000E+000
 -1.950000000000000E-002    0.000000000000000E+000
 -1.940000000000000E-002    0.000000000000000E+000
 -1.930000000000000E-002    0.000000000000000E+000
 -1.920000000000000E-002    0.000000000000000E+000
 -1.910000000000000E-002    0.000000000000000E+000
 -1.900000000000000E-002    0.000000000000000E+000
 -1.890000000000000E-002    0.000000000000000E+000
 -1.880000000000000E-002    0.000000000000000E+000
 -1.870000000000000E-002    0.000000000000000E+000
 -1.860000000000000E-002    0.000000000000000E+000
 -1.850000000000000E-002    0.000000000000000E+000
 -1.840000000000000E-002    0.000000000000000E+000
 -1.830000000000000E-002    0.000000000000000E+000
 -1.820000000000000E-002    0.000000000000000E+000
 -1.810000000000000E-002    0.000000000000000E+000
 -1.800000000000000E-002    0.000000000000000E+000
 -1.790000000000000E-002    0.000000000000000E+000
 -1.780000000000000E-002    0.000000000000000E+000
 -1.770000000000000E-002    0.000000000000000E+000
 -1.760000000000000E-002    0.000000000000000E+000
 -1.750000000000000E-002    0.000000000000000E+000
 -1.740000000000000E-002    0.000000000000000E+000
 -1.730000000000000E-002    0.000000000000000E+000
 -1.720000000000000E-002    0.000000000000000E+000
 -1.710000000000000E-002    0.000000000000000E+000
 -1.700000000000000E-002    0.000000000000000E+000
 -1.690000000000000E-002    0.000000000000000E+000
 -1.680000000000000E-002    0.000000000000000E+000
 -1.670000000000000E-002    0.000000000000000E+000
 -1.660000000000000E-002    0.000000000000000E+000
 -1.650000000000000E-002    0.000000000000000E+000
 -1.640000000000000E-002    0.000000000000000E+000
 -1.630000000000000E-002    0.000000000000000E+000
 -1.620000000000000E-002    0.000000000000000E+000
 -1.610000000000000E-002    0.000000000000000E+000
 -1.600000000000000E-002    0.000000000000000E+000
 -1.590000000000000E-002    0.000000000000000E+000
 -1.580000000000000E-002    0.000000000000000E+000
 -1.570000000000000E-002    0.000000000000000E+000
 -1.560000000000000E-002    0.000000000000000E+000
 -1.550000000000000E-002    0.000000000000000E+000
 -1.540000000000000E-002    0.000000000000000E+000
 -1.530000000000000E-002    0.000000000000000E+000
 -1.520000000000000E-002    0.000000000000000E+000
 -1.510000000000000E-002    0.000000000000000E+000
 -1.500000000000000E-002    0.000000000000000E+000
 -1.490000000000000E-002    0.000000000000000E+000
 -1.480000000000000E-002    0.000000000000000E+000
 -1.470000000000000E-002    0.000000000000000E+000
 -1.460000000000000E-002    0.000000000000000E+000
 -1.450000000000000E-002    0.000000000000000E+000
 -1.440000000000000E-002    1.924390591266381E-047
 -1.430000000000000E-002    3.848781182532762E-047
 -1.420000000000000E-002    3.848781182532762E-047
 -1.410000000000000E-002    3.848781182532762E-047
 -1.400000000000000E-002    3.848781182532762E-047
 -1.390000000000000E-002    1.924390591266381E-047
 -1.380000000000000E-002   -2.565854121688508E-047
 -1.370000000000000E-002    3.592195770363911E-047
 -1.360000000000000E-002    2.694146827772933E-047
 -1.350000000000000E-002    5.131708243377016E-048
 -1.340000000000000E-002   -3.592195770363911E-047
 -1.330000000000000E-002   -5.131708243377016E-047
 -1.320000000000000E-002    1.233612104953877E-046
 -1.310000000000000E-002    2.621175457209065E-046
 -1.300000000000000E-002    7.013457582949839E-046
 -1.290000000000000E-002   -4.271875451640266E-047
 -1.280000000000000E-002   -2.429433651711441E-046
 -1.270000000000000E-002   -5.445192136325816E-046
 -1.260000000000000E-002   -9.023831606233373E-046
 -1.250000000000000E-002   -3.836406822270696E-046
 -1.240000000000000E-002   -5.009481622204044E-046
 -1.230000000000000E-002    5.574631680455892E-048
 -1.220000000000000E-002    6.707739903839803E-046
 -1.210000000000000E-002    9.959794141636409E-046
 -1.200000000000000E-002    2.061916201088808E-045
 -1.190000000000000E-002    3.123439212039020E-045
 -1.180000000000000E-002    4.371114156481197E-045
 -1.170000000000000E-002    5.332790320951487E-045
 -1.160000000000000E-002    5.630437830287796E-045
 -1.150000000000000E-002    4.521375018769313E-045
 -1.140000000000000E-002    2.831021711545937E-045
 -1.130000000000000E-002   -1.108957650866051E-045
 -1.120000000000000E-002   -7.951093853804350E-045
 -1.110000000000000E-002   -1.706733501161815E-044
 -1.100000000000000E-002   -2.801676567183837E-044
 -1.090000000000000E-002   -3.952562680473932E-044
 -1.080000000000000E-002   -5.034336167087050E-044
 -1.070000000000000E-002   -5.765375426679342E-044
 -1.060000000000000E-002   -5.996841457192339E-044
 -1.050000000000000E-002   -5.157412904017881E-044
 -1.040000000000000E-002   -3.102712331293069E-044
 -1.030000000000000E-002    6.912091703438590E-045
 -1.020000000000000E-002    6.257150942764500E-044
 -1.010000000000000E-002    1.382981303398074E-043
 -1.000000000000000E-002    2.295303364207131E-043
 -9.899999999999999E-003    3.293764170979290E-043
 -9.800000000000000E-003    4.256440742829269E-043
 -9.699999999999999E-003    5.006124473727195E-043
 -9.599999999999999E-003    5.303607856888096E-043
 -9.500000000000000E-003    4.887700476790316E-043
 -9.399999999999999E-003    3.458963248022509E-043
 -9.299999999999999E-003    7.417627942167317E-044
 -9.200000000000000E-003   -3.446203578409828E-043
 -9.099999999999999E-003   -9.153416284064671E-043
 -8.999999999999999E-003   -1.620660365512294E-042
 -8.900000000000000E-003   -2.411944690047490E-042
 -8.799999999999999E-003   -3.203416921210481E-042
 -8.699999999999999E-003   -3.869535455145572E-042
 -8.600000000000000E-003   -4.241048715038550E-042
 -8.499999999999999E-003   -4.119026493074226E-042
 -8.399999999999999E-003   -3.285338276281317E-042
 -8.300000000000000E-003   -1.531983463415133E-042
 -8.199999999999999E-003    1.299975963658854E-042
 -8.100000000000000E-003    5.277208109615782E-042
 -8.000000000000000E-003    1.031535225763721E-041
 -7.899999999999999E-003    1.612620695519693E-041
 -7.800000000000000E-003    2.216578296348580E-041
 -7.699999999999999E-003    2.760328938116930E-041
 -7.599999999999999E-003    3.131762630978807E-041
 -7.499999999999999E-003    3.194096681176146E-041
 -7.399999999999999E-003    2.795675316198875E-041
 -7.299999999999999E-003    1.786748008602905E-041
 -7.199999999999999E-003    4.324919239335584E-043
 -7.100000000000000E-003   -2.502598565873994E-041
 -6.999999999999999E-003   -5.827131995235600E-041
 -6.899999999999999E-003   -9.777580094153964E-041
 -6.800000000000000E-003   -1.403875735295897E-040
 -6.699999999999999E-003   -1.810881772745117E-040
 -6.599999999999999E-003   -2.129314094721377E-040
 -6.499999999999999E-003   -2.272463910261866E-040
 -6.399999999999999E-003   -2.141838083084779E-040
 -6.299999999999999E-003   -1.636820167803597E-040
 -6.199999999999999E-003   -6.687134828531979E-041
 -6.100000000000000E-003    8.209652323851072E-041
 -5.999999999999999E-003    2.838937194845138E-040
 -5.899999999999999E-003    5.317106996227536E-040
 -5.800000000000000E-003    8.090934078044549E-040
 -5.699999999999999E-003    1.088284906545332E-039
 -5.599999999999999E-003    1.329545031690399E-039
 -5.499999999999999E-003    1.481930844821686E-039
 -5.399999999999999E-003    1.486039240698699E-039
 -5.299999999999999E-003    1.279112092773954E-039
 -5.199999999999999E-003    8.027120036217473E-040
 -5.099999999999999E-003    1.290826128039654E-041
 -4.999999999999999E-003   -1.107492575684303E-039
 -4.899999999999999E-003   -2.535621036144153E-039
 -4.799999999999999E-003   -4.195602457941973E-039
 -4.699999999999999E-003   -5.948001777207687E-039
 -4.599999999999999E-003   -7.584125294577668E-039
 -4.499999999999999E-003   -8.827893776873975E-039
 -4.399999999999999E-003   -9.347993511622558E-039
 -4.299999999999999E-003   -8.782604497184636E-039
 -4.199999999999999E-003   -6.778067774920089E-039
 -4.099999999999999E-003   -3.041443240322490E-039
 -3.999999999999999E-003    2.595100223463712E-039
 -3.899999999999999E-003    1.010256532148003E-038
 -3.799999999999999E-003    1.918333797829903E-038
 -3.699999999999999E-003    2.920927054490651E-038
 -3.599999999999999E-003    3.918201856689433E-038
 -3.499999999999999E-003    4.772949374601190E-038
 -3.399999999999999E-003    5.315225444519013E-038
 -3.299999999999999E-003    5.353213788350524E-038
 -3.199999999999999E-003    4.691112730258724E-038
 -3.099999999999999E-003    3.154157500733997E-038
 -2.999999999999999E-003    6.199776437013006E-039
 -2.899999999999999E-003   -2.945695232695269E-038
 -2.799999999999999E-003   -7.452249914757018E-038
 -2.699999999999999E-003   -1.265095617122859E-037
 -2.599999999999999E-003   -1.811101665270382E-037
 -2.499999999999999E-003   -2.321145083072946E-037
 -2.399999999999999E-003   -2.715548604299748E-037
 -2.299999999999999E-003   -2.901342673096729E-037
 -2.199999999999999E-003   -2.779822749241734E-037
 -2.099999999999999E-003   -2.257500363212665E-037
 -1.999999999999999E-003   -1.260166233744209E-037
 -1.899999999999999E-003    2.507371081916890E-038
 -1.799999999999999E-003    2.260813244441138E-037
 -1.699999999999999E-003    4.686449185494435E-037
 -1.599999999999999E-003    7.362082614700733E-037
 -1.499999999999999E-003    1.003385357287144E-036
 -1.399999999999999E-003    1.236260962912262E-036
 -1.299999999999999E-003    1.393893055215189E-036
 -1.199999999999999E-003    1.431221079456032E-036
 -1.099999999999999E-003    1.303454986906992E-036
 -9.999999999999989E-004    9.718601201698222E-037
 -8.999999999999990E-004    4.106360138244083E-037
 -7.999999999999990E-004   -3.856482611710705E-037
 -6.999999999999989E-004   -1.394845499672742E-036
 -5.999999999999990E-004   -2.561243020653493E-036
 -4.999999999999989E-004   -3.791951815627379E-036
 -3.999999999999989E-004   -4.956869435618022E-036
 -2.999999999999989E-004   -5.893328489718774E-036
 -1.999999999999989E-004   -6.416274577959863E-036
 -9.999999999999892E-005   -6.334358091210516E-036
  1.084202172485504E-018   -5.471686594829536E-036
  1.000000000000011E-004   -3.694174416652567E-036
  2.000000000000011E-004   -9.385294532404993E-037
  3.000000000000011E-004    2.759016079172882E-036
  4.000000000000011E-004    7.237920871271035E-036
  5.000000000000011E-004    1.219676153282330E-035
  6.000000000000011E-004    1.718931806344791E-035
  7.000000000000011E-004    2.163743004222882E-035
  8.000000000000011E-004    2.486375890055543E-035
  9.000000000000012E-004    2.614590273201912E-035
  1.000000000000001E-003    2.479108806242802E-035
  1.100000000000001E-003    2.022770661882205E-035
  1.200000000000001E-003    1.210688512442053E-035
  1.300000000000001E-003    4.041019050598607E-037
  1.400000000000001E-003   -1.449182794451109E-035
  1.500000000000001E-003   -3.171686706361917E-035
  1.600000000000001E-003   -4.991184735114336E-035
  1.700000000000001E-003   -6.725788725830210E-035
  1.800000000000001E-003   -8.157697294467203E-035
  1.900000000000001E-003   -9.050169273151037E-035
  2.000000000000001E-003   -9.171020872028161E-035
  2.100000000000001E-003   -8.321320692395229E-035
  2.200000000000001E-003   -6.366937046320530E-035
  2.300000000000001E-003   -3.269650238979931E-035
  2.400000000000001E-003    8.862406653411987E-036
  2.500000000000001E-003    5.876273135356674E-035
  2.600000000000001E-003    1.133154132809363E-034
  2.700000000000001E-003    1.675146833674110E-034
  2.800000000000001E-003    2.153591428115125E-034
  2.900000000000001E-003    2.503689856218730E-034
  3.000000000000001E-003    2.662758352802909E-034
  3.100000000000001E-003    2.578324025094185E-034
  3.200000000000001E-003    2.216601663580227E-034
  3.300000000000001E-003    1.570276731033149E-034
  3.400000000000001E-003    6.643625439918293E-035
  3.500000000000001E-003   -4.411238723931242E-035
  3.600000000000001E-003   -1.652771630594444E-034
  3.700000000000001E-003   -2.850426217378944E-034
  3.800000000000001E-003   -3.899060815998323E-034
  3.900000000000001E-003   -4.665327595611571E-034
  4.000000000000001E-003   -5.037376287181826E-034
  4.100000000000001E-003   -4.945656644598179E-034
  4.200000000000001E-003   -4.381660435870024E-034
  4.300000000000001E-003   -3.411026090419986E-034
  4.400000000000001E-003   -2.177351115330106E-034
  4.500000000000001E-003   -8.934572670785810E-035
  4.600000000000002E-003    1.820145557874978E-035
  4.700000000000001E-003    7.830956768596311E-035
  4.800000000000001E-003    6.880978183780245E-035
  4.900000000000002E-003   -2.203475850928403E-035
  5.000000000000001E-003   -1.894476713813874E-034
  5.100000000000001E-003   -4.069991842810605E-034
  5.200000000000001E-003   -6.236133819549485E-034
  5.300000000000002E-003   -7.639755593358352E-034
  5.400000000000001E-003   -7.334730190751375E-034
  5.500000000000001E-003   -4.284504491022931E-034
  5.600000000000002E-003    2.480371196096750E-034
  5.700000000000001E-003    1.365564260819995E-033
  5.800000000000001E-003    2.942370905424377E-033
  5.900000000000002E-003    4.920756947258686E-033
  6.000000000000001E-003    7.145508939824705E-033
  6.100000000000001E-003    9.349832407176007E-033
  6.200000000000002E-003    1.115368758547608E-032
  6.300000000000002E-003    1.207918246542210E-032
  6.400000000000001E-003    1.158680964068617E-032
  6.500000000000001E-003    9.134413551219468E-033
  6.600000000000002E-003    4.258165505651227E-033
  6.700000000000001E-003   -3.328675642428508E-033
  6.800000000000001E-003   -1.362743757516147E-032
  6.900000000000002E-003   -2.624839159339111E-032
  7.000000000000001E-003   -4.032387742280592E-032
  7.100000000000001E-003   -5.445875840128853E-032
  7.200000000000002E-003   -6.673785180959687E-032
  7.300000000000002E-003   -7.480817082912407E-032
  7.400000000000001E-003   -7.604952367299644E-032
  7.500000000000001E-003   -6.783916169479391E-032
  7.600000000000002E-003   -4.790479904342127E-032
  7.700000000000001E-003   -1.474733816299233E-032
  7.800000000000001E-003    3.190171704720579E-032
  7.900000000000001E-003    9.063783459154917E-032
  8.000000000000002E-003    1.580197643743070E-031
  8.100000000000001E-003    2.283575969916607E-031
  8.200000000000001E-003    2.937272862292232E-031
  8.300000000000002E-003    3.442806467207067E-031
  8.400000000000001E-003    3.689004121017666E-031
  8.500000000000002E-003    3.562214118555681E-031
  8.600000000000002E-003    2.959971961471834E-031
  8.700000000000001E-003    1.807396373856313E-031
  8.800000000000002E-003    7.504452294123132E-033
  8.900000000000002E-003   -2.203630185496836E-031
  9.000000000000001E-003   -4.917536448245654E-031
  9.100000000000002E-003   -7.868595169055284E-031
  9.200000000000002E-003   -1.077052214400721E-030
  9.300000000000001E-003   -1.325824777226301E-030
  9.400000000000002E-003   -1.490987156915521E-030
  9.500000000000001E-003   -1.528194767497140E-030
  9.600000000000001E-003   -1.395753781221265E-030
  9.700000000000002E-003   -1.060464621749191E-030
  9.800000000000001E-003   -5.040713200734052E-031
  9.900000000000001E-003    2.703095244470891E-031
  1.000000000000000E-002    1.232578228585662E-030
  1.010000000000000E-002    2.321774099313249E-030
  1.020000000000000E-002    3.444878855643502E-030
  1.030000000000000E-002    4.479178984196437E-030
  1.040000000000000E-002    5.278859778970261E-030
  1.050000000000000E-002    5.686167175311316E-030
  1.060000000000000E-002    5.547015686850394E-030
  1.070000000000000E-002    4.730308477521130E-030
  1.080000000000000E-002    3.149647985316265E-030
  1.090000000000000E-002    7.854216213412075E-031
  1.100000000000000E-002   -2.295280334335586E-030
  1.110000000000000E-002   -5.923890660971251E-030
  1.120000000000000E-002   -9.823823919325514E-030
  1.130000000000000E-002   -1.361508087172955E-029
  1.140000000000000E-002   -1.683230308658104E-029
  1.150000000000000E-002   -1.895753637276044E-029
  1.160000000000000E-002   -1.946755630401580E-029
  1.170000000000000E-002   -1.789376587656348E-029
  1.180000000000000E-002   -1.389071323025206E-029
  1.190000000000000E-002   -7.307261208349088E-030
  1.200000000000000E-002    1.747364230209371E-030
  1.210000000000000E-002    1.285173919588414E-029
  1.220000000000000E-002    2.524425807273727E-029
  1.230000000000000E-002    3.782806638689034E-029
  1.240000000000000E-002    4.921647156493507E-029
  1.250000000000000E-002    5.782314214682426E-029
  1.260000000000000E-002    6.199743199503905E-029
  1.270000000000000E-002    6.019970117527133E-029
  1.280000000000000E-002    5.120561670900185E-029
  1.290000000000000E-002    3.432241359630241E-029
  1.300000000000000E-002    9.594642271345302E-030
  1.310000000000000E-002   -2.202719319644140E-029
  1.320000000000000E-002   -5.858342338297165E-029
  1.330000000000000E-002   -9.709481781180375E-029
  1.340000000000000E-002   -1.336677277056524E-028
  1.350000000000000E-002   -1.637292929185670E-028
  1.360000000000000E-002   -1.823952815890114E-028
  1.370000000000000E-002   -1.849580320972380E-028
  1.380000000000000E-002   -1.674655043218834E-028
  1.390000000000000E-002   -1.273446162997918E-028
  1.400000000000000E-002   -6.400675101560782E-029
  1.410000000000000E-002    2.063878706993490E-029
  1.420000000000000E-002    1.218436767013716E-028
  1.430000000000000E-002    2.319294287153486E-028
  1.440000000000000E-002    3.405127684660850E-028
  1.450000000000000E-002    4.350909606836340E-028
  1.460000000000000E-002    5.019996129324674E-028
  1.470000000000000E-002    5.277129418504066E-028
  1.480000000000000E-002    5.004126216638087E-028
  1.490000000000000E-002    4.117010039428307E-028
  1.500000000000000E-002    2.582947573441175E-028
  1.510000000000000E-002    4.349730477370520E-029
  1.520000000000000E-002   -2.217657339548452E-028
  1.530000000000000E-002   -5.185613869408754E-028
  1.540000000000000E-002   -8.203969702393066E-028
  1.550000000000000E-002   -1.094626485404432E-027
  1.560000000000000E-002   -1.304856470882259E-027
  1.570000000000000E-002   -1.414285443041571E-027
  1.580000000000000E-002   -1.389788523436695E-027
  1.590000000000000E-002   -1.206434889578992E-027
  1.600000000000000E-002   -8.520089676765296E-028
  1.610000000000000E-002   -3.310152407578330E-028
  1.620000000000000E-002    3.323968152898410E-028
  1.630000000000000E-002    1.093147424881741E-027
  1.640000000000000E-002    1.886065008063080E-027
  1.650000000000000E-002    2.629185732058650E-027
  1.660000000000000E-002    3.229636126111786E-027
  1.670000000000000E-002    3.591951003514652E-027
  1.680000000000000E-002    3.628357321197815E-027
  1.690000000000000E-002    3.270253286008586E-027
  1.700000000000000E-002    2.479792474843851E-027
  1.710000000000000E-002    1.260274897348691E-027
  1.720000000000000E-002   -3.360910050903699E-028
  1.730000000000000E-002   -2.204463658890183E-027
  1.740000000000000E-002   -4.188913554871712E-027
  1.750000000000000E-002   -6.090093239910857E-027
  1.760000000000000E-002   -7.679372347505376E-027
  1.770000000000000E-002   -8.719065065577792E-027
  1.780000000000000E-002   -8.987640076809378E-027
  1.790000000000000E-002   -8.307978664675211E-027
  1.800000000000000E-002   -6.576030662664140E-027
  1.810000000000000E-002   -3.786659490229889E-027
  1.820000000000000E-002   -5.315588767897146E-029
  1.830000000000000E-002    4.383035073307492E-027
  1.840000000000000E-002    9.155377880355877E-027
  1.850000000000000E-002    1.379021722410760E-026
  1.860000000000000E-002    1.774041036366032E-026
  1.870000000000000E-002    2.043378087367872E-026