 -4.000000000000000E-002    0.000000000000000E+000
 -3.990000000000000E-002    0.000000000000000E+000
 -3.980000000000000E-002    0.000000000000000E+000
 -3.970000000000000E-002   -4.870183344619157E-016
 -3.960000000000000E-002   -3.039949248913470E-015
 -3.950000000000000E-002   -1.046998110647727E-014
 -3.940000000000000E-002   -2.604708606083553E-014
 -3.930000000000000E-002   -5.188301579357986E-014
 -3.920000000000000E-002   -8.734022939263294E-014
 -3.910000000000000E-002   -1.291692142454597E-013
 -3.900000000000000E-002   -1.755948690708686E-013
 -3.890000000000000E-002   -2.364432654348551E-013
 -3.880000000000000E-002   -3.503325090743246E-013
 -3.870000000000000E-002   -6.079189485488274E-013
 -3.860000000000000E-002   -1.177318575211177E-012
 -3.850000000000000E-002   -2.324653366800993E-012
 -3.840000000000000E-002   -4.419801960705013E-012
 -3.830000000000000E-002   -7.915860971190065E-012
 -3.820000000000000E-002   -1.329120664607739E-011
 -3.810000000000000E-002   -2.094630187179731E-011
 -3.800000000000000E-002   -3.105339832325909E-011
 -3.790000000000000E-002   -4.336643384546992E-011
 -3.780000000000000E-002   -5.700897632514716E-011
 -3.770000000000000E-002   -7.026965886300746E-011
 -3.760000000000000E-002   -8.044447176269490E-011
 -3.750000000000000E-002   -8.377144714425416E-011
 -3.740000000000000E-002   -7.550484831524328E-011
 -3.730000000000000E-002   -5.016859910177963E-011
 -3.720000000000000E-002   -2.015595368610092E-012
 -3.710000000000000E-002    7.430323332486865E-011
 -3.700000000000000E-002    1.828851255416543E-010
 -3.690000000000000E-002    3.255927702718838E-010
 -3.680000000000000E-002    5.010317114407994E-010
 -3.670000000000000E-002    7.036038391398744E-010
 -3.660000000000000E-002    9.227714609717986E-010
 -3.650000000000000E-002    1.142670953790562E-009
 -3.640000000000000E-002    1.342204633213638E-009
 -3.630000000000000E-002    1.495709143334973E-009
 -3.620000000000000E-002    1.574251851789935E-009
 -3.610000000000000E-002    1.547549744414946E-009
 -3.600000000000000E-002    1.386429623361241E-009
 -3.590000000000000E-002    1.065683072701352E-009
 -3.580000000000000E-002    5.670998783316423E-010
 -3.570000000000000E-002   -1.175870002798621E-010
 -3.560000000000000E-002   -9.841374824731276E-010
 -3.550000000000000E-002   -2.013921880665914E-009
 -3.540000000000000E-002   -3.172983817447433E-009
 -3.530000000000000E-002   -4.412256616355567E-009
 -3.520000000000000E-002   -5.669052061854224E-009
 -3.510000000000000E-002   -6.869829661106548E-009
 -3.500000000000000E-002   -7.934139539573880E-009
 -3.490000000000000E-002   -8.779509578762453E-009
 -3.480000000000000E-002   -9.326946637882706E-009
 -3.470000000000000E-002   -9.506638591128282E-009
 -3.460000000000000E-002   -9.263396328090535E-009
 -3.450000000000000E-002   -8.561376434474237E-009
 -3.440000000000000E-002   -7.387656761758282E-009
 -3.430000000000000E-002   -5.754318134885744E-009
 -3.420000000000000E-002   -3.698800202813672E-009
 -3.410000000000000E-002   -1.282436961380360E-009
 -3.400000000000000E-002    1.412768278872356E-009
 -3.390000000000000E-002    4.288921599399814E-009
 -3.380000000000000E-002    7.238228143977122E-009
 -3.370000000000000E-002    1.014973635153678E-008
 -3.360000000000000E-002    1.291631924599342E-008
 -3.350000000000000E-002    1.544133207147386E-008
 -3.340000000000000E-002    1.764441200121535E-008
 -3.330000000000000E-002    1.946593999958735E-008
 -3.320000000000000E-002    2.086978571774307E-008
 -3.310000000000000E-002    2.184407025379921E-008
 -3.300000000000000E-002    2.239984926365902E-008
 -3.290000000000000E-002    2.256777323684577E-008
 -3.280000000000000E-002    2.239292792209826E-008
 -3.270000000000000E-002    2.192823176129918E-008
 -3.260000000000000E-002    2.122689397843274E-008
 -3.250000000000000E-002    2.033453342253292E-008
 -3.240000000000000E-002    1.928165206785145E-008
 -3.230000000000000E-002    1.807717686780658E-008
 -3.220000000000000E-002    1.670377825595216E-008
 -3.210000000000000E-002    1.511560240021467E-008
 -3.200000000000000E-002    1.323893756064387E-008
 -3.190000000000000E-002    1.097615571538864E-008
 -3.180000000000000E-002    8.213032554866371E-009
 -3.170000000000000E-002    4.829283812336793E-009
 -3.160000000000000E-002    7.118200476855633E-010
 -3.150000000000000E-002   -4.230063291570981E-009
 -3.140000000000000E-002   -1.004868908828729E-008
 -3.130000000000000E-002   -1.674254867103890E-008
 -3.120000000000000E-002   -2.424295026508406E-008
 -3.110000000000000E-002   -3.240435672191848E-008
 -3.100000000000000E-002   -4.099992375813597E-008
 -3.090000000000000E-002   -4.972349576119453E-008
 -3.080000000000000E-002   -5.819890465973265E-008
 -3.070000000000000E-002   -6.599680555540987E-008
 -3.060000000000000E-002   -7.265865403347005E-008
 -3.050000000000000E-002   -7.772663118233348E-008
 -3.040000000000000E-002   -8.077753308748401E-008
 -3.030000000000000E-002   -8.145810701444601E-008
 -3.020000000000000E-002   -7.951865161817203E-008
 -3.010000000000000E-002   -7.484161197191524E-008
 -3.000000000000000E-002   -6.746187637503401E-008
 -2.990000000000000E-002   -5.757593036980143E-008
 -2.980000000000000E-002   -4.553781544866765E-008
 -2.970000000000000E-002   -3.184084084217571E-008
 -2.960000000000000E-002   -1.708538522339401E-008
 -2.950000000000000E-002   -1.934439090245433E-009
 -2.940000000000000E-002    1.293999622592210E-008
 -2.930000000000000E-002    2.691540284630389E-008
 -2.920000000000000E-002    3.947703406990938E-008
 -2.910000000000000E-002    5.027041493953563E-008
 -2.900000000000000E-002    5.914281074049931E-008
 -2.890000000000000E-002    6.616896757987273E-008
 -2.880000000000000E-002    7.165789016266821E-008
 -2.870000000000000E-002    7.613917530724419E-008
 -2.860000000000000E-002    8.032946169923759E-008
 -2.850000000000000E-002    8.508174741033783E-008
 -2.840000000000000E-002    9.132244313761108E-008
 -2.830000000000000E-002    9.998261465660772E-008
 -2.820000000000000E-002    1.119310185366573E-007
 -2.810000000000000E-002    1.279167956764238E-007
 -2.800000000000000E-002    1.485291862379845E-007
 -2.790000000000000E-002    1.741802397090075E-007
 -2.780000000000000E-002    2.051143348049375E-007
 -2.770000000000000E-002    2.414454806044491E-007
 -2.760000000000000E-002    2.832206644190873E-007
 -2.750000000000000E-002    3.305039678307557E-007
 -2.740000000000000E-002    3.834740598275067E-007
 -2.730000000000000E-002    4.425252045237463E-007
 -2.720000000000000E-002    5.083611131480943E-007
 -2.710000000000000E-002    5.820710201358520E-007
 -2.700000000000000E-002    6.651783556359034E-007
 -2.690000000000000E-002    7.596545613278673E-007
 -2.680000000000000E-002    8.678947968751101E-007
 -2.670000000000000E-002    9.926546478576735E-007
 -2.660000000000000E-002    1.136951668584604E-006
 -2.650000000000000E-002    1.303939677573089E-006
 -2.640000000000000E-002    1.496766662800030E-006
 -2.630000000000000E-002    1.718428647558747E-006
 -2.620000000000000E-002    1.971634647412070E-006
 -2.610000000000000E-002    2.258693561723709E-006
 -2.600000000000000E-002    2.581437736908508E-006
 -2.590000000000000E-002    2.941189964893951E-006
 -2.580000000000000E-002    3.338776498667884E-006
 -2.570000000000000E-002    3.774588981371086E-006
 -2.560000000000000E-002    4.248689827145556E-006
 -2.550000000000000E-002    4.760948137504678E-006
 -2.540000000000000E-002    5.311201621958530E-006
 -2.530000000000000E-002    5.899420708791361E-006
 -2.520000000000000E-002    6.525869787340526E-006
 -2.510000000000000E-002    7.191242333290761E-006
 -2.500000000000000E-002    7.896766026766157E-006
 -2.490000000000000E-002    8.644263607473817E-006
 -2.480000000000000E-002    9.436171031248359E-006
 -2.470000000000000E-002    1.027550780958485E-005
 -2.460000000000000E-002    1.116580916471558E-005
 -2.450000000000000E-002    1.211102535741907E-005
 -2.440000000000000E-002    1.311540177906098E-005
 -2.430000000000000E-002    1.418335043291297E-005
 -2.420000000000000E-002    1.531932447203732E-005
 -2.410000000000000E-002    1.652771545223395E-005
 -2.400000000000000E-002    1.781277094811470E-005
 -2.390000000000000E-002    1.917854551849341E-005
 -2.380000000000000E-002    2.062889077292454E-005
 -2.370000000000000E-002    2.216747230268065E-005
 -2.360000000000000E-002    2.379782750146809E-005
 -2.350000000000000E-002    2.552343494962356E-005
 -2.340000000000000E-002    2.734781492071628E-005
 -2.330000000000000E-002    2.927462604952210E-005
 -2.320000000000000E-002    3.130776467954123E-005
 -2.310000000000000E-002    3.345146487576928E-005
 -2.300000000000000E-002    3.571037678904955E-005
 -2.290000000000000E-002    3.808963818599010E-005
 -2.280000000000000E-002    4.059492488338527E-005
 -2.270000000000000E-002    4.323249036916591E-005
 -2.260000000000000E-002    4.600917497858263E-005
 -2.250000000000000E-002    4.893243109214356E-005
 -2.240000000000000E-002    5.201030828040518E-005
 -2.230000000000000E-002    5.525145745751678E-005
 -2.220000000000000E-002    5.866509711872151E-005
 -2.210000000000000E-002    6.226101421563638E-005
 -2.200000000000000E-002    6.604953247568457E-005
 -2.190000000000000E-002    7.004147344552083E-005
 -2.180000000000000E-002    7.424813725561093E-005
 -2.170000000000000E-002    7.868128550878748E-005
 -2.160000000000000E-002    8.335309178010837E-005
 -2.150000000000000E-002    8.827611948069006E-005
 -2.140000000000000E-002    9.346332418198205E-005
 -2.130000000000000E-002    9.892803316528038E-005
 -2.120000000000000E-002    1.046839692293177E-004
 -2.110000000000000E-002    1.107452889505349E-004
 -2.100000000000000E-002    1.171266345973436E-004
 -2.090000000000000E-002    1.238432033666268E-004
 -2.080000000000000E-002    1.309108492712627E-004
 -2.070000000000000E-002    1.383461991097214E-004
 -2.060000000000000E-002    1.461667428151560E-004
 -2.050000000000000E-002    1.543909717829451E-004
 -2.040000000000000E-002    1.630384251347317E-004
 -2.030000000000000E-002    1.721298148571801E-004
 -2.020000000000000E-002    1.816870076739025E-004
 -2.010000000000000E-002    1.917330867059722E-004
 -2.000000000000000E-002    2.022922948145529E-004
 -1.990000000000000E-002    2.133899892182063E-004
 -1.980000000000000E-002    2.250525831309941E-004
 -1.970000000000000E-002    2.373074292484770E-004
 -1.960000000000000E-002    2.501828227559159E-004
 -1.950000000000000E-002    2.637078977316254E-004
 -1.940000000000000E-002    2.779126392656293E-004
 -1.930000000000000E-002    2.928278876399830E-004
 -1.920000000000000E-002    3.084854603038621E-004
 -1.910000000000000E-002    3.249182566610150E-004
 -1.900000000000000E-002    3.421604489137818E-004
 -1.890000000000000E-002    3.602476509254189E-004
 -1.880000000000000E-002    3.792171958855498E-004
 -1.870000000000000E-002    3.991082784966249E-004
 -1.860000000000000E-002    4.199621231730066E-004
 -1.850000000000000E-002    4.418221777788146E-004
 -1.840000000000000E-002    4.647341187786179E-004
 -1.830000000000000E-002    4.887458504649401E-004
 -1.820000000000000E-002    5.139074046796930E-004
 -1.810000000000000E-002    5.402709292826362E-004
 -1.800000000000000E-002    5.678903169148278E-004
 -1.790000000000000E-002    5.968211631575935E-004
 -1.780000000000000E-002    6.271205450296106E-004
 -1.770000000000000E-002    6.588467993238771E-004
 -1.760000000000000E-002    6.920595327044410E-004
 -1.750000000000000E-002    7.268195526847092E-004
 -1.740000000000000E-002    7.631889617332874E-004
 -1.730000000000000E-002    8.012313024279819E-004
 -1.720000000000000E-002    8.410118887248225E-004
 -1.710000000000000E-002    8.825980855190453E-004
 -1.700000000000000E-002    9.260596118932302E-004
 -1.690000000000000E-002    9.714688920142695E-004
 -1.680000000000000E-002    1.018901403005051E-003
 -1.670000000000000E-002    1.068435936230912E-003
 -1.660000000000000E-002    1.120154740203671E-003
 -1.650000000000000E-002    1.174143564277741E-003
 -1.640000000000000E-002    1.230491591730733E-003
 -1.630000000000000E-002    1.289291362499849E-003
 -1.620000000000000E-002    1.350638409175757E-003
 -1.610000000000000E-002    1.414631274895796E-003
 -1.600000000000000E-002    1.481370713381105E-003
 -1.590000000000000E-002    1.550959930232565E-003
 -1.580000000000000E-002    1.623504213320822E-003
 -1.570000000000000E-002    1.699110760546110E-003
 -1.560000000000000E-002    1.777888670989044E-003
 -1.550000000000000E-002    1.859949334517382E-003
 -1.540000000000000E-002    1.945406192409342E-003
 -1.530000000000000E-002    2.034375223832774E-003
 -1.520000000000000E-002    2.126975389015164E-003
 -1.510000000000000E-002    2.223328989972146E-003
 -1.500000000000000E-002    2.323561795186014E-003
 -1.490000000000000E-002    2.427803016754940E-003
 -1.480000000000000E-002    2.536186439839745E-003
 -1.470000000000000E-002    2.648849215191679E-003
 -1.460000000000000E-002    2.765932537036201E-003
 -1.450000000000000E-002    2.887581263634363E-003
 -1.440000000000000E-002    3.013943767083460E-003
 -1.430000000000000E-002    3.145171527102728E-003
 -1.420000000000000E-002    3.281418417904943E-003
 -1.410000000000000E-002    3.422840835726183E-003
 -1.400000000000000E-002    3.569597614939376E-003
 -1.390000000000000E-002    3.721849570765733E-003
 -1.380000000000000E-002    3.879758918627563E-003
 -1.370000000000000E-002    4.043490490416529E-003
 -1.360000000000000E-002    4.213211180647388E-003
 -1.350000000000000E-002    4.389089994553931E-003
 -1.340000000000000E-002    4.571298720158371E-003
 -1.330000000000000E-002    4.760012157579496E-003
 -1.320000000000000E-002    4.955407936380389E-003
 -1.310000000000000E-002    5.157666897298344E-003
 -1.300000000000000E-002    5.366972477069951E-003
 -1.290000000000000E-002    5.583511914270679E-003
 -1.280000000000000E-002    5.807474975523862E-003
 -1.270000000000000E-002    6.039053762236189E-003
 -1.260000000000000E-002    6.278442126663131E-003
 -1.250000000000000E-002    6.525835173122581E-003
 -1.240000000000000E-002    6.781429526327837E-003
 -1.230000000000000E-002    7.045421991670521E-003
 -1.220000000000000E-002    7.318008905171487E-003
 -1.210000000000000E-002    7.599386766822086E-003
 -1.200000000000000E-002    7.889753029848491E-003
 -1.190000000000000E-002    8.189302388010120E-003
 -1.180000000000000E-002    8.498230601052913E-003
 -1.170000000000000E-002    8.816733227368945E-003
 -1.160000000000000E-002    9.145005285506998E-003
 -1.150000000000000E-002    9.483241626989811E-003
 -1.140000000000000E-002    9.831636412750719E-003
 -1.130000000000000E-002    1.019038381698524E-002
 -1.120000000000000E-002    1.055967791843137E-002
 -1.110000000000000E-002    1.093971018366854E-002
 -1.100000000000000E-002    1.133067157378820E-002
 -1.090000000000000E-002    1.173275050061948E-002
 -1.080000000000000E-002    1.214613192765903E-002
 -1.070000000000000E-002    1.257099669234154E-002
 -1.060000000000000E-002    1.300752136887537E-002
 -1.050000000000000E-002    1.345587651094127E-002
 -1.040000000000000E-002    1.391622627457042E-002
 -1.030000000000000E-002    1.438872916546955E-002
 -1.020000000000000E-002    1.487353502365769E-002
 -1.010000000000000E-002    1.537078709564823E-002
 -1.000000000000000E-002    1.588062006628555E-002
 -9.899999999999999E-003    1.640316162825794E-002
 -9.800000000000000E-003    1.693853162204170E-002
 -9.699999999999999E-003    1.748683875058617E-002
 -9.599999999999999E-003    1.804818588736482E-002
 -9.500000000000000E-003    1.862266706805759E-002
 -9.399999999999999E-003    1.921036273303255E-002
 -9.299999999999999E-003    1.981134456708653E-002
 -9.200000000000000E-003    2.042567485436747E-002
 -9.099999999999999E-003    2.105339917491780E-002
 -8.999999999999999E-003    2.169455204275272E-002
 -8.900000000000000E-003    2.234915201627410E-002
 -8.799999999999999E-003    2.301720067542535E-002
 -8.699999999999999E-003    2.369868388754507E-002
 -8.600000000000000E-003    2.439356836309394E-002
 -8.499999999999999E-003    2.510180249412227E-002
 -8.399999999999999E-003    2.582331487436783E-002
 -8.300000000000000E-003    2.655801349778992E-002
 -8.199999999999999E-003    2.730578666623178E-002
 -8.100000000000000E-003    2.806649897300302E-002
 -8.000000000000000E-003    2.883999428131936E-002
 -7.899999999999999E-003    2.962609228312106E-002
 -7.800000000000000E-003    3.042459385470755E-002
 -7.699999999999999E-003    3.123526944908941E-002
 -7.599999999999999E-003    3.205786863192180E-002
 -7.499999999999999E-003    3.289211200554633E-002
 -7.399999999999999E-003    3.373769732658702E-002
 -7.299999999999999E-003    3.459428723515942E-002
 -7.199999999999999E-003    3.546151924216466E-002
 -7.100000000000000E-003    3.633899785294432E-002
 -6.999999999999999E-003    3.722629195983802E-002
 -6.899999999999999E-003    3.812294223167698E-002
 -6.800000000000000E-003    3.902844700195050E-002
 -6.699999999999999E-003    3.994227507794622E-002
 -6.599999999999999E-003    4.086385430372984E-002
 -6.499999999999999E-003    4.179257348457209E-002
 -6.399999999999999E-003    4.272778507727703E-002
 -6.299999999999999E-003    4.366880101254596E-002
 -6.199999999999999E-003    4.461489627158757E-002
 -6.100000000000000E-003    4.556529683837642E-002
 -5.999999999999999E-003    4.651919349186030E-002
 -5.899999999999999E-003    4.747573307769257E-002
 -5.800000000000000E-003    4.843401894165038E-002
 -5.699999999999999E-003    4.939310777467127E-002
 -5.599999999999999E-003    5.035200907582577E-002
 -5.499999999999999E-003    5.130969083316329E-002
 -5.399999999999999E-003    5.226506269519209E-002
 -5.299999999999999E-003    5.321699566760277E-002
 -5.199999999999999E-003    5.416430709933193E-002
 -5.099999999999999E-003    5.510575870024486E-002
 -4.999999999999999E-003    5.604006295276130E-002
 -4.899999999999999E-003    5.696588130626370E-002
 -4.799999999999999E-003    5.788181948829292E-002
 -4.699999999999999E-003    5.878642620148843E-002
 -4.599999999999999E-003    5.967820120508006E-002
 -4.499999999999999E-003    6.055559008817240E-002
 -4.399999999999999E-003    6.141698163294187E-002
 -4.299999999999999E-003    6.226070710718048E-002
 -4.199999999999999E-003    6.308504022966162E-002
 -4.099999999999999E-003    6.388820612640829E-002
 -3.999999999999999E-003    6.466836633992518E-002
 -3.899999999999999E-003    6.542362647644943E-002
 -3.799999999999999E-003    6.615204040362249E-002
 -3.699999999999999E-003    6.685159214407875E-002
 -3.599999999999999E-003    6.752021860779192E-002
 -3.499999999999999E-003    6.815578904535230E-002
 -3.399999999999999E-003    6.875611859157610E-002
 -3.299999999999999E-003    6.931896355510042E-002
 -3.199999999999999E-003    6.984202103776393E-002
 -3.099999999999999E-003    7.032293550002330E-002
 -2.999999999999999E-003    7.075928637279290E-002
 -2.899999999999999E-003    7.114860149628470E-002
 -2.799999999999999E-003    7.148835166244624E-002
 -2.699999999999999E-003    7.177595787331106E-002
 -2.599999999999999E-003    7.200877711172532E-002
 -2.499999999999999E-003    7.218413003307145E-002
 -2.399999999999999E-003    7.229926392161667E-002
 -2.299999999999999E-003    7.235139163656838E-002
 -2.199999999999999E-003    7.233766716198048E-002
 -2.099999999999999E-003    7.225519759316586E-002
 -1.999999999999999E-003    7.210104219032847E-002
 -1.899999999999999E-003    7.187221456410087E-002
 -1.799999999999999E-003    7.156567893394897E-002
 -1.699999999999999E-003    7.117835834177308E-002
 -1.599999999999999E-003    7.070713776679777E-002
 -1.499999999999999E-003    7.014885265921993E-002
 -1.399999999999999E-003    6.950031573157694E-002
 -1.299999999999999E-003    6.875828876352499E-002
 -1.199999999999999E-003    6.791951124664039E-002
 -1.099999999999999E-003    6.698068968907393E-002
 -9.999999999999989E-004    6.593850587112546E-002
 -8.999999999999990E-004    6.478961405213791E-002
 -7.999999999999990E-004    6.353064724915863E-002
 -6.999999999999989E-004    6.215821806562633E-002
 -5.999999999999990E-004    6.066892839532786E-002
 -4.999999999999989E-004    5.905936314288014E-002
 -3.999999999999989E-004    5.732610231325765E-002
 -2.999999999999989E-004    5.546572125317145E-002
 -1.999999999999989E-004    5.347478076849607E-002
 -9.999999999999892E-005    5.134985252934873E-002
  1.084202172485504E-018    4.908750637724574E-002
  1.000000000000011E-004    4.668432392314664E-002
  2.000000000000011E-004    4.413689892619838E-002
  3.000000000000011E-004    4.144183837650378E-002
  4.000000000000011E-004    3.859577629649640E-002
  5.000000000000011E-004    3.559536397386702E-002
  6.000000000000011E-004    3.243729486955554E-002
  7.000000000000011E-004    2.911828688786151E-002
  8.000000000000011E-004    2.563510546672246E-002
  9.000000000000012E-004    2.198455846167765E-002
  1.000000000000001E-003    1.816350324387092E-002
  1.100000000000001E-003    1.416885499508326E-002
  1.200000000000001E-003    9.997587303867059E-003
  1.300000000000001E-003    5.646734533106568E-003
  1.400000000000001E-003    1.113403447880340E-003
  1.500000000000001E-003   -3.605219172629515E-003
  1.600000000000001E-003   -8.511874359174488E-003
  1.700000000000001E-003   -1.360921226396090E-002
  1.800000000000001E-003   -1.889979528033378E-002
  1.900000000000001E-003   -2.438608471076295E-002
  2.000000000000001E-003   -3.007044730376777E-002
  2.100000000000001E-003   -3.595512882852837E-002
  2.200000000000001E-003   -4.204227364949384E-002
  2.300000000000001E-003   -4.833389856907050E-002
  2.400000000000001E-003   -5.483189230982824E-002
  2.500000000000001E-003   -6.153801335027544E-002
  2.600000000000001E-003   -6.845388426671237E-002
  2.700000000000001E-003   -7.558096529230268E-002
  2.800000000000001E-003   -8.292060196795661E-002
  2.900000000000001E-003   -9.047394478599478E-002
  3.000000000000001E-003   -9.824202073047079E-002
  3.100000000000001E-003   -0.106225658362178     
  3.200000000000001E-003   -0.114425543833671     
  3.300000000000001E-003   -0.122842160843066     
  3.400000000000001E-003   -0.131475829895592     
  3.500000000000001E-003   -0.140326669421044     
  3.600000000000001E-003   -0.149394608994096     
  3.700000000000001E-003   -0.158679384048590     
  3.800000000000001E-003   -0.168180520294756     
  3.900000000000001E-003   -0.177897352002079     
  4.000000000000001E-003   -0.187828966458532     
  4.100000000000001E-003   -0.197974258512175     
  4.200000000000001E-003   -0.208331873468791     
  4.300000000000001E-003   -0.218900232439830     
  4.400000000000001E-003   -0.229677522807298     
  4.500000000000001E-003   -0.240661701243634     
  4.600000000000002E-003   -0.251850490547302     
  4.700000000000001E-003   -0.263241325236593     
  4.800000000000001E-003   -0.274831444742382     
  4.900000000000002E-003   -0.286617805380007     
  5.000000000000001E-003   -0.298597119278910     
  5.100000000000001E-003   -0.310765846445251     
  5.200000000000001E-003   -0.323120177173299     
  5.300000000000002E-003   -0.335656014592021     
  5.400000000000001E-003   -0.348369030894118     
  5.500000000000001E-003   -0.361254625892921     
  5.600000000000002E-003   -0.374307932979325     
  5.700000000000001E-003   -0.387523765822309     
  5.800000000000001E-003   -0.400896746629842     
  5.900000000000002E-003   -0.414421138807181     
  6.000000000000001E-003   -0.428090992485301     
  6.100000000000001E-003   -0.441900043143340     
  6.200000000000002E-003   -0.455841812039036     
  6.300000000000002E-003   -0.469909457876149     
  6.400000000000001E-003   -0.484095885641968     
  6.500000000000001E-003   -0.498393801724781     
  6.600000000000002E-003   -0.512795576335398     
  6.700000000000001E-003   -0.527293321383271     
  6.800000000000001E-003   -0.541878906400088     
  6.900000000000002E-003   -0.556543871983387     
  7.000000000000001E-003   -0.571279600624595     
  7.100000000000001E-003   -0.586077123076754     
  7.200000000000002E-003   -0.600927254108665     
  7.300000000000002E-003   -0.615820580414605     
  7.400000000000001E-003   -0.630747422751993     
  7.500000000000001E-003   -0.645697855333897     
  7.600000000000002E-003   -0.660661706039541     
  7.700000000000001E-003   -0.675628562381618     
  7.800000000000001E-003   -0.690587828448804     
  7.900000000000001E-003   -0.705528677491998     
  8.000000000000002E-003   -0.720440001389121     
  8.100000000000001E-003   -0.735310565078561     
  8.200000000000001E-003   -0.750128912121357     
  8.300000000000002E-003   -0.764883402002607     
  8.400000000000001E-003   -0.779562207610802     
  8.500000000000002E-003   -0.794153361428890     
  8.600000000000002E-003   -0.808644637565030     
  8.700000000000001E-003   -0.823023733994052     
  8.800000000000002E-003   -0.837278219479538     
  8.900000000000002E-003   -0.851395489747160     
  9.000000000000001E-003   -0.865362828872620     
  9.100000000000002E-003   -0.879167385584196     
  9.200000000000002E-003   -0.892796174168825     
  9.300000000000001E-003   -0.906236207682140     
  9.400000000000002E-003   -0.919474367026877     
  9.500000000000001E-003   -0.932497473302663     
  9.600000000000001E-003   -0.945292262752874     
  9.700000000000002E-003   -0.957845435195039     
  9.800000000000001E-003   -0.970143703772546     
  9.900000000000001E-003   -0.982173715476703     
  1.000000000000000E-002   -0.993922098235743     
  1.010000000000000E-002    -1.00537546325290     
  1.020000000000000E-002    -1.01652054618500     
  1.030000000000000E-002    -1.02734399666871     
  1.040000000000000E-002    -1.03783264550576     
  1.050000000000000E-002    -1.04797326022241     
  1.060000000000000E-002    -1.05775274197837     
  1.070000000000000E-002    -1.06715810356524     
  1.080000000000000E-002    -1.07617643202448     
  1.090000000000000E-002    -1.08479494597570     
  1.100000000000000E-002    -1.09300100889153     
  1.110000000000000E-002    -1.10078207251417     
  1.120000000000000E-002    -1.10812582231414     
  1.130000000000000E-002    -1.11502007793481     
  1.140000000000000E-002    -1.12145283904715     
  1.150000000000000E-002    -1.12741233769465     
  1.160000000000000E-002    -1.13288707459725     
  1.170000000000000E-002    -1.13786564975907     
  1.180000000000000E-002    -1.14233706795965     
  1.190000000000000E-002    -1.14629057464810     
  1.200000000000000E-002    -1.14971560419278     
  1.210000000000000E-002    -1.15260191475401     
  1.220000000000000E-002    -1.15493951313421     
  1.230000000000000E-002    -1.15671892206604     
  1.240000000000000E-002    -1.15793088992722     
  1.250000000000000E-002    -1.15856644158824     
  1.260000000000000E-002    -1.15861697268303     
  1.270000000000000E-002    -1.15807442013390     
  1.280000000000000E-002    -1.15693090503929     
  1.290000000000000E-002    -1.15517905361144     
  1.300000000000000E-002    -1.15281189777515     
  1.310000000000000E-002    -1.14982287732928     
  1.320000000000000E-002    -1.14620576905961     
  1.330000000000000E-002    -1.14195499017490     
  1.340000000000000E-002    -1.13706532179761     
  1.350000000000000E-002    -1.13153194037942     
  1.360000000000000E-002    -1.12535050087242     
  1.370000000000000E-002    -1.11851733854520     
  1.380000000000000E-002    -1.11102895108411     
  1.390000000000000E-002    -1.10288259435061     
  1.400000000000000E-002    -1.09407602912176     
  1.410000000000000E-002    -1.08460743259527     
  1.420000000000000E-002    -1.07447548212785     
  1.430000000000000E-002    -1.06367959488363     
  1.440000000000000E-002    -1.05221942671218     
  1.450000000000000E-002    -1.04009536370612     
  1.460000000000000E-002    -1.02730830364610     
  1.470000000000000E-002    -1.01385967674531     
  1.480000000000000E-002   -0.999751470939696     
  1.490000000000000E-002   -0.984986258890148     
  1.500000000000000E-002   -0.969567081411139     
  1.510000000000000E-002   -0.953497612755042     
  1.520000000000000E-002   -0.936782106637297     
  1.530000000000000E-002   -0.919425329797165     
  1.540000000000000E-002   -0.901432583119456     
  1.550000000000000E-002   -0.882809789676396     
  1.560000000000000E-002   -0.863563386161209     
  1.570000000000000E-002   -0.843700436697426     
  1.580000000000000E-002   -0.823228491719713     
  1.590000000000000E-002   -0.802155672446171     
  1.600000000000000E-002   -0.780490617761361     
  1.610000000000000E-002   -0.758242625276432     
  1.620000000000000E-002   -0.735421398535644     
  1.630000000000000E-002   -0.712037240792216     
  1.640000000000000E-002   -0.688100957083330     
  1.650000000000000E-002   -0.663623861230665     
  1.660000000000000E-002   -0.638617803982274     
  1.670000000000000E-002   -0.613095120349636     
  1.680000000000000E-002   -0.587068666312866     
  1.690000000000000E-002   -0.560551743235823     
  1.700000000000000E-002   -0.533558154591546     
  1.710000000000000E-002   -0.506102159973222     
  1.720000000000000E-002   -0.478198479466251     
  1.730000000000000E-002   -0.449862255991248     
  1.740000000000000E-002   -0.421109087169419     
  1.750000000000000E-002   -0.391954977733819     
  1.760000000000000E-002   -0.362416321278085     
  1.770000000000000E-002   -0.332509911701274     
  1.780000000000000E-002   -0.302252930785321     
  1.790000000000000E-002   -0.271662913707517     
  1.800000000000000E-002   -0.240757737455736     
  1.810000000000000E-002   -0.209555598368169     
  1.820000000000000E-002   -0.178075031040348     
  1.830000000000000E-002   -0.146334846053751     
  1.840000000000000E-002   -0.114354156663877     
  1.850000000000000E-002   -8.215232716254421E-002
  1.860000000000000E-002   -4.974895989222376E-002
  1.870000000000000E-002   -1.716392549874058E-002