 -4.000000000000000E-002    0.000000000000000E+000
 -3.990000000000000E-002    0.000000000000000E+000
 -3.980000000000000E-002    0.000000000000000E+000
 -3.970000000000000E-002    0.000000000000000E+000
 -3.960000000000000E-002    0.000000000000000E+000
 -3.950000000000000E-002    0.000000000000000E+000
 -3.940000000000000E-002    0.000000000000000E+000
 -3.930000000000000E-002    0.000000000000000E+000
 -3.920000000000000E-002    0.000000000000000E+000
 -3.910000000000000E-002    0.000000000000000E+000
 -3.900000000000000E-002    0.000000000000000E+000
 -3.890000000000000E-002    0.000000000000000E+000
 -3.880000000000000E-002    0.000000000000000E+000
 -3.870000000000000E-002    0.000000000000000E+000
 -3.860000000000000E-002    0.000000000000000E+000
 -3.850000000000000E-002    0.000000000000000E+000
 -3.840000000000000E-002    0.000000000000000E+000
 -3.830000000000000E-002    0.000000000000000E+000
 -3.820000000000000E-002    0.000000000000000E+000
 -3.810000000000000E-002    0.000000000000000E+000
 -3.800000000000000E-002    0.000000000000000E+000
 -3.790000000000000E-002    0.000000000000000E+000
 -3.780000000000000E-002    0.000000000000000E+000
 -3.770000000000000E-002    0.000000000000000E+000
 -3.760000000000000E-002    0.000000000000000E+000
 -3.750000000000000E-002    0.000000000000000E+000
 -3.740000000000000E-002    0.000000000000000E+000
 -3.730000000000000E-002    0.000000000000000E+000
 -3.720000000000000E-002    0.000000000000000E+000
 -3.710000000000000E-002    0.000000000000000E+000
 -3.700000000000000E-002    0.000000000000000E+000
 -3.690000000000000E-002    0.000000000000000E+000
 -3.680000000000000E-002    0.000000000000000E+000
 -3.670000000000000E-002    0.000000000000000E+000
 -3.660000000000000E-002    0.000000000000000E+000
 -3.650000000000000E-002    0.000000000000000E+000
 -3.640000000000000E-002    0.000000000000000E+000
 -3.630000000000000E-002    0.000000000000000E+000
 -3.620000000000000E-002    0.000000000000000E+000
 -3.610000000000000E-002    0.000000000000000E+000
 -3.600000000000000E-002    0.000000000000000E+000
 -3.590000000000000E-002    0.000000000000000E+000
 -3.580000000000000E-002    0.000000000000000E+000
 -3.570000000000000E-002    0.000000000000000E+000
 -3.560000000000000E-002    0.000000000000000E+000
 -3.550000000000000E-002    0.000000000000000E+000
 -3.540000000000000E-002    0.000000000000000E+000
 -3.530000000000000E-002    0.000000000000000E+000
 -3.520000000000000E-002    0.000000000000000E+000
 -3.510000000000000E-002    0.000000000000000E+000
 -3.500000000000000E-002    0.000000000000000E+000
 -3.490000000000000E-002    0.000000000000000E+000
 -3.480000000000000E-002    0.000000000000000E+000
 -3.470000000000000E-002    0.000000000000000E+000
 -3.460000000000000E-002    0.000000000000000E+000
 -3.450000000000000E-002    0.000000000000000E+000
 -3.440000000000000E-002    0.000000000000000E+000
 -3.430000000000000E-002    0.000000000000000E+000
 -3.420000000000000E-002    0.000000000000000E+000
 -3.410000000000000E-002    0.000000000000000E+000
 -3.400000000000000E-002    0.000000000000000E+000
 -3.390000000000000E-002    0.000000000000000E+000
 -3.380000000000000E-002    0.000000000000000E+000
 -3.370000000000000E-002    0.000000000000000E+000
 -3.360000000000000E-002    0.000000000000000E+000
 -3.350000000000000E-002    0.000000000000000E+000
 -3.340000000000000E-002    0.000000000000000E+000
 -3.330000000000000E-002    0.000000000000000E+000
 -3.320000000000000E-002    0.000000000000000E+000
 -3.310000000000000E-002    0.000000000000000E+000
 -3.300000000000000E-002    0.000000000000000E+000
 -3.290000000000000E-002    0.000000000000000E+000
 -3.280000000000000E-002    8.552847072295026E-048
 -3.270000000000000E-002    7.191065295872467E-047
 -3.260000000000000E-002    1.815205705869939E-046
 -3.250000000000000E-002    3.480736587974715E-046
 -3.240000000000000E-002    5.843991881986001E-046
 -3.230000000000000E-002    9.132289410834078E-046
 -3.220000000000000E-002    1.290449017478129E-045
 -3.210000000000000E-002    1.554865467114938E-045
 -3.200000000000000E-002    1.291464999427970E-045
 -3.190000000000000E-002    3.028770597015486E-046
 -3.180000000000000E-002   -1.696032904273748E-045
 -3.170000000000000E-002   -6.599766372451226E-045
 -3.160000000000000E-002   -1.619883205224913E-044
 -3.150000000000000E-002   -3.326452278057865E-044
 -3.140000000000000E-002   -6.023319348196907E-044
 -3.130000000000000E-002   -9.843654707287897E-044
 -3.120000000000000E-002   -1.499471512978258E-043
 -3.110000000000000E-002   -2.098135769882503E-043
 -3.100000000000000E-002   -2.653522449779012E-043
 -3.090000000000000E-002   -2.899783106078236E-043
 -3.080000000000000E-002   -2.340119858364878E-043
 -3.070000000000000E-002   -1.753278813108245E-044
 -3.060000000000000E-002    4.788658725530138E-043
 -3.050000000000000E-002    1.414958753361485E-042
 -3.040000000000000E-002    2.984617868378813E-042
 -3.030000000000000E-002    5.389537145109429E-042
 -3.020000000000000E-002    8.770178234355643E-042
 -3.010000000000000E-002    1.310085501099676E-041
 -3.000000000000000E-002    1.801155589272185E-041
 -2.990000000000000E-002    2.253566939011123E-041
 -2.980000000000000E-002    2.478406515554633E-041
 -2.970000000000000E-002    2.157593573478014E-041
 -2.960000000000000E-002    8.088848693135782E-042
 -2.950000000000000E-002   -2.234119189350075E-041
 -2.940000000000000E-002   -7.805794702164718E-041
 -2.930000000000000E-002   -1.682711298012216E-040
 -2.920000000000000E-002   -3.011879604232995E-040
 -2.910000000000000E-002   -4.806652174272474E-040
 -2.900000000000000E-002   -7.009339535798273E-040
 -2.890000000000000E-002   -9.391355510638289E-040
 -2.880000000000000E-002   -1.145749257064503E-039
 -2.870000000000000E-002   -1.233674197268442E-039
 -2.860000000000000E-002   -1.067742184485897E-039
 -2.850000000000000E-002   -4.578516929143811E-040
 -2.840000000000000E-002    8.392955749325713E-040
 -2.830000000000000E-002    3.102968379317757E-039
 -2.820000000000000E-002    6.607084980921952E-039
 -2.810000000000000E-002    1.154528575161144E-038
 -2.800000000000000E-002    1.791372909852487E-038
 -2.790000000000000E-002    2.534660575455302E-038
 -2.780000000000000E-002    3.290718082326284E-038
 -2.770000000000000E-002    3.885040225390244E-038
 -2.760000000000000E-002    4.039259548684478E-038
 -2.750000000000000E-002    3.354942445312948E-038
 -2.740000000000000E-002    1.313365033147935E-038
 -2.730000000000000E-002   -2.696461323320294E-038
 -2.720000000000000E-002   -9.306738873692064E-038
 -2.710000000000000E-002   -1.904113253548564E-037
 -2.700000000000000E-002   -3.211276273655933E-037
 -2.690000000000000E-002   -4.814312110741460E-037
 -2.680000000000000E-002   -6.580816424229466E-037
 -2.670000000000000E-002   -8.243867634040097E-037
 -2.660000000000000E-002   -9.363127186940905E-037
 -2.650000000000000E-002   -9.296317250432781E-037
 -2.640000000000000E-002   -7.194532604952564E-037
 -2.630000000000000E-002   -2.038822557078878E-037
 -2.620000000000000E-002    7.261676174268360E-037
 -2.610000000000000E-002    2.168938665822626E-036
 -2.600000000000000E-002    4.183888874373994E-036
 -2.590000000000000E-002    6.753146377682447E-036
 -2.580000000000000E-002    9.733427858182141E-036
 -2.570000000000000E-002    1.280216018704507E-035
 -2.560000000000000E-002    1.540512336615703E-035
 -2.550000000000000E-002    1.671723560242566E-035
 -2.540000000000000E-002    1.563270877517034E-035
 -2.530000000000000E-002    1.080491274625109E-035
 -2.520000000000000E-002    7.588083364788231E-037
 -2.510000000000000E-002   -1.590175549599219E-035
 -2.500000000000000E-002   -4.017490526518121E-035
 -2.490000000000000E-002   -7.222465840159774E-035
 -2.480000000000000E-002   -1.108426189463048E-034
 -2.470000000000000E-002   -1.528506912782174E-034
 -2.460000000000000E-002   -1.925244852549424E-034
 -2.450000000000000E-002   -2.211593472859479E-034
 -2.440000000000000E-002   -2.269431259199942E-034
 -2.430000000000000E-002   -1.953349609201830E-034
 -2.420000000000000E-002   -1.101658884529245E-034
 -2.410000000000000E-002    4.433784669045613E-035
 -2.400000000000000E-002    2.804689858312395E-034
 -2.390000000000000E-002    6.028714590443185E-034
 -2.380000000000000E-002    1.003459639827550E-033
 -2.370000000000000E-002    1.455853443061006E-033
 -2.360000000000000E-002    1.910074052687052E-033
 -2.350000000000000E-002    2.288594079973090E-033
 -2.340000000000000E-002    2.485167216022321E-033
 -2.330000000000000E-002    2.368104875224048E-033
 -2.320000000000000E-002    1.789736798163603E-033
 -2.310000000000000E-002    6.035853097023061E-034
 -2.300000000000000E-002   -1.309810050564092E-033
 -2.290000000000000E-002   -4.008525830352614E-033
 -2.280000000000000E-002   -7.448017715010935E-033
 -2.270000000000000E-002   -1.143671353050985E-032
 -2.260000000000000E-002   -1.559452555544658E-032
 -2.250000000000000E-002   -1.932285078522000E-032
 -2.240000000000000E-002   -2.179682299384233E-032
 -2.230000000000000E-002   -2.199195247386621E-032
 -2.220000000000000E-002   -1.875723892353333E-032
 -2.210000000000000E-002   -1.094465099392069E-032
 -2.200000000000000E-002    2.400032013078818E-033
 -2.190000000000000E-002    2.178807088330240E-032
 -2.180000000000000E-002    4.699466147712694E-032
 -2.170000000000000E-002    7.675025697014484E-032
 -2.160000000000000E-002    1.084604323852219E-031
 -2.150000000000000E-002    1.380138043524544E-031
 -2.140000000000000E-002    1.597499056066899E-031
 -2.130000000000000E-002    1.666648472839646E-031
 -2.120000000000000E-002    1.509281083078932E-031
 -2.110000000000000E-002    1.047651649370610E-031
 -2.100000000000000E-002    2.172471147946134E-032
 -2.090000000000000E-002   -1.017057134791997E-031
 -2.080000000000000E-002   -2.642445849491371E-031
 -2.070000000000000E-002   -4.579173825878451E-031
 -2.060000000000000E-002   -6.664007015955067E-031
 -2.050000000000000E-002   -8.639806490359680E-031
 -2.040000000000000E-002   -1.015556142371936E-030
 -2.030000000000000E-002   -1.078131286627864E-030
 -2.020000000000000E-002   -1.004189979652392E-030
 -2.010000000000000E-002   -7.472082920762629E-031
 -2.000000000000000E-002   -2.693247582274190E-031
 -1.990000000000000E-002    4.491471175367223E-031
 -1.980000000000000E-002    1.399104141962037E-030
 -1.970000000000000E-002    2.532154599017487E-030
 -1.960000000000000E-002    3.751934399430661E-030
 -1.950000000000000E-002    4.909336799766081E-030
 -1.940000000000000E-002    5.803993108687365E-030
 -1.930000000000000E-002    6.194286962552737E-030
 -1.920000000000000E-002    5.817773461657012E-030
 -1.910000000000000E-002    4.422978741671169E-030
 -1.900000000000000E-002    1.812171620122897E-030
 -1.890000000000000E-002   -2.107170272667965E-030
 -1.880000000000000E-002   -7.266717496017282E-030
 -1.870000000000000E-002   -1.338440118888010E-029
 -1.860000000000000E-002   -1.992346330744812E-029
 -1.850000000000000E-002   -2.607434484213458E-029
 -1.840000000000000E-002   -3.077095671118626E-029
 -1.830000000000000E-002   -3.275206885768302E-029
 -1.820000000000000E-002   -3.067566261784567E-029
 -1.810000000000000E-002   -2.328902998787929E-029
 -1.800000000000000E-002   -9.649951274928034E-030
 -1.790000000000000E-002    1.061522246282265E-029
 -1.780000000000000E-002    3.704161713941525E-029
 -1.770000000000000E-002    6.808010761994788E-029
 -1.760000000000000E-002    1.009215877391748E-028
 -1.750000000000000E-002    1.314433014600843E-028
 -1.740000000000000E-002    1.543299649994603E-028
 -1.730000000000000E-002    1.634155128870930E-028
 -1.720000000000000E-002    1.522748940375807E-028
 -1.710000000000000E-002    1.150688913289762E-028
 -1.700000000000000E-002    4.760830891584288E-029
 -1.690000000000000E-002   -5.144046462880269E-029
 -1.680000000000000E-002   -1.793349562435791E-028
 -1.670000000000000E-002   -3.281945356193055E-028
 -1.660000000000000E-002   -4.843075660554679E-028
 -1.650000000000000E-002   -6.280379275615308E-028
 -1.640000000000000E-002   -7.345541397048650E-028
 -1.630000000000000E-002   -7.755605024085659E-028
 -1.620000000000000E-002   -7.221271103290176E-028
 -1.610000000000000E-002   -5.485883109173497E-028
 -1.600000000000000E-002   -2.373149322441895E-028
 -1.590000000000000E-002    2.160257415263303E-028
 -1.580000000000000E-002    7.973098718830336E-028
 -1.570000000000000E-002    1.469665476726378E-027
 -1.560000000000000E-002    2.170951192257313E-027
 -1.550000000000000E-002    2.813952805715360E-027
 -1.540000000000000E-002    3.290171010892853E-027
 -1.530000000000000E-002    3.477851712839392E-027
 -1.520000000000000E-002    3.254518415356985E-027
 -1.510000000000000E-002    2.513718906955625E-027
 -1.500000000000000E-002    1.185006932210059E-027
 -1.490000000000000E-002   -7.445890734659619E-028
 -1.480000000000000E-002   -3.210125864090054E-027
 -1.470000000000000E-002   -6.052507601666663E-027
 -1.460000000000000E-002   -9.010040123436018E-027
 -1.450000000000000E-002   -1.172141898608291E-026
 -1.440000000000000E-002   -1.374333415434806E-026
 -1.430000000000000E-002   -1.458485210631253E-026
 -1.420000000000000E-002   -1.375906617710990E-026
 -1.410000000000000E-002   -1.085029306928077E-026
 -1.400000000000000E-002   -5.592399753154759E-027
 -1.390000000000000E-002    2.049025660393974E-027
 -1.380000000000000E-002    1.180069032902122E-026
 -1.370000000000000E-002    2.302402144612876E-026
 -1.360000000000000E-002    3.468941041437428E-026
 -1.350000000000000E-002    4.539530563563630E-026
 -1.340000000000000E-002    5.344304217445438E-026
 -1.330000000000000E-002    5.697390727544125E-026
 -1.320000000000000E-002    5.416838710583774E-026
 -1.310000000000000E-002    4.349921313754466E-026
 -1.300000000000000E-002    2.401999029654161E-026
 -1.290000000000000E-002   -4.338840495736863E-027
 -1.280000000000000E-002   -4.050414934975432E-026
 -1.270000000000000E-002   -8.206857554460060E-026
 -1.260000000000000E-002   -1.252201804052449E-025
 -1.250000000000000E-002   -1.648374242775915E-025
 -1.240000000000000E-002   -1.947839720132897E-025
 -1.230000000000000E-002   -2.084210403582044E-025
 -1.220000000000000E-002   -1.993309610892240E-025
 -1.210000000000000E-002   -1.622158532952136E-025
 -1.200000000000000E-002   -9.390206630714900E-026
 -1.190000000000000E-002    5.652397912324150E-027
 -1.180000000000000E-002    1.324786092712189E-025
 -1.170000000000000E-002    2.779964560776431E-025
 -1.160000000000000E-002    4.288483305500356E-025
 -1.150000000000000E-002    5.673069513970817E-025
 -1.140000000000000E-002    6.723609019411345E-025
 -1.130000000000000E-002    7.215189304348920E-025
 -1.120000000000000E-002    6.932938962727922E-025
 -1.110000000000000E-002    5.702250415943084E-025
 -1.100000000000000E-002    3.421924077837360E-025
 -1.090000000000000E-002    9.671740945341065E-027
 -1.080000000000000E-002   -4.135046951620757E-025
 -1.070000000000000E-002   -8.983675190025788E-025
 -1.060000000000000E-002   -1.400495346792861E-024
 -1.050000000000000E-002   -1.861586970251270E-024
 -1.040000000000000E-002   -2.213211207704032E-024
 -1.030000000000000E-002   -2.382814839364023E-024
 -1.020000000000000E-002   -2.301802813143048E-024
 -1.010000000000000E-002   -1.915191665182204E-024
 -1.000000000000000E-002   -1.192008593538041E-024
 -9.899999999999999E-003   -1.353027478790610E-025
 -9.800000000000000E-003    1.209596978449357E-024
 -9.699999999999999E-003    2.750063187011139E-024
 -9.599999999999999E-003    4.345833990559643E-024
 -9.500000000000000E-003    5.814567352337777E-024
 -9.399999999999999E-003    6.944042602832124E-024
 -9.299999999999999E-003    7.511110326596617E-024
 -9.200000000000000E-003    7.306665888286775E-024
 -9.099999999999999E-003    6.164984025888035E-024
 -8.999999999999999E-003    3.994802130539012E-024
 -8.900000000000000E-003    8.086830860498253E-025
 -8.799999999999999E-003   -3.253413022837552E-024
 -8.699999999999999E-003   -7.910682111347200E-024
 -8.600000000000000E-003   -1.274223266620425E-023
 -8.499999999999999E-003   -1.720532501947273E-023
 -8.399999999999999E-003   -2.067295583712188E-023
 -8.300000000000000E-003   -2.249067624466173E-023
 -8.199999999999999E-003   -2.205009985222987E-023
 -8.100000000000000E-003   -1.887392516173222E-023
 -8.000000000000000E-003   -1.270460922759261E-023
 -7.899999999999999E-003   -3.586640175412355E-024
 -7.800000000000000E-003    8.069230029090011E-024
 -7.699999999999999E-003    2.145176340637475E-023
 -7.599999999999999E-003    3.535612926509560E-023
 -7.499999999999999E-003    4.824029961401142E-023
 -7.399999999999999E-003    5.833531230589001E-023
 -7.299999999999999E-003    6.380791879423474E-023
 -7.199999999999999E-003    6.296750865414521E-023
 -7.100000000000000E-003    5.450192160953853E-023
 -6.999999999999999E-003    3.771979299894954E-023
 -6.899999999999999E-003    1.277134899835197E-023
 -6.800000000000000E-003   -1.918387985708788E-023
 -6.699999999999999E-003   -5.589449871672134E-023
 -6.599999999999999E-003   -9.404840446805841E-023
 -6.499999999999999E-003   -1.294386170086211E-022
 -6.399999999999999E-003   -1.572727822379150E-022
 -6.299999999999999E-003   -1.726200343085975E-022
 -6.199999999999999E-003   -1.709706388295387E-022
 -6.100000000000000E-003   -1.488650945660605E-022
 -5.999999999999999E-003   -1.045317350204689E-022
 -5.899999999999999E-003   -3.845788829310485E-023
 -5.800000000000000E-003    4.618805140421453E-023
 -5.699999999999999E-003    1.433656567507450E-022
 -5.599999999999999E-003    2.442740038998882E-022
 -5.499999999999999E-003    3.378155954267519E-022
 -5.399999999999999E-003    4.114305166755508E-022
 -5.299999999999999E-003    4.522780842541808E-022
 -5.199999999999999E-003    4.486969161261344E-022
 -5.099999999999999E-003    3.918271150825224E-022
 -4.999999999999999E-003    2.772346979291768E-022
 -4.899999999999999E-003    1.063463688173416E-022
 -4.799999999999999E-003   -1.125142710366597E-022
 -4.699999999999999E-003   -3.636919683714526E-022
 -4.599999999999999E-003   -6.245399100638395E-022
 -4.499999999999999E-003   -8.666496735585385E-022
 -4.399999999999999E-003   -1.058004163916711E-021
 -4.299999999999999E-003   -1.165985721351282E-021
 -4.199999999999999E-003   -1.161054661691920E-021
 -4.099999999999999E-003   -1.020801663003810E-021
 -3.999999999999999E-003   -7.339718653112198E-022
 -3.899999999999999E-003   -3.039880270871337E-022
 -3.799999999999999E-003    2.485382825269948E-022
 -3.699999999999999E-003    8.847931156359544E-022
 -3.599999999999999E-003    1.548654128254079E-021
 -3.499999999999999E-003    2.169753003668864E-021
 -3.399999999999999E-003    2.668771032794022E-021
 -3.299999999999999E-003    2.964778092236176E-021
 -3.199999999999999E-003    2.984162246512910E-021
 -3.099999999999999E-003    2.670421100433927E-021
 -2.999999999999999E-003    1.993853031999102E-021
 -2.899999999999999E-003    9.600230107105002E-022
 -2.799999999999999E-003   -3.841949003394766E-022
 -2.699999999999999E-003   -1.948135339819242E-021
 -2.599999999999999E-003   -3.599356412130951E-021
 -2.499999999999999E-003   -5.170745301592021E-021
 -2.399999999999999E-003   -6.472835654484127E-021
 -2.299999999999999E-003   -7.310884101513284E-021
 -2.199999999999999E-003   -7.505638938032730E-021
 -2.099999999999999E-003   -6.916112550481167E-021
 -1.999999999999999E-003   -5.462156197395723E-021
 -1.899999999999999E-003   -3.144266769554381E-021
 -1.799999999999999E-003   -5.791301508760892E-023
 -1.699999999999999E-003    3.600164745547513E-021
 -1.599999999999999E-003    7.535805174118987E-021
 -1.499999999999999E-003    1.137271049184816E-020
 -1.399999999999999E-003    1.467946224204625E-020
 -1.299999999999999E-003    1.700724192349358E-020
 -1.199999999999999E-003    1.793588751570413E-020
 -1.099999999999999E-003    1.712458646104088E-020
 -9.999999999999989E-004    1.436237406735431E-020
 -8.999999999999990E-004    9.612815584535940E-021
 -7.999999999999990E-004    3.047003872461442E-021
 -6.999999999999989E-004   -4.940713080189880E-021
 -5.999999999999990E-004   -1.373878726140630E-020
 -4.999999999999989E-004   -2.254921413105464E-020
 -3.999999999999989E-004   -3.044350659108196E-020
 -2.999999999999989E-004   -3.644184900859461E-020
 -1.999999999999989E-004   -3.961043045123199E-020
 -9.999999999999892E-005   -3.916916877714497E-020
  1.084202172485504E-018   -3.459969024760483E-020
  1.000000000000011E-004   -2.574178409226347E-020
  2.000000000000011E-004   -1.286602967571987E-020
  3.000000000000011E-004    3.289027886635582E-021
  4.000000000000011E-004    2.152460789992743E-020
  5.000000000000011E-004    4.024045804118385E-020
  6.000000000000011E-004    5.754585179433663E-020
  7.000000000000011E-004    7.141879358899343E-020
  8.000000000000011E-004    7.990321695682450E-020
  9.000000000000012E-004    8.132849666632104E-020
  1.000000000000001E-003    7.453072875942324E-020
  1.100000000000001E-003    5.905187940097797E-020
  1.200000000000001E-003    3.529200383033078E-020
  1.300000000000001E-003    4.590988345295388E-021
  1.400000000000001E-003   -3.077949315057595E-020
  1.500000000000001E-003   -6.772583443493199E-020
  1.600000000000001E-003   -1.025473108366170E-019
  1.700000000000001E-003   -1.312477033184255E-019
  1.800000000000001E-003   -1.499239348773589E-019
  1.900000000000001E-003   -1.552006197690521E-019
  2.000000000000001E-003   -1.446699981617581E-019
  2.100000000000001E-003   -1.172902477548861E-019
  2.200000000000001E-003   -7.369294156388313E-020
  2.300000000000001E-003   -1.635323799645728E-020
  2.400000000000001E-003    5.041546832439827E-020
  2.500000000000001E-003    1.206669114989201E-019
  2.600000000000001E-003    1.872337650887826E-019
  2.700000000000001E-003    2.423312877944102E-019
  2.800000000000001E-003    2.783140522375312E-019
  2.900000000000001E-003    2.885267357366748E-019
  3.000000000000001E-003    2.681699143683516E-019
  3.100000000000001E-003    2.150897901668131E-019
  3.200000000000001E-003    1.303955106739531E-019
  3.300000000000001E-003    1.881324964526136E-020
  3.400000000000001E-003   -1.112991147567958E-019
  3.500000000000001E-003   -2.483262613969413E-019
  3.600000000000001E-003   -3.781752202366205E-019
  3.700000000000001E-003   -4.854337056550604E-019
  3.800000000000001E-003   -5.548387800645377E-019
  3.900000000000001E-003   -5.729422510949277E-019
  4.000000000000001E-003   -5.298248353848938E-019
  4.100000000000001E-003   -4.206829473163202E-019
  4.200000000000001E-003   -2.471024468068133E-019
  4.300000000000001E-003   -1.784041870295939E-020
  4.400000000000001E-003    2.510390081796187E-019
  4.500000000000001E-003    5.367786500659358E-019
  4.600000000000002E-003    8.113356911102904E-019
  4.700000000000001E-003    1.043546141562152E-018
  4.800000000000001E-003    1.201929561946362E-018
  4.900000000000002E-003    1.257931066912164E-018
  5.000000000000001E-003    1.189326343586769E-018
  5.100000000000001E-003    9.834619488968201E-019
  5.200000000000001E-003    6.399731190584764E-019
  5.300000000000002E-003    1.726276686615898E-019
  5.400000000000001E-003   -3.900129545573325E-019
  5.500000000000001E-003   -1.005346230751722E-018
  5.600000000000002E-003   -1.619014038746421E-018
  5.700000000000001E-003   -2.168696045567128E-018
  5.800000000000001E-003   -2.589236237960183E-018
  5.900000000000002E-003   -2.818766832580426E-018
  6.000000000000001E-003   -2.805346339491447E-018
  6.100000000000001E-003   -2.513523912954958E-018
  6.200000000000002E-003   -1.930157017335396E-018
  6.300000000000002E-003   -1.068816497239692E-018
  6.400000000000001E-003    2.785449597254492E-020
  6.500000000000001E-003    1.288319211670989E-018
  6.600000000000002E-003    2.615176556437147E-018
  6.700000000000001E-003    3.891123372097696E-018
  6.800000000000001E-003    4.987616926743762E-018
  6.900000000000002E-003    5.775764438390282E-018
  7.000000000000001E-003    6.138638290375155E-018
  7.100000000000001E-003    5.984015247378084E-018
  7.200000000000002E-003    5.256348729525357E-018
  7.300000000000002E-003    3.946728121727924E-018
  7.400000000000001E-003    2.099611635457149E-018
  7.500000000000001E-003   -1.846931726979600E-019
  7.600000000000002E-003   -2.752557590378235E-018
  7.700000000000001E-003   -5.404948444378508E-018
  7.800000000000001E-003   -7.910571564080702E-018
  7.900000000000001E-003   -1.002363322554294E-017
  8.000000000000002E-003   -1.150505635519420E-017
  8.100000000000001E-003   -1.214552918556329E-017
  8.200000000000001E-003   -1.178840309192182E-017
  8.300000000000002E-003   -1.035025085300392E-017
  8.400000000000001E-003   -7.836866667690255E-018
  8.500000000000002E-003   -4.352679106649221E-018
  8.600000000000002E-003   -1.019661323136825E-019
  8.700000000000001E-003    4.619151098045946E-018
  8.800000000000002E-003    9.440182759751213E-018
  8.900000000000002E-003    1.394258913763568E-017
  9.000000000000001E-003    1.769336577437693E-017
  9.100000000000002E-003    2.028351879635885E-017
  9.200000000000002E-003    2.136828365610306E-017
  9.300000000000001E-003    2.070544826666821E-017
  9.400000000000002E-003    1.818798159610974E-017
  9.500000000000001E-003    1.386719987967539E-017
  9.600000000000001E-003    7.963414260562844E-018
  9.700000000000002E-003    8.617084482329740E-019
  9.800000000000001E-003   -6.908293770270296E-018
  9.900000000000001E-003   -1.470824497874947E-017
  1.000000000000000E-002   -2.184061756322867E-017
  1.010000000000000E-002   -2.760867828831940E-017
  1.020000000000000E-002   -3.138201826355190E-017
  1.030000000000000E-002   -3.266196243582177E-017
  1.040000000000000E-002   -3.114050006117426E-017
  1.050000000000000E-002   -2.674641282942668E-017
  1.060000000000000E-002   -1.967286793137819E-017
  1.070000000000000E-002   -1.038199400027685E-017
  1.080000000000000E-002    4.162205175357764E-019
  1.090000000000000E-002    1.181117247517632E-017
  1.100000000000000E-002    2.276279147926761E-017
  1.110000000000000E-002    3.219208486807182E-017
  1.120000000000000E-002    3.908386594471130E-017
  1.130000000000000E-002    4.259269570345720E-017
  1.140000000000000E-002    4.214184005248444E-017
  1.150000000000000E-002    3.750473835305614E-017
  1.160000000000000E-002    2.885893056904726E-017
  1.170000000000000E-002    1.680447119692981E-017
  1.180000000000000E-002    2.341511009340161E-018
  1.190000000000000E-002   -1.319508201931343E-017
  1.200000000000000E-002   -2.824155460145971E-017
  1.210000000000000E-002   -4.114494267820168E-017
  1.220000000000000E-002   -5.032599393204238E-017
  1.230000000000000E-002   -5.445113085793211E-017
  1.240000000000000E-002   -5.259679482981104E-017
  1.250000000000000E-002   -4.438875917026702E-017
  1.260000000000000E-002   -3.009935082291411E-017
  1.270000000000000E-002   -1.068840543794611E-017
  1.280000000000000E-002    1.222256847028546E-017
  1.290000000000000E-002    3.644755760982019E-017
  1.300000000000000E-002    5.940226367488873E-017
  1.310000000000000E-002    7.833031668754430E-017
  1.320000000000000E-002    9.057287055302990E-017
  1.330000000000000E-002    9.385905710376496E-017
  1.340000000000000E-002    8.659017890381176E-017
  1.350000000000000E-002    6.808829525256496E-017
  1.360000000000000E-002    3.877958172675606E-017
  1.370000000000000E-002    2.871165135451926E-019
  1.380000000000000E-002   -4.458698445468092E-017
  1.390000000000000E-002   -9.200066454121826E-017
  1.400000000000000E-002   -1.373321522844349E-016
  1.410000000000000E-002   -1.755493737331931E-016
  1.420000000000000E-002   -2.016644609805671E-016
  1.430000000000000E-002   -2.112375498749476E-016
  1.440000000000000E-002   -2.008867157137964E-016
  1.450000000000000E-002   -1.687546755312986E-016
  1.460000000000000E-002   -1.148807890132853E-016
  1.470000000000000E-002   -4.143277151993899E-017
  1.480000000000000E-002    4.723964175828953E-017
  1.490000000000000E-002    1.447562958198003E-016
  1.500000000000000E-002    2.430679819977782E-016
  1.510000000000000E-002    3.330206008345216E-016
  1.520000000000000E-002    4.050862654542925E-016
  1.530000000000000E-002    4.502136328794713E-016
  1.540000000000000E-002    4.607285323898558E-016
  1.550000000000000E-002    4.312060011875004E-016
  1.560000000000000E-002    3.592308980458207E-016
  1.570000000000000E-002    2.459619115339781E-016
  1.580000000000000E-002    9.643073633403137E-017
  1.590000000000000E-002   -8.048265136119309E-017
  1.600000000000000E-002   -2.724268014936308E-016
  1.610000000000000E-002   -4.643094007224080E-016
  1.620000000000000E-002   -6.393508173041365E-016
  1.630000000000000E-002   -7.803974635842767E-016
  1.640000000000000E-002   -8.714022304966945E-016
  1.650000000000000E-002   -8.989561881139699E-016
  1.660000000000000E-002   -8.537379844616225E-016
  1.670000000000000E-002   -7.317484064180761E-016
  1.680000000000000E-002   -5.351962865265362E-016
  1.690000000000000E-002   -2.729273638761296E-016
  1.700000000000000E-002    3.968254560963587E-017
  1.710000000000000E-002    3.814139598743860E-016
  1.720000000000000E-002    7.264592420724775E-016
  1.730000000000000E-002    1.046191192962655E-015
  1.740000000000000E-002    1.311339781162490E-015
  1.750000000000000E-002    1.494424770093400E-015
  1.760000000000000E-002    1.572257904719351E-015
  1.770000000000000E-002    1.528310516594153E-015
  1.780000000000000E-002    1.354728463543859E-015
  1.790000000000000E-002    1.053795983390036E-015
  1.800000000000000E-002    6.386765738979315E-016
  1.810000000000000E-002    1.332997793242772E-016
  1.820000000000000E-002   -4.286656953811475E-016
  1.830000000000000E-002   -1.005749938033735E-015
  1.840000000000000E-002   -1.551446605910894E-015
  1.850000000000000E-002   -2.017651941093682E-015
  1.860000000000000E-002   -2.358540910335824E-015
  1.870000000000000E-002   -2.534612731110319E-015