 -4.000000000000000E-002    0.000000000000000E+000
 -3.990000000000000E-002    0.000000000000000E+000
 -3.980000000000000E-002    0.000000000000000E+000
 -3.970000000000000E-002    0.000000000000000E+000
 -3.960000000000000E-002    0.000000000000000E+000
 -3.950000000000000E-002    0.000000000000000E+000
 -3.940000000000000E-002    0.000000000000000E+000
 -3.930000000000000E-002    0.000000000000000E+000
 -3.920000000000000E-002    0.000000000000000E+000
 -3.910000000000000E-002    0.000000000000000E+000
 -3.900000000000000E-002    0.000000000000000E+000
 -3.890000000000000E-002    0.000000000000000E+000
 -3.880000000000000E-002    0.000000000000000E+000
 -3.870000000000000E-002    0.000000000000000E+000
 -3.860000000000000E-002    0.000000000000000E+000
 -3.850000000000000E-002    0.000000000000000E+000
 -3.840000000000000E-002    0.000000000000000E+000
 -3.830000000000000E-002    0.000000000000000E+000
 -3.820000000000000E-002    0.000000000000000E+000
 -3.810000000000000E-002    0.000000000000000E+000
 -3.800000000000000E-002    0.000000000000000E+000
 -3.790000000000000E-002    0.000000000000000E+000
 -3.780000000000000E-002    0.000000000000000E+000
 -3.770000000000000E-002    0.000000000000000E+000
 -3.760000000000000E-002    0.000000000000000E+000
 -3.750000000000000E-002    0.000000000000000E+000
 -3.740000000000000E-002   -1.924390591266381E-047
 -3.730000000000000E-002   -8.980489425909777E-048
 -3.720000000000000E-002   -7.460998218330609E-047
 -3.710000000000000E-002   -2.960742872658752E-046
 -3.700000000000000E-002   -5.157463768939599E-046
 -3.690000000000000E-002   -1.441954100151503E-045
 -3.680000000000000E-002   -5.843282239740523E-045
 -3.670000000000000E-002   -1.797856359692532E-044
 -3.660000000000000E-002   -4.429531118898443E-044
 -3.650000000000000E-002   -1.026266695257428E-043
 -3.640000000000000E-002   -2.176229514566259E-043
 -3.630000000000000E-002   -4.129387499385456E-043
 -3.620000000000000E-002   -6.612513868402321E-043
 -3.610000000000000E-002   -7.334744750202440E-043
 -3.600000000000000E-002    2.080824373060142E-043
 -3.590000000000000E-002    4.565077710647867E-042
 -3.580000000000000E-002    1.836277840776050E-041
 -3.570000000000000E-002    5.535897317614063E-041
 -3.560000000000000E-002    1.446715750584019E-040
 -3.550000000000000E-002    3.438883095911005E-040
 -3.540000000000000E-002    7.597630955435541E-040
 -3.530000000000000E-002    1.577490583941764E-039
 -3.520000000000000E-002    3.095591970866253E-039
 -3.510000000000000E-002    5.753899355776899E-039
 -3.500000000000000E-002    1.012289637251711E-038
 -3.490000000000000E-002    1.678823593991710E-038
 -3.480000000000000E-002    2.600848025984625E-038
 -3.470000000000000E-002    3.694335002889022E-038
 -3.460000000000000E-002    4.614524194802467E-038
 -3.450000000000000E-002    4.489689759384208E-038
 -3.440000000000000E-002    1.490645745382933E-038
 -3.430000000000000E-002   -7.807493293024047E-038
 -3.420000000000000E-002   -2.928099841887669E-037
 -3.410000000000000E-002   -7.225616055614551E-037
 -3.400000000000000E-002   -1.504084948047602E-036
 -3.390000000000000E-002   -2.820307537231838E-036
 -3.380000000000000E-002   -4.886922558289472E-036
 -3.370000000000000E-002   -7.906873035518434E-036
 -3.360000000000000E-002   -1.196890610726079E-035
 -3.350000000000000E-002   -1.685820881871065E-035
 -3.340000000000000E-002   -2.174080193247009E-035
 -3.330000000000000E-002   -2.468370142630355E-035
 -3.320000000000000E-002   -2.198678828538772E-035
 -3.310000000000000E-002   -7.339913812847877E-036
 -3.300000000000000E-002    2.910725281663464E-035
 -3.290000000000000E-002    1.015492245005852E-034
 -3.280000000000000E-002    2.288000667617026E-034
 -3.270000000000000E-002    4.333801952937585E-034
 -3.260000000000000E-002    7.384343879313403E-034
 -3.250000000000000E-002    1.161159020387455E-033
 -3.240000000000000E-002    1.701131575753625E-033
 -3.230000000000000E-002    2.321834357666361E-033
 -3.220000000000000E-002    2.923959960980506E-033
 -3.210000000000000E-002    3.310049294931543E-033
 -3.200000000000000E-002    3.141989860953289E-033
 -3.190000000000000E-002    1.896254278148761E-033
 -3.180000000000000E-002   -1.173171874727668E-033
 -3.170000000000000E-002   -7.047321613358830E-033
 -3.160000000000000E-002   -1.690489406796851E-032
 -3.150000000000000E-002   -3.200003764166003E-032
 -3.140000000000000E-002   -5.341186551689410E-032
 -3.130000000000000E-002   -8.161697055929687E-032
 -3.120000000000000E-002   -1.158386488311443E-031
 -3.110000000000000E-002   -1.531426992344545E-031
 -3.100000000000000E-002   -1.872837847717357E-031
 -3.090000000000000E-002   -2.073711878241406E-031
 -3.080000000000000E-002   -1.965162566077953E-031
 -3.070000000000000E-002   -1.307570278058715E-031
 -3.060000000000000E-002    2.127720476155762E-032
 -3.050000000000000E-002    2.973091373821573E-031
 -3.040000000000000E-002    7.381326776744715E-031
 -3.030000000000000E-002    1.381133153262521E-030
 -3.020000000000000E-002    2.249615830699243E-030
 -3.010000000000000E-002    3.337124028550352E-030
 -3.000000000000000E-002    4.586406670303891E-030
 -2.990000000000000E-002    5.863584563236676E-030
 -2.980000000000000E-002    6.929460160585610E-030
 -2.970000000000000E-002    7.411890500912537E-030
 -2.960000000000000E-002    6.785578340457502E-030
 -2.950000000000000E-002    4.368562325120344E-030
 -2.940000000000000E-002   -6.525389705244657E-031
 -2.930000000000000E-002   -9.154009461218009E-030
 -2.920000000000000E-002   -2.194815634521363E-029
 -2.910000000000000E-002   -3.958422353678246E-029
 -2.900000000000000E-002   -6.206885518482849E-029
 -2.890000000000000E-002   -8.850841298116517E-029
 -2.880000000000000E-002   -1.166919696806022E-028
 -2.870000000000000E-002   -1.426573481020403E-028
 -2.860000000000000E-002   -1.603122445895347E-028
 -2.850000000000000E-002   -1.612156003454761E-028
 -2.840000000000000E-002   -1.346589708730803E-028
 -2.830000000000000E-002   -6.821459755029406E-029
 -2.820000000000000E-002    5.107321868065592E-029
 -2.810000000000000E-002    2.346901654736107E-028
 -2.800000000000000E-002    4.897439634965834E-028
 -2.790000000000000E-002    8.151483039919988E-028
 -2.780000000000000E-002    1.197074005978236E-027
 -2.770000000000000E-002    1.604076079661951E-027
 -2.760000000000000E-002    1.982595785438475E-027
 -2.750000000000000E-002    2.253861216228324E-027
 -2.740000000000000E-002    2.313517985594905E-027
 -2.730000000000000E-002    2.035562729365465E-027
 -2.720000000000000E-002    1.282211970826267E-027
 -2.710000000000000E-002   -7.883593932804971E-029
 -2.700000000000000E-002   -2.148850673674941E-027
 -2.690000000000000E-002   -4.964382810848974E-027
 -2.680000000000000E-002   -8.457067265698774E-027
 -2.670000000000000E-002   -1.241065297787651E-026
 -2.660000000000000E-002   -1.642138089141917E-026
 -2.650000000000000E-002   -1.987039838932931E-026
 -2.640000000000000E-002   -2.191930748025092E-026
 -2.630000000000000E-002   -2.154141601088139E-026
 -2.620000000000000E-002   -1.760125018121660E-026
 -2.610000000000000E-002   -8.992942279919240E-027
 -2.600000000000000E-002    5.157206385060980E-027
 -2.590000000000000E-002    2.522726072821077E-026
 -2.580000000000000E-002    5.079085427437196E-026
 -2.570000000000000E-002    8.029409314980779E-026
 -2.560000000000000E-002    1.107672257637870E-025
 -2.550000000000000E-002    1.376378284295967E-025
 -2.540000000000000E-002    1.547269200065034E-025
 -2.530000000000000E-002    1.545175395499290E-025
 -2.520000000000000E-002    1.287808500295383E-025
 -2.510000000000000E-002    6.962432270694442E-026
 -2.500000000000000E-002   -2.901322664432027E-026
 -2.490000000000000E-002   -1.694629748424108E-025
 -2.480000000000000E-002   -3.481512430132042E-025
 -2.470000000000000E-002   -5.533837041506519E-025
 -2.460000000000000E-002   -7.634404023607915E-025
 -2.450000000000000E-002   -9.454420477193795E-025
 -2.440000000000000E-002   -1.055529673529349E-024
 -2.430000000000000E-002   -1.040933888488297E-024
 -2.420000000000000E-002   -8.444551528215957E-025
 -2.410000000000000E-002   -4.117180755251219E-025
 -2.400000000000000E-002    2.987199224153060E-025
 -2.390000000000000E-002    1.302758132973359E-024
 -2.380000000000000E-002    2.576541777140709E-024
 -2.370000000000000E-002    4.042202247381931E-024
 -2.360000000000000E-002    5.555772057131016E-024
 -2.350000000000000E-002    6.900125204716236E-024
 -2.340000000000000E-002    7.786200101693284E-024
 -2.330000000000000E-002    7.865849804622460E-024
 -2.320000000000000E-002    6.759296903586498E-024
 -2.310000000000000E-002    4.099118471244201E-024
 -2.300000000000000E-002   -4.090090834779257E-025
 -2.290000000000000E-002   -6.911041817605914E-024
 -2.280000000000000E-002   -1.532010989748344E-023
 -2.270000000000000E-002   -2.523171976341446E-023
 -2.260000000000000E-002   -3.585102500829636E-023
 -2.250000000000000E-002   -4.594772971854721E-023
 -2.240000000000000E-002   -5.385610547046962E-023
 -2.230000000000000E-002   -5.753791538093053E-023
 -2.220000000000000E-002   -5.472344354756217E-023
 -2.210000000000000E-002   -4.314064062697213E-023
 -2.200000000000000E-002   -2.083309971502062E-023
 -2.190000000000000E-002    1.344468097938314E-023
 -2.180000000000000E-002    5.978169897225295E-023
 -2.170000000000000E-002    1.166585904578083E-022
 -2.160000000000000E-002    1.805502911273214E-022
 -2.150000000000000E-002    2.456586194892053E-022
 -2.140000000000000E-002    3.038585930956619E-022
 -2.130000000000000E-002    3.449420714986145E-022
 -2.120000000000000E-002    3.572313900618995E-022
 -2.110000000000000E-002    3.286075913799688E-022
 -2.100000000000000E-002    2.479588634790953E-022
 -2.090000000000000E-002    1.069960086426635E-022
 -2.080000000000000E-002   -9.768348246900318E-023
 -2.070000000000000E-002   -3.624774766545261E-022
 -2.060000000000000E-002   -6.748724886782918E-022
 -2.050000000000000E-002   -1.012073610416025E-021
 -2.040000000000000E-002   -1.340528577790811E-021
 -2.030000000000000E-002   -1.616701686215841E-021
 -2.020000000000000E-002   -1.789399468171209E-021
 -2.010000000000000E-002   -1.803835627261226E-021
 -2.000000000000000E-002   -1.607452848371486E-021
 -1.990000000000000E-002   -1.157294413789114E-021
 -1.980000000000000E-002   -4.284378515159588E-022
 -1.970000000000000E-002    5.772785557942756E-022
 -1.960000000000000E-002    1.823282751120048E-021
 -1.950000000000000E-002    3.232319358032016E-021
 -1.940000000000000E-002    4.683901685007818E-021
 -1.930000000000000E-002    6.016516232590229E-021
 -1.920000000000000E-002    7.035704886444809E-021
 -1.910000000000000E-002    7.528715188658241E-021
 -1.900000000000000E-002    7.285736212154507E-021
 -1.890000000000000E-002    6.126920650781338E-021
 -1.880000000000000E-002    3.933353631696906E-021
 -1.870000000000000E-002    6.791355188840219E-022
 -1.860000000000000E-002   -3.539237188469645E-021
 -1.850000000000000E-002   -8.480725186901999E-021
 -1.840000000000000E-002   -1.374971363182674E-020
 -1.830000000000000E-002   -1.880274429488085E-020
 -1.820000000000000E-002   -2.297581596028452E-020
 -1.810000000000000E-002   -2.553443566974440E-020
 -1.800000000000000E-002   -2.574620753259873E-020
 -1.790000000000000E-002   -2.297287273527782E-020
 -1.780000000000000E-002   -1.677526074865300E-020
 -1.770000000000000E-002   -7.021233984057745E-021
 -1.760000000000000E-002    6.016368650499180E-021
 -1.750000000000000E-002    2.158700090749887E-020
 -1.740000000000000E-002    3.843085869825905E-020
 -1.730000000000000E-002    5.480351864499295E-020
 -1.720000000000000E-002    6.856839675027930E-020
 -1.710000000000000E-002    7.736309838458909E-020
 -1.700000000000000E-002    7.883787476758858E-020
 -1.690000000000000E-002    7.095453996905141E-020
 -1.680000000000000E-002    5.232349763976566E-020
 -1.670000000000000E-002    2.254610494913009E-020
 -1.660000000000000E-002   -1.748002967579413E-020
 -1.650000000000000E-002   -6.534094243329590E-020
 -1.640000000000000E-002   -1.170210724314738E-019
 -1.630000000000000E-002   -1.669984645362072E-019
 -1.620000000000000E-002   -2.085537760879600E-019
 -1.610000000000000E-002   -2.343086274173856E-019
 -1.600000000000000E-002   -2.369834244537384E-019
 -1.590000000000000E-002   -2.103342648058883E-019
 -1.580000000000000E-002   -1.501963853909828E-019
 -1.570000000000000E-002   -5.552951596258735E-020
 -1.560000000000000E-002    7.066446634924175E-020
 -1.550000000000000E-002    2.206988831117664E-019
 -1.540000000000000E-002    3.819813052780569E-019
 -1.530000000000000E-002    5.373464626030398E-019
 -1.520000000000000E-002    6.660363913494864E-019
 -1.510000000000000E-002    7.453644018810809E-019
 -1.500000000000000E-002    7.530237881072691E-019
 -1.490000000000000E-002    6.699106214531783E-019
 -1.480000000000000E-002    4.832395176985865E-019
 -1.470000000000000E-002    1.896392180867190E-019
 -1.460000000000000E-002   -2.021545228019258E-019
 -1.450000000000000E-002   -6.694315507559905E-019
 -1.440000000000000E-002   -1.174887405963812E-018
 -1.430000000000000E-002   -1.667615847621904E-018
 -1.420000000000000E-002   -2.085969607163845E-018
 -1.410000000000000E-002   -2.362374780131039E-018
 -1.400000000000000E-002   -2.429968861285958E-018
 -1.390000000000000E-002   -2.230682814200511E-018
 -1.380000000000000E-002   -1.724127992381758E-018
 -1.370000000000000E-002   -8.964103894262981E-019
 -1.360000000000000E-002    2.321938692538227E-019
 -1.350000000000000E-002    1.601864206320683E-018
 -1.340000000000000E-002    3.111304062932020E-018
 -1.330000000000000E-002    4.620239550124056E-018
 -1.320000000000000E-002    5.957019523338935E-018
 -1.310000000000000E-002    6.931517484101191E-018
 -1.300000000000000E-002    7.352983197039255E-018
 -1.290000000000000E-002    7.051796442994502E-018
 -1.280000000000000E-002    5.903416562082854E-018
 -1.270000000000000E-002    3.852214685812567E-018
 -1.260000000000000E-002    9.323850654548062E-019
 -1.250000000000000E-002   -2.717089245815649E-018
 -1.240000000000000E-002   -6.846373474481788E-018
 -1.230000000000000E-002   -1.110013529359129E-017
 -1.220000000000000E-002   -1.503602984112934E-017
 -1.210000000000000E-002   -1.815682694070241E-017
 -1.200000000000000E-002   -1.995523842283031E-017
 -1.190000000000000E-002   -1.996882497763316E-017
 -1.180000000000000E-002   -1.784068781110556E-017
 -1.170000000000000E-002   -1.338015784157794E-017
 -1.160000000000000E-002   -6.616546727898429E-018
 -1.150000000000000E-002    2.161497616260203E-018
 -1.140000000000000E-002    1.238829094011819E-017
 -1.130000000000000E-002    2.323120636789353E-017
 -1.120000000000000E-002    3.363269123506436E-017
 -1.110000000000000E-002    4.238547377527275E-017
 -1.100000000000000E-002    4.823863548344276E-017
 -1.090000000000000E-002    5.002829557125739E-017
 -1.080000000000000E-002    4.682270865950936E-017
 -1.070000000000000E-002    3.806798152291771E-017
 -1.060000000000000E-002    2.371810347558794E-017
 -1.050000000000000E-002    4.331754543611826E-018
 -1.040000000000000E-002   -1.888105907200166E-017
 -1.030000000000000E-002   -4.407678257251307E-017
 -1.020000000000000E-002   -6.887013664165016E-017
 -1.010000000000000E-002   -9.050266637268740E-017
 -1.000000000000000E-002   -1.060829016263426E-016
 -9.899999999999999E-003   -1.128834857518784E-016
 -9.800000000000000E-003   -1.086721796968944E-016
 -9.699999999999999E-003   -9.204523431146366E-017
 -9.599999999999999E-003   -6.272624506268561E-017
 -9.500000000000000E-003   -2.179097464670131E-017
 -9.399999999999999E-003    2.821997821579005E-017
 -9.299999999999999E-003    8.333244939679404E-017
 -9.200000000000000E-003    1.383353307756349E-016
 -9.099999999999999E-003    1.871485738944575E-016
 -8.999999999999999E-003    2.233509259598663E-016
 -8.900000000000000E-003    2.408353154210757E-016
 -8.799999999999999E-003    2.345404668793201E-016
 -8.699999999999999E-003    2.011898727418256E-016
 -8.600000000000000E-003    1.399572665958818E-016
 -8.499999999999999E-003    5.297185696232223E-017
 -8.399999999999999E-003   -5.441956935188599E-017
 -8.300000000000000E-003   -1.737033262021152E-016
 -8.199999999999999E-003   -2.936089163763318E-016
 -8.100000000000000E-003   -4.008925330221903E-016
 -8.000000000000000E-003   -4.814691403733136E-016
 -7.899999999999999E-003   -5.218262394508363E-016
 -7.800000000000000E-003   -5.106087803210156E-016
 -7.699999999999999E-003   -4.402298060352213E-016
 -7.599999999999999E-003   -3.083335618420247E-016
 -7.499999999999999E-003   -1.189267683088857E-016
 -7.399999999999999E-003    1.169993934816716E-016
 -7.299999999999999E-003    3.815072648509254E-016
 -7.199999999999999E-003    6.505124082402690E-016
 -7.100000000000000E-003    8.953814547810030E-016
 -6.999999999999999E-003    1.085280489807696E-015
 -6.899999999999999E-003    1.190142112789828E-015
 -6.800000000000000E-003    1.184026336051814E-015
 -6.699999999999999E-003    1.048577964234038E-015
 -6.599999999999999E-003    7.762224044743088E-016
 -6.499999999999999E-003    3.727178859932112E-016
 -6.399999999999999E-003   -1.413088565722005E-016
 -6.299999999999999E-003   -7.301653851203325E-016
 -6.199999999999999E-003   -1.344459781187805E-015
 -6.100000000000000E-003   -1.924126135691540E-015
 -5.999999999999999E-003   -2.403042164852344E-015
 -5.899999999999999E-003   -2.714989932120605E-015
 -5.800000000000000E-003   -2.800537036688528E-015
 -5.699999999999999E-003   -2.614252534564386E-015
 -5.599999999999999E-003   -2.131550296965139E-015
 -5.499999999999999E-003   -1.354391987051843E-015
 -5.399999999999999E-003   -3.150876687336251E-016
 -5.299999999999999E-003    9.224778398802473E-016
 -5.199999999999999E-003    2.264692039754658E-015
 -5.099999999999999E-003    3.593383359307431E-015
 -4.999999999999999E-003    4.774251388686896E-015
 -4.899999999999999E-003    5.668151991570481E-015
 -4.799999999999999E-003    6.144471653122511E-015
 -4.699999999999999E-003    6.095513468872582E-015
 -4.599999999999999E-003    5.450555250683252E-015
 -4.499999999999999E-003    4.188100082437050E-015
 -4.399999999999999E-003    2.344813922867892E-015
 -4.299999999999999E-003    1.979365450227374E-017
 -4.199999999999999E-003   -2.626899004565261E-015
 -4.099999999999999E-003   -5.382053966573404E-015
 -3.999999999999999E-003   -7.993524075793247E-015
 -3.899999999999999E-003   -1.019023093777396E-014
 -3.799999999999999E-003   -1.170669063248126E-014
 -3.699999999999999E-003   -1.231015157759794E-014
 -3.599999999999999E-003   -1.182793024580771E-014
 -3.499999999999999E-003   -1.017219825113856E-014
 -3.399999999999999E-003   -7.359376612764740E-015
 -3.299999999999999E-003   -3.521483318673609E-015
 -3.199999999999999E-003    1.092728772804512E-015
 -3.099999999999999E-003    6.128248280540305E-015
 -2.999999999999999E-003    1.114627963940867E-014
 -2.899999999999999E-003    1.565794294390730E-014
 -2.799999999999999E-003    1.916715100347090E-014
 -2.699999999999999E-003    2.121945545495668E-014
 -2.599999999999999E-003    2.145262966059348E-014
 -2.499999999999999E-003    1.964403560522418E-014
 -2.399999999999999E-003    1.574958240317253E-014
 -2.299999999999999E-003    9.929237467048425E-015
 -2.199999999999999E-003    2.554866063617480E-015
 -2.099999999999999E-003   -5.802583265609520E-015
 -1.999999999999999E-003   -1.440776217639170E-014
 -1.899999999999999E-003   -2.241660334714473E-014
 -1.799999999999999E-003   -2.894985599914215E-014
 -1.699999999999999E-003   -3.317915357425609E-014
 -1.599999999999999E-003   -3.441826441794218E-014
 -1.499999999999999E-003   -3.221084836899947E-014
 -1.399999999999999E-003   -2.640518528359027E-014
 -1.299999999999999E-003   -1.720664870158432E-014
 -1.199999999999999E-003   -5.199703318351920E-015
 -1.099999999999999E-003    8.666612865087325E-015
 -9.999999999999989E-004    2.313276545060427E-014
 -8.999999999999990E-004    3.672173123593986E-014
 -7.999999999999990E-004    4.786625461826790E-014
 -6.999999999999989E-004    5.506146305831876E-014
 -5.999999999999990E-004    5.703035499139994E-014
 -4.999999999999989E-004    5.288669385810834E-014
 -3.999999999999989E-004    4.227815663713420E-014
 -2.999999999999989E-004    2.549248074838769E-014
 -1.999999999999989E-004    3.510962191345130E-015
 -9.999999999999892E-005   -2.200296433754552E-014
  1.084202172485504E-018   -4.878720059224969E-014
  1.000000000000011E-004   -7.413715695495778E-014
  2.000000000000011E-004   -9.512803744229956E-014
  3.000000000000011E-004   -1.088888035958841E-013
  4.000000000000011E-004   -1.129066115727663E-013
  5.000000000000011E-004   -1.053343996524299E-013
  6.000000000000011E-004   -8.527066630345151E-014
  7.000000000000011E-004   -5.297946195303582E-014
  8.000000000000011E-004   -1.002043765723875E-014
  9.000000000000012E-004    4.073578140092186E-014
  1.000000000000001E-003    9.522308403615840E-014
  1.100000000000001E-003    1.484312587573113E-013
  1.200000000000001E-003    1.947853573744370E-013
  1.300000000000001E-003    2.286308761970058E-013
  1.400000000000001E-003    2.447894820067554E-013
  1.500000000000001E-003    2.391383551325814E-013
  1.600000000000001E-003    2.091581974392602E-013
  1.700000000000001E-003    1.543910415165927E-013
  1.800000000000001E-003    7.675116762760451E-014
  1.900000000000001E-003   -1.935998159818462E-014
  2.000000000000001E-003   -1.271705070469344E-013
  2.100000000000001E-003   -2.379027088772762E-013
  2.200000000000001E-003   -3.413797644863890E-013
  2.300000000000001E-003   -4.268432642277855E-013
  2.400000000000001E-003   -4.839260571602443E-013
  2.500000000000001E-003   -5.037025068595258E-013
  2.600000000000001E-003   -4.797219347848092E-013
  2.700000000000001E-003   -4.089213568462797E-013
  2.800000000000001E-003   -2.923136710229555E-013
  2.900000000000001E-003   -1.353580322316343E-013
  3.000000000000001E-003    5.206002475788624E-014
  3.100000000000001E-003    2.560804084323363E-013
  3.200000000000001E-003    4.597563568646392E-013
  3.300000000000001E-003    6.443386213389908E-013
  3.400000000000001E-003    7.908740081099078E-013
  3.500000000000001E-003    8.819941496630773E-013
  3.600000000000001E-003    9.037399414989877E-013
  3.700000000000001E-003    8.472463213008690E-013
  3.800000000000001E-003    7.101059269297684E-013
  3.900000000000001E-003    4.972448582991835E-013
  4.000000000000001E-003    2.211736277026270E-013
  4.100000000000001E-003   -9.847587243269158E-014
  4.200000000000001E-003   -4.361536540214897E-013
  4.300000000000001E-003   -7.622913796539989E-013
  4.400000000000001E-003   -1.045779888259712E-012
  4.500000000000001E-003   -1.256835359808426E-012
  4.600000000000002E-003   -1.370008815413119E-012
  4.700000000000001E-003   -1.367052873852968E-012
  4.800000000000001E-003   -1.239345240173424E-012
  4.900000000000002E-003   -9.895845236568531E-013
  5.000000000000001E-003   -6.325180933637180E-013
  5.100000000000001E-003   -1.945359713034917E-013
  5.200000000000001E-003    2.879364631447836E-013
  5.300000000000002E-003    7.711993492466404E-013
  5.400000000000001E-003    1.208022978407612E-012
  5.500000000000001E-003    1.552090073474667E-012
  5.600000000000002E-003    1.762749233778912E-012
  5.700000000000001E-003    1.809626119585125E-012
  5.800000000000001E-003    1.676606450361467E-012
  5.900000000000002E-003    1.364724653703916E-012
  6.000000000000001E-003    8.935570579608242E-013
  6.100000000000001E-003    3.008344185072414E-013
  6.200000000000002E-003   -3.598565787534356E-013
  6.300000000000002E-003   -1.023228123669283E-012
  6.400000000000001E-003   -1.618052156582470E-012
  6.500000000000001E-003   -2.074084292288064E-012
  6.600000000000002E-003   -2.329547205533397E-012
  6.700000000000001E-003   -2.338449064356645E-012
  6.800000000000001E-003   -2.076964929947160E-012
  6.900000000000002E-003   -1.548119984199018E-012
  7.000000000000001E-003   -7.841268907539078E-013
  7.100000000000001E-003    1.541030519267218E-013
  7.200000000000002E-003    1.180501464466732E-012
  7.300000000000002E-003    2.190374540999755E-012
  7.400000000000001E-003    3.069546720178970E-012
  7.500000000000001E-003    3.705424545844019E-012
  7.600000000000002E-003    3.999032961146376E-012
  7.700000000000001E-003    3.876871409071314E-012
  7.800000000000001E-003    3.301349399164007E-012
  7.900000000000001E-003    2.278578399537060E-012
  8.000000000000002E-003    8.624545213618028E-013
  8.100000000000001E-003   -8.457619045166175E-013
  8.200000000000001E-003   -2.702778509666991E-012
  8.300000000000002E-003   -4.533461679251027E-012
  8.400000000000001E-003   -6.145327694475615E-012
  8.500000000000002E-003   -7.346291427166328E-012
  8.600000000000002E-003   -7.964186319931654E-012
  8.700000000000001E-003   -7.866254516366606E-012
  8.800000000000002E-003   -6.976635237066498E-012
  8.900000000000002E-003   -5.289895950219153E-012
  9.000000000000001E-003   -2.878854309829198E-012
  9.100000000000002E-003    1.046253001522300E-013
  9.200000000000002E-003    3.436621836342039E-012
  9.300000000000001E-003    6.835961445842568E-012
  9.400000000000002E-003    9.986091800235276E-012
  9.500000000000001E-003    1.256250246979674E-011
  9.600000000000001E-003    1.426349392595562E-011
  9.700000000000002E-003    1.484152605659007E-011
  9.800000000000001E-003    1.413213796256903E-011
  9.900000000000001E-003    1.207734504879249E-011
  1.000000000000000E-002    8.740747158850183E-012
  1.010000000000000E-002    4.312149168843052E-012
  1.020000000000000E-002   -8.996619716863142E-013
  1.030000000000000E-002   -6.486258291187625E-012
  1.040000000000000E-002   -1.197014488877832E-011
  1.050000000000000E-002   -1.684450375356350E-011
  1.060000000000000E-002   -2.061895323175532E-011
  1.070000000000000E-002   -2.286734015751429E-011
  1.080000000000000E-002   -2.327306725933320E-011
  1.090000000000000E-002   -2.166734727124049E-011
  1.100000000000000E-002   -1.805609684290936E-011
  1.110000000000000E-002   -1.263200920909680E-011
  1.120000000000000E-002   -5.769511279254139E-012
  1.130000000000000E-002    1.998145896708287E-012
  1.140000000000000E-002    1.001874370736388E-011
  1.150000000000000E-002    1.757520594409471E-011
  1.160000000000000E-002    2.394970764658501E-011
  1.170000000000000E-002    2.849218357238565E-011
  1.180000000000000E-002    3.068687931782268E-011
  1.190000000000000E-002    3.021024756929447E-011
  1.200000000000000E-002    2.697394522227881E-011
  1.210000000000000E-002    2.114769824274875E-011
  1.220000000000000E-002    1.315842441467117E-011
  1.230000000000000E-002    3.664132238290180E-012
  1.240000000000000E-002   -6.496493812776319E-012
  1.250000000000000E-002   -1.637546691325667E-011
  1.260000000000000E-002   -2.500209447254091E-011
  1.270000000000000E-002   -3.147726520215916E-011
  1.280000000000000E-002   -3.506651384783486E-011
  1.290000000000000E-002   -3.528259133013459E-011
  1.300000000000000E-002   -3.194856832840584E-011
  1.310000000000000E-002   -2.523399028503934E-011
  1.320000000000000E-002   -1.565866588619293E-011
  1.330000000000000E-002   -4.061634429146289E-012
  1.340000000000000E-002    8.463865413195464E-012
  1.350000000000000E-002    2.066511848502621E-011
  1.360000000000000E-002    3.124682845413060E-011
  1.370000000000000E-002    3.899987012398163E-011
  1.380000000000000E-002    4.292981458959587E-011
  1.390000000000000E-002    4.237223736422131E-011
  1.400000000000000E-002    3.708240191807173E-011
  1.410000000000000E-002    2.728857040197571E-011
  1.420000000000000E-002    1.370113723786671E-011
  1.430000000000000E-002   -2.526277419806465E-012
  1.440000000000000E-002   -1.988315108384229E-011
  1.450000000000000E-002   -3.663030802492205E-011
  1.460000000000000E-002   -5.096012095099204E-011
  1.470000000000000E-002   -6.117478344013369E-011
  1.480000000000000E-002   -6.586603553621052E-011
  1.490000000000000E-002   -6.407847452478650E-011
  1.500000000000000E-002   -5.543904075862605E-011
  1.510000000000000E-002   -4.023743786221686E-011
  1.520000000000000E-002   -1.944610591278262E-011
  1.530000000000000E-002    5.326345291351451E-012
  1.540000000000000E-002    3.194819389367488E-011
  1.550000000000000E-002    5.793745585820961E-011
  1.560000000000000E-002    8.068157828757828E-011
  1.570000000000000E-002    9.768535678776965E-011
  1.580000000000000E-002    1.068246103188742E-010
  1.590000000000000E-002    1.065810162612305E-010
  1.600000000000000E-002    9.623381465258680E-011
  1.610000000000000E-002    7.598663119732148E-011
  1.620000000000000E-002    4.701275238334116E-011
  1.630000000000000E-002    1.140900863533697E-011
  1.640000000000000E-002   -2.794320069248205E-011
  1.650000000000000E-002   -6.760229060895436E-011
  1.660000000000000E-002   -1.038599468335316E-010
  1.670000000000000E-002   -1.330796142438139E-010
  1.680000000000000E-002   -1.520501140772286E-010
  1.690000000000000E-002   -1.583209523004922E-010
  1.700000000000000E-002   -1.504858550078848E-010
  1.710000000000000E-002   -1.283839019879057E-010
  1.720000000000000E-002   -9.319364091827996E-011
  1.730000000000000E-002   -4.740464294189877E-011
  1.740000000000000E-002    5.338361285068187E-012
  1.750000000000000E-002    6.051136753712333E-011
  1.760000000000000E-002    1.130877828182953E-010
  1.770000000000000E-002    1.579857486521163E-010
  1.780000000000000E-002    1.905473581158165E-010
  1.790000000000000E-002    2.070056851710260E-010
  1.800000000000000E-002    2.048942860561465E-010
  1.810000000000000E-002    1.833566568303205E-010
  1.820000000000000E-002    1.433201959137681E-010
  1.830000000000000E-002    8.751069170557582E-011
  1.840000000000000E-002    2.029670657308906E-011
  1.850000000000000E-002   -5.263062316384975E-011
  1.860000000000000E-002   -1.247209564977399E-010
  1.870000000000000E-002   -1.891349061671843E-010