 -4.000000000000000E-002    0.000000000000000E+000
 -3.990000000000000E-002    0.000000000000000E+000
 -3.980000000000000E-002    0.000000000000000E+000
 -3.970000000000000E-002    0.000000000000000E+000
 -3.960000000000000E-002    0.000000000000000E+000
 -3.950000000000000E-002    0.000000000000000E+000
 -3.940000000000000E-002    0.000000000000000E+000
 -3.930000000000000E-002    0.000000000000000E+000
 -3.920000000000000E-002    0.000000000000000E+000
 -3.910000000000000E-002    0.000000000000000E+000
 -3.900000000000000E-002    0.000000000000000E+000
 -3.890000000000000E-002    0.000000000000000E+000
 -3.880000000000000E-002    0.000000000000000E+000
 -3.870000000000000E-002    0.000000000000000E+000
 -3.860000000000000E-002    0.000000000000000E+000
 -3.850000000000000E-002    0.000000000000000E+000
 -3.840000000000000E-002    0.000000000000000E+000
 -3.830000000000000E-002    0.000000000000000E+000
 -3.820000000000000E-002    0.000000000000000E+000
 -3.810000000000000E-002    0.000000000000000E+000
 -3.800000000000000E-002    0.000000000000000E+000
 -3.790000000000000E-002    0.000000000000000E+000
 -3.780000000000000E-002    0.000000000000000E+000
 -3.770000000000000E-002    0.000000000000000E+000
 -3.760000000000000E-002    0.000000000000000E+000
 -3.750000000000000E-002    0.000000000000000E+000
 -3.740000000000000E-002    0.000000000000000E+000
 -3.730000000000000E-002    0.000000000000000E+000
 -3.720000000000000E-002    0.000000000000000E+000
 -3.710000000000000E-002    0.000000000000000E+000
 -3.700000000000000E-002    0.000000000000000E+000
 -3.690000000000000E-002    0.000000000000000E+000
 -3.680000000000000E-002    0.000000000000000E+000
 -3.670000000000000E-002    0.000000000000000E+000
 -3.660000000000000E-002    0.000000000000000E+000
 -3.650000000000000E-002    0.000000000000000E+000
 -3.640000000000000E-002    0.000000000000000E+000
 -3.630000000000000E-002    0.000000000000000E+000
 -3.620000000000000E-002    0.000000000000000E+000
 -3.610000000000000E-002    0.000000000000000E+000
 -3.600000000000000E-002    0.000000000000000E+000
 -3.590000000000000E-002    0.000000000000000E+000
 -3.580000000000000E-002    0.000000000000000E+000
 -3.570000000000000E-002    0.000000000000000E+000
 -3.560000000000000E-002    0.000000000000000E+000
 -3.550000000000000E-002    0.000000000000000E+000
 -3.540000000000000E-002    0.000000000000000E+000
 -3.530000000000000E-002    0.000000000000000E+000
 -3.520000000000000E-002    0.000000000000000E+000
 -3.510000000000000E-002    0.000000000000000E+000
 -3.500000000000000E-002    0.000000000000000E+000
 -3.490000000000000E-002    0.000000000000000E+000
 -3.480000000000000E-002    0.000000000000000E+000
 -3.470000000000000E-002    0.000000000000000E+000
 -3.460000000000000E-002    0.000000000000000E+000
 -3.450000000000000E-002    0.000000000000000E+000
 -3.440000000000000E-002    0.000000000000000E+000
 -3.430000000000000E-002    0.000000000000000E+000
 -3.420000000000000E-002    0.000000000000000E+000
 -3.410000000000000E-002    0.000000000000000E+000
 -3.400000000000000E-002    0.000000000000000E+000
 -3.390000000000000E-002    0.000000000000000E+000
 -3.380000000000000E-002    0.000000000000000E+000
 -3.370000000000000E-002    0.000000000000000E+000
 -3.360000000000000E-002    0.000000000000000E+000
 -3.350000000000000E-002    0.000000000000000E+000
 -3.340000000000000E-002    0.000000000000000E+000
 -3.330000000000000E-002    0.000000000000000E+000
 -3.320000000000000E-002    0.000000000000000E+000
 -3.310000000000000E-002    0.000000000000000E+000
 -3.300000000000000E-002    0.000000000000000E+000
 -3.290000000000000E-002    0.000000000000000E+000
 -3.280000000000000E-002    0.000000000000000E+000
 -3.270000000000000E-002    0.000000000000000E+000
 -3.260000000000000E-002    0.000000000000000E+000
 -3.250000000000000E-002    0.000000000000000E+000
 -3.240000000000000E-002    0.000000000000000E+000
 -3.230000000000000E-002    0.000000000000000E+000
 -3.220000000000000E-002    0.000000000000000E+000
 -3.210000000000000E-002    0.000000000000000E+000
 -3.200000000000000E-002    0.000000000000000E+000
 -3.190000000000000E-002    0.000000000000000E+000
 -3.180000000000000E-002    0.000000000000000E+000
 -3.170000000000000E-002    0.000000000000000E+000
 -3.160000000000000E-002    0.000000000000000E+000
 -3.150000000000000E-002    0.000000000000000E+000
 -3.140000000000000E-002    0.000000000000000E+000
 -3.130000000000000E-002    0.000000000000000E+000
 -3.120000000000000E-002    0.000000000000000E+000
 -3.110000000000000E-002    0.000000000000000E+000
 -3.100000000000000E-002    0.000000000000000E+000
 -3.090000000000000E-002    0.000000000000000E+000
 -3.080000000000000E-002    0.000000000000000E+000
 -3.070000000000000E-002    0.000000000000000E+000
 -3.060000000000000E-002    0.000000000000000E+000
 -3.050000000000000E-002    0.000000000000000E+000
 -3.040000000000000E-002    0.000000000000000E+000
 -3.030000000000000E-002    0.000000000000000E+000
 -3.020000000000000E-002    0.000000000000000E+000
 -3.010000000000000E-002    0.000000000000000E+000
 -3.000000000000000E-002    0.000000000000000E+000
 -2.990000000000000E-002    0.000000000000000E+000
 -2.980000000000000E-002    0.000000000000000E+000
 -2.970000000000000E-002    0.000000000000000E+000
 -2.960000000000000E-002    1.924390591266381E-047
 -2.950000000000000E-002    3.848781182532762E-047
 -2.940000000000000E-002    3.848781182532762E-047
 -2.930000000000000E-002    3.848781182532762E-047
 -2.920000000000000E-002    1.924390591266381E-047
 -2.910000000000000E-002    8.723904013740927E-047
 -2.900000000000000E-002    3.957052623183251E-047
 -2.890000000000000E-002   -1.066384179543276E-047
 -2.880000000000000E-002   -1.404396875950418E-046
 -2.870000000000000E-002   -3.114694119960063E-046
 -2.860000000000000E-002   -3.591379259015830E-046
 -2.850000000000000E-002   -8.804947270760667E-046
 -2.840000000000000E-002   -1.173450990913763E-045
 -2.830000000000000E-002   -1.826997748011732E-045
 -2.820000000000000E-002   -1.577873152858552E-045
 -2.810000000000000E-002   -8.776636484407022E-046
 -2.800000000000000E-002   -2.713169802688395E-046
 -2.790000000000000E-002    8.903342824724586E-046
 -2.780000000000000E-002    2.857576122855795E-045
 -2.770000000000000E-002    5.890576166811219E-045
 -2.760000000000000E-002    1.131751588405947E-044
 -2.750000000000000E-002    1.998811584908833E-044
 -2.740000000000000E-002    3.244274599925846E-044
 -2.730000000000000E-002    4.759246956831089E-044
 -2.720000000000000E-002    6.643059728413991E-044
 -2.710000000000000E-002    8.528908618329512E-044
 -2.700000000000000E-002    1.010093385899357E-043
 -2.690000000000000E-002    1.041811070939614E-043
 -2.680000000000000E-002    8.481122999036388E-044
 -2.670000000000000E-002    2.707633613784788E-044
 -2.660000000000000E-002   -8.949556581216790E-044
 -2.650000000000000E-002   -2.894608277644589E-043
 -2.640000000000000E-002   -5.974395182859699E-043
 -2.630000000000000E-002   -1.033240961528671E-042
 -2.620000000000000E-002   -1.601963091565138E-042
 -2.610000000000000E-002   -2.286064555368731E-042
 -2.600000000000000E-002   -3.021793264940359E-042
 -2.590000000000000E-002   -3.682615531155211E-042
 -2.580000000000000E-002   -4.056148730542320E-042
 -2.570000000000000E-002   -3.822024404159851E-042
 -2.560000000000000E-002   -2.540049640402332E-042
 -2.550000000000000E-002    3.476522238009376E-043
 -2.540000000000000E-002    5.482008081631464E-042
 -2.530000000000000E-002    1.351068190816152E-041
 -2.520000000000000E-002    2.495067782957615E-041
 -2.510000000000000E-002    3.997926583453234E-041
 -2.500000000000000E-002    5.813297104563258E-041
 -2.490000000000000E-002    7.793568329321768E-041
 -2.480000000000000E-002    9.645889345993011E-041
 -2.470000000000000E-002    1.088792056568541E-040
 -2.460000000000000E-002    1.081105558565189E-040
 -2.450000000000000E-002    8.465659185806655E-041
 -2.440000000000000E-002    2.685561815155284E-041
 -2.430000000000000E-002   -7.824686674176498E-041
 -2.420000000000000E-002   -2.431501541027207E-040
 -2.410000000000000E-002   -4.770363867482306E-040
 -2.400000000000000E-002   -7.816157442735136E-040
 -2.390000000000000E-002   -1.145657912889697E-039
 -2.380000000000000E-002   -1.538452183779269E-039
 -2.370000000000000E-002   -1.902786254403347E-039
 -2.360000000000000E-002   -2.148574699940328E-039
 -2.350000000000000E-002   -2.148817737155889E-039
 -2.340000000000000E-002   -1.740247881672589E-039
 -2.330000000000000E-002   -7.315542622492613E-040
 -2.320000000000000E-002    1.077541495131426E-039
 -2.310000000000000E-002    3.863213999319330E-039
 -2.300000000000000E-002    7.728082051252695E-039
 -2.290000000000000E-002    1.263477166423286E-038
 -2.280000000000000E-002    1.832483431433419E-038
 -2.270000000000000E-002    2.422974153288929E-038
 -2.260000000000000E-002    2.938633445780891E-038
 -2.250000000000000E-002    3.237595414280724E-038
 -2.240000000000000E-002    3.131339279892988E-038
 -2.230000000000000E-002    2.391824433045466E-038
 -2.220000000000000E-002    7.704620654087530E-039
 -2.210000000000000E-002   -1.967579316567849E-038
 -2.200000000000000E-002   -5.991152195074724E-038
 -2.190000000000000E-002   -1.133224445873705E-037
 -2.180000000000000E-002   -1.779894821966171E-037
 -2.170000000000000E-002   -2.487921861902869E-037
 -2.160000000000000E-002   -3.164829699866124E-037
 -2.150000000000000E-002   -3.669932889483634E-037
 -2.140000000000000E-002   -3.812387753219233E-037
 -2.130000000000000E-002   -3.357442307713559E-037
 -2.120000000000000E-002   -2.044449862100272E-037
 -2.110000000000000E-002    3.799979127841836E-038
 -2.100000000000000E-002    4.111449886011475E-037
 -2.090000000000000E-002    9.218908490134115E-037
 -2.080000000000000E-002    1.556073926388540E-036
 -2.070000000000000E-002    2.269197619846872E-036
 -2.060000000000000E-002    2.977540726023214E-036
 -2.050000000000000E-002    3.551480313453739E-036
 -2.040000000000000E-002    3.813478455211207E-036
 -2.030000000000000E-002    3.543681674252274E-036
 -2.020000000000000E-002    2.496239814033871E-036
 -2.010000000000000E-002    4.293066584450558E-037
 -2.000000000000000E-002   -2.849373024942411E-036
 -1.990000000000000E-002   -7.420987545006227E-036
 -1.980000000000000E-002   -1.318089828861119E-035
 -1.970000000000000E-002   -1.975678591743322E-035
 -1.960000000000000E-002   -2.643056589029355E-035
 -1.950000000000000E-002   -3.207999045643567E-035
 -1.940000000000000E-002   -3.516053884222737E-035
 -1.930000000000000E-002   -3.375218439319272E-035
 -1.920000000000000E-002   -2.569641760259279E-035
 -1.910000000000000E-002   -8.846673278624075E-036
 -1.900000000000000E-002    1.855278950152419E-035
 -1.890000000000000E-002    5.735950941695807E-035
 -1.880000000000000E-002    1.069186727293642E-034
 -1.870000000000000E-002    1.643936823108857E-034
 -1.860000000000000E-002    2.241283486263386E-034
 -1.850000000000000E-002    2.771650858196598E-034
 -1.840000000000000E-002    3.110801306417938E-034
 -1.830000000000000E-002    3.103205547874774E-034
 -1.820000000000000E-002    2.572356723769148E-034
 -1.810000000000000E-002    1.339721672041826E-034
 -1.800000000000000E-002   -7.466259128272935E-035
 -1.790000000000000E-002   -3.773717841635948E-034
 -1.780000000000000E-002   -7.717433459533461E-034
 -1.770000000000000E-002   -1.239205966360844E-033
 -1.760000000000000E-002   -1.740196500216973E-033
 -1.750000000000000E-002   -2.210430317899993E-033
 -1.740000000000000E-002   -2.559403297045134E-033
 -1.730000000000000E-002   -2.672419080301971E-033
 -1.720000000000000E-002   -2.417460426870280E-033
 -1.710000000000000E-002   -1.658052381401375E-033
 -1.700000000000000E-002   -2.728095396801964E-034
 -1.690000000000000E-002    1.818361052257870E-033
 -1.680000000000000E-002    4.622565983927807E-033
 -1.670000000000000E-002    8.039250439469969E-033
 -1.660000000000000E-002    1.182668085712556E-032
 -1.650000000000000E-002    1.557537544836695E-032
 -1.640000000000000E-002    1.869573504908186E-032
 -1.630000000000000E-002    2.042810973083363E-032
 -1.620000000000000E-002    1.988355979904071E-032
 -1.610000000000000E-002    1.612247843706713E-032
 -1.600000000000000E-002    8.275301447969404E-033
 -1.590000000000000E-002   -4.295086485083704E-033
 -1.580000000000000E-002   -2.179621635104664E-032
 -1.570000000000000E-002   -4.378964677514110E-032
 -1.560000000000000E-002   -6.898004044981343E-032
 -1.550000000000000E-002   -9.504413225195668E-032
 -1.540000000000000E-002   -1.185423788253143E-031
 -1.530000000000000E-002   -1.349608469690185E-031
 -1.520000000000000E-002   -1.389313106111142E-031
 -1.510000000000000E-002   -1.246694623585964E-031
 -1.500000000000000E-002   -8.665532894837397E-032
 -1.490000000000000E-002   -2.055253904588136E-032
 -1.480000000000000E-002    7.567417852676656E-032
 -1.470000000000000E-002    2.005295273214595E-031
 -1.460000000000000E-002    3.477838096664697E-031
 -1.450000000000000E-002    5.054835379933777E-031
 -1.440000000000000E-002    6.554081154156690E-031
 -1.430000000000000E-002    7.732271749628047E-031
 -1.420000000000000E-002    8.296117503013110E-031
 -1.410000000000000E-002    7.925073422698766E-031
 -1.400000000000000E-002    6.306865650624582E-031
 -1.390000000000000E-002    3.185557724354979E-031
 -1.380000000000000E-002   -1.580052507727680E-031
 -1.370000000000000E-002   -7.952239746004201E-031
 -1.360000000000000E-002   -1.565153390261466E-030
 -1.350000000000000E-002   -2.410488925229876E-030
 -1.340000000000000E-002   -3.241653000201120E-030
 -1.330000000000000E-002   -3.937413809054113E-030
 -1.320000000000000E-002   -4.350277086926898E-030
 -1.310000000000000E-002   -4.317639012610990E-030
 -1.300000000000000E-002   -3.679228661050685E-030
 -1.290000000000000E-002   -2.300662324313980E-030
 -1.280000000000000E-002   -1.019443691794067E-031
 -1.270000000000000E-002    2.911332952423295E-030
 -1.260000000000000E-002    6.617596123493835E-030
 -1.250000000000000E-002    1.075431897276478E-029
 -1.240000000000000E-002    1.490399697914921E-029
 -1.230000000000000E-002    1.849700372992431E-029
 -1.220000000000000E-002    2.083694516063163E-029
 -1.210000000000000E-002    2.115296537607956E-029
 -1.200000000000000E-002    1.868111462811850E-029
 -1.190000000000000E-002    1.277356448604098E-029
 -1.180000000000000E-002    3.030082659760705E-030
 -1.170000000000000E-002   -1.055897151220365E-029
 -1.160000000000000E-002   -2.747427181784878E-029
 -1.150000000000000E-002   -4.655471975153397E-029
 -1.140000000000000E-002   -6.593495922780167E-029
 -1.130000000000000E-002   -8.305930012229892E-029
 -1.120000000000000E-002   -9.479639374376546E-029
 -1.110000000000000E-002   -9.767309127464665E-029
 -1.100000000000000E-002   -8.823577533829901E-029
 -1.090000000000000E-002   -6.353216519970347E-029
 -1.080000000000000E-002   -2.168764588280190E-029
 -1.070000000000000E-002    3.747177150439527E-029
 -1.060000000000000E-002    1.118201000814935E-028
 -1.050000000000000E-002    1.964462038031742E-028
 -1.040000000000000E-002    2.833872667752486E-028
 -1.030000000000000E-002    3.616901474004791E-028
 -1.020000000000000E-002    4.179002243747458E-028
 -1.010000000000000E-002    4.370518498076198E-028
 -1.000000000000000E-002    4.041888649262738E-028
 -9.899999999999999E-003    3.063819877624935E-028
 -9.800000000000000E-003    1.351293911967756E-028
 -9.699999999999999E-003   -1.110591264472529E-028
 -9.599999999999999E-003   -4.241860799970663E-028
 -9.500000000000000E-003   -7.847654092691322E-028
 -9.399999999999999E-003   -1.160717466041252E-027
 -9.299999999999999E-003   -1.507592160320637E-027
 -9.200000000000000E-003   -1.770508418777366E-027
 -9.099999999999999E-003   -1.888092412923894E-027
 -8.999999999999999E-003   -1.798509250215369E-027
 -8.900000000000000E-003   -1.447441602504856E-027
 -8.799999999999999E-003   -7.975574232687903E-028
 -8.699999999999999E-003    1.613312151438138E-028
 -8.600000000000000E-003    1.402543277999668E-027
 -8.499999999999999E-003    2.854657410330049E-027
 -8.399999999999999E-003    4.397089635939030E-027
 -8.300000000000000E-003    5.860743031215883E-027
 -8.199999999999999E-003    7.035161857436812E-027
 -8.100000000000000E-003    7.683203635469436E-027
 -8.000000000000000E-003    7.563543990803575E-027
 -7.899999999999999E-003    6.460394071931242E-027
 -7.800000000000000E-003    4.218686162564615E-027
 -7.699999999999999E-003    7.817644299502994E-028
 -7.599999999999999E-003   -3.772589639421227E-027
 -7.499999999999999E-003   -9.202930485682127E-027
 -7.399999999999999E-003   -1.508746941492375E-026
 -7.299999999999999E-003   -2.082567876685925E-026
 -7.199999999999999E-003   -2.566319802233590E-026
 -7.100000000000000E-003   -2.874343876649778E-026
 -6.999999999999999E-003   -2.918679568664357E-026
 -6.899999999999999E-003   -2.619504782089030E-026
 -6.800000000000000E-003   -1.917461183669918E-026
 -6.699999999999999E-003   -7.868070432405267E-027
 -6.599999999999999E-003    7.520532978825488E-027
 -6.499999999999999E-003    2.622439329990657E-026
 -6.399999999999999E-003    4.685612864976683E-026
 -6.299999999999999E-003    6.741274056931720E-026
 -6.199999999999999E-003    8.535975684960851E-026
 -6.100000000000000E-003    9.780523106649010E-026
 -5.999999999999999E-003    1.017656013772255E-025
 -5.899999999999999E-003    9.451422461951846E-026
 -5.800000000000000E-003    7.399037498666175E-026
 -5.699999999999999E-003    3.923249452931904E-026
 -5.599999999999999E-003   -9.212784832645055E-027
 -5.499999999999999E-003   -6.896425350971004E-026
 -5.399999999999999E-003   -1.356258094721343E-025
 -5.299999999999999E-003   -2.028130920375066E-025
 -5.199999999999999E-003   -2.624381570023985E-025
 -5.099999999999999E-003   -3.052826647958186E-025
 -4.999999999999999E-003   -3.218618857591041E-025
 -4.899999999999999E-003   -3.035445169185752E-025
 -4.799999999999999E-003   -2.438528317025695E-025
 -4.699999999999999E-003   -1.398228810220314E-025
 -4.599999999999999E-003    6.731665386566772E-027
 -4.499999999999999E-003    1.882381728271346E-025
 -4.399999999999999E-003    3.908624041569306E-025
 -4.299999999999999E-003    5.946713474570007E-025
 -4.199999999999999E-003    7.746090662643968E-025
 -4.099999999999999E-003    9.023682256070421E-025
 -3.999999999999999E-003    9.491467872578358E-025
 -3.899999999999999E-003    8.891611317662669E-025
 -3.799999999999999E-003    7.036620270064869E-025
 -3.699999999999999E-003    3.850682932126415E-025
 -3.599999999999999E-003   -5.927783783102649E-026
 -3.499999999999999E-003   -6.043053820131479E-025
 -3.399999999999999E-003   -1.205953941329315E-024
 -3.299999999999999E-003   -1.802006669910658E-024
 -3.199999999999999E-003   -2.315432117692158E-024
 -3.099999999999999E-003   -2.660442168460830E-024
 -2.999999999999999E-003   -2.751172990616134E-024
 -2.899999999999999E-003   -2.512546568774363E-024
 -2.799999999999999E-003   -1.892478139472919E-024
 -2.699999999999999E-003   -8.742255036721356E-025
 -2.599999999999999E-003    5.126473060988943E-025
 -2.499999999999999E-003    2.184416808030630E-024
 -2.399999999999999E-003    4.000214702747090E-024
 -2.299999999999999E-003    5.765494282003782E-024
 -2.199999999999999E-003    7.243095394776459E-024
 -2.099999999999999E-003    8.172402847836138E-024
 -1.999999999999999E-003    8.296185586831920E-024
 -1.899999999999999E-003    7.393647308911852E-024
 -1.799999999999999E-003    5.317083807692141E-024
 -1.699999999999999E-003    2.028478127174690E-024
 -1.599999999999999E-003   -2.368536915360678E-024
 -1.499999999999999E-003   -7.606421828815679E-024
 -1.399999999999999E-003   -1.324630687938588E-023
 -1.299999999999999E-003   -1.868986539907843E-023
 -1.199999999999999E-003   -2.321368275397162E-023
 -1.099999999999999E-003   -2.602731262428693E-023
 -9.999999999999989E-004   -2.635357039626635E-023
 -8.999999999999990E-004   -2.352651513762504E-023
 -7.999999999999990E-004   -1.709944091781055E-023
 -6.999999999999989E-004   -6.952069405759289E-024
 -5.999999999999990E-004    6.616219142002097E-024
 -4.999999999999989E-004    2.282168274738262E-023
 -3.999999999999989E-004    4.037449798354388E-023
 -2.999999999999989E-004    5.751262181272484E-023
 -1.999999999999989E-004    7.210007263262740E-023
 -9.999999999999892E-005    8.179269077973028E-023
  1.084202172485504E-018    8.426702749861695E-023
  1.000000000000011E-004    7.749955232741668E-023
  2.000000000000011E-004    6.007440447721338E-023
  3.000000000000011E-004    3.148959820339517E-023
  4.000000000000011E-004   -7.574683299840872E-024
  5.000000000000011E-004   -5.506608101743965E-023
  6.000000000000011E-004   -1.074879541884392E-022
  7.000000000000011E-004   -1.599796298013602E-022
  8.000000000000011E-004   -2.065732965216409E-022
  9.000000000000012E-004   -2.406361316553540E-022
  1.000000000000001E-003   -2.554858246702965E-022
  1.100000000000001E-003   -2.451463286073519E-022
  1.200000000000001E-003   -2.051851268435831E-022
  1.300000000000001E-003   -1.335529753552016E-022
  1.400000000000001E-003   -3.132934309909872E-023
  1.500000000000001E-003    9.673254640196019E-023
  1.600000000000001E-003    2.419659246777485E-022
  1.700000000000001E-003    3.919469902785959E-022
  1.800000000000001E-003    5.311122231019138E-022
  1.900000000000001E-003    6.418602870409982E-022
  2.000000000000001E-003    7.061114504948259E-022
  2.100000000000001E-003    7.072393634749340E-022
  2.200000000000001E-003    6.322298055255413E-022
  2.300000000000001E-003    4.738648391410245E-022
  2.400000000000001E-003    2.326897123621749E-022
  2.500000000000001E-003   -8.150596076001670E-023
  2.600000000000001E-003   -4.489565176451899E-022
  2.700000000000001E-003   -8.401684556772057E-022
  2.800000000000001E-003   -1.217311529625061E-021
  2.900000000000001E-003   -1.536816726342203E-021
  3.000000000000001E-003   -1.753119650285856E-021
  3.100000000000001E-003   -1.823341826815396E-021
  3.200000000000001E-003   -1.712563153665494E-021
  3.300000000000001E-003   -1.399193704351162E-021
  3.400000000000001E-003   -8.798607494918354E-022
  3.500000000000001E-003   -1.731623528299507E-022
  3.600000000000001E-003    6.783479599171555E-022
  3.700000000000001E-003    1.608499023863818E-021
  3.800000000000001E-003    2.530554359782690E-021
  3.900000000000001E-003    3.343132764351858E-021
  4.000000000000001E-003    3.938852988241137E-021
  4.100000000000001E-003    4.215217352598893E-021
  4.200000000000001E-003    4.086909037687962E-021
  4.300000000000001E-003    3.498364551852163E-021
  4.400000000000001E-003    2.435238832174055E-021
  4.500000000000001E-003    9.332680830851293E-022
  4.600000000000002E-003   -9.169504136779884E-022
  4.700000000000001E-003   -2.970529317764773E-021
  4.800000000000001E-003   -5.035107952964460E-021
  4.900000000000002E-003   -6.884241080973352E-021
  5.000000000000001E-003   -8.277010338803681E-021
  5.100000000000001E-003   -8.982710196703448E-021
  5.200000000000001E-003   -8.808699575655209E-021
  5.300000000000002E-003   -7.628790935623875E-021
  5.400000000000001E-003   -5.409024638003241E-021
  5.500000000000001E-003   -2.227429744480938E-021
  5.600000000000002E-003    1.715557958691523E-021
  5.700000000000001E-003    6.098845801372056E-021
  5.800000000000001E-003    1.049653393335694E-020
  5.900000000000002E-003    1.440853177113111E-020
  6.000000000000001E-003    1.730499647792144E-020
  6.100000000000001E-003    1.868194492197328E-020
  6.200000000000002E-003    1.812359120744718E-020
  6.300000000000002E-003    1.536544776222897E-020
  6.400000000000001E-003    1.035108204159031E-020
  6.500000000000001E-003    3.274895781550211E-021
  6.600000000000002E-003   -5.396414375484344E-021
  6.700000000000001E-003   -1.492992524845186E-020
  6.800000000000001E-003   -2.436418142918078E-020
  6.900000000000002E-003   -3.257977038422505E-020
  7.000000000000001E-003   -3.840042195817468E-020
  7.100000000000001E-003   -4.071839052777343E-020
  7.200000000000002E-003   -3.863407401697751E-020
  7.300000000000002E-003   -3.159635408429065E-020
  7.400000000000001E-003   -1.952778988611024E-020
  7.500000000000001E-003   -2.917719757283163E-021
  7.600000000000002E-003    1.713291073561256E-020
  7.700000000000001E-003    3.892855364258247E-020
  7.800000000000001E-003    6.026671837501335E-020
  7.900000000000001E-003    7.859866942646125E-020
  8.000000000000002E-003    9.125767300177585E-020
  8.100000000000001E-003    9.574069899135719E-020
  8.200000000000001E-003    9.002104521406245E-020
  8.300000000000002E-003    7.286207764189847E-020
  8.400000000000001E-003    4.409693023166407E-020
  8.500000000000002E-003    4.836890424917047E-021
  8.600000000000002E-003   -4.242706600474434E-020
  8.700000000000001E-003   -9.385932366620004E-020
  8.800000000000002E-003   -1.444707624833197E-019
  8.900000000000002E-003   -1.884711633614916E-019
  9.000000000000001E-003   -2.197713592697396E-019
  9.100000000000002E-003   -2.326046751885488E-019
  9.200000000000002E-003   -2.222191327027973E-019
  9.300000000000001E-003   -1.855756991551412E-019
  9.400000000000002E-003   -1.219770132433589E-019
  9.500000000000001E-003   -3.354540749599755E-020
  9.600000000000001E-003    7.452705506090888E-020
  9.700000000000002E-003    1.940217901060773E-019
  9.800000000000001E-003    3.140736703876752E-019
  9.900000000000001E-003    4.219020119594163E-019
  1.000000000000000E-002    5.038700213620691E-019
  1.010000000000000E-002    5.468114309893055E-019
  1.020000000000000E-002    5.395228570748038E-019
  1.030000000000000E-002    4.742886191931636E-019
  1.040000000000000E-002    3.482769273168593E-019
  1.050000000000000E-002    1.646368498114336E-019
  1.060000000000000E-002   -6.686944191167652E-020
  1.070000000000000E-002   -3.298410496000719E-019
  1.080000000000000E-002   -6.019172901875224E-019
  1.090000000000000E-002   -8.561994646683258E-019
  1.100000000000000E-002   -1.063377944997570E-018
  1.110000000000000E-002   -1.194447661192374E-018
  1.120000000000000E-002   -1.223811897209400E-018
  1.130000000000000E-002   -1.132505046931282E-018
  1.140000000000000E-002   -9.112071548024705E-019
  1.150000000000000E-002   -5.626991581786554E-019
  1.160000000000000E-002   -1.034138790364147E-019
  1.170000000000000E-002    4.362183753610694E-019
  1.180000000000000E-002    1.012846621807879E-018
  1.190000000000000E-002    1.572797090000958E-018
  1.200000000000000E-002    2.056140630922570E-018
  1.210000000000000E-002    2.402019834465525E-018
  1.220000000000000E-002    2.554855442725980E-018
  1.230000000000000E-002    2.470908128618576E-018
  1.240000000000000E-002    2.124552909136690E-018
  1.250000000000000E-002    1.513565902799140E-018
  1.260000000000000E-002    6.627224156818169E-019
  1.270000000000000E-002   -3.749141424182022E-019
  1.280000000000000E-002   -1.519477704151371E-018
  1.290000000000000E-002   -2.668799373589553E-018
  1.300000000000000E-002   -3.705875861440223E-018
  1.310000000000000E-002   -4.508939868896851E-018
  1.320000000000000E-002   -4.963443076855598E-018
  1.330000000000000E-002   -4.974958781786035E-018
  1.340000000000000E-002   -4.481783127738104E-018
  1.350000000000000E-002   -3.465866442605811E-018
  1.360000000000000E-002   -1.960698669570794E-018
  1.370000000000000E-002   -5.489950324901189E-020
  1.380000000000000E-002    2.109453062460808E-018
  1.390000000000000E-002    4.344305940182617E-018
  1.400000000000000E-002    6.428933644699801E-018
  1.410000000000000E-002    8.128462596985443E-018
  1.420000000000000E-002    9.216387306105421E-018
  1.430000000000000E-002    9.499266875877703E-018
  1.440000000000000E-002    8.841290473320375E-018
  1.450000000000000E-002    7.186149850383300E-018
  1.460000000000000E-002    4.573535957922078E-018
  1.470000000000000E-002    1.147832000134735E-018
  1.480000000000000E-002   -2.842967813209294E-018
  1.490000000000000E-002   -7.059304320561928E-018
  1.500000000000000E-002   -1.109326544443126E-017
  1.510000000000000E-002   -1.450203014760776E-017
  1.520000000000000E-002   -1.684939587826371E-017
  1.530000000000000E-002   -1.775212237242112E-017
  1.540000000000000E-002   -1.692687444276291E-017
  1.550000000000000E-002   -1.423295137682697E-017
  1.560000000000000E-002   -9.705738628601027E-018
  1.570000000000000E-002   -3.576200433603442E-018
  1.580000000000000E-002    3.727491304861671E-018
  1.590000000000000E-002    1.159869873584391E-017
  1.600000000000000E-002    1.929214663664405E-017
  1.610000000000000E-002    2.598343120763128E-017
  1.620000000000000E-002    3.084459314162753E-017
  1.630000000000000E-002    3.312991229735186E-017
  1.640000000000000E-002    3.226435192570018E-017
  1.650000000000000E-002    2.792570996019142E-017
  1.660000000000000E-002    2.011112718591908E-017
  1.670000000000000E-002    9.178957928832534E-018
  1.680000000000000E-002   -4.141558501243222E-018
  1.690000000000000E-002   -1.877800221470112E-017
  1.700000000000000E-002   -3.338179205589710E-017
  1.710000000000000E-002   -4.643261940846460E-017
  1.720000000000000E-002   -5.637422533833068E-017
  1.730000000000000E-002   -6.177144470925777E-017
  1.740000000000000E-002   -6.147486079581181E-017
  1.750000000000000E-002   -5.477693301830066E-017
  1.760000000000000E-002   -4.154226776493730E-017
  1.770000000000000E-002   -2.229516708376177E-017
  1.780000000000000E-002    1.750123974091255E-018
  1.790000000000000E-002    2.872689544968064E-017
  1.800000000000000E-002    5.622590754836452E-017
  1.810000000000000E-002    8.147563495846241E-017
  1.820000000000000E-002    1.015829038065779E-016
  1.830000000000000E-002    1.138167452217834E-016
  1.840000000000000E-002    1.159114297368914E-016
  1.850000000000000E-002    1.063596490542074E-016
  1.860000000000000E-002    8.466423199175310E-017
  1.870000000000000E-002    5.151712199312063E-017