 -4.000000000000000E-002    0.000000000000000E+000
 -3.990000000000000E-002    0.000000000000000E+000
 -3.980000000000000E-002    0.000000000000000E+000
 -3.970000000000000E-002    0.000000000000000E+000
 -3.960000000000000E-002    0.000000000000000E+000
 -3.950000000000000E-002    0.000000000000000E+000
 -3.940000000000000E-002    0.000000000000000E+000
 -3.930000000000000E-002    0.000000000000000E+000
 -3.920000000000000E-002    0.000000000000000E+000
 -3.910000000000000E-002    0.000000000000000E+000
 -3.900000000000000E-002    0.000000000000000E+000
 -3.890000000000000E-002    0.000000000000000E+000
 -3.880000000000000E-002    0.000000000000000E+000
 -3.870000000000000E-002    0.000000000000000E+000
 -3.860000000000000E-002    1.504983577764182E-044
 -3.850000000000000E-002    3.910870769255077E-043
 -3.840000000000000E-002    5.189261323276238E-042
 -3.830000000000000E-002    4.693675711026496E-041
 -3.820000000000000E-002    3.244552111556375E-040
 -3.810000000000000E-002    1.823816896675017E-039
 -3.800000000000000E-002    8.658362512703206E-039
 -3.790000000000000E-002    3.557861313385588E-038
 -3.780000000000000E-002    1.285822140426765E-037
 -3.770000000000000E-002    4.125558244968459E-037
 -3.760000000000000E-002    1.178634696221003E-036
 -3.750000000000000E-002    2.981888783380989E-036
 -3.740000000000000E-002    6.542129549352273E-036
 -3.730000000000000E-002    1.170354080178026E-035
 -3.720000000000000E-002    1.335675867551831E-035
 -3.710000000000000E-002   -1.075064493485926E-035
 -3.700000000000000E-002   -1.312299365376977E-034
 -3.690000000000000E-002   -5.384290643448425E-034
 -3.680000000000000E-002   -1.690836427584679E-033
 -3.670000000000000E-002   -4.597674628673398E-033
 -3.660000000000000E-002   -1.131148372694495E-032
 -3.650000000000000E-002   -2.570665104115199E-032
 -3.640000000000000E-002   -5.456689810819840E-032
 -3.630000000000000E-002   -1.088383811682095E-031
 -3.620000000000000E-002   -2.045348416199149E-031
 -3.610000000000000E-002   -3.620911991313653E-031
 -3.600000000000000E-002   -6.018378509036639E-031
 -3.590000000000000E-002   -9.316579070955887E-031
 -3.580000000000000E-002   -1.320914873170301E-030
 -3.570000000000000E-002   -1.652865224810442E-030
 -3.560000000000000E-002   -1.647023882447311E-030
 -3.550000000000000E-002   -7.451596094012386E-031
 -3.540000000000000E-002    2.037473446850398E-030
 -3.530000000000000E-002    8.276741871757722E-030
 -3.520000000000000E-002    2.027040417292143E-029
 -3.510000000000000E-002    4.103791686252326E-029
 -3.500000000000000E-002    7.402766002702836E-029
 -3.490000000000000E-002    1.222940141696406E-028
 -3.480000000000000E-002    1.868351202695453E-028
 -3.470000000000000E-002    2.637450510957087E-028
 -3.460000000000000E-002    3.398793824021076E-028
 -3.450000000000000E-002    3.869274981798704E-028
 -3.440000000000000E-002    3.542078775809956E-028
 -3.430000000000000E-002    1.612340812942656E-028
 -3.420000000000000E-002   -3.078075777045238E-028
 -3.410000000000000E-002   -1.204083761105586E-027
 -3.400000000000000E-002   -2.703389564889454E-027
 -3.390000000000000E-002   -4.977827966267985E-027
 -3.380000000000000E-002   -8.142059404802069E-027
 -3.370000000000000E-002   -1.216667928903610E-026
 -3.360000000000000E-002   -1.675408727894282E-026
 -3.350000000000000E-002   -2.117853797151919E-026
 -3.340000000000000E-002   -2.410304846880199E-026
 -3.330000000000000E-002   -2.340201126019634E-026
 -3.320000000000000E-002   -1.603961808049369E-026
 -3.310000000000000E-002    1.921345786631263E-027
 -3.300000000000000E-002    3.508176270126696E-026
 -3.290000000000000E-002    8.812370397513436E-026
 -3.280000000000000E-002    1.647658312640129E-025
 -3.270000000000000E-002    2.661646977006760E-025
 -3.260000000000000E-002    3.887338327229692E-025
 -3.250000000000000E-002    5.214669423109384E-025
 -3.240000000000000E-002    6.430211342241047E-025
 -3.230000000000000E-002    7.190401413844801E-025
 -3.220000000000000E-002    7.004585101843758E-025
 -3.210000000000000E-002    5.237927474303235E-025
 -3.200000000000000E-002    1.146366637293253E-025
 -3.190000000000000E-002   -6.043371759027707E-025
 -3.180000000000000E-002   -1.699708493160736E-024
 -3.170000000000000E-002   -3.207275286484927E-024
 -3.160000000000000E-002   -5.105831701774833E-024
 -3.150000000000000E-002   -7.286276932962817E-024
 -3.140000000000000E-002   -9.519374249903370E-024
 -3.130000000000000E-002   -1.142761197831441E-023
 -3.120000000000000E-002   -1.246885879357996E-023
 -3.110000000000000E-002   -1.194147524260056E-023
 -3.100000000000000E-002   -9.021669898223319E-024
 -3.090000000000000E-002   -2.843601710251596E-024
 -3.080000000000000E-002    7.369730122419009E-024
 -3.070000000000000E-002    2.212194426686067E-023
 -3.060000000000000E-002    4.141054852325249E-023
 -3.050000000000000E-002    6.446296320655896E-023
 -3.040000000000000E-002    8.947218777565186E-023
 -3.030000000000000E-002    1.133782193856077E-022
 -3.020000000000000E-002    1.317553966240656E-022
 -3.010000000000000E-002    1.388761274592966E-022
 -3.000000000000000E-002    1.280236332023049E-022
 -2.990000000000000E-002    9.211747077981788E-023
 -2.980000000000000E-002    2.469101005206821E-023
 -2.970000000000000E-002   -7.878182356574258E-023
 -2.960000000000000E-002   -2.192733201062625E-022
 -2.950000000000000E-002   -3.924406546449172E-022
 -2.940000000000000E-002   -5.869395077384771E-022
 -2.930000000000000E-002   -7.831191779082302E-022
 -2.920000000000000E-002   -9.524732187443541E-022
 -2.910000000000000E-002   -1.058253029682236E-021
 -2.900000000000000E-002   -1.057632178583304E-021
 -2.890000000000000E-002   -9.057175437262378E-022
 -2.880000000000000E-002   -5.615277619853669E-022
 -2.870000000000000E-002    4.206829167187750E-024
 -2.860000000000000E-002    7.999151274562523E-022
 -2.850000000000000E-002    1.803621527030152E-021
 -2.840000000000000E-002    2.954258226182130E-021
 -2.830000000000000E-002    4.145526150676625E-021
 -2.820000000000000E-002    5.224220342330094E-021
 -2.810000000000000E-002    5.994955979003657E-021
 -2.800000000000000E-002    6.232969244414245E-021
 -2.790000000000000E-002    5.706041645393581E-021
 -2.780000000000000E-002    4.205581577757145E-021
 -2.770000000000000E-002    1.585517364769822E-021
 -2.760000000000000E-002   -2.194005691817509E-021
 -2.750000000000000E-002   -7.022924017197361E-021
 -2.740000000000000E-002   -1.260402563102996E-020
 -2.730000000000000E-002   -1.842995452244277E-020
 -2.720000000000000E-002   -2.378272998507702E-020
 -2.710000000000000E-002   -2.776356840067635E-020
 -2.700000000000000E-002   -2.935891127950883E-020
 -2.690000000000000E-002   -2.754522653308287E-020
 -2.680000000000000E-002   -2.143024015920922E-020
 -2.670000000000000E-002   -1.042224479644015E-020
 -2.660000000000000E-002    5.587767060292558E-021
 -2.650000000000000E-002    2.605314782479798E-020
 -2.640000000000000E-002    4.963553153451809E-020
 -2.630000000000000E-002    7.413689774183594E-020
 -2.620000000000000E-002    9.653096117357907E-020
 -2.610000000000000E-002    1.131207025397576E-019
 -2.600000000000000E-002    1.198390191442878E-019
 -2.590000000000000E-002    1.126944221346952E-019
 -2.580000000000000E-002    8.834379208408201E-020
 -2.570000000000000E-002    4.475051266631739E-020
 -2.560000000000000E-002   -1.813776658245272E-020
 -2.550000000000000E-002   -9.778028974293500E-020
 -2.540000000000000E-002   -1.886080242888727E-019
 -2.530000000000000E-002   -2.818734447795873E-019
 -2.520000000000000E-002   -3.658895907586368E-019
 -2.510000000000000E-002   -4.267386408305503E-019
 -2.500000000000000E-002   -4.494889426569191E-019
 -2.490000000000000E-002   -4.199002826202558E-019
 -2.480000000000000E-002   -3.265250485118390E-019
 -2.470000000000000E-002   -1.630330801283978E-019
 -2.460000000000000E-002    6.948988475544933E-020
 -2.450000000000000E-002    3.605859058142578E-019
 -2.440000000000000E-002    6.891655737800427E-019
 -2.430000000000000E-002    1.023304405851387E-018
 -2.420000000000000E-002    1.321407234401433E-018
 -2.410000000000000E-002    1.534955456956276E-018
 -2.400000000000000E-002    1.612897492984566E-018
 -2.390000000000000E-002    1.507543047086937E-018
 -2.380000000000000E-002    1.181586363279180E-018
 -2.370000000000000E-002    6.156414167370285E-019
 -2.360000000000000E-002   -1.845541754683340E-019
 -2.350000000000000E-002   -1.182277544106699E-018
 -2.340000000000000E-002   -2.306392813757582E-018
 -2.330000000000000E-002   -3.451405625722292E-018
 -2.320000000000000E-002   -4.481859643474123E-018
 -2.310000000000000E-002   -5.241584298578717E-018
 -2.300000000000000E-002   -5.567816322343774E-018
 -2.290000000000000E-002   -5.309596793568636E-018
 -2.280000000000000E-002   -4.349167310810837E-018
 -2.270000000000000E-002   -2.624409016639265E-018
 -2.260000000000000E-002   -1.497880640162707E-019
 -2.250000000000000E-002    2.967129549950711E-018
 -2.240000000000000E-002    6.516646539225579E-018
 -2.230000000000000E-002    1.018820125978100E-017
 -2.220000000000000E-002    1.358409454907617E-017
 -2.210000000000000E-002    1.624678956955359E-017
 -2.200000000000000E-002    1.769947277474156E-017
 -2.190000000000000E-002    1.749786689194136E-017
 -2.180000000000000E-002    1.528948999513981E-017
 -2.170000000000000E-002    1.087483965008100E-017
 -2.160000000000000E-002    4.263586962727880E-018
 -2.150000000000000E-002   -4.281969822296544E-018
 -2.140000000000000E-002   -1.422400353855128E-017
 -2.130000000000000E-002   -2.475374161572612E-017
 -2.120000000000000E-002   -3.482857000994744E-017
 -2.110000000000000E-002   -4.324384112415635E-017
 -2.100000000000000E-002   -4.873778470676458E-017
 -2.090000000000000E-002   -5.012381595491995E-017
 -2.080000000000000E-002   -4.644001594454550E-017
 -2.070000000000000E-002   -3.710170943589360E-017
 -2.060000000000000E-002   -2.203990666262714E-017
 -2.050000000000000E-002   -1.806904492167737E-018
 -2.040000000000000E-002    2.236939795761479E-017
 -2.030000000000000E-002    4.859818209902233E-017
 -2.020000000000000E-002    7.441637417747862E-017
 -2.010000000000000E-002    9.696081233777792E-017
 -2.000000000000000E-002    1.132170417240724E-016
 -1.990000000000000E-002    1.203296493764057E-016
 -1.980000000000000E-002    1.159496880998589E-016
 -1.970000000000000E-002    9.858575918243512E-017
 -1.960000000000000E-002    6.791953925259542E-017
 -1.950000000000000E-002    2.504342321410562E-017
 -1.940000000000000E-002   -2.741973227311982E-017
 -1.930000000000000E-002   -8.534878532707708E-017
 -1.920000000000000E-002   -1.433298873522131E-016
 -1.910000000000000E-002   -1.950416721155494E-016
 -1.900000000000000E-002   -2.338061463814269E-016
 -1.890000000000000E-002   -2.532705481369409E-016
 -1.880000000000000E-002   -2.481653472577842E-016
 -1.870000000000000E-002   -2.150655310931522E-016
 -1.860000000000000E-002   -1.530709886766571E-016
 -1.850000000000000E-002   -6.431706821696285E-017
 -1.840000000000000E-002    4.576844748818043E-017
 -1.830000000000000E-002    1.685299042438365E-016
 -1.820000000000000E-002    2.925137735389760E-016
 -1.810000000000000E-002    4.042727797697439E-016
 -1.800000000000000E-002    4.895144061403769E-016
 -1.790000000000000E-002    5.345202485691053E-016
 -1.780000000000000E-002    5.277232805488937E-016
 -1.770000000000000E-002    4.612954501329702E-016
 -1.760000000000000E-002    3.325753460465627E-016
 -1.750000000000000E-002    1.451591809498971E-016
 -1.740000000000000E-002   -9.051228843333028E-017
 -1.730000000000000E-002   -3.572063168110913E-016
 -1.720000000000000E-002   -6.316779850616988E-016
 -1.710000000000000E-002   -8.861978057624862E-016
 -1.700000000000000E-002   -1.090772773875710E-015
 -1.690000000000000E-002   -1.215926742635320E-015
 -1.680000000000000E-002   -1.235826484894871E-015
 -1.670000000000000E-002   -1.131476697154845E-015
 -1.660000000000000E-002   -8.936635411093768E-016
 -1.650000000000000E-002   -5.253096400942650E-016
 -1.640000000000000E-002   -4.292042415790266E-017
 -1.630000000000000E-002    5.231451252435355E-016
 -1.620000000000000E-002    1.129762589198774E-015
 -1.610000000000000E-002    1.723554778439966E-015
 -1.600000000000000E-002    2.244760091716297E-015
 -1.590000000000000E-002    2.632243487354190E-015
 -1.580000000000000E-002    2.829295103580496E-015
 -1.570000000000000E-002    2.789742046258292E-015
 -1.560000000000000E-002    2.483810940468549E-015
 -1.550000000000000E-002    1.903136247977704E-015
 -1.540000000000000E-002    1.064322337778999E-015
 -1.530000000000000E-002    1.054033150292785E-017
 -1.520000000000000E-002   -1.189224643201419E-015
 -1.510000000000000E-002   -2.443486829796493E-015
 -1.500000000000000E-002   -3.644106401909121E-015
 -1.490000000000000E-002   -4.674416842499172E-015
 -1.480000000000000E-002   -5.419114538123115E-015
 -1.470000000000000E-002   -5.775183921913471E-015
 -1.460000000000000E-002   -5.662941787147175E-015
 -1.450000000000000E-002   -5.036183668687188E-015
 -1.440000000000000E-002   -3.890380684442681E-015
 -1.430000000000000E-002   -2.267944990602911E-015
 -1.420000000000000E-002   -2.597488788710530E-016
 -1.410000000000000E-002    1.997659129558930E-015
 -1.400000000000000E-002    4.329373200229683E-015
 -1.390000000000000E-002    6.533789407906280E-015
 -1.380000000000000E-002    8.398049182335480E-015
 -1.370000000000000E-002    9.716252227264834E-015
 -1.360000000000000E-002    1.030908165051729E-014
 -1.350000000000000E-002    1.004322232154403E-014
 -1.340000000000000E-002    8.848754619761149E-015
 -1.330000000000000E-002    6.732746524751619E-015
 -1.320000000000000E-002    3.787326088881555E-015
 -1.310000000000000E-002    1.909320590697182E-016
 -1.300000000000000E-002   -3.798200163840329E-015
 -1.290000000000000E-002   -7.856601638742130E-015
 -1.280000000000000E-002   -1.161775801253864E-014
 -1.270000000000000E-002   -1.470086678465394E-014
 -1.260000000000000E-002   -1.674422415528350E-014
 -1.250000000000000E-002   -1.744081305686489E-014
 -1.240000000000000E-002   -1.657306568180327E-014
 -1.230000000000000E-002   -1.404354703485500E-014
 -1.220000000000000E-002   -9.898230543620096E-015
 -1.210000000000000E-002   -4.339343328064842E-015
 -1.200000000000000E-002    2.274658711268389E-015
 -1.190000000000000E-002    9.443624953313122E-015
 -1.180000000000000E-002    1.655516201213528E-014
 -1.170000000000000E-002    2.292815363359874E-014
 -1.160000000000000E-002    2.786804231184615E-014
 -1.150000000000000E-002    3.073029398708955E-014
 -1.140000000000000E-002    3.098707966655541E-014
 -1.130000000000000E-002    2.829139953765484E-014
 -1.120000000000000E-002    2.253233371541506E-014
 -1.110000000000000E-002    1.387503971779449E-014
 -1.100000000000000E-002    2.779832679512068E-015
 -1.090000000000000E-002   -1.000406840275181E-014
 -1.080000000000000E-002   -2.347291223486401E-014
 -1.070000000000000E-002   -3.643116337861884E-014
 -1.060000000000000E-002   -4.758034562689883E-014
 -1.050000000000000E-002   -5.562891495170824E-014
 -1.040000000000000E-002   -5.941537744288232E-014
 -1.030000000000000E-002   -5.803469735940553E-014
 -1.020000000000000E-002   -5.095635887254904E-014
 -1.010000000000000E-002   -3.812186111967730E-014
 -1.000000000000000E-002   -2.000954292597904E-014
 -9.899999999999999E-003    2.343052737990786E-015
 -9.800000000000000E-003    2.736733164316725E-014
 -9.699999999999999E-003    5.304538792173372E-014
 -9.599999999999999E-003    7.704437209268458E-014
 -9.500000000000000E-003    9.689710664282614E-014
 -9.399999999999999E-003    1.102174424387633E-013
 -9.299999999999999E-003    1.149339963215952E-013
 -9.200000000000000E-003    1.095222950935553E-013
 -9.099999999999999E-003    9.321324861381927E-014
 -8.999999999999999E-003    6.615518573381484E-014
 -8.900000000000000E-003    2.950914397278689E-014
 -8.799999999999999E-003   -1.453958924685237E-014
 -8.699999999999999E-003   -6.286414444087458E-014
 -8.600000000000000E-003   -1.115754396556894E-013
 -8.499999999999999E-003   -1.562924745883732E-013
 -8.399999999999999E-003   -1.924880270880119E-013
 -8.300000000000000E-003   -2.158853397348971E-013
 -8.199999999999999E-003   -2.228745871688906E-013
 -8.100000000000000E-003   -2.109120981798466E-013
 -8.000000000000000E-003   -1.788640813926020E-013
 -7.899999999999999E-003   -1.272570509039993E-013
 -7.800000000000000E-003   -5.840280430405199E-014
 -7.699999999999999E-003    2.362591988275588E-014
 -7.599999999999999E-003    1.131800852479527E-013
 -7.499999999999999E-003    2.033792399320691E-013
 -7.399999999999999E-003    2.865982189783787E-013
 -7.299999999999999E-003    3.550651465820405E-013
 -7.199999999999999E-003    4.015262112714485E-013
 -7.100000000000000E-003    4.199229252161898E-013
 -6.999999999999999E-003    4.060222094710541E-013
 -6.899999999999999E-003    3.579386631526768E-013
 -6.800000000000000E-003    2.764942832044883E-013
 -6.699999999999999E-003    1.653697761683477E-013
 -6.599999999999999E-003    3.101921157243716E-014
 -6.499999999999999E-003   -1.176624428730096E-013
 -6.399999999999999E-003   -2.699085662764018E-013
 -6.299999999999999E-003   -4.138525150852731E-013
 -6.199999999999999E-003   -5.374490774274524E-013
 -6.100000000000000E-003   -6.294745694817359E-013
 -5.999999999999999E-003   -6.805242046926603E-013
 -5.899999999999999E-003   -6.839198723070001E-013
 -5.800000000000000E-003   -6.364427729787091E-013
 -5.699999999999999E-003   -5.388191089039815E-013
 -5.599999999999999E-003   -3.958975162192912E-013
 -5.499999999999999E-003   -2.164884639295006E-013
 -5.399999999999999E-003   -1.285524366351349E-014
 -5.299999999999999E-003    2.001180244656428E-013
 -5.199999999999999E-003    4.060314839898761E-013
 -5.099999999999999E-003    5.882697683483286E-013
 -4.999999999999999E-003    7.313954655867061E-013
 -4.899999999999999E-003    8.225282472337702E-013
 -4.799999999999999E-003    8.525868559089622E-013
 -4.699999999999999E-003    8.172827034375563E-013
 -4.599999999999999E-003    7.177637261559965E-013
 -4.499999999999999E-003    5.608338365874042E-013
 -4.399999999999999E-003    3.586968490509281E-013
 -4.299999999999999E-003    1.282153771955995E-013
 -4.199999999999999E-003   -1.102865284967909E-013
 -4.099999999999999E-003   -3.346135154699196E-013
 -3.999999999999999E-003   -5.225771453280960E-013
 -3.899999999999999E-003   -6.540257517902626E-013
 -3.799999999999999E-003   -7.128726621663274E-013
 -3.699999999999999E-003   -6.889401305312988E-013
 -3.599999999999999E-003   -5.794630632966688E-013
 -3.499999999999999E-003   -3.900731115417676E-013
 -3.399999999999999E-003   -1.351358457689391E-013
 -3.299999999999999E-003    1.626573537006269E-013
 -3.199999999999999E-003    4.734938231035907E-013
 -3.099999999999999E-003    7.624308714769078E-013
 -2.999999999999999E-003    9.920932482914749E-013
 -2.899999999999999E-003    1.125932039562355E-012
 -2.799999999999999E-003    1.131842739818780E-012
 -2.699999999999999E-003    9.858532500437834E-013
 -2.599999999999999E-003    6.756014379631522E-013
 -2.499999999999999E-003    2.032322284685192E-013
 -2.399999999999999E-003   -4.125968257895934E-013
 -2.299999999999999E-003   -1.135924832726092E-012
 -2.199999999999999E-003   -1.914150535956162E-012
 -2.099999999999999E-003   -2.680310128492008E-012
 -1.999999999999999E-003   -3.357007754802698E-012
 -1.899999999999999E-003   -3.861893546360279E-012
 -1.799999999999999E-003   -4.114435695221629E-012
 -1.699999999999999E-003   -4.043564394517548E-012
 -1.599999999999999E-003   -3.595644498101963E-012
 -1.499999999999999E-003   -2.742095141896963E-012
 -1.399999999999999E-003   -1.485908060732131E-012
 -1.299999999999999E-003    1.336739012368285E-013
 -1.199999999999999E-003    2.039040875231242E-012
 -1.099999999999999E-003    4.115228440695972E-012
 -9.999999999999989E-004    6.214430708404022E-012
 -8.999999999999990E-004    8.164114232485385E-012
 -7.999999999999990E-004    9.778525865276092E-012
 -6.999999999999989E-004    1.087302713838302E-011
 -5.999999999999990E-004    1.128035407803224E-011
 -4.999999999999989E-004    1.086758683206883E-011
 -3.999999999999989E-004    9.552382292788913E-012
 -2.999999999999989E-004    7.316902729671753E-012
 -1.999999999999989E-004    4.217835519700417E-012
 -9.999999999999892E-005    3.911144106278120E-013
  1.084202172485504E-018   -3.949805416029183E-012
  1.000000000000011E-004   -8.522754868737886E-012
  2.000000000000011E-004   -1.299281966936506E-011
  3.000000000000011E-004   -1.699490348387337E-011
  4.000000000000011E-004   -2.016159116814570E-011
  5.000000000000011E-004   -2.215438257507810E-011
  6.000000000000011E-004   -2.269585367302098E-011
  7.000000000000011E-004   -2.159985343451474E-011
  8.000000000000011E-004   -1.879680328519329E-011
  9.000000000000012E-004   -1.435119095482249E-011
  1.000000000000001E-003   -8.468858837698813E-012
  1.100000000000001E-003   -1.492360464155022E-012
  1.200000000000001E-003    6.116406927209264E-012
  1.300000000000001E-003    1.380591378231588E-011
  1.400000000000001E-003    2.097549596272458E-011
  1.500000000000001E-003    2.702385750986617E-011
  1.600000000000001E-003    3.140179821795555E-011
  1.700000000000001E-003    3.366453869105510E-011
  1.800000000000001E-003    3.351871969559258E-011
  1.900000000000001E-003    3.085910310905794E-011
  2.000000000000001E-003    2.579063596930109E-011
  2.100000000000001E-003    1.863249150272995E-011
  2.200000000000001E-003    9.902242006210745E-012
  2.300000000000001E-003    2.800741154667317E-013
  2.400000000000001E-003   -9.445060445302849E-012
  2.500000000000001E-003   -1.844357550211741E-011
  2.600000000000001E-003   -2.592193073036872E-011
  2.700000000000001E-003   -3.120103120671557E-011
  2.800000000000001E-003   -3.378861178528556E-011
  2.900000000000001E-003   -3.343776939149182E-011
  3.000000000000001E-003   -3.018475212303991E-011
  3.100000000000001E-003   -2.436040886300735E-011
  3.200000000000001E-003   -1.657211241671023E-011
  3.300000000000001E-003   -7.655647770837157E-012
  3.400000000000001E-003    1.400390870264646E-012
  3.500000000000001E-003    9.551967137030689E-012
  3.600000000000001E-003    1.581038446089358E-011
  3.700000000000001E-003    1.935585394233191E-011
  3.800000000000001E-003    1.964209939785071E-011
  3.900000000000001E-003    1.648005210915916E-011
  4.000000000000001E-003    1.008983067798731E-011
  4.100000000000001E-003    1.112534996655379E-012
  4.200000000000001E-003   -9.423121042147970E-012
  4.300000000000001E-003   -2.018011930084894E-011
  4.400000000000001E-003   -2.963427312947926E-011
  4.500000000000001E-003   -3.622844019442276E-011
  4.600000000000002E-003   -3.854656242588826E-011
  4.700000000000001E-003   -3.549111164849200E-011
  4.800000000000001E-003   -2.644532105418457E-011
  4.900000000000002E-003   -1.140171651547851E-011
  5.000000000000001E-003    8.960263240960327E-012
  5.100000000000001E-003    3.326090047214179E-011
  5.200000000000001E-003    5.947913081908774E-011
  5.300000000000002E-003    8.508530886854868E-011
  5.400000000000001E-003    1.072417863175213E-010
  5.500000000000001E-003    1.230578074040074E-010
  5.600000000000002E-003    1.298784370735666E-010
  5.700000000000001E-003    1.255818874845475E-010
  5.800000000000001E-003    1.088561203899701E-010
  5.900000000000002E-003    7.942511680156442E-011
  6.000000000000001E-003    3.819748377086945E-011
  6.100000000000001E-003   -1.268506005393536E-011
  6.200000000000002E-003   -6.991349973570305E-011
  6.300000000000002E-003   -1.291962530336342E-010
  6.400000000000001E-003   -1.855559972249624E-010
  6.500000000000001E-003   -2.337201799026996E-010
  6.600000000000002E-003   -2.685763185838411E-010
  6.700000000000001E-003   -2.856544651379405E-010
  6.800000000000001E-003   -2.815931313570077E-010
  6.900000000000002E-003   -2.545436782857793E-010
  7.000000000000001E-003   -2.044697987885900E-010
  7.100000000000001E-003   -1.333059429962546E-010
  7.200000000000002E-003   -4.494888156269763E-011
  7.300000000000002E-003    5.492922848780855E-011
  7.400000000000001E-003    1.592420028514586E-010
  7.500000000000001E-003    2.600029999234367E-010
  7.600000000000002E-003    3.489558756809575E-010
  7.700000000000001E-003    4.182698444632196E-010
  7.800000000000001E-003    4.612406740940601E-010
  7.900000000000001E-003    4.729330303977595E-010
  8.000000000000002E-003    4.507010540646651E-010
  8.100000000000001E-003    3.945327645282525E-010
  8.200000000000001E-003    3.071765043419986E-010
  8.300000000000002E-003    1.940264120235582E-010
  8.400000000000001E-003    6.276515922164561E-011
  8.500000000000002E-003   -7.721462151325511E-011
  8.600000000000002E-003   -2.155668082717557E-010
  8.700000000000001E-003   -3.418630171462110E-010
  8.800000000000002E-003   -4.465023861609702E-010
  8.900000000000002E-003   -5.215751424773433E-010
  9.000000000000001E-003   -5.615961189061040E-010
  9.100000000000002E-003   -5.640330383393718E-010
  9.200000000000002E-003   -5.295705796983325E-010
  9.300000000000001E-003   -4.620746223534773E-010
  9.400000000000002E-003   -3.682484761942035E-010
  9.500000000000001E-003   -2.570031419034433E-010
  9.600000000000001E-003   -1.385932844442536E-010
  9.700000000000002E-003   -2.359579117278687E-011
  9.800000000000001E-003    7.817242578363203E-011
  9.900000000000001E-003    1.586894285919115E-010
  1.000000000000000E-002    2.126087091991469E-010
  1.010000000000000E-002    2.378864065770145E-010
  1.020000000000000E-002    2.360785132579540E-010
  1.030000000000000E-002    2.122596862319884E-010
  1.040000000000000E-002    1.745518353194523E-010
  1.050000000000000E-002    1.332896136463776E-010
  1.060000000000000E-002    9.988859097796652E-011
  1.070000000000000E-002    8.551637131094447E-011
  1.080000000000000E-002    9.969285692854709E-011
  1.090000000000000E-002    1.489618420643880E-010
  1.100000000000000E-002    2.357762536799838E-010
  1.110000000000000E-002    3.577296744316637E-010
  1.120000000000000E-002    5.072382735909343E-010
  1.130000000000000E-002    6.717405135415001E-010
  1.140000000000000E-002    8.344348207382062E-010
  1.150000000000000E-002    9.755232254503012E-010
  1.160000000000000E-002    1.073877011010539E-009
  1.170000000000000E-002    1.108994619701158E-009
  1.180000000000000E-002    1.063083644544708E-009
  1.190000000000000E-002    9.230783276174447E-010
  1.200000000000000E-002    6.823947160872755E-010
  1.210000000000000E-002    3.422426828710822E-010
  1.220000000000000E-002   -8.765836509117042E-011
  1.230000000000000E-002   -5.890638024321321E-010
  1.240000000000000E-002   -1.135933221206306E-009
  1.250000000000000E-002   -1.695882317075328E-009
  1.260000000000000E-002   -2.232265382805537E-009
  1.270000000000000E-002   -2.706736218808212E-009
  1.280000000000000E-002   -3.082079349570503E-009
  1.290000000000000E-002   -3.325073475602091E-009
  1.300000000000000E-002   -3.409131550466869E-009
  1.310000000000000E-002   -3.316477785180199E-009
  1.320000000000000E-002   -3.039649521114072E-009
  1.330000000000000E-002   -2.582172340081834E-009
  1.340000000000000E-002   -1.958327516296287E-009
  1.350000000000000E-002   -1.192013331644634E-009
  1.360000000000000E-002   -3.147895713427985E-010
  1.370000000000000E-002    6.367231969231047E-010
  1.380000000000000E-002    1.623852508518869E-009
  1.390000000000000E-002    2.609002183494289E-009
  1.400000000000000E-002    3.558592475766262E-009
  1.410000000000000E-002    4.445509893964283E-009
  1.420000000000000E-002    5.250803617568822E-009
  1.430000000000000E-002    5.964429260117590E-009
  1.440000000000000E-002    6.584931731078725E-009
  1.450000000000000E-002    7.118061186129039E-009
  1.460000000000000E-002    7.574422424224277E-009
  1.470000000000000E-002    7.966374707862024E-009
  1.480000000000000E-002    8.304476022746723E-009
  1.490000000000000E-002    8.593842367221575E-009
  1.500000000000000E-002    8.830825979250233E-009
  1.510000000000000E-002    9.000413134973480E-009
  1.520000000000000E-002    9.074699596794800E-009
  1.530000000000000E-002    9.012730820133639E-009
  1.540000000000000E-002    8.761883987333542E-009
  1.550000000000000E-002    8.260833146650752E-009
  1.560000000000000E-002    7.444002096100512E-009
  1.570000000000000E-002    6.247277298430761E-009
  1.580000000000000E-002    4.614602112696594E-009
  1.590000000000000E-002    2.505013351434659E-009
  1.600000000000000E-002   -1.004245201609311E-010
  1.610000000000000E-002   -3.192285367155485E-009
  1.620000000000000E-002   -6.727598119895226E-009
  1.630000000000000E-002   -1.062619578915943E-008
  1.640000000000000E-002   -1.476892687433985E-008
  1.650000000000000E-002   -1.899784973972086E-008
  1.660000000000000E-002   -2.311842237839479E-008
  1.670000000000000E-002   -2.690343421311785E-008
  1.680000000000000E-002   -3.009838024112328E-008
  1.690000000000000E-002   -3.242771322630375E-008
  1.700000000000000E-002   -3.360145835608011E-008
  1.710000000000000E-002   -3.332148560202277E-008
  1.720000000000000E-002   -3.128687903211817E-008
  1.730000000000000E-002   -2.719786344183078E-008
  1.740000000000000E-002   -2.075784259586814E-008
  1.750000000000000E-002   -1.167339705287702E-008
  1.760000000000000E-002    3.479086499427383E-010
  1.770000000000000E-002    1.560160181881733E-008
  1.780000000000000E-002    3.439199077222755E-008
  1.790000000000000E-002    5.703884241711383E-008
  1.800000000000000E-002    8.388451523738620E-008
  1.810000000000000E-002    1.153005742288408E-007
  1.820000000000000E-002    1.516935498548994E-007
  1.830000000000000E-002    1.935087598506902E-007
  1.840000000000000E-002    2.412320963827647E-007
  1.850000000000000E-002    2.953891332054455E-007
  1.860000000000000E-002    3.565418857074094E-007
  1.870000000000000E-002    4.252830704304753E-007