 -4.000000000000000E-002    0.000000000000000E+000
 -3.990000000000000E-002    0.000000000000000E+000
 -3.980000000000000E-002    0.000000000000000E+000
 -3.970000000000000E-002    0.000000000000000E+000
 -3.960000000000000E-002    0.000000000000000E+000
 -3.950000000000000E-002    0.000000000000000E+000
 -3.940000000000000E-002    0.000000000000000E+000
 -3.930000000000000E-002    0.000000000000000E+000
 -3.920000000000000E-002    0.000000000000000E+000
 -3.910000000000000E-002    0.000000000000000E+000
 -3.900000000000000E-002    0.000000000000000E+000
 -3.890000000000000E-002    0.000000000000000E+000
 -3.880000000000000E-002    0.000000000000000E+000
 -3.870000000000000E-002    0.000000000000000E+000
 -3.860000000000000E-002    0.000000000000000E+000
 -3.850000000000000E-002    0.000000000000000E+000
 -3.840000000000000E-002    0.000000000000000E+000
 -3.830000000000000E-002    0.000000000000000E+000
 -3.820000000000000E-002    0.000000000000000E+000
 -3.810000000000000E-002    0.000000000000000E+000
 -3.800000000000000E-002    0.000000000000000E+000
 -3.790000000000000E-002    0.000000000000000E+000
 -3.780000000000000E-002    0.000000000000000E+000
 -3.770000000000000E-002    0.000000000000000E+000
 -3.760000000000000E-002    0.000000000000000E+000
 -3.750000000000000E-002    0.000000000000000E+000
 -3.740000000000000E-002    0.000000000000000E+000
 -3.730000000000000E-002    0.000000000000000E+000
 -3.720000000000000E-002    0.000000000000000E+000
 -3.710000000000000E-002    0.000000000000000E+000
 -3.700000000000000E-002    0.000000000000000E+000
 -3.690000000000000E-002    0.000000000000000E+000
 -3.680000000000000E-002    0.000000000000000E+000
 -3.670000000000000E-002    0.000000000000000E+000
 -3.660000000000000E-002    0.000000000000000E+000
 -3.650000000000000E-002    0.000000000000000E+000
 -3.640000000000000E-002    0.000000000000000E+000
 -3.630000000000000E-002    0.000000000000000E+000
 -3.620000000000000E-002    0.000000000000000E+000
 -3.610000000000000E-002    0.000000000000000E+000
 -3.600000000000000E-002    0.000000000000000E+000
 -3.590000000000000E-002    0.000000000000000E+000
 -3.580000000000000E-002    0.000000000000000E+000
 -3.570000000000000E-002    0.000000000000000E+000
 -3.560000000000000E-002    0.000000000000000E+000
 -3.550000000000000E-002    0.000000000000000E+000
 -3.540000000000000E-002    0.000000000000000E+000
 -3.530000000000000E-002    0.000000000000000E+000
 -3.520000000000000E-002    0.000000000000000E+000
 -3.510000000000000E-002    0.000000000000000E+000
 -3.500000000000000E-002    0.000000000000000E+000
 -3.490000000000000E-002    0.000000000000000E+000
 -3.480000000000000E-002    0.000000000000000E+000
 -3.470000000000000E-002    0.000000000000000E+000
 -3.460000000000000E-002    0.000000000000000E+000
 -3.450000000000000E-002    0.000000000000000E+000
 -3.440000000000000E-002    0.000000000000000E+000
 -3.430000000000000E-002    0.000000000000000E+000
 -3.420000000000000E-002    0.000000000000000E+000
 -3.410000000000000E-002    0.000000000000000E+000
 -3.400000000000000E-002    0.000000000000000E+000
 -3.390000000000000E-002    0.000000000000000E+000
 -3.380000000000000E-002    0.000000000000000E+000
 -3.370000000000000E-002    0.000000000000000E+000
 -3.360000000000000E-002    0.000000000000000E+000
 -3.350000000000000E-002    0.000000000000000E+000
 -3.340000000000000E-002    0.000000000000000E+000
 -3.330000000000000E-002    0.000000000000000E+000
 -3.320000000000000E-002    0.000000000000000E+000
 -3.310000000000000E-002    0.000000000000000E+000
 -3.300000000000000E-002    0.000000000000000E+000
 -3.290000000000000E-002    0.000000000000000E+000
 -3.280000000000000E-002    0.000000000000000E+000
 -3.270000000000000E-002    0.000000000000000E+000
 -3.260000000000000E-002    0.000000000000000E+000
 -3.250000000000000E-002    0.000000000000000E+000
 -3.240000000000000E-002    0.000000000000000E+000
 -3.230000000000000E-002    0.000000000000000E+000
 -3.220000000000000E-002    0.000000000000000E+000
 -3.210000000000000E-002    0.000000000000000E+000
 -3.200000000000000E-002    0.000000000000000E+000
 -3.190000000000000E-002    0.000000000000000E+000
 -3.180000000000000E-002    0.000000000000000E+000
 -3.170000000000000E-002    0.000000000000000E+000
 -3.160000000000000E-002    0.000000000000000E+000
 -3.150000000000000E-002    0.000000000000000E+000
 -3.140000000000000E-002    0.000000000000000E+000
 -3.130000000000000E-002    0.000000000000000E+000
 -3.120000000000000E-002    0.000000000000000E+000
 -3.110000000000000E-002    0.000000000000000E+000
 -3.100000000000000E-002    0.000000000000000E+000
 -3.090000000000000E-002    0.000000000000000E+000
 -3.080000000000000E-002    0.000000000000000E+000
 -3.070000000000000E-002    0.000000000000000E+000
 -3.060000000000000E-002    0.000000000000000E+000
 -3.050000000000000E-002    0.000000000000000E+000
 -3.040000000000000E-002    0.000000000000000E+000
 -3.030000000000000E-002    0.000000000000000E+000
 -3.020000000000000E-002    0.000000000000000E+000
 -3.010000000000000E-002    0.000000000000000E+000
 -3.000000000000000E-002    0.000000000000000E+000
 -2.990000000000000E-002    0.000000000000000E+000
 -2.980000000000000E-002    0.000000000000000E+000
 -2.970000000000000E-002    0.000000000000000E+000
 -2.960000000000000E-002    0.000000000000000E+000
 -2.950000000000000E-002    0.000000000000000E+000
 -2.940000000000000E-002    0.000000000000000E+000
 -2.930000000000000E-002    0.000000000000000E+000
 -2.920000000000000E-002    0.000000000000000E+000
 -2.910000000000000E-002    0.000000000000000E+000
 -2.900000000000000E-002    0.000000000000000E+000
 -2.890000000000000E-002    0.000000000000000E+000
 -2.880000000000000E-002    0.000000000000000E+000
 -2.870000000000000E-002    0.000000000000000E+000
 -2.860000000000000E-002    0.000000000000000E+000
 -2.850000000000000E-002    0.000000000000000E+000
 -2.840000000000000E-002    0.000000000000000E+000
 -2.830000000000000E-002    0.000000000000000E+000
 -2.820000000000000E-002    0.000000000000000E+000
 -2.810000000000000E-002    0.000000000000000E+000
 -2.800000000000000E-002    0.000000000000000E+000
 -2.790000000000000E-002    0.000000000000000E+000
 -2.780000000000000E-002    0.000000000000000E+000
 -2.770000000000000E-002    0.000000000000000E+000
 -2.760000000000000E-002    0.000000000000000E+000
 -2.750000000000000E-002    0.000000000000000E+000
 -2.740000000000000E-002    0.000000000000000E+000
 -2.730000000000000E-002    0.000000000000000E+000
 -2.720000000000000E-002    0.000000000000000E+000
 -2.710000000000000E-002    0.000000000000000E+000
 -2.700000000000000E-002    0.000000000000000E+000
 -2.690000000000000E-002    0.000000000000000E+000
 -2.680000000000000E-002    0.000000000000000E+000
 -2.670000000000000E-002    0.000000000000000E+000
 -2.660000000000000E-002    0.000000000000000E+000
 -2.650000000000000E-002    0.000000000000000E+000
 -2.640000000000000E-002    0.000000000000000E+000
 -2.630000000000000E-002    0.000000000000000E+000
 -2.620000000000000E-002    0.000000000000000E+000
 -2.610000000000000E-002    0.000000000000000E+000
 -2.600000000000000E-002    0.000000000000000E+000
 -2.590000000000000E-002    0.000000000000000E+000
 -2.580000000000000E-002    0.000000000000000E+000
 -2.570000000000000E-002    0.000000000000000E+000
 -2.560000000000000E-002    0.000000000000000E+000
 -2.550000000000000E-002    0.000000000000000E+000
 -2.540000000000000E-002    0.000000000000000E+000
 -2.530000000000000E-002    0.000000000000000E+000
 -2.520000000000000E-002    0.000000000000000E+000
 -2.510000000000000E-002    0.000000000000000E+000
 -2.500000000000000E-002    0.000000000000000E+000
 -2.490000000000000E-002    0.000000000000000E+000
 -2.480000000000000E-002    0.000000000000000E+000
 -2.470000000000000E-002    0.000000000000000E+000
 -2.460000000000000E-002    0.000000000000000E+000
 -2.450000000000000E-002    0.000000000000000E+000
 -2.440000000000000E-002    0.000000000000000E+000
 -2.430000000000000E-002    0.000000000000000E+000
 -2.420000000000000E-002    0.000000000000000E+000
 -2.410000000000000E-002    0.000000000000000E+000
 -2.400000000000000E-002    0.000000000000000E+000
 -2.390000000000000E-002    0.000000000000000E+000
 -2.380000000000000E-002    0.000000000000000E+000
 -2.370000000000000E-002    0.000000000000000E+000
 -2.360000000000000E-002    0.000000000000000E+000
 -2.350000000000000E-002    0.000000000000000E+000
 -2.340000000000000E-002    0.000000000000000E+000
 -2.330000000000000E-002    0.000000000000000E+000
 -2.320000000000000E-002    0.000000000000000E+000
 -2.310000000000000E-002    0.000000000000000E+000
 -2.300000000000000E-002    0.000000000000000E+000
 -2.290000000000000E-002    0.000000000000000E+000
 -2.280000000000000E-002    0.000000000000000E+000
 -2.270000000000000E-002    0.000000000000000E+000
 -2.260000000000000E-002    0.000000000000000E+000
 -2.250000000000000E-002    0.000000000000000E+000
 -2.240000000000000E-002    0.000000000000000E+000
 -2.230000000000000E-002    0.000000000000000E+000
 -2.220000000000000E-002    0.000000000000000E+000
 -2.210000000000000E-002    0.000000000000000E+000
 -2.200000000000000E-002    0.000000000000000E+000
 -2.190000000000000E-002    0.000000000000000E+000
 -2.180000000000000E-002    0.000000000000000E+000
 -2.170000000000000E-002    0.000000000000000E+000
 -2.160000000000000E-002    0.000000000000000E+000
 -2.150000000000000E-002    0.000000000000000E+000
 -2.140000000000000E-002    0.000000000000000E+000
 -2.130000000000000E-002    0.000000000000000E+000
 -2.120000000000000E-002    0.000000000000000E+000
 -2.110000000000000E-002    0.000000000000000E+000
 -2.100000000000000E-002    0.000000000000000E+000
 -2.090000000000000E-002    0.000000000000000E+000
 -2.080000000000000E-002    0.000000000000000E+000
 -2.070000000000000E-002    0.000000000000000E+000
 -2.060000000000000E-002    0.000000000000000E+000
 -2.050000000000000E-002    0.000000000000000E+000
 -2.040000000000000E-002    0.000000000000000E+000
 -2.030000000000000E-002    0.000000000000000E+000
 -2.020000000000000E-002    0.000000000000000E+000
 -2.010000000000000E-002    0.000000000000000E+000
 -2.000000000000000E-002    0.000000000000000E+000
 -1.990000000000000E-002    0.000000000000000E+000
 -1.980000000000000E-002    0.000000000000000E+000
 -1.970000000000000E-002    0.000000000000000E+000
 -1.960000000000000E-002    0.000000000000000E+000
 -1.950000000000000E-002    0.000000000000000E+000
 -1.940000000000000E-002    0.000000000000000E+000
 -1.930000000000000E-002    0.000000000000000E+000
 -1.920000000000000E-002    0.000000000000000E+000
 -1.910000000000000E-002    0.000000000000000E+000
 -1.900000000000000E-002    0.000000000000000E+000
 -1.890000000000000E-002    0.000000000000000E+000
 -1.880000000000000E-002    0.000000000000000E+000
 -1.870000000000000E-002    0.000000000000000E+000
 -1.860000000000000E-002    0.000000000000000E+000
 -1.850000000000000E-002    0.000000000000000E+000
 -1.840000000000000E-002    0.000000000000000E+000
 -1.830000000000000E-002    0.000000000000000E+000
 -1.820000000000000E-002    0.000000000000000E+000
 -1.810000000000000E-002    0.000000000000000E+000
 -1.800000000000000E-002    0.000000000000000E+000
 -1.790000000000000E-002    0.000000000000000E+000
 -1.780000000000000E-002    0.000000000000000E+000
 -1.770000000000000E-002    0.000000000000000E+000
 -1.760000000000000E-002    0.000000000000000E+000
 -1.750000000000000E-002    0.000000000000000E+000
 -1.740000000000000E-002    0.000000000000000E+000
 -1.730000000000000E-002    0.000000000000000E+000
 -1.720000000000000E-002    0.000000000000000E+000
 -1.710000000000000E-002    0.000000000000000E+000
 -1.700000000000000E-002    0.000000000000000E+000
 -1.690000000000000E-002    0.000000000000000E+000
 -1.680000000000000E-002    0.000000000000000E+000
 -1.670000000000000E-002    0.000000000000000E+000
 -1.660000000000000E-002    0.000000000000000E+000
 -1.650000000000000E-002    0.000000000000000E+000
 -1.640000000000000E-002    0.000000000000000E+000
 -1.630000000000000E-002    0.000000000000000E+000
 -1.620000000000000E-002    0.000000000000000E+000
 -1.610000000000000E-002    0.000000000000000E+000
 -1.600000000000000E-002    0.000000000000000E+000
 -1.590000000000000E-002    0.000000000000000E+000
 -1.580000000000000E-002    0.000000000000000E+000
 -1.570000000000000E-002    0.000000000000000E+000
 -1.560000000000000E-002    0.000000000000000E+000
 -1.550000000000000E-002    0.000000000000000E+000
 -1.540000000000000E-002    0.000000000000000E+000
 -1.530000000000000E-002    0.000000000000000E+000
 -1.520000000000000E-002    0.000000000000000E+000
 -1.510000000000000E-002    0.000000000000000E+000
 -1.500000000000000E-002    0.000000000000000E+000
 -1.490000000000000E-002    0.000000000000000E+000
 -1.480000000000000E-002    0.000000000000000E+000
 -1.470000000000000E-002    0.000000000000000E+000
 -1.460000000000000E-002    0.000000000000000E+000
 -1.450000000000000E-002    0.000000000000000E+000
 -1.440000000000000E-002    0.000000000000000E+000
 -1.430000000000000E-002    0.000000000000000E+000
 -1.420000000000000E-002    0.000000000000000E+000
 -1.410000000000000E-002    0.000000000000000E+000
 -1.400000000000000E-002    0.000000000000000E+000
 -1.390000000000000E-002    0.000000000000000E+000
 -1.380000000000000E-002    0.000000000000000E+000
 -1.370000000000000E-002    0.000000000000000E+000
 -1.360000000000000E-002    0.000000000000000E+000
 -1.350000000000000E-002    0.000000000000000E+000
 -1.340000000000000E-002    0.000000000000000E+000
 -1.330000000000000E-002    0.000000000000000E+000
 -1.320000000000000E-002    0.000000000000000E+000
 -1.310000000000000E-002    0.000000000000000E+000
 -1.300000000000000E-002    0.000000000000000E+000
 -1.290000000000000E-002    0.000000000000000E+000
 -1.280000000000000E-002    0.000000000000000E+000
 -1.270000000000000E-002    0.000000000000000E+000
 -1.260000000000000E-002    0.000000000000000E+000
 -1.250000000000000E-002    0.000000000000000E+000
 -1.240000000000000E-002    0.000000000000000E+000
 -1.230000000000000E-002    0.000000000000000E+000
 -1.220000000000000E-002    0.000000000000000E+000
 -1.210000000000000E-002    0.000000000000000E+000
 -1.200000000000000E-002    0.000000000000000E+000
 -1.190000000000000E-002    0.000000000000000E+000
 -1.180000000000000E-002    0.000000000000000E+000
 -1.170000000000000E-002    0.000000000000000E+000
 -1.160000000000000E-002    0.000000000000000E+000
 -1.150000000000000E-002    0.000000000000000E+000
 -1.140000000000000E-002    0.000000000000000E+000
 -1.130000000000000E-002    0.000000000000000E+000
 -1.120000000000000E-002    0.000000000000000E+000
 -1.110000000000000E-002    0.000000000000000E+000
 -1.100000000000000E-002    0.000000000000000E+000
 -1.090000000000000E-002    0.000000000000000E+000
 -1.080000000000000E-002    0.000000000000000E+000
 -1.070000000000000E-002    0.000000000000000E+000
 -1.060000000000000E-002    0.000000000000000E+000
 -1.050000000000000E-002    0.000000000000000E+000
 -1.040000000000000E-002    0.000000000000000E+000
 -1.030000000000000E-002    0.000000000000000E+000
 -1.020000000000000E-002    0.000000000000000E+000
 -1.010000000000000E-002    0.000000000000000E+000
 -1.000000000000000E-002    0.000000000000000E+000
 -9.899999999999999E-003    0.000000000000000E+000
 -9.800000000000000E-003    0.000000000000000E+000
 -9.699999999999999E-003    0.000000000000000E+000
 -9.599999999999999E-003    0.000000000000000E+000
 -9.500000000000000E-003    0.000000000000000E+000
 -9.399999999999999E-003    0.000000000000000E+000
 -9.299999999999999E-003    0.000000000000000E+000
 -9.200000000000000E-003    0.000000000000000E+000
 -9.099999999999999E-003    0.000000000000000E+000
 -8.999999999999999E-003    0.000000000000000E+000
 -8.900000000000000E-003    0.000000000000000E+000
 -8.799999999999999E-003    0.000000000000000E+000
 -8.699999999999999E-003    0.000000000000000E+000
 -8.600000000000000E-003    0.000000000000000E+000
 -8.499999999999999E-003   -1.924390591266381E-047
 -8.399999999999999E-003   -3.848781182532762E-047
 -8.300000000000000E-003    6.799513422474546E-047
 -8.199999999999999E-003    1.167463625368271E-046
 -8.100000000000000E-003    4.618537419039314E-047
 -8.000000000000000E-003    4.618537419039314E-047
 -7.899999999999999E-003   -6.029757185967993E-047
 -7.800000000000000E-003   -7.056098834643397E-047
 -7.699999999999999E-003   -3.648568528193397E-048
 -7.599999999999999E-003    3.375652889062933E-047
 -7.499999999999999E-003    1.609665205685498E-046
 -7.399999999999999E-003    1.816935661963973E-046
 -7.299999999999999E-003    1.829764932572415E-046
 -7.199999999999999E-003    6.218113688354228E-047
 -7.100000000000000E-003    9.680946720156442E-046
 -6.999999999999999E-003    1.420534316706706E-045
 -6.899999999999999E-003    1.613222057144211E-045
 -6.800000000000000E-003    2.788999169018813E-045
 -6.699999999999999E-003    4.018659217448873E-045
 -6.599999999999999E-003    3.484703563176677E-045
 -6.499999999999999E-003    3.741510439611458E-045
 -6.399999999999999E-003    2.909988410208187E-045
 -6.299999999999999E-003    1.882518188591539E-045
 -6.199999999999999E-003   -6.101676115266411E-047
 -6.100000000000000E-003   -3.440917737742553E-045
 -5.999999999999999E-003   -7.540528874788945E-045
 -5.899999999999999E-003   -1.321788214009375E-044
 -5.800000000000000E-003   -1.869540190440236E-044
 -5.699999999999999E-003   -2.413090258266286E-044
 -5.599999999999999E-003   -2.738107143053364E-044
 -5.499999999999999E-003   -2.966017633914696E-044
 -5.399999999999999E-003   -2.761130574876161E-044
 -5.299999999999999E-003   -1.972217141305062E-044
 -5.199999999999999E-003   -4.892749311157623E-045
 -5.099999999999999E-003    1.863530384362589E-044
 -4.999999999999999E-003    4.998397366515917E-044
 -4.899999999999999E-003    8.816450517335015E-044
 -4.799999999999999E-003    1.318954770364943E-043
 -4.699999999999999E-003    1.759227633887327E-043
 -4.599999999999999E-003    2.133623211798546E-043
 -4.499999999999999E-003    2.371299512503105E-043
 -4.399999999999999E-003    2.353973374608295E-043
 -4.299999999999999E-003    1.974197694121217E-043
 -4.199999999999999E-003    1.122143874879702E-043
 -4.099999999999999E-003   -2.830470738146593E-044
 -3.999999999999999E-003   -2.301437857775877E-043
 -3.899999999999999E-003   -4.889168102625697E-043
 -3.799999999999999E-003   -7.922018687221375E-043
 -3.699999999999999E-003   -1.114866631791500E-042
 -3.599999999999999E-003   -1.417346667686751E-042
 -3.499999999999999E-003   -1.646872305320399E-042
 -3.399999999999999E-003   -1.737465857337588E-042
 -3.299999999999999E-003   -1.614358603898476E-042
 -3.199999999999999E-003   -1.202282058708295E-042
 -3.099999999999999E-003   -4.349257025308765E-043
 -2.999999999999999E-003    7.297003385087048E-043
 -2.899999999999999E-003    2.293348698555161E-042
 -2.799999999999999E-003    4.204519106138846E-042
 -2.699999999999999E-003    6.336236785578415E-042
 -2.599999999999999E-003    8.475186939983429E-042
 -2.499999999999999E-003    1.032077747863885E-041
 -2.399999999999999E-003    1.148530905080296E-041
 -2.299999999999999E-003    1.151873793488380E-041
 -2.199999999999999E-003    9.943447756977573E-042
 -2.099999999999999E-003    6.311540663159316E-042
 -1.999999999999999E-003    2.834554106193204E-043
 -1.899999999999999E-003   -8.283187718902150E-042
 -1.799999999999999E-003   -1.923346678594255E-041
 -1.699999999999999E-003   -3.201460724867923E-041
 -1.599999999999999E-003   -4.559768830444864E-041
 -1.499999999999999E-003   -5.842661372092634E-041
 -1.399999999999999E-003   -6.842927611984223E-041
 -1.299999999999999E-003   -7.309946281545756E-041
 -1.199999999999999E-003   -6.966852002343347E-041
 -1.099999999999999E-003   -5.539241756355653E-041
 -9.999999999999989E-004   -2.793190645931031E-041
 -8.999999999999990E-004    1.416668254885246E-041
 -7.999999999999990E-004    7.093301362161005E-041
 -6.999999999999989E-004    1.404168596726594E-040
 -5.999999999999990E-004    2.181991590250430E-040
 -4.999999999999989E-004    2.970509237103243E-040
 -3.999999999999989E-004    3.668402477577846E-040
 -2.999999999999989E-004    4.148017391554413E-040
 -1.999999999999989E-004    4.262641216849675E-040
 -9.999999999999892E-005    3.858975907173006E-040
  1.084202172485504E-018    2.795152771166535E-040
  1.000000000000011E-004    9.638763163574453E-041
  2.000000000000011E-004   -1.680662046474493E-040
  3.000000000000011E-004   -5.094167035243871E-040
  4.000000000000011E-004   -9.115196414967200E-040
  5.000000000000011E-004   -1.344384526092890E-039
  6.000000000000011E-004   -1.763106140874622E-039
  7.000000000000011E-004   -2.108371002817134E-039
  8.000000000000011E-004   -2.309037844428052E-039
  9.000000000000012E-004   -2.287172957842481E-039
  1.000000000000001E-003   -1.965750150565821E-039
  1.100000000000001E-003   -1.278930094559372E-039
  1.200000000000001E-003   -1.844755825837240E-040
  1.300000000000001E-003    1.322572674601045E-039
  1.400000000000001E-003    3.196304831655494E-039
  1.500000000000001E-003    5.328221864538145E-039
  1.600000000000001E-003    7.539536310143880E-039
  1.700000000000001E-003    9.579843069660789E-039
  1.800000000000001E-003    1.113448673662484E-038
  1.900000000000001E-003    1.184258775781197E-038
  2.000000000000001E-003    1.132698839998282E-038
  2.100000000000001E-003    9.236248880669783E-039
  2.200000000000001E-003    5.297353984617677E-039
  2.300000000000001E-003   -6.240617474416284E-040
  2.400000000000001E-003   -8.461110624062061E-039
  2.500000000000001E-003   -1.788780655943437E-038
  2.600000000000001E-003   -2.827478508762005E-038
  2.700000000000001E-003   -3.866856432856490E-038
  2.800000000000001E-003   -4.780442729844880E-038
  2.900000000000001E-003   -5.416208428270115E-038
  3.000000000000001E-003   -5.607069711969899E-038
  3.100000000000001E-003   -5.186581314587019E-038
  3.200000000000001E-003   -4.009495644855114E-038
  3.300000000000001E-003   -1.976164162033370E-038
  3.400000000000001E-003    9.410433522768382E-039
  3.500000000000001E-003    4.671934205716158E-038
  3.600000000000001E-003    9.026667583897001E-038
  3.700000000000001E-003    1.368180027154585E-037
  3.800000000000001E-003    1.817829992728763E-037
  3.900000000000001E-003    2.193538704460871E-037
  4.000000000000001E-003    2.428325408505682E-037
  4.100000000000001E-003    2.451633051099305E-037
  4.200000000000001E-003    2.196671557088107E-037
  4.300000000000001E-003    1.609483878285043E-037
  4.400000000000001E-003    6.591427357894340E-038
  4.500000000000001E-003   -6.518177297829679E-038
  4.600000000000002E-003   -2.277925514354375E-037
  4.700000000000001E-003   -4.123660044143518E-037
  4.800000000000001E-003   -6.040234455719605E-037
  4.900000000000002E-003   -7.827757321018751E-037
  5.000000000000001E-003   -9.244036986364783E-037
  5.100000000000001E-003   -1.002083987219341E-036
  5.200000000000001E-003   -9.887745568339139E-037
  5.300000000000002E-003   -8.602873988160299E-037
  5.400000000000001E-003   -5.988735568094511E-037
  5.500000000000001E-003   -1.970382767869538E-037
  5.600000000000002E-003    3.388011973961794E-037
  5.700000000000001E-003    9.852854702979257E-037
  5.800000000000001E-003    1.700232017248033E-036
  5.900000000000002E-003    2.422426548365270E-036
  6.000000000000001E-003    3.073547822351593E-036
  6.100000000000001E-003    3.562554314731485E-036
  6.200000000000002E-003    3.792659096391489E-036
  6.300000000000002E-003    3.670743264258836E-036
  6.400000000000001E-003    3.118737193366828E-036
  6.500000000000001E-003    2.086153889065306E-036
  6.600000000000002E-003    5.626170903739890E-037
  6.700000000000001E-003   -1.411047515814093E-036
  6.800000000000001E-003   -3.734775379704269E-036
  6.900000000000002E-003   -6.245925159363164E-036
  7.000000000000001E-003   -8.722130248070383E-036
  7.100000000000001E-003   -1.089146362108667E-035
  7.200000000000002E-003   -1.245045128557301E-035
  7.300000000000002E-003   -1.308970034398674E-035
  7.400000000000001E-003   -1.252594954773523E-035
  7.500000000000001E-003   -1.053839685144218E-035
  7.600000000000002E-003   -7.006155618684100E-036
  7.700000000000001E-003   -1.942914862808551E-036
  7.800000000000001E-003    4.475634078560117E-036
  7.900000000000001E-003    1.189613186168521E-035
  8.000000000000002E-003    1.978775691031130E-035
  8.100000000000001E-003    2.746140804200629E-035
  8.200000000000001E-003    3.410942876499862E-035
  8.300000000000002E-003    3.886537033930768E-035
  8.400000000000001E-003    4.088096295996741E-035
  8.500000000000002E-003    3.941491958027044E-035
  8.600000000000002E-003    3.392603482300421E-035
  8.700000000000001E-003    2.416110023434672E-035
  8.800000000000002E-003    1.022746875137569E-035
  8.900000000000002E-003   -7.359966343185988E-036
  9.000000000000001E-003   -2.766599919429437E-035
  9.100000000000002E-003   -4.936246274994359E-035
  9.200000000000002E-003   -7.079759352995519E-035
  9.300000000000001E-003   -9.010469145002134E-035
  9.400000000000002E-003   -1.053421530327665E-034
  9.500000000000001E-003   -1.146521838781491E-034
  9.600000000000001E-003   -1.164221424958822E-034
  9.700000000000002E-003   -1.094305010457078E-034
  9.800000000000001E-003   -9.296030256689976E-035
  9.900000000000001E-003   -6.686656406718036E-035
  1.000000000000000E-002   -3.159047078083229E-035
  1.010000000000000E-002    1.187836655352927E-035
  1.020000000000000E-002    6.207978638951985E-035
  1.030000000000000E-002    1.171804357178154E-034
  1.040000000000000E-002    1.750621636237491E-034
  1.050000000000000E-002    2.333690179455020E-034
  1.060000000000000E-002    2.894842552026678E-034
  1.070000000000000E-002    3.404181172635868E-034
  1.080000000000000E-002    3.826055179986381E-034
  1.090000000000000E-002    4.116384974790599E-034
  1.100000000000000E-002    4.219882081990437E-034
  1.110000000000000E-002    4.068018021998289E-034
  1.120000000000000E-002    3.578879297468033E-034
  1.130000000000000E-002    2.660199622182281E-034
  1.140000000000000E-002    1.216815386513022E-034
  1.150000000000000E-002   -8.364497219202816E-035
  1.160000000000000E-002   -3.556045424250726E-034
  1.170000000000000E-002   -6.945528146389530E-034
  1.180000000000000E-002   -1.092756089997664E-033
  1.190000000000000E-002   -1.531499437047104E-033
  1.200000000000000E-002   -1.978532729309108E-033
  1.210000000000000E-002   -2.386414646148070E-033
  1.220000000000000E-002   -2.692382050498772E-033
  1.230000000000000E-002   -2.820415646623126E-033
  1.240000000000000E-002   -2.686065252780194E-033
  1.250000000000000E-002   -2.204424366291544E-033
  1.260000000000000E-002   -1.301321470030785E-033
  1.270000000000000E-002    7.264857971821579E-035
  1.280000000000000E-002    1.926178556207817E-033
  1.290000000000000E-002    4.210912397936483E-033
  1.300000000000000E-002    6.806824272556316E-033
  1.310000000000000E-002    9.511943726568497E-033
  1.320000000000000E-002    1.203932918334238E-032
  1.330000000000000E-002    1.402419224891919E-032
  1.340000000000000E-002    1.504368847607898E-032
  1.350000000000000E-002    1.465098765421002E-032
  1.360000000000000E-002    1.242388140557794E-032
  1.370000000000000E-002    8.026273695618743E-033
  1.380000000000000E-002    1.278759355974804E-033
  1.390000000000000E-002   -7.768036736066539E-033
  1.400000000000000E-002   -1.876592923827377E-032
  1.410000000000000E-002   -3.101799481457909E-032
  1.420000000000000E-002   -4.345546145654936E-032
  1.430000000000000E-002   -5.465421373433269E-032
  1.440000000000000E-002   -6.290104344305341E-032
  1.450000000000000E-002   -6.631626120391542E-032
  1.460000000000000E-002   -6.303426864972789E-032
  1.470000000000000E-002   -5.143650226906974E-032
  1.480000000000000E-002   -3.042306924854173E-032
  1.490000000000000E-002    2.995791526205621E-034
  1.500000000000000E-002    3.994623020470239E-032
  1.510000000000000E-002    8.643407514810734E-032
  1.520000000000000E-002    1.362601319309746E-031
  1.530000000000000E-002    1.845176544054108E-031
  1.540000000000000E-002    2.250888638190051E-031
  1.550000000000000E-002    2.510398606144941E-031
  1.560000000000000E-002    2.552258919444195E-031
  1.570000000000000E-002    2.310909574652459E-031
  1.580000000000000E-002    1.736174023734620E-031
  1.590000000000000E-002    8.035047299204981E-032
  1.600000000000000E-002   -4.760669982171136E-032
  1.610000000000000E-002   -2.047572815300280E-031
  1.620000000000000E-002   -3.806787585119530E-031
  1.630000000000000E-002   -5.599401904717693E-031
  1.640000000000000E-002   -7.225995396051782E-031
  1.650000000000000E-002   -8.453736134249057E-031
  1.660000000000000E-002   -9.035165687205377E-031
  1.670000000000000E-002   -8.733662193104652E-031
  1.680000000000000E-002   -7.354239573107103E-031
  1.690000000000000E-002   -4.777373966943912E-031
  1.700000000000000E-002   -9.925535695071088E-032
  1.710000000000000E-002    3.872537691922607E-031
  1.720000000000000E-002    9.531820417724345E-031
  1.730000000000000E-002    1.553428068100902E-030
  1.740000000000000E-002    2.127536092067076E-030
  1.750000000000000E-002    2.602935740358489E-030
  1.760000000000000E-002    2.900427623905713E-030
  1.770000000000000E-002    2.941807801971291E-030
  1.780000000000000E-002    2.659264527712124E-030
  1.790000000000000E-002    2.005852083754352E-030
  1.800000000000000E-002    9.660704523273810E-031
  1.810000000000000E-002   -4.346874682746648E-031
  1.820000000000000E-002   -2.123208629184765E-030
  1.830000000000000E-002   -3.975488543343889E-030
  1.840000000000000E-002   -5.819008171811690E-030
  1.850000000000000E-002   -7.441244325815822E-030
  1.860000000000000E-002   -8.604893414635063E-030
  1.870000000000000E-002   -9.069588603169316E-030