 -4.000000000000000E-002    0.000000000000000E+000
 -3.990000000000000E-002    0.000000000000000E+000
 -3.980000000000000E-002    0.000000000000000E+000
 -3.970000000000000E-002    0.000000000000000E+000
 -3.960000000000000E-002    0.000000000000000E+000
 -3.950000000000000E-002    0.000000000000000E+000
 -3.940000000000000E-002    0.000000000000000E+000
 -3.930000000000000E-002    0.000000000000000E+000
 -3.920000000000000E-002    0.000000000000000E+000
 -3.910000000000000E-002    0.000000000000000E+000
 -3.900000000000000E-002    0.000000000000000E+000
 -3.890000000000000E-002    0.000000000000000E+000
 -3.880000000000000E-002    0.000000000000000E+000
 -3.870000000000000E-002    0.000000000000000E+000
 -3.860000000000000E-002    0.000000000000000E+000
 -3.850000000000000E-002    0.000000000000000E+000
 -3.840000000000000E-002    0.000000000000000E+000
 -3.830000000000000E-002    0.000000000000000E+000
 -3.820000000000000E-002    0.000000000000000E+000
 -3.810000000000000E-002    0.000000000000000E+000
 -3.800000000000000E-002    0.000000000000000E+000
 -3.790000000000000E-002    0.000000000000000E+000
 -3.780000000000000E-002    0.000000000000000E+000
 -3.770000000000000E-002    0.000000000000000E+000
 -3.760000000000000E-002    0.000000000000000E+000
 -3.750000000000000E-002    0.000000000000000E+000
 -3.740000000000000E-002    0.000000000000000E+000
 -3.730000000000000E-002    0.000000000000000E+000
 -3.720000000000000E-002    0.000000000000000E+000
 -3.710000000000000E-002    0.000000000000000E+000
 -3.700000000000000E-002    0.000000000000000E+000
 -3.690000000000000E-002    0.000000000000000E+000
 -3.680000000000000E-002    0.000000000000000E+000
 -3.670000000000000E-002    0.000000000000000E+000
 -3.660000000000000E-002    0.000000000000000E+000
 -3.650000000000000E-002    0.000000000000000E+000
 -3.640000000000000E-002    0.000000000000000E+000
 -3.630000000000000E-002    0.000000000000000E+000
 -3.620000000000000E-002    0.000000000000000E+000
 -3.610000000000000E-002    0.000000000000000E+000
 -3.600000000000000E-002    0.000000000000000E+000
 -3.590000000000000E-002    0.000000000000000E+000
 -3.580000000000000E-002    0.000000000000000E+000
 -3.570000000000000E-002    0.000000000000000E+000
 -3.560000000000000E-002    0.000000000000000E+000
 -3.550000000000000E-002    0.000000000000000E+000
 -3.540000000000000E-002    0.000000000000000E+000
 -3.530000000000000E-002    0.000000000000000E+000
 -3.520000000000000E-002    0.000000000000000E+000
 -3.510000000000000E-002    0.000000000000000E+000
 -3.500000000000000E-002    0.000000000000000E+000
 -3.490000000000000E-002    0.000000000000000E+000
 -3.480000000000000E-002    0.000000000000000E+000
 -3.470000000000000E-002    0.000000000000000E+000
 -3.460000000000000E-002    0.000000000000000E+000
 -3.450000000000000E-002    0.000000000000000E+000
 -3.440000000000000E-002    0.000000000000000E+000
 -3.430000000000000E-002    0.000000000000000E+000
 -3.420000000000000E-002    0.000000000000000E+000
 -3.410000000000000E-002    0.000000000000000E+000
 -3.400000000000000E-002    0.000000000000000E+000
 -3.390000000000000E-002    0.000000000000000E+000
 -3.380000000000000E-002    0.000000000000000E+000
 -3.370000000000000E-002    0.000000000000000E+000
 -3.360000000000000E-002    0.000000000000000E+000
 -3.350000000000000E-002    0.000000000000000E+000
 -3.340000000000000E-002    0.000000000000000E+000
 -3.330000000000000E-002    0.000000000000000E+000
 -3.320000000000000E-002    0.000000000000000E+000
 -3.310000000000000E-002    0.000000000000000E+000
 -3.300000000000000E-002    0.000000000000000E+000
 -3.290000000000000E-002    0.000000000000000E+000
 -3.280000000000000E-002    0.000000000000000E+000
 -3.270000000000000E-002    0.000000000000000E+000
 -3.260000000000000E-002    0.000000000000000E+000
 -3.250000000000000E-002    0.000000000000000E+000
 -3.240000000000000E-002    0.000000000000000E+000
 -3.230000000000000E-002    0.000000000000000E+000
 -3.220000000000000E-002    0.000000000000000E+000
 -3.210000000000000E-002    0.000000000000000E+000
 -3.200000000000000E-002    0.000000000000000E+000
 -3.190000000000000E-002    0.000000000000000E+000
 -3.180000000000000E-002    0.000000000000000E+000
 -3.170000000000000E-002    0.000000000000000E+000
 -3.160000000000000E-002    0.000000000000000E+000
 -3.150000000000000E-002    0.000000000000000E+000
 -3.140000000000000E-002    0.000000000000000E+000
 -3.130000000000000E-002    0.000000000000000E+000
 -3.120000000000000E-002    0.000000000000000E+000
 -3.110000000000000E-002    0.000000000000000E+000
 -3.100000000000000E-002    0.000000000000000E+000
 -3.090000000000000E-002    0.000000000000000E+000
 -3.080000000000000E-002    0.000000000000000E+000
 -3.070000000000000E-002    0.000000000000000E+000
 -3.060000000000000E-002    0.000000000000000E+000
 -3.050000000000000E-002    0.000000000000000E+000
 -3.040000000000000E-002    0.000000000000000E+000
 -3.030000000000000E-002    0.000000000000000E+000
 -3.020000000000000E-002    0.000000000000000E+000
 -3.010000000000000E-002    0.000000000000000E+000
 -3.000000000000000E-002    0.000000000000000E+000
 -2.990000000000000E-002    0.000000000000000E+000
 -2.980000000000000E-002    0.000000000000000E+000
 -2.970000000000000E-002    0.000000000000000E+000
 -2.960000000000000E-002    0.000000000000000E+000
 -2.950000000000000E-002    0.000000000000000E+000
 -2.940000000000000E-002    0.000000000000000E+000
 -2.930000000000000E-002    0.000000000000000E+000
 -2.920000000000000E-002    0.000000000000000E+000
 -2.910000000000000E-002    0.000000000000000E+000
 -2.900000000000000E-002    0.000000000000000E+000
 -2.890000000000000E-002    0.000000000000000E+000
 -2.880000000000000E-002    0.000000000000000E+000
 -2.870000000000000E-002    0.000000000000000E+000
 -2.860000000000000E-002    0.000000000000000E+000
 -2.850000000000000E-002    0.000000000000000E+000
 -2.840000000000000E-002    0.000000000000000E+000
 -2.830000000000000E-002    0.000000000000000E+000
 -2.820000000000000E-002    0.000000000000000E+000
 -2.810000000000000E-002    0.000000000000000E+000
 -2.800000000000000E-002    0.000000000000000E+000
 -2.790000000000000E-002    0.000000000000000E+000
 -2.780000000000000E-002    0.000000000000000E+000
 -2.770000000000000E-002    0.000000000000000E+000
 -2.760000000000000E-002    0.000000000000000E+000
 -2.750000000000000E-002    0.000000000000000E+000
 -2.740000000000000E-002    0.000000000000000E+000
 -2.730000000000000E-002    0.000000000000000E+000
 -2.720000000000000E-002    0.000000000000000E+000
 -2.710000000000000E-002    0.000000000000000E+000
 -2.700000000000000E-002    0.000000000000000E+000
 -2.690000000000000E-002    0.000000000000000E+000
 -2.680000000000000E-002    0.000000000000000E+000
 -2.670000000000000E-002    0.000000000000000E+000
 -2.660000000000000E-002    0.000000000000000E+000
 -2.650000000000000E-002    0.000000000000000E+000
 -2.640000000000000E-002    0.000000000000000E+000
 -2.630000000000000E-002    0.000000000000000E+000
 -2.620000000000000E-002    0.000000000000000E+000
 -2.610000000000000E-002    0.000000000000000E+000
 -2.600000000000000E-002    0.000000000000000E+000
 -2.590000000000000E-002    0.000000000000000E+000
 -2.580000000000000E-002    0.000000000000000E+000
 -2.570000000000000E-002    0.000000000000000E+000
 -2.560000000000000E-002    0.000000000000000E+000
 -2.550000000000000E-002    0.000000000000000E+000
 -2.540000000000000E-002    0.000000000000000E+000
 -2.530000000000000E-002    0.000000000000000E+000
 -2.520000000000000E-002    0.000000000000000E+000
 -2.510000000000000E-002    0.000000000000000E+000
 -2.500000000000000E-002    0.000000000000000E+000
 -2.490000000000000E-002    0.000000000000000E+000
 -2.480000000000000E-002    0.000000000000000E+000
 -2.470000000000000E-002    0.000000000000000E+000
 -2.460000000000000E-002    0.000000000000000E+000
 -2.450000000000000E-002    0.000000000000000E+000
 -2.440000000000000E-002    0.000000000000000E+000
 -2.430000000000000E-002    0.000000000000000E+000
 -2.420000000000000E-002    0.000000000000000E+000
 -2.410000000000000E-002    0.000000000000000E+000
 -2.400000000000000E-002    0.000000000000000E+000
 -2.390000000000000E-002    0.000000000000000E+000
 -2.380000000000000E-002    0.000000000000000E+000
 -2.370000000000000E-002    0.000000000000000E+000
 -2.360000000000000E-002    0.000000000000000E+000
 -2.350000000000000E-002    0.000000000000000E+000
 -2.340000000000000E-002    0.000000000000000E+000
 -2.330000000000000E-002    0.000000000000000E+000
 -2.320000000000000E-002    0.000000000000000E+000
 -2.310000000000000E-002    0.000000000000000E+000
 -2.300000000000000E-002    0.000000000000000E+000
 -2.290000000000000E-002    0.000000000000000E+000
 -2.280000000000000E-002    0.000000000000000E+000
 -2.270000000000000E-002    0.000000000000000E+000
 -2.260000000000000E-002    0.000000000000000E+000
 -2.250000000000000E-002    0.000000000000000E+000
 -2.240000000000000E-002    0.000000000000000E+000
 -2.230000000000000E-002    0.000000000000000E+000
 -2.220000000000000E-002    0.000000000000000E+000
 -2.210000000000000E-002    0.000000000000000E+000
 -2.200000000000000E-002    0.000000000000000E+000
 -2.190000000000000E-002    0.000000000000000E+000
 -2.180000000000000E-002    0.000000000000000E+000
 -2.170000000000000E-002    0.000000000000000E+000
 -2.160000000000000E-002    0.000000000000000E+000
 -2.150000000000000E-002    0.000000000000000E+000
 -2.140000000000000E-002    0.000000000000000E+000
 -2.130000000000000E-002    0.000000000000000E+000
 -2.120000000000000E-002    0.000000000000000E+000
 -2.110000000000000E-002    0.000000000000000E+000
 -2.100000000000000E-002    0.000000000000000E+000
 -2.090000000000000E-002    0.000000000000000E+000
 -2.080000000000000E-002    0.000000000000000E+000
 -2.070000000000000E-002    0.000000000000000E+000
 -2.060000000000000E-002    0.000000000000000E+000
 -2.050000000000000E-002    0.000000000000000E+000
 -2.040000000000000E-002    0.000000000000000E+000
 -2.030000000000000E-002    0.000000000000000E+000
 -2.020000000000000E-002    0.000000000000000E+000
 -2.010000000000000E-002    0.000000000000000E+000
 -2.000000000000000E-002    0.000000000000000E+000
 -1.990000000000000E-002    0.000000000000000E+000
 -1.980000000000000E-002    0.000000000000000E+000
 -1.970000000000000E-002    0.000000000000000E+000
 -1.960000000000000E-002    0.000000000000000E+000
 -1.950000000000000E-002    0.000000000000000E+000
 -1.940000000000000E-002    6.414635304221270E-048
 -1.930000000000000E-002    1.496748237651630E-047
 -1.920000000000000E-002    7.832528826294594E-047
 -1.910000000000000E-002    1.416830941493756E-046
 -1.900000000000000E-002    2.050409000358052E-046
 -1.890000000000000E-002    2.619840706180136E-046
 -1.880000000000000E-002    3.103743941279270E-046
 -1.870000000000000E-002    3.083029199112997E-046
 -1.860000000000000E-002    2.364590045040214E-046
 -1.850000000000000E-002    8.395137641138417E-047
 -1.840000000000000E-002   -2.103060833820752E-046
 -1.830000000000000E-002   -6.775980042416798E-046
 -1.820000000000000E-002   -1.481711402507097E-045
 -1.810000000000000E-002   -2.435272194838402E-045
 -1.800000000000000E-002   -3.325969566283121E-045
 -1.790000000000000E-002   -4.160873219103583E-045
 -1.780000000000000E-002   -4.647275575867741E-045
 -1.770000000000000E-002   -4.599179424703332E-045
 -1.760000000000000E-002   -3.522591114728654E-045
 -1.750000000000000E-002   -2.446946083719027E-045
 -1.740000000000000E-002    2.778459397603413E-046
 -1.730000000000000E-002    5.197537722937540E-045
 -1.720000000000000E-002    1.194796381181770E-044
 -1.710000000000000E-002    2.035083894845263E-044
 -1.700000000000000E-002    2.936005860161562E-044
 -1.690000000000000E-002    3.901726903697028E-044
 -1.680000000000000E-002    4.745985276448794E-044
 -1.670000000000000E-002    5.261581041013427E-044
 -1.660000000000000E-002    5.271957686834573E-044
 -1.650000000000000E-002    4.309792722028810E-044
 -1.640000000000000E-002    2.155281437259821E-044
 -1.630000000000000E-002   -1.584392684876329E-044
 -1.620000000000000E-002   -6.964902214893836E-044
 -1.610000000000000E-002   -1.417649543930816E-043
 -1.600000000000000E-002   -2.288214364230147E-043
 -1.590000000000000E-002   -3.233533752272152E-043
 -1.580000000000000E-002   -4.133830955509069E-043
 -1.570000000000000E-002   -4.810860430240055E-043
 -1.560000000000000E-002   -5.040244844834947E-043
 -1.550000000000000E-002   -4.537912427423821E-043
 -1.540000000000000E-002   -3.018897566994087E-043
 -1.530000000000000E-002   -2.086359222100764E-044
 -1.520000000000000E-002    4.073998096085838E-043
 -1.510000000000000E-002    9.862457835930988E-043
 -1.500000000000000E-002    1.695758052652124E-042
 -1.490000000000000E-002    2.484595862017307E-042
 -1.480000000000000E-002    3.260094229848970E-042
 -1.470000000000000E-002    3.889074206149856E-042
 -1.460000000000000E-002    4.193888246717113E-042
 -1.450000000000000E-002    3.966156915924140E-042
 -1.440000000000000E-002    2.983201425379719E-042
 -1.430000000000000E-002    1.036655603584789E-042
 -1.420000000000000E-002   -2.020569739345585E-042
 -1.410000000000000E-002   -6.224634406137610E-042
 -1.400000000000000E-002   -1.144235271731779E-041
 -1.390000000000000E-002   -1.730884812264542E-041
 -1.380000000000000E-002   -2.318368642583206E-041
 -1.370000000000000E-002   -2.811971702785193E-041
 -1.360000000000000E-002   -3.087999696858453E-041
 -1.350000000000000E-002   -3.000169003452702E-041
 -1.340000000000000E-002   -2.393291842743839E-041
 -1.330000000000000E-002   -1.124393356154116E-041
 -1.320000000000000E-002    9.083911106713629E-042
 -1.310000000000000E-002    3.730371025566497E-041
 -1.300000000000000E-002    7.251374932314979E-041
 -1.290000000000000E-002    1.122763853127131E-040
 -1.280000000000000E-002    1.523176314763903E-040
 -1.270000000000000E-002    1.863884915554776E-040
 -1.260000000000000E-002    2.063884432905494E-040
 -1.250000000000000E-002    2.028364486801478E-040
 -1.240000000000000E-002    1.657849299324688E-040
 -1.230000000000000E-002    8.620945696412211E-041
 -1.220000000000000E-002   -4.213774792385739E-041
 -1.210000000000000E-002   -2.205021986426723E-040
 -1.200000000000000E-002   -4.427295194816467E-040
 -1.190000000000000E-002   -6.930080551127554E-040
 -1.180000000000000E-002   -9.441790110359410E-040
 -1.170000000000000E-002   -1.157126599275981E-039
 -1.160000000000000E-002   -1.281815589835287E-039
 -1.150000000000000E-002   -1.260515746422847E-039
 -1.140000000000000E-002   -1.033640018909390E-039
 -1.130000000000000E-002   -5.483758900649283E-040
 -1.120000000000000E-002    2.300787956652496E-040
 -1.110000000000000E-002    1.305357272558317E-039
 -1.100000000000000E-002    2.636124778395939E-039
 -1.090000000000000E-002    4.123551602489116E-039
 -1.080000000000000E-002    5.602576572299642E-039
 -1.070000000000000E-002    6.839941012257122E-039
 -1.060000000000000E-002    7.542097941321568E-039
 -1.050000000000000E-002    7.375881142341887E-039
 -1.040000000000000E-002    6.003941863203110E-039
 -1.030000000000000E-002    3.135511304497596E-039
 -1.020000000000000E-002   -1.409190989595693E-039
 -1.010000000000000E-002   -7.625341449933060E-039
 -1.000000000000000E-002   -1.524843168570981E-038
 -9.899999999999999E-003   -2.368881092537352E-038
 -9.800000000000000E-003   -3.198990538718407E-038
 -9.699999999999999E-003   -3.882615226804197E-038
 -9.599999999999999E-003   -4.255697482652746E-038
 -9.500000000000000E-003   -4.135089919681936E-038
 -9.399999999999999E-003   -3.338877116971980E-038
 -9.299999999999999E-003   -1.714630129227671E-038
 -9.200000000000000E-003    8.255910777923310E-039
 -9.099999999999999E-003    4.266177340042492E-038
 -8.999999999999999E-003    8.449218480237932E-038
 -8.900000000000000E-003    1.304208729427937E-037
 -8.799999999999999E-003    1.751876780815573E-037
 -8.699999999999999E-003    2.116311127554886E-037
 -8.600000000000000E-003    2.310204559194737E-037
 -8.499999999999999E-003    2.237529683914661E-037
 -8.399999999999999E-003    1.804518585425565E-037
 -8.300000000000000E-003    9.345360058967927E-038
 -8.199999999999999E-003   -4.138962017090173E-038
 -8.100000000000000E-003   -2.227423036736506E-037
 -8.000000000000000E-003   -4.418843860682794E-037
 -7.899999999999999E-003   -6.811843020811766E-037
 -7.800000000000000E-003   -9.133152137048803E-037
 -7.699999999999999E-003   -1.101608945066059E-036
 -7.599999999999999E-003   -1.201920845894194E-036
 -7.499999999999999E-003   -1.166291039571752E-036
 -7.399999999999999E-003   -9.485304802298553E-037
 -7.299999999999999E-003   -5.116177997270064E-037
 -7.199999999999999E-003    1.635107306496465E-037
 -7.100000000000000E-003    1.068556646233617E-036
 -6.999999999999999E-003    2.158990743769763E-036
 -6.899999999999999E-003    3.347207700208473E-036
 -6.800000000000000E-003    4.499433719145506E-036
 -6.699999999999999E-003    5.438188315551626E-036
 -6.599999999999999E-003    5.951936775383546E-036
 -6.499999999999999E-003    5.813108632200459E-036
 -6.399999999999999E-003    4.804859125580985E-036
 -6.299999999999999E-003    2.755820597909150E-036
 -6.199999999999999E-003   -4.193318387018704E-037
 -6.100000000000000E-003   -4.677271889220074E-036
 -5.999999999999999E-003   -9.806757270558165E-036
 -5.899999999999999E-003   -1.539948164690694E-035
 -5.800000000000000E-003   -2.083871199582161E-035
 -5.699999999999999E-003   -2.531348475944548E-035
 -5.599999999999999E-003   -2.786512880698113E-035
 -5.499999999999999E-003   -2.747061897576573E-035
 -5.399999999999999E-003   -2.316354834455263E-035
 -5.299999999999999E-003   -1.418839705919294E-035
 -5.199999999999999E-003   -1.776501645093903E-037
 -5.099999999999999E-003    1.866546553339332E-035
 -4.999999999999999E-003    4.140241726099085E-035
 -4.899999999999999E-003    6.624210864904469E-035
 -4.799999999999999E-003    9.050311411483788E-035
 -4.699999999999999E-003    1.106870287625438E-034
 -4.599999999999999E-003    1.226893345161640E-034
 -4.499999999999999E-003    1.221637255477379E-034
 -4.399999999999999E-003    1.050392625594758E-034
 -4.299999999999999E-003    6.816855594424563E-035
 -4.199999999999999E-003    1.005947466016813E-035
 -4.099999999999999E-003   -6.838393636012749E-035
 -3.999999999999999E-003   -1.632107556766904E-034
 -3.899999999999999E-003   -2.669815290952145E-034
 -3.799999999999999E-003   -3.686634254734664E-034
 -3.699999999999999E-003   -4.539835575832834E-034
 -3.599999999999999E-003   -5.063371136440347E-034
 -3.499999999999999E-003   -5.083003683763540E-034
 -3.399999999999999E-003   -4.437311532692045E-034
 -3.299999999999999E-003   -3.003524357755087E-034
 -3.199999999999999E-003   -7.261561597040545E-035
 -3.099999999999999E-003    2.354611962223983E-034
 -2.999999999999999E-003    6.078756821913315E-034
 -2.899999999999999E-003    1.015105056027697E-033
 -2.799999999999999E-003    1.413930144885409E-033
 -2.699999999999999E-003    1.749060809675769E-033
 -2.599999999999999E-003    1.956889897414013E-033
 -2.499999999999999E-003    1.971510766022000E-033
 -2.399999999999999E-003    1.732864710831910E-033
 -2.299999999999999E-003    1.196551924149471E-033
 -2.199999999999999E-003    3.444735046583873E-034
 -2.099999999999999E-003   -8.048939772837902E-034
 -1.999999999999999E-003   -2.188093472475704E-033
 -1.899999999999999E-003   -3.691852579796699E-033
 -1.799999999999999E-003   -5.153532022644572E-033
 -1.699999999999999E-003   -6.368358832293537E-033
 -1.599999999999999E-003   -7.104466693745415E-033
 -1.499999999999999E-003   -7.125999034765354E-033
 -1.399999999999999E-003   -6.223511333637045E-033
 -1.299999999999999E-003   -4.249685331677777E-033
 -1.199999999999999E-003   -1.157069528916186E-033
 -1.099999999999999E-003    2.966674959931808E-033
 -9.999999999999989E-004    7.871521797736012E-033
 -8.999999999999990E-004    1.313182650944561E-032
 -7.999999999999990E-004    1.815290717200471E-032
 -6.999999999999989E-004    2.220230823591519E-032
 -5.999999999999990E-004    2.446859437707418E-032
 -4.999999999999989E-004    2.414765263833533E-032
 -3.999999999999989E-004    2.055269981621527E-032
 -2.999999999999989E-004    1.323990004102161E-032
 -1.999999999999989E-004    2.137064411928627E-033
 -9.999999999999892E-005   -1.234110230871414E-032
  1.084202172485504E-018   -2.921062114108088E-032
  1.000000000000011E-004   -4.688922466504802E-032
  2.000000000000011E-004   -6.323979516103357E-032
  3.000000000000011E-004   -7.570092758532480E-032
  4.000000000000011E-004   -8.151174195831207E-032
  5.000000000000011E-004   -7.802715387279132E-032
  6.000000000000011E-004   -6.310672628923260E-032
  7.000000000000011E-004   -3.554537377187358E-032
  8.000000000000011E-004    4.500340619018016E-033
  9.000000000000012E-004    5.514906315047629E-032
  1.000000000000001E-003    1.125612540389898E-031
  1.100000000000001E-003    1.709035526274286E-031
  1.200000000000001E-003    2.225711486955505E-031
  1.300000000000001E-003    2.587108217316148E-031
  1.400000000000001E-003    2.700585254192626E-031
  1.500000000000001E-003    2.480674760217664E-031
  1.600000000000001E-003    1.862567110297739E-031
  1.700000000000001E-003    8.166152636221457E-032
  1.800000000000001E-003   -6.377994475516249E-032
  1.900000000000001E-003   -2.421064502706345E-031
  2.000000000000001E-003   -4.387031855495802E-031
  2.100000000000001E-003   -6.323810734139659E-031
  2.200000000000001E-003   -7.963520209589986E-031
  2.300000000000001E-003   -9.002186880505346E-031
  2.400000000000001E-003   -9.129966335100873E-031
  2.500000000000001E-003   -8.070529785228640E-031
  2.600000000000001E-003   -5.626953449228662E-031
  2.700000000000001E-003   -1.729854248270506E-031
  2.800000000000001E-003    3.517931276914739E-031
  2.900000000000001E-003    9.806943324807613E-031
  3.000000000000001E-003    1.660425522671329E-030
  3.100000000000001E-003    2.316119114341353E-030
  3.200000000000001E-003    2.855125131662527E-030
  3.300000000000001E-003    3.174152345229449E-030
  3.400000000000001E-003    3.169734610261619E-030
  3.500000000000001E-003    2.751564010277203E-030
  3.600000000000001E-003    1.857741633175169E-030
  3.700000000000001E-003    4.704943107425529E-031
  3.800000000000001E-003   -1.369539532031059E-030
  3.900000000000001E-003   -3.552662019892098E-030
  4.000000000000001E-003   -5.895435889525944E-030
  4.100000000000001E-003   -8.144146046508873E-030
  4.200000000000001E-003   -9.988107505704105E-030
  4.300000000000001E-003   -1.108371158507829E-029
  4.400000000000001E-003   -1.108897542477286E-029
  4.500000000000001E-003   -9.706970757813797E-030
  4.600000000000002E-003   -6.734956159662297E-030
  4.700000000000001E-003   -2.114518593130961E-030
  4.800000000000001E-003    4.023314214667315E-030
  4.900000000000002E-003    1.132489907626514E-029
  5.000000000000001E-003    1.919996216227792E-029
  5.100000000000001E-003    2.683331838937390E-029
  5.200000000000001E-003    3.322742886016920E-029
  5.300000000000002E-003    3.727826067063628E-029
  5.400000000000001E-003    3.788343519528135E-029
  5.500000000000001E-003    3.407740517218067E-029
  5.600000000000002E-003    2.518372879688990E-029
  5.700000000000001E-003    1.096999366547980E-029
  5.800000000000001E-003   -8.212955007480750E-030
  5.900000000000002E-003   -3.132832435456314E-029
  6.000000000000001E-003   -5.660869879378780E-029
  6.100000000000001E-003   -8.158884250394200E-029
  6.200000000000002E-003   -1.032308451331038E-028
  6.300000000000002E-003   -1.181484968598844E-028
  6.400000000000001E-003   -1.229275864998706E-028
  6.500000000000001E-003   -1.145263159426527E-028
  6.600000000000002E-003   -9.072647150869935E-029
  6.700000000000001E-003   -5.059311569251533E-029
  6.800000000000001E-003    5.110377855400010E-030
  6.900000000000002E-003    7.361221920759749E-029
  7.000000000000001E-003    1.499883240347144E-028
  7.100000000000001E-003    2.272404550378568E-028
  7.200000000000002E-003    2.966379029251083E-028
  7.300000000000002E-003    3.483424434444512E-028
  7.400000000000001E-003    3.723067264782290E-028
  7.500000000000001E-003    3.594011225921069E-028
  7.600000000000002E-003    3.026873978918823E-028
  7.700000000000001E-003    1.987207920058702E-028
  7.800000000000001E-003    4.873338375376997E-029
  7.900000000000001E-003   -1.404672964561284E-028
  8.000000000000002E-003   -3.560537587000184E-028
  8.100000000000001E-003   -5.793388846950041E-028
  8.200000000000001E-003   -7.866555038932556E-028
  8.300000000000002E-003   -9.510076502101125E-028
  8.400000000000001E-003   -1.044466275699072E-027
  8.500000000000002E-003   -1.041188651976650E-027
  8.600000000000002E-003   -9.208413341989816E-028
  8.700000000000001E-003   -6.721119414629671E-028
  8.800000000000002E-003   -2.959179506771509E-028
  8.900000000000002E-003    1.921264533398919E-028
  9.000000000000001E-003    7.604290944179439E-028
  9.100000000000002E-003    1.361719818190681E-027
  9.200000000000002E-003    1.935226780999955E-027
  9.300000000000001E-003    2.410862264477340E-027
  9.400000000000002E-003    2.715342385460267E-027
  9.500000000000001E-003    2.779925563523996E-027
  9.600000000000001E-003    2.549199079555076E-027
  9.700000000000002E-003    1.990100722332766E-027
  9.800000000000001E-003    1.100178511177735E-027
  9.900000000000001E-003   -8.602973740518815E-029
  1.000000000000000E-002   -1.493612316325697E-027
  1.010000000000000E-002   -3.007883427451843E-027
  1.020000000000000E-002   -4.479692791900066E-027
  1.030000000000000E-002   -5.735751069226262E-027
  1.040000000000000E-002   -6.593760654391920E-027
  1.050000000000000E-002   -6.881535385445197E-027
  1.060000000000000E-002   -6.458662963575591E-027
  1.070000000000000E-002   -5.238682628823370E-027
  1.080000000000000E-002   -3.209306305100507E-027
  1.090000000000000E-002   -4.479459651877029E-028
  1.100000000000000E-002    2.870161495752782E-027
  1.110000000000000E-002    6.473583254602324E-027
  1.120000000000000E-002    1.000777629959786E-026
  1.130000000000000E-002    1.306025045014297E-026
  1.140000000000000E-002    1.519719235003264E-026
  1.150000000000000E-002    1.600945531583864E-026
  1.160000000000000E-002    1.516429688862125E-026
  1.170000000000000E-002    1.245792456945911E-026
  1.180000000000000E-002    7.862868527207600E-027
  1.190000000000000E-002    1.563674395345554E-027
  1.200000000000000E-002   -6.025438148386715E-027
  1.210000000000000E-002   -1.426637391416108E-026
  1.220000000000000E-002   -2.233013174752430E-026
  1.230000000000000E-002   -2.925807521492446E-026
  1.240000000000000E-002   -3.404964474222714E-026
  1.250000000000000E-002   -3.577110591964969E-026
  1.260000000000000E-002   -3.367644288495525E-026
  1.270000000000000E-002   -2.732852816611056E-026
  1.280000000000000E-002   -1.670634135609562E-026
  1.290000000000000E-002   -2.283118849000972E-027
  1.300000000000000E-002    1.493909234673650E-026
  1.310000000000000E-002    3.345060587582770E-026
  1.320000000000000E-002    5.131859847039291E-026
  1.330000000000000E-002    6.633678889091262E-026
  1.340000000000000E-002    7.623453744128037E-026
  1.350000000000000E-002    7.893166603773731E-026
  1.360000000000000E-002    7.281747241545153E-026
  1.370000000000000E-002    5.702541268224007E-026
  1.380000000000000E-002    3.167046571372219E-026
  1.390000000000000E-002   -1.985679553808659E-027
  1.400000000000000E-002   -4.147404888699584E-026
  1.410000000000000E-002   -8.318892114955449E-026
  1.420000000000000E-002   -1.226049302407870E-025
  1.430000000000000E-002   -1.546417787523548E-025
  1.440000000000000E-002   -1.741610124269368E-025
  1.450000000000000E-002   -1.765601392606065E-025
  1.460000000000000E-002   -1.584122164634060E-025
  1.470000000000000E-002   -1.180840710582514E-025
  1.480000000000000E-002   -5.625662038913700E-026
  1.490000000000000E-002    2.373155574945081E-026
  1.500000000000000E-002    1.157895385345782E-025
  1.510000000000000E-002    2.112850136487076E-025
  1.520000000000000E-002    2.995910704799023E-025
  1.530000000000000E-002    3.689665062258199E-025
  1.540000000000000E-002    4.077262376513076E-025
  1.550000000000000E-002    4.056185890805167E-025
  1.560000000000000E-002    3.552854008237777E-025
  1.570000000000000E-002    2.536505203658702E-025
  1.580000000000000E-002    1.030613665528471E-025
  1.590000000000000E-002   -8.799307253765111E-026
  1.600000000000000E-002   -3.047477926933168E-025
  1.610000000000000E-002   -5.267313974245986E-025
  1.620000000000000E-002   -7.290994035465373E-025
  1.630000000000000E-002   -8.847151695825110E-025
  1.640000000000000E-002   -9.668701678649751E-025
  1.650000000000000E-002   -9.524446730112634E-025
  1.660000000000000E-002   -8.252226456644909E-025
  1.670000000000000E-002   -5.790067573001982E-025
  1.680000000000000E-002   -2.201403947096003E-025
  1.690000000000000E-002    2.309594620046974E-025
  1.700000000000000E-002    7.396070879428480E-025
  1.710000000000000E-002    1.258250991142376E-024
  1.720000000000000E-002    1.729592804545865E-024
  1.730000000000000E-002    2.091373039574459E-024
  1.740000000000000E-002    2.282565684845545E-024
  1.750000000000000E-002    2.250523273062492E-024
  1.760000000000000E-002    1.958430042211791E-024
  1.770000000000000E-002    1.392267205142264E-024
  1.780000000000000E-002    5.664186944353840E-025
  1.790000000000000E-002   -4.729508019492286E-025
  1.800000000000000E-002   -1.647514484257797E-024
  1.810000000000000E-002   -2.849953036251784E-024
  1.820000000000000E-002   -3.950932850275048E-024
  1.830000000000000E-002   -4.809753223320667E-024
  1.840000000000000E-002   -5.288096960507291E-024
  1.850000000000000E-002   -5.265873216050475E-024
  1.860000000000000E-002   -4.657730520035365E-024
  1.870000000000000E-002   -3.428507624486556E-024