 -4.000000000000000E-002    0.000000000000000E+000
 -3.990000000000000E-002    0.000000000000000E+000
 -3.980000000000000E-002    0.000000000000000E+000
 -3.970000000000000E-002    0.000000000000000E+000
 -3.960000000000000E-002    0.000000000000000E+000
 -3.950000000000000E-002    0.000000000000000E+000
 -3.940000000000000E-002    0.000000000000000E+000
 -3.930000000000000E-002    0.000000000000000E+000
 -3.920000000000000E-002   -2.486454445387275E-028
 -3.910000000000000E-002   -3.962013113381857E-027
 -3.900000000000000E-002   -3.312110122469878E-026
 -3.890000000000000E-002   -1.929766326512869E-025
 -3.880000000000000E-002   -8.785725298688157E-025
 -3.870000000000000E-002   -3.322919735889992E-024
 -3.860000000000000E-002   -1.084060823183587E-023
 -3.850000000000000E-002   -3.127492422619391E-023
 -3.840000000000000E-002   -8.117633201989874E-023
 -3.830000000000000E-002   -1.918680259028421E-022
 -3.820000000000000E-002   -4.164046950028156E-022
 -3.810000000000000E-002   -8.340508017835828E-022
 -3.800000000000000E-002   -1.544942939872439E-021
 -3.790000000000000E-002   -2.642099588574830E-021
 -3.780000000000000E-002   -4.141739556645523E-021
 -3.770000000000000E-002   -5.848062695006727E-021
 -3.760000000000000E-002   -7.128870114862017E-021
 -3.750000000000000E-002   -6.588871163633621E-021
 -3.740000000000000E-002   -1.654363189253082E-021
 -3.730000000000000E-002    1.186826712062786E-020
 -3.720000000000000E-002    4.012445180276365E-020
 -3.710000000000000E-002    9.120374632969674E-020
 -3.700000000000000E-002    1.744607055796254E-019
 -3.690000000000000E-002    2.987491012346069E-019
 -3.680000000000000E-002    4.691290375969190E-019
 -3.670000000000000E-002    6.816907323278122E-019
 -3.660000000000000E-002    9.163875059430455E-019
 -3.650000000000000E-002    1.128230977173403E-018
 -3.640000000000000E-002    1.237894690228187E-018
 -3.630000000000000E-002    1.123669621811958E-018
 -3.620000000000000E-002    6.177232521320436E-019
 -3.610000000000000E-002   -4.894492432840732E-019
 -3.600000000000000E-002   -2.431892626483787E-018
 -3.590000000000000E-002   -5.433959375266580E-018
 -3.580000000000000E-002   -9.655662974097525E-018
 -3.570000000000000E-002   -1.511676327760344E-017
 -3.560000000000000E-002   -2.160272296937077E-017
 -3.550000000000000E-002   -2.856116127644443E-017
 -3.540000000000000E-002   -3.500398652208113E-017
 -3.530000000000000E-002   -3.943721814321323E-017
 -3.520000000000000E-002   -3.984636076305368E-017
 -3.510000000000000E-002   -3.376841626858151E-017
 -3.500000000000000E-002   -1.848045773695198E-017
 -3.490000000000000E-002    8.672672204949570E-018
 -3.480000000000000E-002    4.980373657032713E-017
 -3.470000000000000E-002    1.058763647533994E-016
 -3.460000000000000E-002    1.760106220217868E-016
 -3.450000000000000E-002    2.567791172668890E-016
 -3.440000000000000E-002    3.416060974456964E-016
 -3.430000000000000E-002    4.204096898190049E-016
 -3.420000000000000E-002    4.796431073191723E-016
 -3.410000000000000E-002    5.028843793160101E-016
 -3.400000000000000E-002    4.720927939126610E-016
 -3.390000000000000E-002    3.695864762143428E-016
 -3.380000000000000E-002    1.807006723781611E-016
 -3.370000000000000E-002   -1.030333216203156E-016
 -3.360000000000000E-002   -4.804861331623643E-016
 -3.350000000000000E-002   -9.377355354560785E-016
 -3.340000000000000E-002   -1.445621310761973E-015
 -3.330000000000000E-002   -1.958652197911009E-015
 -3.320000000000000E-002   -2.415858185362828E-015
 -3.310000000000000E-002   -2.744074262912827E-015
 -3.300000000000000E-002   -2.863932533502297E-015
 -3.290000000000000E-002   -2.698525924208834E-015
 -3.280000000000000E-002   -2.184308117082495E-015
 -3.270000000000000E-002   -1.283348324829594E-015
 -3.260000000000000E-002    4.385041246711006E-018
 -3.250000000000000E-002    1.630404136943086E-015
 -3.240000000000000E-002    3.490666150976415E-015
 -3.230000000000000E-002    5.424045549423601E-015
 -3.220000000000000E-002    7.217980800608114E-015
 -3.210000000000000E-002    8.622386035898696E-015
 -3.200000000000000E-002    9.372069555455863E-015
 -3.190000000000000E-002    9.216777570365778E-015
 -3.180000000000000E-002    7.956751857095710E-015
 -3.170000000000000E-002    5.480423715220656E-015
 -3.160000000000000E-002    1.799794763398829E-015
 -3.150000000000000E-002   -2.921663042864353E-015
 -3.140000000000000E-002   -8.353944358157423E-015
 -3.130000000000000E-002   -1.400311263970186E-014
 -3.120000000000000E-002   -1.923517350036536E-014
 -3.110000000000000E-002   -2.332278330794504E-014
 -3.100000000000000E-002   -2.551375516743135E-014
 -3.090000000000000E-002   -2.511729672603016E-014
 -3.080000000000000E-002   -2.160078879793755E-014
 -3.070000000000000E-002   -1.468717358914057E-014
 -3.060000000000000E-002   -4.440950356020592E-015
 -3.050000000000000E-002    8.670038775926933E-015
 -3.040000000000000E-002    2.374930434260387E-014
 -3.030000000000000E-002    3.949283793453342E-014
 -3.020000000000000E-002    5.426271316013340E-014
 -3.010000000000000E-002    6.621377959134678E-014
 -3.000000000000000E-002    7.346770657140613E-014
 -2.990000000000000E-002    7.432189447498810E-014
 -2.980000000000000E-002    6.747436484542593E-014
 -2.970000000000000E-002    5.224083861298677E-014
 -2.960000000000000E-002    2.873713632309703E-014
 -2.950000000000000E-002   -1.999949956209461E-015
 -2.940000000000000E-002   -3.797721508274899E-014
 -2.930000000000000E-002   -7.631233099163067E-014
 -2.920000000000000E-002   -1.134119972347047E-013
 -2.910000000000000E-002   -1.452571838783450E-013
 -2.900000000000000E-002   -1.677789307339624E-013
 -2.890000000000000E-002   -1.772955025087685E-013
 -2.880000000000000E-002   -1.709707604307558E-013
 -2.870000000000000E-002   -1.472455557143497E-013
 -2.860000000000000E-002   -1.061912126952425E-013
 -2.850000000000000E-002   -4.973568083313773E-014
 -2.840000000000000E-002    1.827892335001437E-014
 -2.830000000000000E-002    9.223516025307242E-014
 -2.820000000000000E-002    1.650861121148380E-013
 -2.810000000000000E-002    2.288972078968404E-013
 -2.800000000000000E-002    2.755517356899673E-013
 -2.790000000000000E-002    2.975671100972548E-013
 -2.780000000000000E-002    2.889517688369048E-013
 -2.770000000000000E-002    2.460216507738210E-013
 -2.760000000000000E-002    1.680909575195795E-013
 -2.750000000000000E-002    5.795643025661197E-014
 -2.740000000000000E-002   -7.789356946831874E-014
 -2.730000000000000E-002   -2.293933939825756E-013
 -2.720000000000000E-002   -3.833609176484442E-013
 -2.710000000000000E-002   -5.242968624267092E-013
 -2.700000000000000E-002   -6.354860197107453E-013
 -2.690000000000000E-002   -7.003331254683489E-013
 -2.680000000000000E-002   -7.038418919265128E-013
 -2.670000000000000E-002   -6.341283635374587E-013
 -2.660000000000000E-002   -4.838489634117100E-013
 -2.650000000000000E-002   -2.514224580521583E-013
 -2.640000000000000E-002    5.806734544733045E-014
 -2.630000000000000E-002    4.323831185156831E-013
 -2.620000000000000E-002    8.521365660171482E-013
 -2.610000000000000E-002    1.291325791657133E-012
 -2.600000000000000E-002    1.718420523704844E-012
 -2.590000000000000E-002    2.097974829787993E-012
 -2.580000000000000E-002    2.392711823246489E-012
 -2.570000000000000E-002    2.565989251084517E-012
 -2.560000000000000E-002    2.584523816121804E-012
 -2.550000000000000E-002    2.421223180129566E-012
 -2.540000000000000E-002    2.057945201415987E-012
 -2.530000000000000E-002    1.487994648164802E-012
 -2.520000000000000E-002    7.181435693290800E-013
 -2.510000000000000E-002   -2.300259859792059E-013
 -2.500000000000000E-002   -1.319652571055255E-012
 -2.490000000000000E-002   -2.499159391579631E-012
 -2.480000000000000E-002   -3.703965603655993E-012
 -2.470000000000000E-002   -4.859391186728168E-012
 -2.460000000000000E-002   -5.884711908832783E-012
 -2.450000000000000E-002   -6.698224444027948E-012
 -2.440000000000000E-002   -7.223070160106669E-012
 -2.430000000000000E-002   -7.393448922846753E-012
 -2.420000000000000E-002   -7.160777830405787E-012
 -2.410000000000000E-002   -6.499255278878946E-012
 -2.400000000000000E-002   -5.410268957935251E-012
 -2.390000000000000E-002   -3.925102287754628E-012
 -2.380000000000000E-002   -2.105454930673694E-012
 -2.370000000000000E-002   -4.144399254657899E-014
 -2.360000000000000E-002    2.153072895982832E-012
 -2.350000000000000E-002    4.347763950120098E-012
 -2.340000000000000E-002    6.405322219029513E-012
 -2.330000000000000E-002    8.192569347346057E-012
 -2.320000000000000E-002    9.592295617478375E-012
 -2.310000000000000E-002    1.051475394222430E-011
 -2.300000000000000E-002    1.090763634792726E-011
 -2.290000000000000E-002    1.076336525074541E-011
 -2.280000000000000E-002    1.012262079031821E-011
 -2.270000000000000E-002    9.073340403629258E-012
 -2.260000000000000E-002    7.744753199945226E-012
 -2.250000000000000E-002    6.296489590486521E-012
 -2.240000000000000E-002    4.903351607889338E-012
 -2.230000000000000E-002    3.736826371438201E-012
 -2.220000000000000E-002    2.944922407658413E-012
 -2.210000000000000E-002    2.632248150453678E-012
 -2.200000000000000E-002    2.842492314172733E-012
 -2.190000000000000E-002    3.545408316204028E-012
 -2.180000000000000E-002    4.630231942232510E-012
 -2.170000000000000E-002    5.906981264305791E-012
 -2.160000000000000E-002    7.116411995166451E-012
 -2.150000000000000E-002    7.948672317090435E-012
 -2.140000000000000E-002    8.069718475578211E-012
 -2.130000000000000E-002    7.153737926729544E-012
 -2.120000000000000E-002    4.919022770780306E-012
 -2.110000000000000E-002    1.164126779644032E-012
 -2.100000000000000E-002   -4.199189725005356E-012
 -2.090000000000000E-002   -1.111974409546405E-011
 -2.080000000000000E-002   -1.939061344832709E-011
 -2.070000000000000E-002   -2.864525374460786E-011
 -2.060000000000000E-002   -3.836755817596439E-011
 -2.050000000000000E-002   -4.791630681861674E-011
 -2.040000000000000E-002   -5.656300460304410E-011
 -2.030000000000000E-002   -6.354093938795262E-011
 -2.020000000000000E-002   -6.810206872566083E-011
 -2.010000000000000E-002   -6.957744888769979E-011
 -2.000000000000000E-002   -6.743633359080553E-011
 -1.990000000000000E-002   -6.133899431946495E-011
 -1.980000000000000E-002   -5.117840005974611E-011
 -1.970000000000000E-002   -3.710690619223331E-011
 -1.960000000000000E-002   -1.954490203969815E-011
 -1.950000000000000E-002    8.300829644743098E-013
 -1.940000000000000E-002    2.311389895884473E-011
 -1.930000000000000E-002    4.622434857929516E-011
 -1.920000000000000E-002    6.896484248688967E-011
 -1.910000000000000E-002    9.009890344881556E-011
 -1.900000000000000E-002    1.084304178620507E-010
 -1.890000000000000E-002    1.228839586104568E-010
 -1.880000000000000E-002    1.325793572669682E-010
 -1.870000000000000E-002    1.368952837005117E-010
 -1.860000000000000E-002    1.355168088052528E-010
 -1.850000000000000E-002    1.284635110713590E-010
 -1.840000000000000E-002    1.160953873523379E-010
 -1.830000000000000E-002    9.909571535258040E-011
 -1.820000000000000E-002    7.843111087131813E-011
 -1.810000000000000E-002    5.529062251884256E-011
 -1.800000000000000E-002    3.100710068734763E-011
 -1.790000000000000E-002    6.965166543913016E-012
 -1.780000000000000E-002   -1.549862924949642E-011
 -1.770000000000000E-002   -3.519727321370101E-011
 -1.760000000000000E-002   -5.118939438049466E-011
 -1.750000000000000E-002   -6.286304455875035E-011
 -1.740000000000000E-002   -6.999984092212274E-011
 -1.730000000000000E-002   -7.281318041810673E-011
 -1.720000000000000E-002   -7.195480907372699E-011
 -1.710000000000000E-002   -6.848583902817012E-011
 -1.700000000000000E-002   -6.381015068651711E-011
 -1.690000000000000E-002   -5.957083473338157E-011
 -1.680000000000000E-002   -5.751335337912258E-011
 -1.670000000000000E-002   -5.932212080548717E-011
 -1.660000000000000E-002   -6.644086375018309E-011
 -1.650000000000000E-002   -7.989014470847311E-011
 -1.640000000000000E-002   -1.000973360152879E-010
 -1.630000000000000E-002   -1.267568081589311E-010
 -1.620000000000000E-002   -1.587371126585436E-010
 -1.610000000000000E-002   -1.940514398806641E-010
 -1.600000000000000E-002   -2.299036467390149E-010
 -1.590000000000000E-002   -2.628175085458544E-010
 -1.580000000000000E-002   -2.888498112029923E-010
 -1.570000000000000E-002   -3.038806880231068E-010
 -1.560000000000000E-002   -3.039653387253182E-010
 -1.550000000000000E-002   -2.857231449780917E-010
 -1.540000000000000E-002   -2.467337039401344E-010
 -1.530000000000000E-002   -1.859020070218231E-010
 -1.520000000000000E-002   -1.037554402699148E-010
 -1.510000000000000E-002   -2.633503461887348E-012
 -1.500000000000000E-002    1.132621018102556E-010
 -1.490000000000000E-002    2.379806467848687E-010
 -1.480000000000000E-002    3.641103263956064E-010
 -1.470000000000000E-002    4.832358321348501E-010
 -1.460000000000000E-002    5.865445813354997E-010
 -1.450000000000000E-002    6.655418276889428E-010
 -1.440000000000000E-002    7.128204449631202E-010
 -1.430000000000000E-002    7.228182751921705E-010
 -1.420000000000000E-002    6.924901125557937E-010
 -1.410000000000000E-002    6.218190892667653E-010
 -1.400000000000000E-002    5.141019563512837E-010
 -1.390000000000000E-002    3.759552937218662E-010
 -1.380000000000000E-002    2.170118650537012E-010
 -1.370000000000000E-002    4.930419969041258E-011
 -1.360000000000000E-002   -1.136379698161261E-010
 -1.350000000000000E-002   -2.579188656306345E-010
 -1.340000000000000E-002   -3.705481414617108E-010
 -1.330000000000000E-002   -4.407447948039996E-010
 -1.320000000000000E-002   -4.611484972417143E-010
 -1.310000000000000E-002   -4.288111442372508E-010
 -1.300000000000000E-002   -3.458500433592516E-010
 -1.290000000000000E-002   -2.196678002537005E-010
 -1.280000000000000E-002   -6.267432266675622E-011
 -1.270000000000000E-002    1.085063042337616E-010
 -1.260000000000000E-002    2.743146393066142E-010
 -1.250000000000000E-002    4.139389989701119E-010
 -1.240000000000000E-002    5.072736173986700E-010
 -1.230000000000000E-002    5.369831777031641E-010
 -1.220000000000000E-002    4.904801846394716E-010
 -1.210000000000000E-002    3.616121496656230E-010
 -1.200000000000000E-002    1.518664389012932E-010
 -1.190000000000000E-002   -1.290671035828394E-010
 -1.180000000000000E-002   -4.634872645048461E-010
 -1.170000000000000E-002   -8.266700412881166E-010
 -1.160000000000000E-002   -1.188626308721862E-009
 -1.150000000000000E-002   -1.516515588670587E-009
 -1.140000000000000E-002   -1.777535783478020E-009
 -1.130000000000000E-002   -1.942038877981042E-009
 -1.120000000000000E-002   -1.986585790047737E-009
 -1.110000000000000E-002   -1.896633478345039E-009
 -1.100000000000000E-002   -1.668560320724925E-009
 -1.090000000000000E-002   -1.310777924435254E-009
 -1.080000000000000E-002   -8.437513372400654E-010
 -1.070000000000000E-002   -2.988407422191140E-010
 -1.060000000000000E-002    2.840089230001521E-010
 -1.050000000000000E-002    8.595873076074872E-010
 -1.040000000000000E-002    1.381493830601163E-009
 -1.030000000000000E-002    1.806621832208171E-009
 -1.020000000000000E-002    2.099634063272552E-009
 -1.010000000000000E-002    2.236990706534496E-009
 -1.000000000000000E-002    2.210094148041797E-009
 -9.899999999999999E-003    2.027178099906021E-009
 -9.800000000000000E-003    1.713663362736810E-009
 -9.699999999999999E-003    1.310836176604182E-009
 -9.599999999999999E-003    8.728610403042076E-010
 -9.500000000000000E-003    4.623057195387368E-010
 -9.399999999999999E-003    1.445134853529597E-010
 -9.299999999999999E-003   -1.870250421489190E-011
 -9.200000000000000E-003    2.452574393045866E-011
 -9.099999999999999E-003    3.102137993103941E-010
 -8.999999999999999E-003    8.537338605724966E-010
 -8.900000000000000E-003    1.646673486790873E-009
 -8.799999999999999E-003    2.655748070678285E-009
 -8.699999999999999E-003    3.823993452587462E-009
 -8.600000000000000E-003    5.074255665147440E-009
 -8.499999999999999E-003    6.314768137299943E-009
 -8.399999999999999E-003    7.446390547640170E-009
 -8.300000000000000E-003    8.370900440263277E-009
 -8.199999999999999E-003    8.999586796130163E-009
 -8.100000000000000E-003    9.261341990790582E-009
 -8.000000000000000E-003    9.109440970593756E-009
 -7.899999999999999E-003    8.526308032061364E-009
 -7.800000000000000E-003    7.525725802649065E-009
 -7.699999999999999E-003    6.152192518916126E-009
 -7.599999999999999E-003    4.477388446409358E-009
 -7.499999999999999E-003    2.594035312558338E-009
 -7.399999999999999E-003    6.076872125250389E-010
 -7.299999999999999E-003   -1.372736840560832E-009
 -7.199999999999999E-003   -3.244709699358169E-009
 -7.100000000000000E-003   -4.921081820259580E-009
 -6.999999999999999E-003   -6.337256111012854E-009
 -6.899999999999999E-003   -7.455613453424135E-009
 -6.800000000000000E-003   -8.266497204086159E-009
 -6.699999999999999E-003   -8.785376435378571E-009
 -6.599999999999999E-003   -9.046098322427396E-009
 -6.499999999999999E-003   -9.090660929159805E-009
 -6.399999999999999E-003   -8.956154767750323E-009
 -6.299999999999999E-003   -8.659908506560841E-009
 -6.199999999999999E-003   -8.184204813237528E-009
 -6.100000000000000E-003   -7.461785914666833E-009
 -5.999999999999999E-003   -6.363702037819162E-009
 -5.899999999999999E-003   -4.690584905405454E-009
 -5.800000000000000E-003   -2.168384485394738E-009
 -5.699999999999999E-003    1.550867499658102E-009
 -5.599999999999999E-003    6.883166839424938E-009
 -5.499999999999999E-003    1.430190336466329E-008
 -5.399999999999999E-003    2.432309103451732E-008
 -5.299999999999999E-003    3.748812475265028E-008
 -5.199999999999999E-003    5.434507967482966E-008
 -5.099999999999999E-003    7.543057895066963E-008
 -4.999999999999999E-003    1.012538404877036E-007
 -4.899999999999999E-003    1.322843434122582E-007
 -4.799999999999999E-003    1.689445593029614E-007
 -4.699999999999999E-003    2.116084188149830E-007
 -4.599999999999999E-003    2.606055232671820E-007
 -4.499999999999999E-003    3.162315106074740E-007
 -4.399999999999999E-003    3.787630006808171E-007
 -4.299999999999999E-003    4.484762822395412E-007
 -4.199999999999999E-003    5.256677901149588E-007
 -4.099999999999999E-003    6.106745785373527E-007
 -3.999999999999999E-003    7.038929007934711E-007
 -3.899999999999999E-003    8.057933550744213E-007
 -3.799999999999999E-003    9.169302822936695E-007
 -3.699999999999999E-003    1.037946106809952E-006
 -3.599999999999999E-003    1.169567866615278E-006
 -3.499999999999999E-003    1.312598897762223E-006
 -3.399999999999999E-003    1.467904290841461E-006
 -3.299999999999999E-003    1.636393094058559E-006
 -3.199999999999999E-003    1.818998138469558E-006
 -3.099999999999999E-003    2.016656148959864E-006
 -2.999999999999999E-003    2.230289982929071E-006
 -2.899999999999999E-003    2.460794959172421E-006
 -2.799999999999999E-003    2.709031532252976E-006
 -2.699999999999999E-003    2.975825268428835E-006
 -2.599999999999999E-003    3.261973326661014E-006
 -2.499999999999999E-003    3.568258792975030E-006
 -2.399999999999999E-003    3.895472479786239E-006
 -2.299999999999999E-003    4.244437982142560E-006
 -2.199999999999999E-003    4.616040793854492E-006
 -2.099999999999999E-003    5.011257373825473E-006
 -1.999999999999999E-003    5.431182881740556E-006
 -1.899999999999999E-003    5.877054364358088E-006
 -1.799999999999999E-003    6.350269202961247E-006
 -1.699999999999999E-003    6.852392950703434E-006
 -1.599999999999999E-003    7.385161659700122E-006
 -1.499999999999999E-003    7.950477520921331E-006
 -1.399999999999999E-003    8.550392352028323E-006
 -1.299999999999999E-003    9.187091062439650E-006
 -1.199999999999999E-003    9.862866534072339E-006
 -1.099999999999999E-003    1.058009885566476E-005
 -9.999999999999989E-004    1.134123093972389E-005
 -8.999999999999990E-004    1.214875381199432E-005
 -7.999999999999990E-004    1.300519548531454E-005
 -6.999999999999989E-004    1.391312027171024E-005
 -5.999999999999990E-004    1.487513620577403E-005
 -4.999999999999989E-004    1.589391639578567E-005
 -3.999999999999989E-004    1.697222005837242E-005
 -2.999999999999989E-004    1.811293386860400E-005
 -1.999999999999989E-004    1.931910972625543E-005
 -9.999999999999892E-005    2.059400942264606E-005
  1.084202172485504E-018    2.194114093477420E-005
  1.000000000000011E-004    2.336430180343070E-005
  2.000000000000011E-004    2.486760890905826E-005
  3.000000000000011E-004    2.645551576691109E-005
  4.000000000000011E-004    2.813282844249345E-005
  5.000000000000011E-004    2.990470023720924E-005
  6.000000000000011E-004    3.177662434758788E-005
  7.000000000000011E-004    3.375440787698179E-005
  8.000000000000011E-004    3.584414445085191E-005
  9.000000000000012E-004    3.805218356255588E-005
  1.000000000000001E-003    4.038509849374049E-005
  1.100000000000001E-003    4.284966242532994E-005
  1.200000000000001E-003    4.545281524217669E-005
  1.300000000000001E-003    4.820166997280536E-005
  1.400000000000001E-003    5.110351188412126E-005
  1.500000000000001E-003    5.416581871978311E-005
  1.600000000000001E-003    5.739629501609775E-005
  1.700000000000001E-003    6.080291787006229E-005
  1.800000000000001E-003    6.439399644136431E-005
  1.900000000000001E-003    6.817824448654357E-005
  2.000000000000001E-003    7.216484395773862E-005
  2.100000000000001E-003    7.636352044649849E-005
  2.200000000000001E-003    8.078459708303979E-005
  2.300000000000001E-003    8.543904859835043E-005
  2.400000000000001E-003    9.033854928547274E-005
  2.500000000000001E-003    9.549546830173458E-005
  2.600000000000001E-003    1.009229003256961E-004
  2.700000000000001E-003    1.066346512464030E-004
  2.800000000000001E-003    1.126452009212957E-004
  2.900000000000001E-003    1.189696804987360E-004
  3.000000000000001E-003    1.256238410671181E-004
  3.100000000000001E-003    1.326239990088812E-004
  3.200000000000001E-003    1.399870343711555E-004
  3.300000000000001E-003    1.477303366287471E-004
  3.400000000000001E-003    1.558718359908222E-004
  3.500000000000001E-003    1.644300431776453E-004
  3.600000000000001E-003    1.734240045600752E-004
  3.700000000000001E-003    1.828734582273582E-004
  3.800000000000001E-003    1.927988684351709E-004
  3.900000000000001E-003    2.032214924099783E-004
  4.000000000000001E-003    2.141635292195685E-004
  4.100000000000001E-003    2.256481891458332E-004
  4.200000000000001E-003    2.376997538344780E-004
  4.300000000000001E-003    2.503437474209620E-004
  4.400000000000001E-003    2.636069044733732E-004
  4.500000000000001E-003    2.775172545636952E-004
  4.600000000000002E-003    2.921041536151660E-004
  4.700000000000001E-003    3.073982958975801E-004
  4.800000000000001E-003    3.234316068450714E-004
  4.900000000000002E-003    3.402372741768810E-004
  5.000000000000001E-003    3.578497421764430E-004
  5.100000000000001E-003    3.763045863436806E-004
  5.200000000000001E-003    3.956385486069510E-004
  5.300000000000002E-003    4.158894310300493E-004
  5.400000000000001E-003    4.370961605094165E-004
  5.500000000000001E-003    4.592987457327440E-004
  5.600000000000002E-003    4.825384210804472E-004
  5.700000000000001E-003    5.068576771221262E-004
  5.800000000000001E-003    5.323003173172774E-004
  5.900000000000002E-003    5.589116313808536E-004
  6.000000000000001E-003    5.867385401253001E-004
  6.100000000000001E-003    6.158295730334353E-004
  6.200000000000002E-003    6.462352581021576E-004
  6.300000000000002E-003    6.780079884483107E-004
  6.400000000000001E-003    7.112022931672203E-004
  6.500000000000001E-003    7.458748598118655E-004
  6.600000000000002E-003    7.820844863155485E-004
  6.700000000000001E-003    8.198923416097633E-004
  6.800000000000001E-003    8.593615400362600E-004
  6.900000000000002E-003    9.005576219446039E-004
  7.000000000000001E-003    9.435480652595712E-004
  7.100000000000001E-003    9.884024846586494E-004
  7.200000000000002E-003    1.035192566420707E-003
  7.300000000000002E-003    1.083991990246099E-003
  7.400000000000001E-003    1.134876341766058E-003
  7.500000000000001E-003    1.187923284985931E-003
  7.600000000000002E-003    1.243212408873472E-003
  7.700000000000001E-003    1.300825382367278E-003
  7.800000000000001E-003    1.360846137312283E-003
  7.900000000000001E-003    1.423360593280046E-003
  8.000000000000002E-003    1.488457344598007E-003
  8.100000000000001E-003    1.556227354535063E-003
  8.200000000000001E-003    1.626764143500545E-003
  8.300000000000002E-003    1.700163884398492E-003
  8.400000000000001E-003    1.776525733500619E-003
  8.500000000000002E-003    1.855951664828550E-003
  8.600000000000002E-003    1.938546583928617E-003
  8.700000000000001E-003    2.024418250547226E-003
  8.800000000000002E-003    2.113677465404820E-003
  8.900000000000002E-003    2.206438111516269E-003
  9.000000000000001E-003    2.302816625085151E-003
  9.100000000000002E-003    2.402932673493298E-003
  9.200000000000002E-003    2.506908421440924E-003
  9.300000000000001E-003    2.614868933432552E-003
  9.400000000000002E-003    2.726941732002426E-003
  9.500000000000001E-003    2.843257614881251E-003
  9.600000000000001E-003    2.963949735042403E-003
  9.700000000000002E-003    3.089153867364917E-003
  9.800000000000001E-003    3.219008612889996E-003
  9.900000000000001E-003    3.353655557776328E-003
  1.000000000000000E-002    3.493239018724598E-003
  1.010000000000000E-002    3.637906264467219E-003
  1.020000000000000E-002    3.787807703745115E-003
  1.030000000000000E-002    3.943096461277979E-003
  1.040000000000000E-002    4.103928820043409E-003
  1.050000000000000E-002    4.270464429484718E-003
  1.060000000000000E-002    4.442865745110246E-003
  1.070000000000000E-002    4.621297920686599E-003
  1.080000000000000E-002    4.805929759977001E-003
  1.090000000000000E-002    4.996932639716460E-003
  1.100000000000000E-002    5.194480397710428E-003
  1.110000000000000E-002    5.398750388772241E-003
  1.120000000000000E-002    5.609921305559230E-003
  1.130000000000000E-002    5.828175453195755E-003
  1.140000000000000E-002    6.053696486002187E-003
  1.150000000000000E-002    6.286671061225914E-003
  1.160000000000000E-002    6.527286959353637E-003
  1.170000000000000E-002    6.775734951939520E-003
  1.180000000000000E-002    7.032206950868846E-003
  1.190000000000000E-002    7.296897556114939E-003
  1.200000000000000E-002    7.570002496098700E-003
  1.210000000000000E-002    7.851719359835706E-003
  1.220000000000000E-002    8.142247502217525E-003
  1.230000000000000E-002    8.441787916312126E-003
  1.240000000000000E-002    8.750544019437307E-003
  1.250000000000000E-002    9.068719312738567E-003
  1.260000000000000E-002    9.396520370156368E-003
  1.270000000000000E-002    9.734152944855523E-003
  1.280000000000000E-002    1.008182553575084E-002
  1.290000000000000E-002    1.043974629496648E-002
  1.300000000000000E-002    1.080812519197433E-002
  1.310000000000000E-002    1.118717253249839E-002
  1.320000000000000E-002    1.157709732231184E-002
  1.330000000000000E-002    1.197810997137948E-002
  1.340000000000000E-002    1.239042022258190E-002
  1.350000000000000E-002    1.281423573181592E-002
  1.360000000000000E-002    1.324976470487104E-002
  1.370000000000000E-002    1.369721216753091E-002
  1.380000000000000E-002    1.415678386762721E-002
  1.390000000000000E-002    1.462868245556915E-002
  1.400000000000000E-002    1.511310773179803E-002
  1.410000000000000E-002    1.561025786577381E-002
  1.420000000000000E-002    1.612032963718255E-002
  1.430000000000000E-002    1.664351338088193E-002
  1.440000000000000E-002    1.718000063007624E-002
  1.450000000000000E-002    1.772997708828251E-002
  1.460000000000000E-002    1.829362395569663E-002
  1.470000000000000E-002    1.887112042318966E-002
  1.480000000000000E-002    1.946264178894424E-002
  1.490000000000000E-002    2.006835686751563E-002
  1.500000000000000E-002    2.068843130793130E-002
  1.510000000000000E-002    2.132302340535526E-002
  1.520000000000000E-002    2.197228569691733E-002
  1.530000000000000E-002    2.263636635668168E-002
  1.540000000000000E-002    2.331540701497916E-002
  1.550000000000000E-002    2.400953719236931E-002
  1.560000000000000E-002    2.471888472731105E-002
  1.570000000000000E-002    2.544356515367201E-002
  1.580000000000000E-002    2.618368579251224E-002
  1.590000000000000E-002    2.693934653686156E-002
  1.600000000000000E-002    2.771063375060144E-002
  1.610000000000000E-002    2.849762912727038E-002
  1.620000000000000E-002    2.930040160188645E-002
  1.630000000000000E-002    3.011900781498800E-002
  1.640000000000000E-002    3.095349489814041E-002
  1.650000000000000E-002    3.180389881440408E-002
  1.660000000000000E-002    3.267023971363205E-002
  1.670000000000000E-002    3.355253121789982E-002
  1.680000000000000E-002    3.445076974488652E-002
  1.690000000000000E-002    3.536493607122568E-002
  1.700000000000000E-002    3.629500368307532E-002
  1.710000000000000E-002    3.724092610545414E-002
  1.720000000000000E-002    3.820264308610181E-002
  1.730000000000000E-002    3.918007762396017E-002
  1.740000000000000E-002    4.017313525533309E-002
  1.750000000000000E-002    4.118170910976147E-002
  1.760000000000000E-002    4.220567296171067E-002
  1.770000000000000E-002    4.324487996376588E-002
  1.780000000000000E-002    4.429916853830093E-002
  1.790000000000000E-002    4.536835393484531E-002
  1.800000000000000E-002    4.645223677566730E-002
  1.810000000000000E-002    4.755059210672159E-002
  1.820000000000000E-002    4.866318088900769E-002
  1.830000000000000E-002    4.978974143691905E-002
  1.840000000000000E-002    5.092999022608082E-002
  1.850000000000000E-002    5.208361976704794E-002
  1.860000000000000E-002    5.325030861019030E-002
  1.870000000000000E-002    5.442970350332957E-002