 -4.000000000000000E-002    0.000000000000000E+000
 -3.990000000000000E-002    0.000000000000000E+000
 -3.980000000000000E-002    0.000000000000000E+000
 -3.970000000000000E-002    0.000000000000000E+000
 -3.960000000000000E-002    0.000000000000000E+000
 -3.950000000000000E-002    0.000000000000000E+000
 -3.940000000000000E-002    0.000000000000000E+000
 -3.930000000000000E-002    0.000000000000000E+000
 -3.920000000000000E-002    0.000000000000000E+000
 -3.910000000000000E-002   -1.194377323922572E-031
 -3.900000000000000E-002   -1.809959124727381E-030
 -3.890000000000000E-002   -1.358200194685538E-029
 -3.880000000000000E-002   -6.472049960238884E-029
 -3.870000000000000E-002   -1.996468760910652E-028
 -3.860000000000000E-002   -2.625916789495219E-028
 -3.850000000000000E-002    1.273280122422376E-027
 -3.840000000000000E-002    1.165419774188853E-026
 -3.830000000000000E-002    5.684877933421626E-026
 -3.820000000000000E-002    2.147816985225591E-025
 -3.810000000000000E-002    6.900609091830801E-025
 -3.800000000000000E-002    1.964011217936016E-024
 -3.790000000000000E-002    5.065171142570744E-024
 -3.780000000000000E-002    1.200575094304829E-023
 -3.770000000000000E-002    2.640122896249462E-023
 -3.760000000000000E-002    5.420733092566369E-023
 -3.750000000000000E-002    1.043401660973272E-022
 -3.740000000000000E-002    1.886647784412626E-022
 -3.730000000000000E-002    3.204402464443530E-022
 -3.720000000000000E-002    5.098373957209943E-022
 -3.710000000000000E-002    7.547166207049597E-022
 -3.700000000000000E-002    1.024687682858233E-021
 -3.690000000000000E-002    1.236904356608744E-021
 -3.680000000000000E-002    1.223492625293569E-021
 -3.670000000000000E-002    6.934152386625470E-022
 -3.660000000000000E-002   -8.037500580476525E-022
 -3.650000000000000E-002   -3.898185859010615E-021
 -3.640000000000000E-002   -9.382759000611874E-021
 -3.630000000000000E-002   -1.812935680536406E-020
 -3.620000000000000E-002   -3.090445714527161E-020
 -3.610000000000000E-002   -4.805049075622758E-020
 -3.600000000000000E-002   -6.901015212716212E-020
 -3.590000000000000E-002   -9.169528287192363E-020
 -3.580000000000000E-002   -1.117434847121905E-019
 -3.570000000000000E-002   -1.217649597214048E-019
 -3.560000000000000E-002   -1.107557277809672E-019
 -3.550000000000000E-002   -6.393292058751729E-020
 -3.540000000000000E-002    3.668264682930653E-020
 -3.530000000000000E-002    2.105736849966914E-019
 -3.520000000000000E-002    4.755816088604771E-019
 -3.510000000000000E-002    8.430764052019684E-019
 -3.500000000000000E-002    1.311429504293896E-018
 -3.490000000000000E-002    1.858122382689334E-018
 -3.480000000000000E-002    2.431289820715328E-018
 -3.470000000000000E-002    2.942041814845038E-018
 -3.460000000000000E-002    3.259468083522371E-018
 -3.450000000000000E-002    3.210697960604986E-018
 -3.440000000000000E-002    2.588623304820002E-018
 -3.430000000000000E-002    1.169751910486047E-018
 -3.420000000000000E-002   -1.256019123298294E-018
 -3.410000000000000E-002   -4.843236035389820E-018
 -3.400000000000000E-002   -9.637843523138302E-018
 -3.390000000000000E-002   -1.551738247625969E-017
 -3.380000000000000E-002   -2.213153106250542E-017
 -3.370000000000000E-002   -2.885310028382630E-017
 -3.360000000000000E-002   -3.475206095056502E-017
 -3.350000000000000E-002   -3.860656065730389E-017
 -3.340000000000000E-002   -3.896434829163289E-017
 -3.330000000000000E-002   -3.426513733987923E-017
 -3.320000000000000E-002   -2.302859036295835E-017
 -3.310000000000000E-002   -4.103907861852396E-018
 -3.300000000000000E-002    2.303433590108082E-017
 -3.290000000000000E-002    5.797237814738533E-017
 -3.280000000000000E-002    9.906672035177943E-017
 -3.270000000000000E-002    1.432289916851576E-016
 -3.260000000000000E-002    1.858450327239460E-016
 -3.250000000000000E-002    2.208862855539130E-016
 -3.240000000000000E-002    2.412621152350443E-016
 -3.230000000000000E-002    2.394416188932412E-016
 -3.220000000000000E-002    2.083420125684964E-016
 -3.210000000000000E-002    1.424408823487229E-016
 -3.200000000000000E-002    3.902282859534983E-017
 -3.190000000000000E-002   -1.005757463592070E-016
 -3.180000000000000E-002   -2.699010388274900E-016
 -3.170000000000000E-002   -4.566997186725750E-016
 -3.160000000000000E-002   -6.428290744679786E-016
 -3.150000000000000E-002   -8.049442171134726E-016
 -3.140000000000000E-002   -9.160888284447038E-016
 -3.130000000000000E-002   -9.482247536751919E-016
 -3.120000000000000E-002   -8.756127530770822E-016
 -3.110000000000000E-002   -6.788150695725953E-016
 -3.100000000000000E-002   -3.489427909790105E-016
 -3.090000000000000E-002    1.083622571139703E-016
 -3.080000000000000E-002    6.698161200033237E-016
 -3.070000000000000E-002    1.292893439734476E-015
 -3.060000000000000E-002    1.916336582655171E-015
 -3.050000000000000E-002    2.463233917293547E-015
 -3.040000000000000E-002    2.846892213694171E-015
 -3.030000000000000E-002    2.979412447292634E-015
 -3.020000000000000E-002    2.782492699637285E-015
 -3.010000000000000E-002    2.199578178853981E-015
 -3.000000000000000E-002    1.208096644936720E-015
 -2.990000000000000E-002   -1.697770285153526E-016
 -2.980000000000000E-002   -1.859545134301383E-015
 -2.970000000000000E-002   -3.731677052439214E-015
 -2.960000000000000E-002   -5.605180549389083E-015
 -2.950000000000000E-002   -7.258363809576131E-015
 -2.940000000000000E-002   -8.446968946799537E-015
 -2.930000000000000E-002   -8.928952392047673E-015
 -2.920000000000000E-002   -8.494203611828167E-015
 -2.910000000000000E-002   -6.996515421351366E-015
 -2.900000000000000E-002   -4.384304509153197E-015
 -2.890000000000000E-002   -7.260508999101281E-016
 -2.880000000000000E-002    3.773713886577421E-015
 -2.870000000000000E-002    8.771632752114978E-015
 -2.860000000000000E-002    1.379885758658722E-014
 -2.850000000000000E-002    1.829189791714365E-014
 -2.840000000000000E-002    2.164056153564884E-014
 -2.830000000000000E-002    2.325036143302499E-014
 -2.820000000000000E-002    2.261462038311792E-014
 -2.810000000000000E-002    1.938943895374008E-014
 -2.800000000000000E-002    1.346323075855954E-014
 -2.790000000000000E-002    5.011727637893821E-015
 -2.780000000000000E-002   -5.470422937786561E-015
 -2.770000000000000E-002   -1.716910411200408E-014
 -2.760000000000000E-002   -2.898644118010025E-014
 -2.750000000000000E-002   -3.961467430513829E-014
 -2.740000000000000E-002   -4.764605069073887E-014
 -2.730000000000000E-002   -5.171207175051035E-014
 -2.720000000000000E-002   -5.064122795164007E-014
 -2.710000000000000E-002   -4.362067999983272E-014
 -2.700000000000000E-002   -3.034470989150635E-014
 -2.690000000000000E-002   -1.113188854832817E-014
 -2.680000000000000E-002    1.300619522078641E-014
 -2.670000000000000E-002    4.035890476246359E-014
 -2.660000000000000E-002    6.858272603220774E-014
 -2.650000000000000E-002    9.484256340665295E-014
 -2.640000000000000E-002    1.160238083531039E-013
 -2.630000000000000E-002    1.290027372084826E-013
 -2.620000000000000E-002    1.309554757192590E-013
 -2.610000000000000E-002    1.196796353955690E-013
 -2.600000000000000E-002    9.389842308222384E-014
 -2.590000000000000E-002    5.351559892113668E-014
 -2.580000000000000E-002   -2.087756359608359E-016
 -2.570000000000000E-002   -6.458749433093873E-014
 -2.560000000000000E-002   -1.355580606045501E-013
 -2.550000000000000E-002   -2.078656153375091E-013
 -2.540000000000000E-002   -2.753735745161201E-013
 -2.530000000000000E-002   -3.314870630580709E-013
 -2.520000000000000E-002   -3.696623427098941E-013
 -2.510000000000000E-002   -3.839663462065328E-013
 -2.500000000000000E-002   -3.696428463162265E-013
 -2.490000000000000E-002   -3.236378356259326E-013
 -2.480000000000000E-002   -2.450376661902399E-013
 -2.470000000000000E-002   -1.353761694643690E-013
 -2.460000000000000E-002    1.224540278747027E-015
 -2.450000000000000E-002    1.581040207426655E-013
 -2.440000000000000E-002    3.263162661525920E-013
 -2.430000000000000E-002    4.950812266596771E-013
 -2.420000000000000E-002    6.524175527467570E-013
 -2.410000000000000E-002    7.859227480247814E-013
 -2.400000000000000E-002    8.836552927953804E-013
 -2.390000000000000E-002    9.350620200748214E-013
 -2.380000000000000E-002    9.318861365792922E-013
 -2.370000000000000E-002    8.689876725222204E-013
 -2.360000000000000E-002    7.450084223424575E-013
 -2.350000000000000E-002    5.628172725264816E-013
 -2.340000000000000E-002    3.296803448255801E-013
 -2.330000000000000E-002    5.711626968821379E-014
 -2.320000000000000E-002   -2.395890640747432E-013
 -2.310000000000000E-002   -5.422082277963329E-013
 -2.300000000000000E-002   -8.307146032024152E-013
 -2.290000000000000E-002   -1.084690248922655E-012
 -2.280000000000000E-002   -1.284918115079643E-012
 -2.270000000000000E-002   -1.415053296607053E-012
 -2.260000000000000E-002   -1.463241366597468E-012
 -2.250000000000000E-002   -1.423539268857160E-012
 -2.240000000000000E-002   -1.296988351874470E-012
 -2.230000000000000E-002   -1.092191324270618E-012
 -2.220000000000000E-002   -8.252740440907264E-013
 -2.210000000000000E-002   -5.191413688763970E-013
 -2.200000000000000E-002   -2.019969991041039E-013
 -2.190000000000000E-002    9.484371558231947E-014
 -2.180000000000000E-002    3.397424116390444E-013
 -2.170000000000000E-002    5.039441353479325E-013
 -2.160000000000000E-002    5.649521100945672E-013
 -2.150000000000000E-002    5.097524740137133E-013
 -2.140000000000000E-002    3.375502327115609E-013
 -2.130000000000000E-002    6.165468868752170E-014
 -2.120000000000000E-002   -2.898047962846910E-013
 -2.110000000000000E-002   -6.745879067239338E-013
 -2.100000000000000E-002   -1.038627314400009E-012
 -2.090000000000000E-002   -1.319897000721231E-012
 -2.080000000000000E-002   -1.453713490821390E-012
 -2.070000000000000E-002   -1.379147666970459E-012
 -2.060000000000000E-002   -1.046065881588024E-012
 -2.050000000000000E-002   -4.221835746070316E-013
 -2.040000000000000E-002    5.005803885292268E-013
 -2.030000000000000E-002    1.701180324312209E-012
 -2.020000000000000E-002    3.126647367001684E-012
 -2.010000000000000E-002    4.691995099579032E-012
 -2.000000000000000E-002    6.283196964663531E-012
 -1.990000000000000E-002    7.763366221400816E-012
 -1.980000000000000E-002    8.981949637076920E-012
 -1.970000000000000E-002    9.786434188324154E-012
 -1.960000000000000E-002    1.003576361334628E-011
 -1.950000000000000E-002    9.614387116652397E-012
 -1.940000000000000E-002    8.445707123966690E-012
 -1.930000000000000E-002    6.503590994552320E-012
 -1.920000000000000E-002    3.820673506988492E-012
 -1.910000000000000E-002    4.923387471889923E-013
 -1.900000000000000E-002   -3.324391910709071E-012
 -1.890000000000000E-002   -7.417474693311537E-012
 -1.880000000000000E-002   -1.153187600335492E-011
 -1.870000000000000E-002   -1.538640072180134E-011
 -1.860000000000000E-002   -1.869422659014995E-011
 -1.850000000000000E-002   -2.118561477264133E-011
 -1.840000000000000E-002   -2.263095101783869E-011
 -1.830000000000000E-002   -2.286208387416140E-011
 -1.820000000000000E-002   -2.179000452095238E-011
 -1.810000000000000E-002   -1.941702815859523E-011
 -1.800000000000000E-002   -1.584205404771457E-011
 -1.790000000000000E-002   -1.125807193355500E-011
 -1.780000000000000E-002   -5.941607809668016E-012
 -1.770000000000000E-002   -2.346012862091016E-013
 -1.760000000000000E-002    5.480167440522134E-012
 -1.750000000000000E-002    1.080831344338817E-011
 -1.740000000000000E-002    1.537550281808816E-011
 -1.730000000000000E-002    1.885895779609818E-011
 -1.720000000000000E-002    2.101617186189873E-011
 -1.710000000000000E-002    2.170825357559992E-011
 -1.700000000000000E-002    2.091573529049201E-011
 -1.690000000000000E-002    1.874517169203078E-011
 -1.680000000000000E-002    1.542557690157342E-011
 -1.670000000000000E-002    1.129453052818048E-011
 -1.660000000000000E-002    6.774552135347422E-012
 -1.650000000000000E-002    2.341209060463615E-012
 -1.640000000000000E-002   -1.514946616836714E-012
 -1.630000000000000E-002   -4.329889376828209E-012
 -1.620000000000000E-002   -5.708108568474130E-012
 -1.610000000000000E-002   -5.361787252587548E-012
 -1.600000000000000E-002   -3.144041134795053E-012
 -1.590000000000000E-002    9.265884130363134E-013
 -1.580000000000000E-002    6.653014022704214E-012
 -1.570000000000000E-002    1.365936635193378E-011
 -1.560000000000000E-002    2.140486090755241E-011
 -1.550000000000000E-002    2.921173732831106E-011
 -1.540000000000000E-002    3.630646683767736E-011
 -1.530000000000000E-002    4.187246253553456E-011
 -1.520000000000000E-002    4.511139782321049E-011
 -1.510000000000000E-002    4.530960997453896E-011
 -1.500000000000000E-002    4.190509953804235E-011
 -1.490000000000000E-002    3.455023027698304E-011
 -1.480000000000000E-002    2.316497937380972E-011
 -1.470000000000000E-002    7.975458075829811E-012
 -1.460000000000000E-002   -1.046700692758532E-011
 -1.450000000000000E-002   -3.129020389098641E-011
 -1.440000000000000E-002   -5.333134860656763E-011
 -1.430000000000000E-002   -7.519439033446615E-011
 -1.420000000000000E-002   -9.533321167781479E-011
 -1.410000000000000E-002   -1.121573252586759E-010
 -1.400000000000000E-002   -1.241542108136031E-010
 -1.390000000000000E-002   -1.300201728989226E-010
 -1.380000000000000E-002   -1.287896972879176E-010
 -1.370000000000000E-002   -1.199519994170797E-010
 -1.360000000000000E-002   -1.035424999427278E-010
 -1.350000000000000E-002   -8.019794936983392E-011
 -1.340000000000000E-002   -5.116543388664651E-011
 -1.330000000000000E-002   -1.825807195416581E-011
 -1.320000000000000E-002    1.624536440695379E-011
 -1.310000000000000E-002    4.975520607888364E-011
 -1.300000000000000E-002    7.957262030109563E-011
 -1.290000000000000E-002    1.031254908307801E-010
 -1.280000000000000E-002    1.182205416590518E-010
 -1.270000000000000E-002    1.232896595691734E-010
 -1.260000000000000E-002    1.176061844490996E-010
 -1.250000000000000E-002    1.014459222712861E-010
 -1.240000000000000E-002    7.617058581044461E-011
 -1.230000000000000E-002    4.421518589648737E-011
 -1.220000000000000E-002    8.968526259977914E-012
 -1.210000000000000E-002   -2.545529045516863E-011
 -1.200000000000000E-002   -5.454546314944099E-011
 -1.190000000000000E-002   -7.380396869576427E-011
 -1.180000000000000E-002   -7.920516903264574E-011
 -1.170000000000000E-002   -6.766687126497552E-011
 -1.160000000000000E-002   -3.748794843619446E-011
 -1.150000000000000E-002    1.129523570368270E-011
 -1.140000000000000E-002    7.667795967873666E-011
 -1.130000000000000E-002    1.546202186659519E-010
 -1.120000000000000E-002    2.391697834642349E-010
 -1.110000000000000E-002    3.227857604383792E-010
 -1.100000000000000E-002    3.968549638291646E-010
 -1.090000000000000E-002    4.523733041280135E-010
 -1.080000000000000E-002    4.807437793773150E-010
 -1.070000000000000E-002    4.746296066375489E-010
 -1.060000000000000E-002    4.287844039564465E-010
 -1.050000000000000E-002    3.407783989884847E-010
 -1.040000000000000E-002    2.115404835082104E-010
 -1.030000000000000E-002    4.564546290798982E-011
 -1.020000000000000E-002   -1.487059162723367E-010
 -1.010000000000000E-002   -3.600424192093290E-010
 -1.000000000000000E-002   -5.743109814088209E-010
 -9.899999999999999E-003   -7.758638744276048E-010
 -9.800000000000000E-003   -9.486772454248285E-010
 -9.699999999999999E-003   -1.077707395252028E-009
 -9.599999999999999E-003   -1.150265055961494E-009
 -9.500000000000000E-003   -1.157281494234597E-009
 -9.399999999999999E-003   -1.094335648685471E-009
 -9.299999999999999E-003   -9.623270891721506E-010
 -9.200000000000000E-003   -7.677035544525211E-010
 -9.099999999999999E-003   -5.221891099211825E-010
 -8.999999999999999E-003   -2.420040049749035E-010
 -8.900000000000000E-003    5.338365934384440E-011
 -8.799999999999999E-003    3.428836404824768E-010
 -8.699999999999999E-003    6.056524521833865E-010
 -8.600000000000000E-003    8.230361786033302E-010
 -8.499999999999999E-003    9.803990580235293E-010
 -8.399999999999999E-003    1.068646443531676E-009
 -8.300000000000000E-003    1.085268699853716E-009
 -8.199999999999999E-003    1.034767987595887E-009
 -8.100000000000000E-003    9.283839356135715E-010
 -8.000000000000000E-003    7.830996472107666E-010
 -7.899999999999999E-003    6.199823209232454E-010
 -7.800000000000000E-003    4.619856268538162E-010
 -7.699999999999999E-003    3.314076843189073E-010
 -7.599999999999999E-003    2.472474072637752E-010
 -7.499999999999999E-003    2.227333663396017E-010
 -7.399999999999999E-003    2.633016120586116E-010
 -7.299999999999999E-003    3.652760470252397E-010
 -7.199999999999999E-003    5.154496560724036E-010
 -7.100000000000000E-003    6.916909848796904E-010
 -6.999999999999999E-003    8.646012300803521E-010
 -6.899999999999999E-003    1.000142420020520E-009
 -6.800000000000000E-003    1.063049035283735E-009
 -6.699999999999999E-003    1.020741773772981E-009
 -6.599999999999999E-003    8.473843442160109E-010
 -6.499999999999999E-003    5.276808789879874E-010
 -6.399999999999999E-003    6.000365002938675E-011
 -6.299999999999999E-003   -5.415245217141525E-010
 -6.199999999999999E-003   -1.246298226541579E-009
 -6.100000000000000E-003   -2.008041252237048E-009
 -5.999999999999999E-003   -2.767218839334388E-009
 -5.899999999999999E-003   -3.454956556241805E-009
 -5.800000000000000E-003   -3.998218904634609E-009
 -5.699999999999999E-003   -4.325855178273126E-009
 -5.599999999999999E-003   -4.375017921099268E-009
 -5.499999999999999E-003   -4.097380766631348E-009
 -5.399999999999999E-003   -3.464568666339141E-009
 -5.299999999999999E-003   -2.472248616794604E-009
 -5.199999999999999E-003   -1.142422257253559E-009
 -5.099999999999999E-003    4.763959113558778E-010
 -4.999999999999999E-003    2.311249040648281E-009
 -4.899999999999999E-003    4.268987785831679E-009
 -4.799999999999999E-003    6.242420335656625E-009
 -4.699999999999999E-003    8.117894250935934E-009
 -4.599999999999999E-003    9.783680793813044E-009
 -4.499999999999999E-003    1.113843718462790E-008
 -4.399999999999999E-003    1.209897272595757E-008
 -4.299999999999999E-003    1.260660151733628E-008
 -4.199999999999999E-003    1.263144951155849E-008
 -4.099999999999999E-003    1.217428107610090E-008
 -3.999999999999999E-003    1.126562454725734E-008
 -3.899999999999999E-003    9.962238261613266E-009
 -3.799999999999999E-003    8.341229631464728E-009
 -3.699999999999999E-003    6.492373776878779E-009
 -3.599999999999999E-003    4.509398389663626E-009
 -3.499999999999999E-003    2.481127740513395E-009
 -3.399999999999999E-003    4.834305236146996E-010
 -3.299999999999999E-003   -1.427111656924543E-009
 -3.199999999999999E-003   -3.217038002226963E-009
 -3.099999999999999E-003   -4.876766852157511E-009
 -2.999999999999999E-003   -6.418017623483254E-009
 -2.899999999999999E-003   -7.867891068882977E-009
 -2.799999999999999E-003   -9.260007907553187E-009
 -2.699999999999999E-003   -1.062334864519399E-008
 -2.599999999999999E-003   -1.196976211606516E-008
 -2.499999999999999E-003   -1.328118421050630E-008
 -2.399999999999999E-003   -1.449784330073552E-008
 -2.299999999999999E-003   -1.550852636736697E-008
 -2.199999999999999E-003   -1.614389479397911E-008
 -2.099999999999999E-003   -1.617366509091175E-008
 -1.999999999999999E-003   -1.530795160803655E-008
 -1.899999999999999E-003   -1.320289110229263E-008
 -1.799999999999999E-003   -9.470052233312371E-009
 -1.699999999999999E-003   -3.688929756183769E-009
 -1.599999999999999E-003    4.578599197826741E-009
 -1.499999999999999E-003    1.577324567531949E-008
 -1.399999999999999E-003    3.032397989053157E-008
 -1.299999999999999E-003    4.863607018418161E-008
 -1.199999999999999E-003    7.108250483080193E-008
 -1.099999999999999E-003    9.799979494679953E-008
 -9.999999999999989E-004    1.296889079628631E-007
 -8.999999999999990E-004    1.664211971188110E-007
 -7.999999999999990E-004    2.084490548392176E-007
 -6.999999999999989E-004    2.560204717081118E-007
 -5.999999999999990E-004    3.093961703435704E-007
 -4.999999999999989E-004    3.688678605838365E-007
 -3.999999999999989E-004    4.347759326936913E-007
 -2.999999999999989E-004    5.075246471666419E-007
 -1.999999999999989E-004    5.875936145007155E-007
 -9.999999999999892E-005    6.755445435000120E-007
  1.084202172485504E-018    7.720214644461773E-007
  1.000000000000011E-004    8.777456518651614E-007
  2.000000000000011E-004    9.935043429236492E-007
  3.000000000000011E-004    1.120135001906165E-006
  4.000000000000011E-004    1.258506342477006E-006
  5.000000000000011E-004    1.409496983883357E-006
  6.000000000000011E-004    1.573975907350216E-006
  7.000000000000011E-004    1.752783772306230E-006
  8.000000000000011E-004    1.946720213387776E-006
  9.000000000000012E-004    2.156536056881417E-006
  1.000000000000001E-003    2.382933617280401E-006
  1.100000000000001E-003    2.626573237579540E-006
  1.200000000000001E-003    2.888088835962180E-006
  1.300000000000001E-003    3.168108941207084E-006
  1.400000000000001E-003    3.467283274918267E-006
  1.500000000000001E-003    3.786312692811245E-006
  1.600000000000001E-003    4.125979735962356E-006
  1.700000000000001E-003    4.487177298397145E-006
  1.800000000000001E-003    4.870933982475252E-006
  1.900000000000001E-003    5.278433134276850E-006
  2.000000000000001E-003    5.711024709361980E-006
  2.100000000000001E-003    6.170228500512779E-006
  2.200000000000001E-003    6.657728577957511E-006
  2.300000000000001E-003    7.175360169828878E-006
  2.400000000000001E-003    7.725089756981004E-006
  2.500000000000001E-003    8.308993308950250E-006
  2.600000000000001E-003    8.929227284328631E-006
  2.700000000000001E-003    9.588008244867968E-006
  2.800000000000001E-003    1.028758721765264E-005
  2.900000000000001E-003    1.103023903212231E-005
  3.000000000000001E-003    1.181825656644117E-005
  3.100000000000001E-003    1.265395233493422E-005
  3.200000000000001E-003    1.353967375924447E-005
  3.300000000000001E-003    1.447782734648229E-005
  3.400000000000001E-003    1.547091116535741E-005
  3.500000000000001E-003    1.652155493543262E-005
  3.600000000000001E-003    1.763256042871869E-005
  3.700000000000001E-003    1.880694748488104E-005
  3.800000000000001E-003    2.004799184170482E-005
  3.900000000000001E-003    2.135926096065984E-005
  4.000000000000001E-003    2.274463572258025E-005
  4.100000000000001E-003    2.420833372069216E-005
  4.200000000000001E-003    2.575490509052168E-005
  4.300000000000001E-003    2.738922711208089E-005
  4.400000000000001E-003    2.911648542983058E-005
  4.500000000000001E-003    3.094215010925300E-005
  4.600000000000002E-003    3.287194023832835E-005
  4.700000000000001E-003    3.491179533061768E-005
  4.800000000000001E-003    3.706784383643834E-005
  4.900000000000002E-003    3.934637575324890E-005
  5.000000000000001E-003    4.175383482640108E-005
  5.100000000000001E-003    4.429680611541872E-005
  5.200000000000001E-003    4.698204234145438E-005
  5.300000000000002E-003    4.981647473796137E-005
  5.400000000000001E-003    5.280725883417517E-005
  5.500000000000001E-003    5.596183276269808E-005
  5.600000000000002E-003    5.928796439978819E-005
  5.700000000000001E-003    6.279382439860988E-005
  5.800000000000001E-003    6.648804444120259E-005
  5.900000000000002E-003    7.037977863253117E-005
  6.000000000000001E-003    7.447876504470268E-005
  6.100000000000001E-003    7.879533875657509E-005
  6.200000000000002E-003    8.334049300959926E-005
  6.300000000000002E-003    8.812586185742358E-005
  6.400000000000001E-003    9.316374260895397E-005
  6.500000000000001E-003    9.846705700621808E-005
  6.600000000000002E-003    1.040493484706392E-004
  6.700000000000001E-003    1.099247492952840E-004
  6.800000000000001E-003    1.161079438110158E-004
  6.900000000000002E-003    1.226141502508184E-004
  7.000000000000001E-003    1.294591149920403E-004
  7.100000000000001E-003    1.366591044387724E-004
  7.200000000000002E-003    1.442309211398662E-004
  7.300000000000002E-003    1.521919262139623E-004
  7.400000000000001E-003    1.605601016325291E-004
  7.500000000000001E-003    1.693540890174400E-004
  7.600000000000002E-003    1.785932932249540E-004
  7.700000000000001E-003    1.882979456028429E-004
  7.800000000000001E-003    1.984891631279312E-004
  7.900000000000001E-003    2.091890651140198E-004
  8.000000000000002E-003    2.204208223411828E-004
  8.100000000000001E-003    2.322086815409852E-004
  8.200000000000001E-003    2.445780761651867E-004
  8.300000000000002E-003    2.575555697028662E-004
  8.400000000000001E-003    2.711688971366202E-004
  8.500000000000002E-003    2.854469852243172E-004
  8.600000000000002E-003    3.004198718739167E-004
  8.700000000000001E-003    3.161187069045867E-004
  8.800000000000002E-003    3.325757830239750E-004
  8.900000000000002E-003    3.498244056669938E-004
  9.000000000000001E-003    3.678989954253064E-004
  9.100000000000002E-003    3.868350121983802E-004
  9.200000000000002E-003    4.066690468668442E-004
  9.300000000000001E-003    4.274388006502767E-004
  9.400000000000002E-003    4.491831947525215E-004
  9.500000000000001E-003    4.719425067078072E-004
  9.600000000000001E-003    4.957583537195548E-004
  9.700000000000002E-003    5.206738994774566E-004
  9.800000000000001E-003    5.467339079897857E-004
  9.900000000000001E-003    5.739848600458418E-004
  1.000000000000000E-002    6.024750763233288E-004
  1.010000000000000E-002    6.322547118991191E-004
  1.020000000000000E-002    6.633760302785658E-004
  1.030000000000000E-002    6.958931517133752E-004
  1.040000000000000E-002    7.298622594126390E-004
  1.050000000000000E-002    7.653415715399835E-004
  1.060000000000000E-002    8.023913462019889E-004
  1.070000000000000E-002    8.410737239536931E-004
  1.080000000000000E-002    8.814529349618332E-004
  1.090000000000000E-002    9.235949476960835E-004
  1.100000000000000E-002    9.675678489530974E-004
  1.110000000000000E-002    1.013441491710174E-003
  1.120000000000000E-002    1.061287650437879E-003
  1.130000000000000E-002    1.111180233969682E-003
  1.140000000000000E-002    1.163194917939248E-003
  1.150000000000000E-002    1.217409620755566E-003
  1.160000000000000E-002    1.273904444277204E-003
  1.170000000000000E-002    1.332761709562627E-003
  1.180000000000000E-002    1.394066365858628E-003
  1.190000000000000E-002    1.457905742954489E-003
  1.200000000000000E-002    1.524369708345782E-003
  1.210000000000000E-002    1.593550937740294E-003
  1.220000000000000E-002    1.665544938658115E-003
  1.230000000000000E-002    1.740450027215089E-003
  1.240000000000000E-002    1.818367298626800E-003
  1.250000000000000E-002    1.899400682283376E-003
  1.260000000000000E-002    1.983657099948834E-003
  1.270000000000000E-002    2.071245973917950E-003
  1.280000000000000E-002    2.162279663538691E-003
  1.290000000000000E-002    2.256873205690771E-003
  1.300000000000000E-002    2.355144490099646E-003
  1.310000000000000E-002    2.457213702355087E-003
  1.320000000000000E-002    2.563203927132899E-003
  1.330000000000000E-002    2.673240934012342E-003
  1.340000000000000E-002    2.787452934999271E-003
  1.350000000000000E-002    2.905970799862923E-003
  1.360000000000000E-002    3.028928695408049E-003
  1.370000000000000E-002    3.156463335918305E-003
  1.380000000000000E-002    3.288714286921774E-003
  1.390000000000000E-002    3.425824228535014E-003
  1.400000000000000E-002    3.567938772686670E-003
  1.410000000000000E-002    3.715206978801588E-003
  1.420000000000000E-002    3.867780651242251E-003
  1.430000000000000E-002    4.025814782580552E-003
  1.440000000000000E-002    4.189467911667795E-003
  1.450000000000000E-002    4.358901378364324E-003
  1.460000000000000E-002    4.534279164076629E-003
  1.470000000000000E-002    4.715768636404015E-003
  1.480000000000000E-002    4.903539890273262E-003
  1.490000000000000E-002    5.097765753836428E-003
  1.500000000000000E-002    5.298621175865452E-003
  1.510000000000000E-002    5.506283856617359E-003
  1.520000000000000E-002    5.720934149985714E-003
  1.530000000000000E-002    5.942754234214021E-003
  1.540000000000000E-002    6.171928441339653E-003
  1.550000000000000E-002    6.408643767585075E-003
  1.560000000000000E-002    6.653088690681088E-003
  1.570000000000000E-002    6.905453847800672E-003
  1.580000000000000E-002    7.165932368830641E-003
  1.590000000000000E-002    7.434718695892685E-003
  1.600000000000000E-002    7.712009851912768E-003
  1.610000000000000E-002    7.998004390295521E-003
  1.620000000000000E-002    8.292902831965101E-003
  1.630000000000000E-002    8.596907289313400E-003
  1.640000000000000E-002    8.910221290059396E-003
  1.650000000000000E-002    9.233051326281749E-003
  1.660000000000000E-002    9.565602603773760E-003
  1.670000000000000E-002    9.908083579106500E-003
  1.680000000000000E-002    1.026070294972730E-002
  1.690000000000000E-002    1.062366861902084E-002
  1.700000000000000E-002    1.099719048821096E-002
  1.710000000000000E-002    1.138147851760943E-002
  1.720000000000000E-002    1.177674163704939E-002
  1.730000000000000E-002    1.218318846162097E-002
  1.740000000000000E-002    1.260102706040345E-002
  1.750000000000000E-002    1.303046514068885E-002
  1.760000000000000E-002    1.347170851183617E-002
  1.770000000000000E-002    1.392496125337231E-002
  1.780000000000000E-002    1.439042776432794E-002
  1.790000000000000E-002    1.486830884015521E-002
  1.800000000000000E-002    1.535880433475120E-002
  1.810000000000000E-002    1.586211088826318E-002
  1.820000000000000E-002    1.637842336296335E-002
  1.830000000000000E-002    1.690793372242448E-002
  1.840000000000000E-002    1.745083134609331E-002
  1.850000000000000E-002    1.800730183751473E-002
  1.860000000000000E-002    1.857752766757306E-002
  1.870000000000000E-002    1.916168585050725E-002