 -4.000000000000000E-002    0.000000000000000E+000
 -3.990000000000000E-002    0.000000000000000E+000
 -3.980000000000000E-002    0.000000000000000E+000
 -3.970000000000000E-002    0.000000000000000E+000
 -3.960000000000000E-002    0.000000000000000E+000
 -3.950000000000000E-002    0.000000000000000E+000
 -3.940000000000000E-002    0.000000000000000E+000
 -3.930000000000000E-002    0.000000000000000E+000
 -3.920000000000000E-002    0.000000000000000E+000
 -3.910000000000000E-002    0.000000000000000E+000
 -3.900000000000000E-002    0.000000000000000E+000
 -3.890000000000000E-002    0.000000000000000E+000
 -3.880000000000000E-002    0.000000000000000E+000
 -3.870000000000000E-002    0.000000000000000E+000
 -3.860000000000000E-002    3.830042465692010E-046
 -3.850000000000000E-002    9.885770027389458E-045
 -3.840000000000000E-002    1.417942885097875E-043
 -3.830000000000000E-002    1.388551998619633E-042
 -3.820000000000000E-002    1.045874490546084E-041
 -3.810000000000000E-002    6.461756214599212E-041
 -3.800000000000000E-002    3.407565991328537E-040
 -3.790000000000000E-002    1.575627119144685E-039
 -3.780000000000000E-002    6.513293818384969E-039
 -3.770000000000000E-002    2.442219739294263E-038
 -3.760000000000000E-002    8.399483268896323E-038
 -3.750000000000000E-002    2.673028660126901E-037
 -3.740000000000000E-002    7.925838460105945E-037
 -3.730000000000000E-002    2.201752919027440E-036
 -3.720000000000000E-002    5.755070539047301E-036
 -3.710000000000000E-002    1.420111017918122E-035
 -3.700000000000000E-002    3.315896788136146E-035
 -3.690000000000000E-002    7.336374487461449E-035
 -3.680000000000000E-002    1.538442665576998E-034
 -3.670000000000000E-002    3.054323989082558E-034
 -3.660000000000000E-002    5.723254740029022E-034
 -3.650000000000000E-002    1.005882826364980E-033
 -3.640000000000000E-002    1.638251060544853E-033
 -3.630000000000000E-002    2.412342724408850E-033
 -3.620000000000000E-002    3.027833633375068E-033
 -3.610000000000000E-002    2.640087858726986E-033
 -3.600000000000000E-002   -6.770946687297863E-034
 -3.590000000000000E-002   -1.081512191920203E-032
 -3.580000000000000E-002   -3.496913543385634E-032
 -3.570000000000000E-002   -8.548404471083343E-032
 -3.560000000000000E-002   -1.820991585528908E-031
 -3.550000000000000E-002   -3.541460291331147E-031
 -3.540000000000000E-002   -6.416509720611638E-031
 -3.530000000000000E-002   -1.093335228220800E-030
 -3.520000000000000E-002   -1.758126014773338E-030
 -3.510000000000000E-002   -2.665009447377134E-030
 -3.500000000000000E-002   -3.784075679483340E-030
 -3.490000000000000E-002   -4.959868882943030E-030
 -3.480000000000000E-002   -5.807631241969993E-030
 -3.470000000000000E-002   -5.565071999478394E-030
 -3.460000000000000E-002   -2.899180667301613E-030
 -3.450000000000000E-002    4.318298361215995E-030
 -3.440000000000000E-002    1.922808494851919E-029
 -3.430000000000000E-002    4.611690032889428E-029
 -3.420000000000000E-002    9.033792492023876E-029
 -3.410000000000000E-002    1.578233274450129E-028
 -3.400000000000000E-002    2.539212670674324E-028
 -3.390000000000000E-002    3.812276043255268E-028
 -3.380000000000000E-002    5.360519641830723E-028
 -3.370000000000000E-002    7.032005320260592E-028
 -3.360000000000000E-002    8.489243929605555E-028
 -3.350000000000000E-002    9.122319797472004E-028
 -3.340000000000000E-002    7.953608883312135E-028
 -3.330000000000000E-002    3.550939736590057E-028
 -3.320000000000000E-002   -6.021744978120421E-028
 -3.310000000000000E-002   -2.317277957814902E-027
 -3.300000000000000E-002   -5.061071992100128E-027
 -3.290000000000000E-002   -9.095864296149144E-027
 -3.280000000000000E-002   -1.460741680367604E-026
 -3.270000000000000E-002   -2.160005340810073E-026
 -3.260000000000000E-002   -2.975012725744410E-026
 -3.250000000000000E-002   -3.821885257783414E-026
 -3.240000000000000E-002   -4.543519205113644E-026
 -3.230000000000000E-002   -4.887382387141301E-026
 -3.220000000000000E-002   -4.487157030082375E-026
 -3.210000000000000E-002   -2.854844166649167E-026
 -3.200000000000000E-002    6.078318260591955E-027
 -3.190000000000000E-002    6.567743011060924E-026
 -3.180000000000000E-002    1.567643998198700E-025
 -3.170000000000000E-002    2.843270540268102E-025
 -3.160000000000000E-002    4.498366177736239E-025
 -3.150000000000000E-002    6.486356493129436E-025
 -3.140000000000000E-002    8.668102367124226E-025
 -3.130000000000000E-002    1.077821451331851E-024
 -3.120000000000000E-002    1.239379114752217E-024
 -3.110000000000000E-002    1.291287376992650E-024
 -3.100000000000000E-002    1.155237861989368E-024
 -3.090000000000000E-002    7.377304114824134E-025
 -3.080000000000000E-002   -6.260014325444209E-026
 -3.070000000000000E-002   -1.342060551016854E-024
 -3.060000000000000E-002   -3.172523258692440E-024
 -3.050000000000000E-002   -5.575459112096535E-024
 -3.040000000000000E-002   -8.490315832969648E-024
 -3.030000000000000E-002   -1.173969195596188E-023
 -3.020000000000000E-002   -1.499564011170846E-023
 -3.010000000000000E-002   -1.775339673855288E-023
 -3.000000000000000E-002   -1.932095683246094E-023
 -2.990000000000000E-002   -1.883423619194021E-023
 -2.980000000000000E-002   -1.530825813898565E-023
 -2.970000000000000E-002   -7.733633766894333E-024
 -2.960000000000000E-002    4.775474547553059E-024
 -2.950000000000000E-002    2.278144134312763E-023
 -2.940000000000000E-002    4.627944468347686E-023
 -2.930000000000000E-002    7.442940363226106E-023
 -2.920000000000000E-002    1.052960952708627E-022
 -2.910000000000000E-002    1.356438458262446E-022
 -2.900000000000000E-002    1.608448230343101E-022
 -2.890000000000000E-002    1.749670606652966E-022
 -2.880000000000000E-002    1.711103879388751E-022
 -2.870000000000000E-002    1.420452734003158E-022
 -2.860000000000000E-002    8.118756511429433E-023
 -2.850000000000000E-002   -1.610245605421964E-023
 -2.840000000000000E-002   -1.509631980791631E-022
 -2.830000000000000E-002   -3.193572485653370E-022
 -2.820000000000000E-002   -5.104985289110281E-022
 -2.810000000000000E-002   -7.056782707499122E-022
 -2.800000000000000E-002   -8.778492049867387E-022
 -2.790000000000000E-002   -9.923586086072931E-022
 -2.780000000000000E-002   -1.009197055043883E-021
 -2.770000000000000E-002   -8.870400898814542E-022
 -2.760000000000000E-002   -5.891928017771930E-022
 -2.750000000000000E-002   -9.127588593880732E-023
 -2.740000000000000E-002    6.098416505263116E-022
 -2.730000000000000E-002    1.486769429999299E-021
 -2.720000000000000E-002    2.473301430961948E-021
 -2.710000000000000E-002    3.458814942310519E-021
 -2.700000000000000E-002    4.287338227473086E-021
 -2.690000000000000E-002    4.763318196929618E-021
 -2.680000000000000E-002    4.665905651372740E-021
 -2.670000000000000E-002    3.772945061458625E-021
 -2.660000000000000E-002    1.894857725764747E-021
 -2.650000000000000E-002   -1.082845753443886E-021
 -2.640000000000000E-002   -5.151515811292531E-021
 -2.630000000000000E-002   -1.013085022831549E-020
 -2.620000000000000E-002   -1.562706158901575E-020
 -2.610000000000000E-002   -2.100652522943264E-020
 -2.600000000000000E-002   -2.539473481191891E-020
 -2.590000000000000E-002   -2.771039087296379E-020
 -2.580000000000000E-002   -2.674273177876389E-020
 -2.570000000000000E-002   -2.127716711635936E-020
 -2.560000000000000E-002   -1.026889381506026E-020
 -2.550000000000000E-002    6.942802827659419E-021
 -2.540000000000000E-002    3.039517197041833E-020
 -2.530000000000000E-002    5.926237802117459E-020
 -2.520000000000000E-002    9.164909674991341E-020
 -2.510000000000000E-002    1.244578635996149E-019
 -2.500000000000000E-002    1.533739867223697E-019
 -2.490000000000000E-002    1.730113698777467E-019
 -2.480000000000000E-002    1.772534539650311E-019
 -2.470000000000000E-002    1.598100034995782E-019
 -2.460000000000000E-002    1.149868285912806E-019
 -2.450000000000000E-002    3.863593369493278E-020
 -2.440000000000000E-002   -7.078064544891670E-020
 -2.430000000000000E-002   -2.111172286394341E-019
 -2.420000000000000E-002   -3.755980054040967E-019
 -2.410000000000000E-002   -5.521621827433180E-019
 -2.400000000000000E-002   -7.232761605748276E-019
 -2.390000000000000E-002   -8.663821911495818E-019
 -2.380000000000000E-002   -9.551198567383546E-019
 -2.370000000000000E-002   -9.613986341184721E-019
 -2.360000000000000E-002   -8.583147341200147E-019
 -2.350000000000000E-002   -6.237905542465544E-019
 -2.340000000000000E-002   -2.446939791872743E-019
 -2.330000000000000E-002    2.789414489012184E-019
 -2.320000000000000E-002    9.300905545863162E-019
 -2.310000000000000E-002    1.671890731636820E-018
 -2.300000000000000E-002    2.446401441893829E-018
 -2.290000000000000E-002    3.175564958101353E-018
 -2.280000000000000E-002    3.764849187913915E-018
 -2.270000000000000E-002    4.109852647586102E-018
 -2.260000000000000E-002    4.105861932689251E-018
 -2.250000000000000E-002    3.659971991637868E-018
 -2.240000000000000E-002    2.704979901601594E-018
 -2.230000000000000E-002    1.213828354794558E-018
 -2.220000000000000E-002   -7.870005724161726E-019
 -2.210000000000000E-002   -3.207007956005293E-018
 -2.200000000000000E-002   -5.886114091787500E-018
 -2.190000000000000E-002   -8.595880398062389E-018
 -2.180000000000000E-002   -1.104904859543266E-017
 -2.170000000000000E-002   -1.291827444638327E-017
 -2.160000000000000E-002   -1.386403149156823E-017
 -2.150000000000000E-002   -1.357058092293459E-017
 -2.140000000000000E-002   -1.178763436616820E-017
 -2.130000000000000E-002   -8.374093056139093E-018
 -2.120000000000000E-002   -3.339180467201610E-018
 -2.110000000000000E-002    3.124484846868058E-018
 -2.100000000000000E-002    1.062165940195869E-017
 -2.090000000000000E-002    1.855447226226682E-017
 -2.080000000000000E-002    2.614599194729143E-017
 -2.070000000000000E-002    3.248983544749545E-017
 -2.060000000000000E-002    3.662583088460362E-017
 -2.050000000000000E-002    3.763845007759000E-017
 -2.040000000000000E-002    3.477150713707009E-017
 -2.030000000000000E-002    2.754920935502981E-017
 -2.020000000000000E-002    1.589062308380311E-017
 -2.010000000000000E-002    2.027706767262098E-019
 -2.000000000000000E-002   -1.856317451469826E-017
 -1.990000000000000E-002   -3.890701429589394E-017
 -1.980000000000000E-002   -5.883740670853103E-017
 -1.970000000000000E-002   -7.599906523971922E-017
 -1.960000000000000E-002   -8.786870686923627E-017
 -1.950000000000000E-002   -9.201153407642200E-017
 -1.940000000000000E-002   -8.638064385569550E-017
 -1.930000000000000E-002   -6.963357370010736E-017
 -1.920000000000000E-002   -4.143258954610466E-017
 -1.910000000000000E-002   -2.690574491730899E-018
 -1.900000000000000E-002    4.427711281638078E-017
 -1.890000000000000E-002    9.573147239384485E-017
 -1.880000000000000E-002    1.466484136854538E-016
 -1.870000000000000E-002    1.910326185690829E-016
 -1.860000000000000E-002    2.224067564272360E-016
 -1.850000000000000E-002    2.344538706265033E-016
 -1.840000000000000E-002    2.217701484277257E-016
 -1.830000000000000E-002    1.806642197838002E-016
 -1.820000000000000E-002    1.099203854905782E-016
 -1.810000000000000E-002    1.143234101586336E-017
 -1.800000000000000E-002   -1.093896758251820E-016
 -1.790000000000000E-002   -2.435282703804442E-016
 -1.780000000000000E-002   -3.786560881899945E-016
 -1.770000000000000E-002   -4.998613023256666E-016
 -1.760000000000000E-002   -5.908015488969782E-016
 -1.750000000000000E-002   -6.352390134307683E-016
 -1.740000000000000E-002   -6.188562658772629E-016
 -1.730000000000000E-002   -5.312040297878008E-016
 -1.720000000000000E-002   -3.675893560535634E-016
 -1.710000000000000E-002   -1.306853158349923E-016
 -1.700000000000000E-002    1.683677903722024E-016
 -1.690000000000000E-002    5.095817727935154E-016
 -1.680000000000000E-002    8.646333268803427E-016
 -1.670000000000000E-002    1.198373918734891E-015
 -1.660000000000000E-002    1.471352662341904E-015
 -1.650000000000000E-002    1.643255453916452E-015
 -1.640000000000000E-002    1.677050729397835E-015
 -1.630000000000000E-002    1.543519568747472E-015
 -1.620000000000000E-002    1.225746532116388E-015
 -1.610000000000000E-002    7.230848456523691E-016
 -1.600000000000000E-002    5.408205872694584E-017
 -1.590000000000000E-002   -7.421249235604931E-016
 -1.580000000000000E-002   -1.606348963705106E-015
 -1.570000000000000E-002   -2.462096529842852E-015
 -1.560000000000000E-002   -3.220586677307939E-015
 -1.550000000000000E-002   -3.787897688083843E-015
 -1.540000000000000E-002   -4.073831901824800E-015
 -1.530000000000000E-002   -4.001850571087848E-015
 -1.520000000000000E-002   -3.519205478477940E-015
 -1.510000000000000E-002   -2.606247102007553E-015
 -1.500000000000000E-002   -1.283798523974531E-015
 -1.490000000000000E-002    3.824745847615274E-016
 -1.480000000000000E-002    2.281619044031179E-015
 -1.470000000000000E-002    4.261541458545813E-015
 -1.460000000000000E-002    6.138025040875939E-015
 -1.450000000000000E-002    7.708428991037049E-015
 -1.440000000000000E-002    8.769384530181210E-015
 -1.430000000000000E-002    9.137254896699174E-015
 -1.420000000000000E-002    8.669695319143141E-015
 -1.410000000000000E-002    7.286250084426570E-015
 -1.400000000000000E-002    4.985734510160532E-015
 -1.390000000000000E-002    1.858156340227455E-015
 -1.380000000000000E-002   -1.910852721719535E-015
 -1.370000000000000E-002   -6.044635236152413E-015
 -1.360000000000000E-002   -1.019000308240278E-014
 -1.350000000000000E-002   -1.394153679706648E-014
 -1.340000000000000E-002   -1.687470107236575E-014
 -1.330000000000000E-002   -1.858559858470735E-014
 -1.320000000000000E-002   -1.873434801723617E-014
 -1.310000000000000E-002   -1.708813954056058E-014
 -1.300000000000000E-002   -1.355961037177462E-014
 -1.290000000000000E-002   -8.235954101689845E-015
 -1.280000000000000E-002   -1.394559272717514E-015
 -1.270000000000000E-002    6.498304534496578E-015
 -1.260000000000000E-002    1.480797879660971E-014
 -1.250000000000000E-002    2.277166967845361E-014
 -1.240000000000000E-002    2.955714244148985E-014
 -1.230000000000000E-002    3.433647041247709E-014
 -1.220000000000000E-002    3.636948602794627E-014
 -1.210000000000000E-002    3.508984051560324E-014
 -1.200000000000000E-002    3.018537267785718E-014
 -1.190000000000000E-002    2.166393490952049E-014
 -1.180000000000000E-002    9.896043103195830E-015
 -1.170000000000000E-002   -4.373102128381225E-015
 -1.160000000000000E-002   -2.004754630692160E-014
 -1.150000000000000E-002   -3.574299346792084E-014
 -1.140000000000000E-002   -4.988660369001935E-014
 -1.130000000000000E-002   -6.084929657003569E-014
 -1.120000000000000E-002   -6.710157577230807E-014
 -1.110000000000000E-002   -6.738054611389494E-014
 -1.100000000000000E-002   -6.085280518790809E-014
 -1.090000000000000E-002   -4.725637381753899E-014
 -1.080000000000000E-002   -2.700467034425635E-014
 -1.070000000000000E-002   -1.236975597541510E-015
 -1.060000000000000E-002    2.819686774965491E-014
 -1.050000000000000E-002    5.882477140082991E-014
 -1.040000000000000E-002    8.771479800540913E-014
 -1.030000000000000E-002    1.117053836709000E-013
 -1.020000000000000E-002    1.276894569050292E-013
 -1.010000000000000E-002    1.329315339820954E-013
 -1.000000000000000E-002    1.253905695893061E-013
 -9.899999999999999E-003    1.040173859273396E-013
 -9.800000000000000E-003    6.899371332111352E-014
 -9.699999999999999E-003    2.188148206757158E-014
 -9.599999999999999E-003   -3.434432013568050E-014
 -9.500000000000000E-003   -9.539780703392248E-014
 -9.399999999999999E-003   -1.559270335444043E-013
 -9.299999999999999E-003   -2.098962296679898E-013
 -9.200000000000000E-003   -2.510856765445944E-013
 -9.099999999999999E-003   -2.736753831765725E-013
 -8.999999999999999E-003   -2.728661428710719E-013
 -8.900000000000000E-003   -2.454818602409280E-013
 -8.799999999999999E-003   -1.904918160181962E-013
 -8.699999999999999E-003   -1.093913140914528E-013
 -8.600000000000000E-003   -6.385575033281354E-015
 -8.499999999999999E-003    1.116660421241914E-013
 -8.399999999999999E-003    2.355702819857723E-013
 -8.300000000000000E-003    3.543865427334664E-013
 -8.199999999999999E-003    4.562561969619620E-013
 -8.100000000000000E-003    5.294233596982706E-013
 -8.000000000000000E-003    5.633719858386573E-013
 -7.899999999999999E-003    5.499826595615223E-013
 -7.800000000000000E-003    4.845992359978725E-013
 -7.699999999999999E-003    3.668907666250058E-013
 -7.599999999999999E-003    2.014005742475591E-013
 -7.499999999999999E-003   -2.308531059059944E-015
 -7.399999999999999E-003   -2.299737199891327E-013
 -7.299999999999999E-003   -4.634416055231216E-013
 -7.199999999999999E-003   -6.819440746215286E-013
 -7.100000000000000E-003   -8.637731212155191E-013
 -6.999999999999999E-003   -9.882354105332680E-013
 -6.899999999999999E-003   -1.037731004188672E-012
 -6.800000000000000E-003   -9.997663914185870E-013
 -6.699999999999999E-003   -8.686994755199804E-013
 -6.599999999999999E-003   -6.470162413585215E-013
 -6.499999999999999E-003   -3.459634727985639E-013
 -6.399999999999999E-003    1.459792183732115E-014
 -6.299999999999999E-003    4.071866998693294E-013
 -6.199999999999999E-003    7.985421112773695E-013
 -6.100000000000000E-003    1.152219326323923E-012
 -5.999999999999999E-003    1.431770701133645E-012
 -5.899999999999999E-003    1.604261809384899E-012
 -5.800000000000000E-003    1.643812306278793E-012
 -5.699999999999999E-003    1.534817431798865E-012
 -5.599999999999999E-003    1.274496517818252E-012
 -5.499999999999999E-003    8.744473997641843E-013
 -5.399999999999999E-003    3.609444946694579E-013
 -5.299999999999999E-003   -2.261778046864726E-013
 -5.199999999999999E-003   -8.360997532704992E-013
 -5.099999999999999E-003   -1.410942222382201E-012
 -4.999999999999999E-003   -1.890802214463041E-012
 -4.899999999999999E-003   -2.219507125744713E-012
 -4.799999999999999E-003   -2.350595042123780E-012
 -4.699999999999999E-003   -2.252942645219802E-012
 -4.599999999999999E-003   -1.915446795683426E-012
 -4.499999999999999E-003   -1.350187184038819E-012
 -4.399999999999999E-003   -5.935949519038678E-013
 -4.299999999999999E-003    2.946997533408866E-013
 -4.199999999999999E-003    1.235473107686858E-012
 -4.099999999999999E-003    2.135864785049647E-012
 -3.999999999999999E-003    2.897338362892900E-012
 -3.899999999999999E-003    3.425058255948477E-012
 -3.799999999999999E-003    3.637898082662030E-012
 -3.699999999999999E-003    3.478143190382987E-012
 -3.599999999999999E-003    2.919883511395522E-012
 -3.499999999999999E-003    1.975120288047877E-012
 -3.399999999999999E-003    6.967310066412027E-013
 -3.299999999999999E-003   -8.223368592547925E-013
 -3.199999999999999E-003   -2.453956877392460E-012
 -3.099999999999999E-003   -4.043757114122590E-012
 -2.999999999999999E-003   -5.423629130814612E-012
 -2.899999999999999E-003   -6.426944140898007E-012
 -2.799999999999999E-003   -6.905270268529927E-012
 -2.699999999999999E-003   -6.745080892896638E-012
 -2.599999999999999E-003   -5.882817299462600E-012
 -2.499999999999999E-003   -4.316642012571284E-012
 -2.399999999999999E-003   -2.113401808272094E-012
 -2.299999999999999E-003    5.903888126726893E-013
 -2.199999999999999E-003    3.594247937639450E-012
 -2.099999999999999E-003    6.646219789825722E-012
 -1.999999999999999E-003    9.461646999465930E-012
 -1.899999999999999E-003    1.174701865106798E-011
 -1.799999999999999E-003    1.322708213636994E-011
 -1.699999999999999E-003    1.367291699010504E-011
 -1.599999999999999E-003    1.292836494504196E-011
 -1.499999999999999E-003    1.093209742369992E-011
 -1.399999999999999E-003    7.732791622842807E-012
 -1.299999999999999E-003    3.495303096399965E-012
 -1.199999999999999E-003   -1.503602967917083E-012
 -1.099999999999999E-003   -6.890499358159239E-012
 -9.999999999999989E-004   -1.222109137039333E-011
 -8.999999999999990E-004   -1.701503005596838E-011
 -7.999999999999990E-004   -2.079722399444483E-011
 -6.999999999999989E-004   -2.314229732600725E-011
 -5.999999999999990E-004   -2.371821891661812E-011
 -4.999999999999989E-004   -2.232488518202507E-011
 -3.999999999999989E-004   -1.892354406850615E-011
 -2.999999999999989E-004   -1.365351411690794E-011
 -1.999999999999989E-004   -6.833527255941754E-012
 -9.999999999999892E-005    1.053663653884814E-012
  1.084202172485504E-018    9.393302037184453E-012
  1.000000000000011E-004    1.748555265000661E-011
  2.000000000000011E-004    2.460401579926398E-011
  3.000000000000011E-004    3.006114698041107E-011
  4.000000000000011E-004    3.327486877116604E-011
  5.000000000000011E-004    3.383006905973499E-011
  6.000000000000011E-004    3.152870804471219E-011
  7.000000000000011E-004    2.642287272117804E-011
  8.000000000000011E-004    1.882630886548517E-011
  9.000000000000012E-004    9.301760803702840E-012
  1.000000000000001E-003   -1.376458641080753E-012
  1.100000000000001E-003   -1.228281666202736E-011
  1.200000000000001E-003   -2.241963639278664E-011
  1.300000000000001E-003   -3.080856021906364E-011
  1.400000000000001E-003   -3.658636525885271E-011
  1.500000000000001E-003   -3.909601800697978E-011
  1.600000000000001E-003   -3.796375085435184E-011
  1.700000000000001E-003   -3.315353247648083E-011
  1.800000000000001E-003   -2.499190183967639E-011
  1.900000000000001E-003   -1.415860427367340E-011
  2.000000000000001E-003   -1.641410913277600E-012
  2.100000000000001E-003    1.134297169077646E-011
  2.200000000000001E-003    2.345660876726843E-011
  2.300000000000001E-003    3.336795793407809E-011
  2.400000000000001E-003    3.988822907288685E-011
  2.500000000000001E-003    4.210345555859823E-011
  2.600000000000001E-003    3.948876688725937E-011
  2.700000000000001E-003    3.199201407428126E-011
  2.800000000000001E-003    2.007594605506511E-011
  2.900000000000001E-003    4.711563719882756E-012
  3.000000000000001E-003   -1.268066261754861E-011
  3.100000000000001E-003   -3.033987448173736E-011
  3.200000000000001E-003   -4.631741439802196E-011
  3.300000000000001E-003   -5.866108714027830E-011
  3.400000000000001E-003   -6.561534502801719E-011
  3.500000000000001E-003   -6.581867144175732E-011
  3.600000000000001E-003   -5.847832541564591E-011
  3.700000000000001E-003   -4.350328895336383E-011
  3.800000000000001E-003   -2.157869791493187E-011
  3.900000000000001E-003    5.830351642979287E-012
  4.000000000000001E-003    3.655176295267648E-011
  4.100000000000001E-003    6.785542263915479E-011
  4.200000000000001E-003    9.666982044866632E-011
  4.300000000000001E-003    1.198506112546919E-010
  4.400000000000001E-003    1.344794221020471E-010
  4.500000000000001E-003    1.381661839552960E-010
  4.600000000000002E-003    1.293262695859570E-010
  4.700000000000001E-003    1.074035804274008E-010
  4.800000000000001E-003    7.301419238796640E-011
  4.900000000000002E-003    2.799044392981848E-011
  5.000000000000001E-003   -2.468621711582386E-011
  5.100000000000001E-003   -8.106570446277125E-011
  5.200000000000001E-003   -1.365143379826304E-010
  5.300000000000002E-003   -1.860853818451088E-010
  5.400000000000001E-003   -2.249460171823641E-010
  5.500000000000001E-003   -2.488248940173439E-010
  5.600000000000002E-003   -2.544395504017496E-010
  5.700000000000001E-003   -2.398623542742351E-010
  5.800000000000001E-003   -2.047867493072985E-010
  5.900000000000002E-003   -1.506622012157988E-010
  6.000000000000001E-003   -8.067729545253849E-011
  6.100000000000001E-003    4.174441545059079E-013
  6.200000000000002E-003    8.663983797068501E-011
  6.300000000000002E-003    1.712379642945935E-010
  6.400000000000001E-003    2.472484748092181E-010
  6.500000000000001E-003    3.081044261657022E-010
  6.600000000000002E-003    3.482388897353412E-010
  6.700000000000001E-003    3.636275495858274E-010
  6.800000000000001E-003    3.522161199541702E-010
  6.900000000000002E-003    3.141866178097694E-010
  7.000000000000001E-003    2.520287673482207E-010
  7.100000000000001E-003    1.704002161630748E-010
  7.200000000000002E-003    7.577809777439605E-011
  7.300000000000002E-003   -2.407526584736219E-011
  7.400000000000001E-003   -1.207908545283013E-010
  7.500000000000001E-003   -2.061575486817429E-010
  7.600000000000002E-003   -2.729035724731121E-010
  7.700000000000001E-003   -3.154203711529660E-010
  7.800000000000001E-003   -3.303558084368522E-010
  7.900000000000001E-003   -3.170126998888661E-010
  8.000000000000002E-003   -2.775037127795872E-010
  8.100000000000001E-003   -2.166353486973564E-010
  8.200000000000001E-003   -1.415182132921788E-010
  8.300000000000002E-003   -6.092742373884841E-011
  8.400000000000001E-003    1.553710434713197E-011
  8.500000000000002E-003    7.841864852878128E-011
  8.600000000000002E-003    1.194113031509763E-010
  8.700000000000001E-003    1.323096322856099E-010
  8.800000000000002E-003    1.138032854474897E-010
  8.900000000000002E-003    6.402820245809512E-011
  9.000000000000001E-003   -1.319462143152822E-011
  9.100000000000002E-003   -1.104759249185348E-010
  9.200000000000002E-003   -2.173411586034375E-010
  9.300000000000001E-003   -3.210565874941391E-010
  9.400000000000002E-003   -4.077392998190184E-010
  9.500000000000001E-003   -4.636623819421455E-010
  9.600000000000001E-003   -4.766418648258761E-010
  9.700000000000002E-003   -4.373780838044341E-010
  9.800000000000001E-003   -3.406201989418234E-010
  9.900000000000001E-003   -1.860336832193069E-010
  1.000000000000000E-002    2.133038884634588E-011
  1.010000000000000E-002    2.710312135707780E-010
  1.020000000000000E-002    5.477277802580933E-010
  1.030000000000000E-002    8.321440534553084E-010
  1.040000000000000E-002    1.102447455682295E-009
  1.050000000000000E-002    1.335936500341563E-009
  1.060000000000000E-002    1.510898455959315E-009
  1.070000000000000E-002    1.608476372239984E-009
  1.080000000000000E-002    1.614375653459753E-009
  1.090000000000000E-002    1.520248694530520E-009
  1.100000000000000E-002    1.324618836157606E-009
  1.110000000000000E-002    1.033240563457954E-009
  1.120000000000000E-002    6.588459289084596E-010
  1.130000000000000E-002    2.202763336610512E-010
  1.140000000000000E-002   -2.589345729226540E-010
  1.150000000000000E-002   -7.524158745492333E-010
  1.160000000000000E-002   -1.233086222532005E-009
  1.170000000000000E-002   -1.675360449226891E-009
  1.180000000000000E-002   -2.057225435590899E-009
  1.190000000000000E-002   -2.361980987061265E-009
  1.200000000000000E-002   -2.579464065251257E-009
  1.210000000000000E-002   -2.706620592365199E-009
  1.220000000000000E-002   -2.747345134348291E-009
  1.230000000000000E-002   -2.711581675268646E-009
  1.240000000000000E-002   -2.613747863699974E-009
  1.250000000000000E-002   -2.470620967776587E-009
  1.260000000000000E-002   -2.298880118131084E-009
  1.270000000000000E-002   -2.112552355212582E-009
  1.280000000000000E-002   -1.920625200964497E-009
  1.290000000000000E-002   -1.725097375997759E-009
  1.300000000000000E-002   -1.519705386683717E-009
  1.310000000000000E-002   -1.289518885145453E-009
  1.320000000000000E-002   -1.011520830533646E-009
  1.330000000000000E-002   -6.562037009148517E-010
  1.340000000000000E-002   -1.901161158534896E-010
  1.350000000000000E-002    4.208024504523452E-010
  1.360000000000000E-002    1.207343863234912E-009
  1.370000000000000E-002    2.192927635310147E-009
  1.380000000000000E-002    3.389625702418598E-009
  1.390000000000000E-002    4.794689235760572E-009
  1.400000000000000E-002    6.387922662058651E-009
  1.410000000000000E-002    8.130205701627807E-009
  1.420000000000000E-002    9.963374838262296E-009
  1.430000000000000E-002    1.181157181368401E-008
  1.440000000000000E-002    1.358405115329869E-008
  1.450000000000000E-002    1.517931755781454E-008
  1.460000000000000E-002    1.649033393593653E-008
  1.470000000000000E-002    1.741046578493651E-008
  1.480000000000000E-002    1.783974344108266E-008
  1.490000000000000E-002    1.769098282018267E-008
  1.500000000000000E-002    1.689534032752629E-008
  1.510000000000000E-002    1.540687957787024E-008
  1.520000000000000E-002    1.320585476103328E-008
  1.530000000000000E-002    1.030049726194536E-008
  1.540000000000000E-002    6.727243682545870E-009
  1.550000000000000E-002    2.549472473766341E-009
  1.560000000000000E-002   -2.145014162649199E-009
  1.570000000000000E-002   -7.247447417860648E-009
  1.580000000000000E-002   -1.263203674039280E-008
  1.590000000000000E-002   -1.815993519846012E-008
  1.600000000000000E-002   -2.368272418935840E-008
  1.610000000000000E-002   -2.904495712689642E-008
  1.620000000000000E-002   -3.408545515889203E-008
  1.630000000000000E-002   -3.863702307888314E-008
  1.640000000000000E-002   -4.252462132412027E-008
  1.650000000000000E-002   -4.556197137333089E-008
  1.660000000000000E-002   -4.754694763292850E-008
  1.670000000000000E-002   -4.825610862965058E-008
  1.680000000000000E-002   -4.743882196241571E-008
  1.690000000000000E-002   -4.481179950790524E-008
  1.700000000000000E-002   -4.005428311201730E-008
  1.710000000000000E-002   -3.280485932842459E-008
  1.720000000000000E-002   -2.265991275227561E-008
  1.730000000000000E-002   -9.174466623279602E-009
  1.740000000000000E-002    8.134918579834502E-009
  1.750000000000000E-002    2.978481941848365E-008
  1.760000000000000E-002    5.631801818334699E-008
  1.770000000000000E-002    8.829502949236420E-008
  1.780000000000000E-002    1.262851336943768E-007
  1.790000000000000E-002    1.708573275956404E-007
  1.800000000000000E-002    2.225723863045999E-007
  1.810000000000000E-002    2.819763641228549E-007
  1.820000000000000E-002    3.495967304952007E-007
  1.830000000000000E-002    4.259413724291895E-007
  1.840000000000000E-002    5.115005016633725E-007
  1.850000000000000E-002    6.067518839205589E-007
  1.860000000000000E-002    7.121691988935782E-007
  1.870000000000000E-002    8.282323247802222E-007