 -4.000000000000000E-002    0.000000000000000E+000
 -3.990000000000000E-002    0.000000000000000E+000
 -3.980000000000000E-002    0.000000000000000E+000
 -3.970000000000000E-002    0.000000000000000E+000
 -3.960000000000000E-002    0.000000000000000E+000
 -3.950000000000000E-002    0.000000000000000E+000
 -3.940000000000000E-002    0.000000000000000E+000
 -3.930000000000000E-002    0.000000000000000E+000
 -3.920000000000000E-002    0.000000000000000E+000
 -3.910000000000000E-002    0.000000000000000E+000
 -3.900000000000000E-002    0.000000000000000E+000
 -3.890000000000000E-002    0.000000000000000E+000
 -3.880000000000000E-002    0.000000000000000E+000
 -3.870000000000000E-002    0.000000000000000E+000
 -3.860000000000000E-002    0.000000000000000E+000
 -3.850000000000000E-002    0.000000000000000E+000
 -3.840000000000000E-002    0.000000000000000E+000
 -3.830000000000000E-002    0.000000000000000E+000
 -3.820000000000000E-002    0.000000000000000E+000
 -3.810000000000000E-002    0.000000000000000E+000
 -3.800000000000000E-002    0.000000000000000E+000
 -3.790000000000000E-002    0.000000000000000E+000
 -3.780000000000000E-002    0.000000000000000E+000
 -3.770000000000000E-002    0.000000000000000E+000
 -3.760000000000000E-002    0.000000000000000E+000
 -3.750000000000000E-002    0.000000000000000E+000
 -3.740000000000000E-002    0.000000000000000E+000
 -3.730000000000000E-002    0.000000000000000E+000
 -3.720000000000000E-002    0.000000000000000E+000
 -3.710000000000000E-002    0.000000000000000E+000
 -3.700000000000000E-002    0.000000000000000E+000
 -3.690000000000000E-002    0.000000000000000E+000
 -3.680000000000000E-002    0.000000000000000E+000
 -3.670000000000000E-002    0.000000000000000E+000
 -3.660000000000000E-002    0.000000000000000E+000
 -3.650000000000000E-002    0.000000000000000E+000
 -3.640000000000000E-002    0.000000000000000E+000
 -3.630000000000000E-002    0.000000000000000E+000
 -3.620000000000000E-002    0.000000000000000E+000
 -3.610000000000000E-002    0.000000000000000E+000
 -3.600000000000000E-002    0.000000000000000E+000
 -3.590000000000000E-002    0.000000000000000E+000
 -3.580000000000000E-002    0.000000000000000E+000
 -3.570000000000000E-002    0.000000000000000E+000
 -3.560000000000000E-002    0.000000000000000E+000
 -3.550000000000000E-002    0.000000000000000E+000
 -3.540000000000000E-002    0.000000000000000E+000
 -3.530000000000000E-002    0.000000000000000E+000
 -3.520000000000000E-002    0.000000000000000E+000
 -3.510000000000000E-002    0.000000000000000E+000
 -3.500000000000000E-002    0.000000000000000E+000
 -3.490000000000000E-002    0.000000000000000E+000
 -3.480000000000000E-002    0.000000000000000E+000
 -3.470000000000000E-002    0.000000000000000E+000
 -3.460000000000000E-002    0.000000000000000E+000
 -3.450000000000000E-002    0.000000000000000E+000
 -3.440000000000000E-002    0.000000000000000E+000
 -3.430000000000000E-002    0.000000000000000E+000
 -3.420000000000000E-002    0.000000000000000E+000
 -3.410000000000000E-002    0.000000000000000E+000
 -3.400000000000000E-002    0.000000000000000E+000
 -3.390000000000000E-002    0.000000000000000E+000
 -3.380000000000000E-002    0.000000000000000E+000
 -3.370000000000000E-002    0.000000000000000E+000
 -3.360000000000000E-002    0.000000000000000E+000
 -3.350000000000000E-002    0.000000000000000E+000
 -3.340000000000000E-002    0.000000000000000E+000
 -3.330000000000000E-002    0.000000000000000E+000
 -3.320000000000000E-002    0.000000000000000E+000
 -3.310000000000000E-002    0.000000000000000E+000
 -3.300000000000000E-002    0.000000000000000E+000
 -3.290000000000000E-002    0.000000000000000E+000
 -3.280000000000000E-002    0.000000000000000E+000
 -3.270000000000000E-002    0.000000000000000E+000
 -3.260000000000000E-002    0.000000000000000E+000
 -3.250000000000000E-002    0.000000000000000E+000
 -3.240000000000000E-002    0.000000000000000E+000
 -3.230000000000000E-002    0.000000000000000E+000
 -3.220000000000000E-002    0.000000000000000E+000
 -3.210000000000000E-002    0.000000000000000E+000
 -3.200000000000000E-002    0.000000000000000E+000
 -3.190000000000000E-002    0.000000000000000E+000
 -3.180000000000000E-002    0.000000000000000E+000
 -3.170000000000000E-002    0.000000000000000E+000
 -3.160000000000000E-002    0.000000000000000E+000
 -3.150000000000000E-002    0.000000000000000E+000
 -3.140000000000000E-002    0.000000000000000E+000
 -3.130000000000000E-002    0.000000000000000E+000
 -3.120000000000000E-002    0.000000000000000E+000
 -3.110000000000000E-002    0.000000000000000E+000
 -3.100000000000000E-002    0.000000000000000E+000
 -3.090000000000000E-002    0.000000000000000E+000
 -3.080000000000000E-002    0.000000000000000E+000
 -3.070000000000000E-002    0.000000000000000E+000
 -3.060000000000000E-002    0.000000000000000E+000
 -3.050000000000000E-002    0.000000000000000E+000
 -3.040000000000000E-002    0.000000000000000E+000
 -3.030000000000000E-002    0.000000000000000E+000
 -3.020000000000000E-002    0.000000000000000E+000
 -3.010000000000000E-002    0.000000000000000E+000
 -3.000000000000000E-002    0.000000000000000E+000
 -2.990000000000000E-002    0.000000000000000E+000
 -2.980000000000000E-002    0.000000000000000E+000
 -2.970000000000000E-002    0.000000000000000E+000
 -2.960000000000000E-002    0.000000000000000E+000
 -2.950000000000000E-002   -1.924390591266381E-047
 -2.940000000000000E-002   -1.900734176592889E-046
 -2.930000000000000E-002   -3.801468353185779E-046
 -2.920000000000000E-002   -5.894641588905306E-046
 -2.910000000000000E-002   -8.990500058626746E-046
 -2.900000000000000E-002   -1.208635852834818E-045
 -2.890000000000000E-002   -1.473319252677414E-045
 -2.880000000000000E-002   -1.567173140773383E-045
 -2.870000000000000E-002   -9.712943465786315E-046
 -2.860000000000000E-002    1.528400104752568E-045
 -2.850000000000000E-002    5.565760374457734E-045
 -2.840000000000000E-002    1.157205016763487E-044
 -2.830000000000000E-002    2.021815868597072E-044
 -2.820000000000000E-002    3.176528145292752E-044
 -2.810000000000000E-002    4.645284375243964E-044
 -2.800000000000000E-002    6.098277604655021E-044
 -2.790000000000000E-002    7.382577745476481E-044
 -2.780000000000000E-002    7.785177447812993E-044
 -2.770000000000000E-002    6.384443835042666E-044
 -2.760000000000000E-002    1.730400291518747E-044
 -2.750000000000000E-002   -8.095665204692496E-044
 -2.740000000000000E-002   -2.527173682153963E-043
 -2.730000000000000E-002   -5.200838553911663E-043
 -2.720000000000000E-002   -8.988390247059466E-043
 -2.710000000000000E-002   -1.390515453782205E-042
 -2.700000000000000E-002   -1.966309139113910E-042
 -2.690000000000000E-002   -2.548114521919356E-042
 -2.680000000000000E-002   -2.986875617250460E-042
 -2.670000000000000E-002   -3.035152612581737E-042
 -2.660000000000000E-002   -2.333337146254695E-042
 -2.650000000000000E-002   -4.029454550650426E-043
 -2.640000000000000E-002    3.336496417107401E-042
 -2.630000000000000E-002    9.499311581841069E-042
 -2.620000000000000E-002    1.861301339171963E-041
 -2.610000000000000E-002    3.091101272922060E-041
 -2.600000000000000E-002    4.603816057235957E-041
 -2.590000000000000E-002    6.265703145888715E-041
 -2.580000000000000E-002    7.798534362898619E-041
 -2.570000000000000E-002    8.731113522702588E-041
 -2.560000000000000E-002    8.359457414086096E-041
 -2.550000000000000E-002    5.731318244719697E-041
 -2.540000000000000E-002   -3.233304607154108E-042
 -2.530000000000000E-002   -1.108816317810493E-040
 -2.520000000000000E-002   -2.775146624201262E-040
 -2.510000000000000E-002   -5.106391569440078E-040
 -2.500000000000000E-002   -8.084327728275706E-040
 -2.490000000000000E-002   -1.153277259632797E-039
 -2.480000000000000E-002   -1.504131294161215E-039
 -2.470000000000000E-002   -1.788628301277058E-039
 -2.460000000000000E-002   -1.896443769188797E-039
 -2.450000000000000E-002   -1.676274675121878E-039
 -2.440000000000000E-002   -9.395834346116689E-040
 -2.430000000000000E-002    5.250693620341348E-040
 -2.420000000000000E-002    2.922958752692611E-039
 -2.410000000000000E-002    6.405688777385918E-039
 -2.400000000000000E-002    1.100295363190289E-038
 -2.390000000000000E-002    1.653416962271279E-038
 -2.380000000000000E-002    2.250521576027856E-038
 -2.370000000000000E-002    2.800198408901687E-038
 -2.360000000000000E-002    3.160060869252167E-038
 -2.350000000000000E-002    3.132345233208950E-038
 -2.340000000000000E-002    2.467886811480532E-038
 -2.330000000000000E-002    8.829507895248556E-039
 -2.320000000000000E-002   -1.906428709875467E-038
 -2.310000000000000E-002   -6.128603047725145E-038
 -2.300000000000000E-002   -1.187681805568629E-037
 -2.290000000000000E-002   -1.900733783310005E-037
 -2.280000000000000E-002   -2.702163922949283E-037
 -2.270000000000000E-002   -3.494608493481625E-037
 -2.260000000000000E-002   -4.123095673331592E-037
 -2.250000000000000E-002   -4.369976863991763E-037
 -2.240000000000000E-002   -3.958811382358162E-037
 -2.230000000000000E-002   -2.571676199019813E-037
 -2.220000000000000E-002    1.156324989209972E-038
 -2.210000000000000E-002    4.376894746494032E-037
 -2.200000000000000E-002    1.035568969640039E-036
 -2.190000000000000E-002    1.796444580664383E-036
 -2.180000000000000E-002    2.676924347736847E-036
 -2.170000000000000E-002    3.587380734792071E-036
 -2.160000000000000E-002    4.382363051350591E-036
 -2.150000000000000E-002    4.855891346541106E-036
 -2.140000000000000E-002    4.745148131419206E-036
 -2.130000000000000E-002    3.746440059150496E-036
 -2.120000000000000E-002    1.547121155906363E-036
 -2.110000000000000E-002   -2.123770274724676E-036
 -2.100000000000000E-002   -7.425358512639376E-036
 -2.090000000000000E-002   -1.431755641037606E-035
 -2.080000000000000E-002   -2.246305713500364E-035
 -2.070000000000000E-002   -3.113057302991295E-035
 -2.060000000000000E-002   -3.911710717457445E-035
 -2.050000000000000E-002   -4.471264756735039E-035
 -2.040000000000000E-002   -4.573509894996567E-035
 -2.030000000000000E-002   -3.966475413587551E-035
 -2.020000000000000E-002   -2.390482515303130E-035
 -2.010000000000000E-002    3.814411140027268E-036
 -2.000000000000000E-002    4.488671045343490E-035
 -1.990000000000000E-002    9.915965593310320E-035
 -1.980000000000000E-002    1.641991252201154E-034
 -1.970000000000000E-002    2.345827513963881E-034
 -1.960000000000000E-002    3.013571217224285E-034
 -1.950000000000000E-002    3.518296800001087E-034
 -1.940000000000000E-002    3.698904843273383E-034
 -1.930000000000000E-002    3.370605794764916E-034
 -1.920000000000000E-002    2.344322032554806E-034
 -1.910000000000000E-002    4.559267092503141E-035
 -1.900000000000000E-002   -2.395011971875540E-034
 -1.890000000000000E-002   -6.199059132361575E-034
 -1.880000000000000E-002   -1.078760707336333E-033
 -1.870000000000000E-002   -1.578720602114800E-033
 -1.860000000000000E-002   -2.058677806201220E-033
 -1.850000000000000E-002   -2.432898070359957E-033
 -1.840000000000000E-002   -2.593802924171750E-033
 -1.830000000000000E-002   -2.419573164630621E-033
 -1.820000000000000E-002   -1.787472916659698E-033
 -1.810000000000000E-002   -5.932439762709876E-034
 -1.800000000000000E-002    1.223923874699995E-033
 -1.790000000000000E-002    3.652478841400838E-033
 -1.780000000000000E-002    6.578636958633309E-033
 -1.770000000000000E-002    9.759995939264791E-033
 -1.760000000000000E-002    1.280841959010024E-032
 -1.750000000000000E-002    1.518895136727475E-032
 -1.740000000000000E-002    1.624179498889728E-032
 -1.730000000000000E-002    1.523365196426243E-032
 -1.720000000000000E-002    1.144261502389757E-032
 -1.710000000000000E-002    4.277154895619840E-033
 -1.700000000000000E-002   -6.575516499553426E-033
 -1.690000000000000E-002   -2.098311741333058E-032
 -1.680000000000000E-002   -3.820304593771626E-032
 -1.670000000000000E-002   -5.674492495311350E-032
 -1.660000000000000E-002   -7.429423501060873E-032
 -1.650000000000000E-002   -8.773422305144973E-032
 -1.640000000000000E-002   -9.330275270857769E-032
 -1.630000000000000E-002   -8.691436370842193E-032
 -1.620000000000000E-002   -6.466371707812125E-032
 -1.610000000000000E-002   -2.350461440315011E-032
 -1.600000000000000E-002    3.793134305036532E-032
 -1.590000000000000E-002    1.184485692007888E-031
 -1.580000000000000E-002    2.134451749319067E-031
 -1.570000000000000E-002    3.142630783444803E-031
 -1.560000000000000E-002    4.079073093070488E-031
 -1.550000000000000E-002    4.773232848924875E-031
 -1.540000000000000E-002    5.024074733366167E-031
 -1.530000000000000E-002    4.618811247848662E-031
 -1.520000000000000E-002    3.360734406269515E-031
 -1.510000000000000E-002    1.105380059414445E-031
 -1.500000000000000E-002   -2.197317926608678E-031
 -1.490000000000000E-002   -6.459032195450952E-031
 -1.480000000000000E-002   -1.141322468432906E-030
 -1.470000000000000E-002   -1.658714936219543E-030
 -1.460000000000000E-002   -2.129440729130534E-030
 -1.450000000000000E-002   -2.465690790314863E-030
 -1.440000000000000E-002   -2.566394258074373E-030
 -1.430000000000000E-002   -2.327331565813869E-030
 -1.420000000000000E-002   -1.655490240582475E-030
 -1.410000000000000E-002   -4.870797088167759E-031
 -1.400000000000000E-002    1.192150740772470E-030
 -1.390000000000000E-002    3.326482303162356E-030
 -1.380000000000000E-002    5.772695146806313E-030
 -1.370000000000000E-002    8.289099522266906E-030
 -1.360000000000000E-002    1.053513469337347E-029
 -1.350000000000000E-002    1.208540056886810E-029
 -1.340000000000000E-002    1.246123546407502E-029
 -1.330000000000000E-002    1.118143554943467E-029
 -1.320000000000000E-002    7.831471598887700E-030
 -1.310000000000000E-002    2.147570184207807E-030
 -1.300000000000000E-002   -5.891415244809984E-030
 -1.290000000000000E-002   -1.597505564075702E-029
 -1.280000000000000E-002   -2.738932235673512E-029
 -1.270000000000000E-002   -3.897787204750180E-029
 -1.260000000000000E-002   -4.915380653601328E-029
 -1.250000000000000E-002   -5.597762843473729E-029
 -1.240000000000000E-002   -5.731281386015247E-029
 -1.230000000000000E-002   -5.106314136914875E-029
 -1.220000000000000E-002   -3.548532307572062E-029
 -1.210000000000000E-002   -9.557590861203456E-030
 -1.200000000000000E-002    2.662985968021370E-029
 -1.190000000000000E-002    7.151108810439429E-029
 -1.180000000000000E-002    1.217682336889322E-028
 -1.170000000000000E-002    1.722115582995240E-028
 -1.160000000000000E-002    2.158845482788525E-028
 -1.150000000000000E-002    2.444535223137886E-028
 -1.140000000000000E-002    2.489200025974197E-028
 -1.130000000000000E-002    2.206607084517586E-028
 -1.120000000000000E-002    1.527550995929747E-028
 -1.110000000000000E-002    4.150663312982956E-029
 -1.100000000000000E-002   -1.119937984179750E-028
 -1.090000000000000E-002   -3.004680970429147E-028
 -1.080000000000000E-002   -5.094636404634275E-028
 -1.070000000000000E-002   -7.170481284847366E-028
 -1.060000000000000E-002   -8.944455738705285E-028
 -1.050000000000000E-002   -1.007823164319230E-027
 -1.040000000000000E-002   -1.021341785449857E-027
 -1.030000000000000E-002   -9.014437795493740E-028
 -1.020000000000000E-002   -6.221690561771301E-028
 -1.010000000000000E-002   -1.710841119628776E-028
 -1.000000000000000E-002    4.448055999003422E-028
 -9.899999999999999E-003    1.193980163636891E-027
 -9.800000000000000E-003    2.017122348884595E-027
 -9.699999999999999E-003    2.826625844920955E-027
 -9.599999999999999E-003    3.509812147751659E-027
 -9.500000000000000E-003    3.936539063977467E-027
 -9.399999999999999E-003    3.971485231265299E-027
 -9.299999999999999E-003    3.490840379197444E-027
 -9.200000000000000E-003    2.402445815341397E-027
 -9.099999999999999E-003    6.676711598848248E-028
 -8.999999999999999E-003   -1.677425642541891E-027
 -8.900000000000000E-003   -4.504736316782381E-027
 -8.799999999999999E-003   -7.584006656046338E-027
 -8.699999999999999E-003   -1.058349971933016E-026
 -8.600000000000000E-003   -1.308446574640744E-026
 -8.499999999999999E-003   -1.461148137335428E-026
 -8.399999999999999E-003   -1.467917125436156E-026
 -8.300000000000000E-003   -1.285374679709417E-026
 -8.199999999999999E-003   -8.825376378011553E-027
 -8.100000000000000E-003   -2.484772125566491E-027
 -8.000000000000000E-003    6.005028855073359E-027
 -7.899999999999999E-003    1.615264631105634E-026
 -7.800000000000000E-003    2.711001273722961E-026
 -7.699999999999999E-003    3.768324982496222E-026
 -7.599999999999999E-003    4.639230206162617E-026
 -7.499999999999999E-003    5.158498857120202E-026
 -7.399999999999999E-003    5.160547100601572E-026
 -7.299999999999999E-003    4.500987131086751E-026
 -7.199999999999999E-003    3.081349032375942E-026
 -7.100000000000000E-003    8.745693898483127E-027
 -6.999999999999999E-003   -2.051910798933337E-026
 -6.899999999999999E-003   -5.519126782670225E-026
 -6.800000000000000E-003   -9.229539424805158E-026
 -6.699999999999999E-003   -1.277356661145719E-025
 -6.599999999999999E-003   -1.565249352497740E-025
 -6.499999999999999E-003   -1.731914127854617E-025
 -6.399999999999999E-003   -1.723571417352838E-025
 -6.299999999999999E-003   -1.494581542322077E-025
 -6.199999999999999E-003   -1.015498233070520E-025
 -6.100000000000000E-003   -2.811476950859454E-026
 -5.999999999999999E-003    6.823132540228242E-026
 -5.899999999999999E-003    1.812545912728341E-025
 -5.800000000000000E-003    3.009592198893497E-025
 -5.699999999999999E-003    4.138924732125856E-025
 -5.599999999999999E-003    5.039750691854827E-025
 -5.499999999999999E-003    5.538848475187251E-025
 -5.399999999999999E-003    5.469566710544072E-025
 -5.299999999999999E-003    4.694851020104659E-025
 -5.199999999999999E-003    3.132349024546685E-025
 -5.099999999999999E-003    7.788802444714146E-026
 -4.999999999999999E-003   -2.269046132495459E-025
 -4.899999999999999E-003   -5.802311121137768E-025
 -4.799999999999999E-003   -9.497438165728566E-025
 -4.699999999999999E-003   -1.292905288217785E-024
 -4.599999999999999E-003   -1.559849784911423E-024
 -4.499999999999999E-003   -1.697896598191801E-024
 -4.399999999999999E-003   -1.657546554943761E-024
 -4.299999999999999E-003   -1.399561147363071E-024
 -4.199999999999999E-003   -9.024856349790185E-025
 -4.099999999999999E-003   -1.697634716572290E-025
 -3.999999999999999E-003    7.645675128857894E-025
 -3.899999999999999E-003    1.832671267126698E-024
 -3.799999999999999E-003    2.933218048967895E-024
 -3.699999999999999E-003    3.936014003001638E-024
 -3.599999999999999E-003    4.691414193851928E-024
 -3.499999999999999E-003    5.044480699160694E-024
 -3.399999999999999E-003    4.853233700001503E-024
 -3.299999999999999E-003    4.009664276837510E-024
 -3.199999999999999E-003    2.461510066564205E-024
 -3.099999999999999E-003    2.322218750636224E-025
 -2.999999999999999E-003   -2.563832110575038E-024
 -2.899999999999999E-003   -5.713974990395885E-024
 -2.799999999999999E-003   -8.910423642951619E-024
 -2.699999999999999E-003   -1.176618270005118E-023
 -2.599999999999999E-003   -1.384462157367052E-023
 -2.499999999999999E-003   -1.470222547982217E-023
 -2.399999999999999E-003   -1.394225142336074E-023
 -2.299999999999999E-003   -1.127510584804934E-023
 -2.199999999999999E-003   -6.579461348284461E-024
 -2.099999999999999E-003    4.334510293939630E-026
 -1.999999999999999E-003    8.229966675459724E-024
 -1.899999999999999E-003    1.733911279599649E-023
 -1.799999999999999E-003    2.646638256365747E-023
 -1.699999999999999E-003    3.449504668258422E-023
 -1.599999999999999E-003    4.018468600194224E-023
 -1.499999999999999E-003    4.229530153562074E-023
 -1.399999999999999E-003    3.973959852497387E-023
 -1.299999999999999E-003    3.175100761570660E-023
 -1.199999999999999E-003    1.805027648753727E-023
 -1.099999999999999E-003   -1.010144915174178E-024
 -9.999999999999989E-004   -2.434661665460489E-023
 -8.999999999999990E-004   -5.011187698035730E-023
 -7.999999999999990E-004   -7.574845479272508E-023
 -6.999999999999989E-004   -9.814033635710855E-023
 -5.999999999999990E-004   -1.138659229013979E-022
 -4.999999999999989E-004   -1.195436316365366E-022
 -3.999999999999989E-004   -1.122483209917528E-022
 -2.999999999999989E-004   -8.996330021932300E-023
 -1.999999999999989E-004   -5.202089126437039E-023
 -9.999999999999892E-005    5.242682040640955E-025
  1.084202172485504E-018    6.464862825424671E-023
  1.000000000000011E-004    1.352965929540947E-022
  2.000000000000011E-004    2.055474037754476E-022
  3.000000000000011E-004    2.670405609753845E-022
  4.000000000000011E-004    3.106630935227032E-022
  5.000000000000011E-004    3.274711786130690E-022
  6.000000000000011E-004    3.097845456059683E-022
  7.000000000000011E-004    2.523588431053992E-022
  8.000000000000011E-004    1.535121380587428E-022
  9.000000000000012E-004    1.606173985812004E-023
  1.000000000000001E-003   -1.520789115194281E-022
  1.100000000000001E-003   -3.377834108167746E-022
  1.200000000000001E-003   -5.231871461189749E-022
  1.300000000000001E-003   -6.868164294567324E-022
  1.400000000000001E-003   -8.053701343184831E-022
  1.500000000000001E-003   -8.560734604602423E-022
  1.600000000000001E-003   -8.194396290906073E-022
  1.700000000000001E-003   -6.821946450688871E-022
  1.800000000000001E-003   -4.400520901611762E-022
  1.900000000000001E-003   -9.998218615783034E-023
  2.000000000000001E-003    3.183910399219589E-022
  2.100000000000001E-003    7.825983577383183E-022
  2.200000000000001E-003    1.248595713119680E-021
  2.300000000000001E-003    1.663628997306062E-021
  2.400000000000001E-003    1.970664465045418E-021
  2.500000000000001E-003    2.114163594092787E-021
  2.600000000000001E-003    2.046783489065671E-021
  2.700000000000001E-003    1.736394139347981E-021
  2.800000000000001E-003    1.172651137781183E-021
  2.900000000000001E-003    3.722738856987335E-022
  3.000000000000001E-003   -6.178300508447490E-022
  3.100000000000001E-003   -1.720361405139883E-021
  3.200000000000001E-003   -2.830910720197973E-021
  3.300000000000001E-003   -3.824988512590651E-021
  3.400000000000001E-003   -4.568675125100416E-021
  3.500000000000001E-003   -4.932312731856971E-021
  3.600000000000001E-003   -4.806205600908165E-021
  3.700000000000001E-003   -4.116862212675520E-021
  3.800000000000001E-003   -2.841991500072224E-021
  3.900000000000001E-003   -1.022283433443818E-021
  4.000000000000001E-003    1.231977927688218E-021
  4.100000000000001E-003    3.741165428465755E-021
  4.200000000000001E-003    6.264625813991497E-021
  4.300000000000001E-003    8.517538119759126E-021
  4.400000000000001E-003    1.019587673062659E-020
  4.500000000000001E-003    1.100802479136739E-020
  4.600000000000002E-003    1.071054477533804E-020
  4.700000000000001E-003    9.144690185611874E-021
  4.800000000000001E-003    6.269554877485982E-021
  4.900000000000002E-003    2.187426042071527E-021
  5.000000000000001E-003   -2.842970569333442E-021
  5.100000000000001E-003   -8.408981736618568E-021
  5.200000000000001E-003   -1.396476110518882E-020
  5.300000000000002E-003   -1.887099938640222E-020
  5.400000000000001E-003   -2.245235694705668E-020
  5.500000000000001E-003   -2.406902534847244E-020
  5.600000000000002E-003   -2.319659522879042E-020
  5.700000000000001E-003   -1.950642511529992E-020
  5.800000000000001E-003   -1.293733070765733E-020
  5.900000000000002E-003   -3.748810203038203E-021
  6.000000000000001E-003    7.453504287296515E-021
  6.100000000000001E-003    1.972786360070933E-020
  6.200000000000002E-003    3.184681509994342E-020
  6.300000000000002E-003    4.238910066913382E-020
  6.400000000000001E-003    4.986956626198743E-020
  6.500000000000001E-003    5.289860024662464E-020
  6.600000000000002E-003    5.035784143896623E-020
  6.700000000000001E-003    4.157474786713761E-020
  6.800000000000001E-003    2.647581693167392E-020
  6.900000000000002E-003    5.697354019988054E-021
  7.000000000000001E-003   -1.936607647069021E-020
  7.100000000000001E-003   -4.659150096650423E-020
  7.200000000000002E-003   -7.324543392428928E-020
  7.300000000000002E-003   -9.619113672635697E-020
  7.400000000000001E-003   -1.121765692426716E-019
  7.500000000000001E-003   -1.181837603844791E-019
  7.600000000000002E-003   -1.118101754830984E-019
  7.700000000000001E-003   -9.164414262285947E-020
  7.800000000000001E-003   -5.759088191267747E-020
  7.900000000000001E-003   -1.110412999188916E-020
  8.000000000000002E-003    4.471829186584548E-020
  8.100000000000001E-003    1.052080223732434E-019
  8.200000000000001E-003    1.643882326377386E-019
  8.300000000000002E-003    2.154254825125322E-019
  8.400000000000001E-003    2.512514776985461E-019
  8.500000000000002E-003    2.653126561828892E-019
  8.600000000000002E-003    2.523843761239013E-019
  8.700000000000001E-003    2.093691453929486E-019
  8.800000000000002E-003    1.359874161612395E-019
  8.900000000000002E-003    3.526675432531526E-020
  9.000000000000001E-003   -8.625692873750893E-020
  9.100000000000002E-003   -2.186941999752406E-019
  9.200000000000002E-003   -3.493520528504784E-019
  9.300000000000001E-003   -4.636803091016862E-019
  9.400000000000002E-003   -5.465720327565641E-019
  9.500000000000001E-003   -5.839299055167126E-019
  9.600000000000001E-003   -5.643672699796660E-019
  9.700000000000002E-003   -4.808776025627432E-019
  9.800000000000001E-003   -3.322841708873012E-019
  9.900000000000001E-003   -1.242770428938854E-019
  1.000000000000000E-002    1.301393766818903E-019
  1.010000000000000E-002    4.109270125404077E-019
  1.020000000000000E-002    6.921030556762008E-019
  1.030000000000000E-002    9.436405446749089E-019
  1.040000000000000E-002    1.134095536302960E-018
  1.050000000000000E-002    1.233784268401717E-018
  1.060000000000000E-002    1.218246394215979E-018
  1.070000000000000E-002    1.071661465671818E-018
  1.080000000000000E-002    7.898406327708889E-019
  1.090000000000000E-002    3.824069167354612E-019
  1.100000000000000E-002   -1.261911780459477E-019
  1.110000000000000E-002   -6.971132411435833E-019
  1.120000000000000E-002   -1.279171419235121E-018
  1.130000000000000E-002   -1.812499740765018E-018
  1.140000000000000E-002   -2.233686667487147E-018
  1.150000000000000E-002   -2.482029530137227E-018
  1.160000000000000E-002   -2.506398646511486E-018
  1.170000000000000E-002   -2.272059632079093E-018
  1.180000000000000E-002   -1.766715329564706E-018
  1.190000000000000E-002   -1.005007673772976E-018
  1.200000000000000E-002   -3.077896585928650E-020
  1.210000000000000E-002    1.083465763165910E-018
  1.220000000000000E-002    2.240230325577565E-018
  1.230000000000000E-002    3.323878378662332E-018
  1.240000000000000E-002    4.210373995847197E-018
  1.250000000000000E-002    4.779272337149716E-018
  1.260000000000000E-002    4.926989757956428E-018
  1.270000000000000E-002    4.580113024308815E-018
  1.280000000000000E-002    3.707333312191850E-018
  1.290000000000000E-002    2.328540954943230E-018
  1.300000000000000E-002    5.197250603532283E-019
  1.310000000000000E-002   -1.587419017737940E-018
  1.320000000000000E-002   -3.811850570272303E-018
  1.330000000000000E-002   -5.935646873815228E-018
  1.340000000000000E-002   -7.722067770284154E-018
  1.350000000000000E-002   -8.938057356017291E-018
  1.360000000000000E-002   -9.379385193074683E-018
  1.370000000000000E-002   -8.896110730782477E-018
  1.380000000000000E-002   -7.415709386878120E-018
  1.390000000000000E-002   -4.961091869351984E-018
  1.400000000000000E-002   -1.660920596695308E-018
  1.410000000000000E-002    2.249895077325793E-018
  1.420000000000000E-002    6.440884687564300E-018
  1.430000000000000E-002    1.050822825247341E-017
  1.440000000000000E-002    1.400767466414209E-017
  1.450000000000000E-002    1.649607711366057E-017
  1.460000000000000E-002    1.757830664710734E-017
  1.470000000000000E-002    1.695525810684477E-017
  1.480000000000000E-002    1.446803895858028E-017
  1.490000000000000E-002    1.013314740950993E-017
  1.500000000000000E-002    4.163749261101673E-018
  1.510000000000000E-002   -3.027011767827041E-018
  1.520000000000000E-002   -1.084336625197805E-017
  1.530000000000000E-002   -1.854579114319072E-017
  1.540000000000000E-002   -2.531010146065590E-017
  1.550000000000000E-002   -3.030314097370991E-017
  1.560000000000000E-002   -3.276926026574434E-017
  1.570000000000000E-002   -3.211984015972185E-017
  1.580000000000000E-002   -2.801683524317397E-017
  1.590000000000000E-002   -2.044076748090865E-017
  1.600000000000000E-002   -9.733989176137576E-018
  1.610000000000000E-002    3.388496374430242E-018
  1.620000000000000E-002    1.786597451001712E-017
  1.630000000000000E-002    3.235873335565724E-017
  1.640000000000000E-002    4.535262510639481E-017
  1.650000000000000E-002    5.529532861144934E-017
  1.660000000000000E-002    6.075405800530782E-017
  1.670000000000000E-002    6.058088617163833E-017
  1.680000000000000E-002    5.406931678615280E-017
  1.690000000000000E-002    4.108453885079333E-017
  1.700000000000000E-002    2.215040228299218E-017
  1.710000000000000E-002   -1.521511592391009E-018
  1.720000000000000E-002   -2.807108671918342E-017
  1.730000000000000E-002   -5.510165413886543E-017
  1.740000000000000E-002   -7.986223248963831E-017
  1.750000000000000E-002   -9.948976155126333E-017
  1.760000000000000E-002   -1.112935749212651E-016
  1.770000000000000E-002   -1.130576367700904E-016
  1.780000000000000E-002   -1.033311538995310E-016
  1.790000000000000E-002   -8.167578522353586E-017
  1.800000000000000E-002   -4.883812841925395E-017
  1.810000000000000E-002   -6.820191553632347E-018
  1.820000000000000E-002    4.117221962861229E-017
  1.830000000000000E-002    9.091301600588889E-017
  1.840000000000000E-002    1.374684121113330E-016
  1.850000000000000E-002    1.756220081306655E-016
  1.860000000000000E-002    2.003819571478438E-016
  1.870000000000000E-002    2.075273922516079E-016