 -4.000000000000000E-002    0.000000000000000E+000
 -3.990000000000000E-002    0.000000000000000E+000
 -3.980000000000000E-002    0.000000000000000E+000
 -3.970000000000000E-002    0.000000000000000E+000
 -3.960000000000000E-002    0.000000000000000E+000
 -3.950000000000000E-002    0.000000000000000E+000
 -3.940000000000000E-002    0.000000000000000E+000
 -3.930000000000000E-002    0.000000000000000E+000
 -3.920000000000000E-002    0.000000000000000E+000
 -3.910000000000000E-002    0.000000000000000E+000
 -3.900000000000000E-002    0.000000000000000E+000
 -3.890000000000000E-002    0.000000000000000E+000
 -3.880000000000000E-002    1.314800499414434E-038
 -3.870000000000000E-002    2.989013383416268E-037
 -3.860000000000000E-002    3.498668765614468E-036
 -3.850000000000000E-002    2.805174908108285E-035
 -3.840000000000000E-002    1.729275072309228E-034
 -3.830000000000000E-002    8.721773589101767E-034
 -3.820000000000000E-002    3.739240323378019E-033
 -3.810000000000000E-002    1.397545135521302E-032
 -3.800000000000000E-002    4.632525832297124E-032
 -3.790000000000000E-002    1.377653862898011E-031
 -3.780000000000000E-002    3.700995378897194E-031
 -3.770000000000000E-002    9.001767499600662E-031
 -3.760000000000000E-002    1.974963617963549E-030
 -3.750000000000000E-002    3.855046881116420E-030
 -3.740000000000000E-002    6.454496932126974E-030
 -3.730000000000000E-002    8.290303327459084E-030
 -3.720000000000000E-002    3.988484420342047E-030
 -3.710000000000000E-002   -2.087855350212013E-029
 -3.700000000000000E-002   -9.934577857482176E-029
 -3.690000000000000E-002   -2.989520522304922E-028
 -3.680000000000000E-002   -7.452955000888281E-028
 -3.670000000000000E-002   -1.652053584399495E-027
 -3.660000000000000E-002   -3.350439043073229E-027
 -3.650000000000000E-002   -6.300169903935797E-027
 -3.640000000000000E-002   -1.104657307114950E-026
 -3.630000000000000E-002   -1.806411919577286E-026
 -3.620000000000000E-002   -2.739802060897703E-026
 -3.610000000000000E-002   -3.799004252760652E-026
 -3.600000000000000E-002   -4.656725688831577E-026
 -3.590000000000000E-002   -4.600738743447180E-026
 -3.580000000000000E-002   -2.320526844889192E-026
 -3.570000000000000E-002    4.330802565146085E-026
 -3.560000000000000E-002    1.853616419741662E-025
 -3.550000000000000E-002    4.455721807543333E-025
 -3.540000000000000E-002    8.743157430745322E-025
 -3.530000000000000E-002    1.520605770379634E-024
 -3.520000000000000E-002    2.413636978212746E-024
 -3.510000000000000E-002    3.531644127731111E-024
 -3.500000000000000E-002    4.755576736762794E-024
 -3.490000000000000E-002    5.807485564049161E-024
 -3.480000000000000E-002    6.178052715498883E-024
 -3.470000000000000E-002    5.054802624744022E-024
 -3.460000000000000E-002    1.272284340230509E-024
 -3.450000000000000E-002   -6.682807254242358E-024
 -3.440000000000000E-002   -2.056663254368914E-023
 -3.430000000000000E-002   -4.211927531225798E-023
 -3.420000000000000E-002   -7.259596642239355E-023
 -3.410000000000000E-002   -1.120439301192294E-022
 -3.400000000000000E-002   -1.583111366839150E-022
 -3.390000000000000E-002   -2.058298156229491E-022
 -3.380000000000000E-002   -2.443030796929509E-022
 -3.370000000000000E-002   -2.575364116453840E-022
 -3.360000000000000E-002   -2.227882796195579E-022
 -3.350000000000000E-002   -1.111469017012762E-022
 -3.340000000000000E-002    1.104570198395129E-022
 -3.330000000000000E-002    4.749620361728284E-022
 -3.320000000000000E-002    1.008065521014769E-021
 -3.310000000000000E-002    1.718014754549660E-021
 -3.300000000000000E-002    2.582514817551302E-021
 -3.290000000000000E-002    3.533705558666944E-021
 -3.280000000000000E-002    4.443122873160324E-021
 -3.270000000000000E-002    5.109672887967180E-021
 -3.260000000000000E-002    5.254767877114411E-021
 -3.250000000000000E-002    4.529663376005320E-021
 -3.240000000000000E-002    2.540406706118324E-021
 -3.230000000000000E-002   -1.104696818584253E-021
 -3.220000000000000E-002   -6.721924094214979E-021
 -3.210000000000000E-002   -1.445333484451070E-020
 -3.200000000000000E-002   -2.414725257691075E-020
 -3.190000000000000E-002   -3.522930369438373E-020
 -3.180000000000000E-002   -4.658267757014365E-020
 -3.170000000000000E-002   -5.646371538777255E-020
 -3.160000000000000E-002   -6.248522558874000E-020
 -3.150000000000000E-002   -6.170312932830168E-020
 -3.140000000000000E-002   -5.084041151809700E-020
 -3.130000000000000E-002   -2.667380553656498E-020
 -3.120000000000000E-002    1.340824488636108E-020
 -3.110000000000000E-002    7.069370791876739E-020
 -3.100000000000000E-002    1.443327049696142E-019
 -3.090000000000000E-002    2.305125348401451E-019
 -3.080000000000000E-002    3.217547186752489E-019
 -3.070000000000000E-002    4.065029882934526E-019
 -3.060000000000000E-002    4.691929574641391E-019
 -3.050000000000000E-002    4.909932521295168E-019
 -3.040000000000000E-002    4.513745874768185E-019
 -3.030000000000000E-002    3.305900071923420E-019
 -3.020000000000000E-002    1.130345821487737E-019
 -3.010000000000000E-002   -2.087025534943225E-019
 -3.000000000000000E-002   -6.294655534889986E-019
 -2.990000000000000E-002   -1.127403586877293E-018
 -2.980000000000000E-002   -1.660828007449636E-018
 -2.970000000000000E-002   -2.166917012721868E-018
 -2.960000000000000E-002   -2.563157130391236E-018
 -2.950000000000000E-002   -2.752307736672649E-018
 -2.940000000000000E-002   -2.631407408171735E-018
 -2.930000000000000E-002   -2.104898739695610E-018
 -2.920000000000000E-002   -1.101338867040846E-018
 -2.910000000000000E-002    4.075787975063657E-019
 -2.900000000000000E-002    2.387759959539678E-018
 -2.890000000000000E-002    4.726018164243998E-018
 -2.880000000000000E-002    7.219335736163907E-018
 -2.870000000000000E-002    9.573691049352821E-018
 -2.860000000000000E-002    1.141582254546184E-017
 -2.850000000000000E-002    1.232046210237482E-017
 -2.840000000000000E-002    1.185409770338734E-017
 -2.830000000000000E-002    9.634168644199920E-018
 -2.820000000000000E-002    5.399998195745016E-018
 -2.810000000000000E-002   -9.111816151525662E-019
 -2.800000000000000E-002   -9.092556439641213E-018
 -2.790000000000000E-002   -1.861217753962599E-017
 -2.780000000000000E-002   -2.858654389305102E-017
 -2.770000000000000E-002   -3.779607255523493E-017
 -2.760000000000000E-002   -4.475296543834626E-017
 -2.750000000000000E-002   -4.782757226563575E-017
 -2.740000000000000E-002   -4.543269231384729E-017
 -2.730000000000000E-002   -3.625679625268677E-017
 -2.720000000000000E-002   -1.952748174615916E-017
 -2.710000000000000E-002    4.723227241163943E-018
 -2.700000000000000E-002    3.542857070390867E-017
 -2.690000000000000E-002    7.033404171304651E-017
 -2.680000000000000E-002    1.059651114527771E-016
 -2.670000000000000E-002    1.377541690623465E-016
 -2.660000000000000E-002    1.603536550168776E-016
 -2.650000000000000E-002    1.681436872777552E-016
 -2.640000000000000E-002    1.559177292276077E-016
 -2.630000000000000E-002    1.197006547161460E-016
 -2.620000000000000E-002    5.762307638540611E-017
 -2.610000000000000E-002   -2.925224945172791E-017
 -2.600000000000000E-002   -1.362771074101057E-016
 -2.590000000000000E-002   -2.548718407667090E-016
 -2.580000000000000E-002   -3.726139713256809E-016
 -2.570000000000000E-002   -4.738625521191196E-016
 -2.560000000000000E-002   -5.409729122315559E-016
 -2.550000000000000E-002   -5.560905943735400E-016
 -2.540000000000000E-002   -5.034329983248208E-016
 -2.530000000000000E-002   -3.718796931286320E-016
 -2.520000000000000E-002   -1.576062972335540E-016
 -2.510000000000000E-002    1.335726667196144E-016
 -2.500000000000000E-002    4.845298604172820E-016
 -2.490000000000000E-002    8.662004306919593E-016
 -2.480000000000000E-002    1.238339885536115E-015
 -2.470000000000000E-002    1.551895489351454E-015
 -2.460000000000000E-002    1.753067631089648E-015
 -2.450000000000000E-002    1.788934388928825E-015
 -2.440000000000000E-002    1.614283963093724E-015
 -2.430000000000000E-002    1.199062110453880E-015
 -2.420000000000000E-002    5.356313792450950E-016
 -2.410000000000000E-002   -3.551163703009167E-016
 -2.400000000000000E-002   -1.419817337195404E-015
 -2.390000000000000E-002   -2.571834602874702E-015
 -2.380000000000000E-002   -3.694382035915159E-015
 -2.370000000000000E-002   -4.648030705310038E-015
 -2.360000000000000E-002   -5.282603308143230E-015
 -2.350000000000000E-002   -5.452912124628031E-015
 -2.340000000000000E-002   -5.037208683348677E-015
 -2.330000000000000E-002   -3.956639385252440E-015
 -2.320000000000000E-002   -2.193536567034729E-015
 -2.310000000000000E-002    1.939220967073475E-016
 -2.300000000000000E-002    3.063191644454070E-015
 -2.290000000000000E-002    6.187223390725766E-015
 -2.280000000000000E-002    9.264371979961783E-015
 -2.270000000000000E-002    1.193909397843093E-014
 -2.260000000000000E-002    1.383302191441118E-014
 -2.250000000000000E-002    1.458464497597767E-014
 -2.240000000000000E-002    1.389447145968171E-014
 -2.230000000000000E-002    1.157129469762055E-014
 -2.220000000000000E-002    7.574246793445390E-015
 -2.210000000000000E-002    2.044887212898967E-015
 -2.200000000000000E-002   -4.676293103446534E-015
 -2.190000000000000E-002   -1.205367742208239E-014
 -2.180000000000000E-002   -1.938378441446736E-014
 -2.170000000000000E-002   -2.584687403978591E-014
 -2.160000000000000E-002   -3.058103691432817E-014
 -2.150000000000000E-002   -3.277393724776983E-014
 -2.140000000000000E-002   -3.176442799897562E-014
 -2.130000000000000E-002   -2.714381374799067E-014
 -2.120000000000000E-002   -1.884483740426163E-014
 -2.110000000000000E-002   -7.205978892478877E-015
 -2.100000000000000E-002    7.000538752041814E-015
 -2.090000000000000E-002    2.258619438275381E-014
 -2.080000000000000E-002    3.801446316976203E-014
 -2.070000000000000E-002    5.152021712871169E-014
 -2.060000000000000E-002    6.127458161996619E-014
 -2.050000000000000E-002    6.558347894580909E-014
 -2.040000000000000E-002    6.310224396524033E-014
 -2.030000000000000E-002    5.304418783656378E-014
 -2.020000000000000E-002    3.535823729139271E-014
 -2.010000000000000E-002    1.085056107548832E-014
 -2.000000000000000E-002   -1.877229563320785E-014
 -1.990000000000000E-002   -5.095563283667291E-014
 -1.980000000000000E-002   -8.245261892910369E-014
 -1.970000000000000E-002   -1.095820838642016E-013
 -1.960000000000000E-002   -1.285741424955372E-013
 -1.950000000000000E-002   -1.359777651539199E-013
 -1.940000000000000E-002   -1.290937092442426E-013
 -1.930000000000000E-002   -1.063882162166995E-013
 -1.920000000000000E-002   -6.783856857166932E-014
 -1.910000000000000E-002   -1.516253698884303E-014
 -1.900000000000000E-002    4.811020802842608E-014
 -1.890000000000000E-002    1.167547271802386E-013
 -1.880000000000000E-002    1.841690124019490E-013
 -1.870000000000000E-002    2.428868938496049E-013
 -1.860000000000000E-002    2.852564564706530E-013
 -1.850000000000000E-002    3.042330907140294E-013
 -1.840000000000000E-002    2.942169214466540E-013
 -1.830000000000000E-002    2.518505695827168E-013
 -1.820000000000000E-002    1.766866751177995E-013
 -1.810000000000000E-002    7.163690387188378E-014
 -1.800000000000000E-002   -5.687346897014240E-014
 -1.790000000000000E-002   -1.990994999544535E-013
 -1.780000000000000E-002   -3.425430592453356E-013
 -1.770000000000000E-002   -4.728789845823691E-013
 -1.760000000000000E-002   -5.751893953780427E-013
 -1.750000000000000E-002   -6.354154731390500E-013
 -1.740000000000000E-002   -6.419028597340486E-013
 -1.730000000000000E-002   -5.868927695873014E-013
 -1.720000000000000E-002   -4.677984041218573E-013
 -1.710000000000000E-002   -2.881106930294578E-013
 -1.700000000000000E-002   -5.779669960629899E-014
 -1.690000000000000E-002    2.069090035539937E-013
 -1.680000000000000E-002    4.843700885965241E-013
 -1.670000000000000E-002    7.490593518417626E-013
 -1.660000000000000E-002    9.736373647064204E-013
 -1.650000000000000E-002    1.131454785491061E-012
 -1.640000000000000E-002    1.199276542237853E-012
 -1.630000000000000E-002    1.159981368665991E-012
 -1.620000000000000E-002    1.004965260113640E-012
 -1.610000000000000E-002    7.359780512211403E-013
 -1.600000000000000E-002    3.661474511038509E-013
 -1.590000000000000E-002   -8.000106231933749E-014
 -1.580000000000000E-002   -5.676422978532458E-013
 -1.570000000000000E-002   -1.053885124354476E-012
 -1.560000000000000E-002   -1.491049848733513E-012
 -1.550000000000000E-002   -1.830785920420293E-012
 -1.540000000000000E-002   -2.028722930936254E-012
 -1.530000000000000E-002   -2.049263181850368E-012
 -1.520000000000000E-002   -1.870065420287122E-012
 -1.510000000000000E-002   -1.485751027135641E-012
 -1.500000000000000E-002   -9.103864485250272E-013
 -1.490000000000000E-002   -1.783615597571414E-013
 -1.480000000000000E-002    6.566030417315738E-013
 -1.470000000000000E-002    1.524439677490252E-012
 -1.460000000000000E-002    2.343649699467758E-012
 -1.450000000000000E-002    3.027902375112551E-012
 -1.440000000000000E-002    3.493876283498483E-012
 -1.430000000000000E-002    3.669734165679151E-012
 -1.420000000000000E-002    3.503486202205278E-012
 -1.410000000000000E-002    2.970422065726611E-012
 -1.400000000000000E-002    2.078780482701861E-012
 -1.390000000000000E-002    8.728963817896257E-013
 -1.380000000000000E-002   -5.667872080493056E-013
 -1.370000000000000E-002   -2.127224156071091E-012
 -1.360000000000000E-002   -3.669881795481012E-012
 -1.350000000000000E-002   -5.041217585415497E-012
 -1.340000000000000E-002   -6.085914677194596E-012
 -1.330000000000000E-002   -6.661925269955531E-012
 -1.320000000000000E-002   -6.656073344099265E-012
 -1.310000000000000E-002   -5.998754839646693E-012
 -1.300000000000000E-002   -4.676174104508328E-012
 -1.290000000000000E-002   -2.738597869581395E-012
 -1.280000000000000E-002   -3.032986447851528E-013
 -1.270000000000000E-002    2.448777850768003E-012
 -1.260000000000000E-002    5.283097017525038E-012
 -1.250000000000000E-002    7.928229048133094E-012
 -1.240000000000000E-002    1.009833643931039E-011
 -1.230000000000000E-002    1.151994320367570E-011
 -1.220000000000000E-002    1.196085445846155E-011
 -1.210000000000000E-002    1.125858905737520E-011
 -1.200000000000000E-002    9.345399427157057E-012
 -1.190000000000000E-002    6.266909298000550E-012
 -1.180000000000000E-002    2.191663616502243E-012
 -1.170000000000000E-002   -2.590540133404824E-012
 -1.160000000000000E-002   -7.682805221616684E-012
 -1.150000000000000E-002   -1.260792479123085E-011
 -1.140000000000000E-002   -1.684668291600288E-011
 -1.130000000000000E-002   -1.988521229797857E-011
 -1.120000000000000E-002   -2.126771246814305E-011
 -1.110000000000000E-002   -2.064980443632461E-011
 -1.100000000000000E-002   -1.784713574191807E-011
 -1.090000000000000E-002   -1.287365422270347E-011
 -1.080000000000000E-002   -5.964348982923433E-012
 -1.070000000000000E-002    2.421791842838032E-012
 -1.060000000000000E-002    1.162132560427270E-011
 -1.050000000000000E-002    2.080911942967485E-011
 -1.040000000000000E-002    2.906272756279645E-011
 -1.030000000000000E-002    3.544432574121620E-011
 -1.020000000000000E-002    3.909384753396566E-011
 -1.010000000000000E-002    3.932502392078432E-011
 -1.000000000000000E-002    3.571473520143524E-011
 -9.899999999999999E-003    2.817571954231777E-011
 -9.800000000000000E-003    1.700317326841916E-011
 -9.699999999999999E-003    2.887492204117255E-012
 -9.599999999999999E-003   -1.311197930555465E-011
 -9.500000000000000E-003   -2.963380479052435E-011
 -9.399999999999999E-003   -4.511949228980677E-011
 -9.299999999999999E-003   -5.794997500234730E-011
 -9.200000000000000E-003   -6.660279538813686E-011
 -9.099999999999999E-003   -6.981592233735187E-011
 -8.999999999999999E-003   -6.674188701887505E-011
 -8.900000000000000E-003   -5.707522313870794E-011
 -8.799999999999999E-003   -4.113721679182455E-011
 -8.699999999999999E-003   -1.990474763080387E-011
 -8.600000000000000E-003    5.025433076322431E-012
 -8.499999999999999E-003    3.153979629008614E-011
 -8.399999999999999E-003    5.717444176345088E-011
 -8.300000000000000E-003    7.933373836967990E-011
 -8.199999999999999E-003    9.554341812666057E-011
 -8.100000000000000E-003    1.037150913792244E-010
 -8.000000000000000E-003    1.023955211696464E-010
 -7.899999999999999E-003    9.097317482827974E-011
 -7.800000000000000E-003    6.981623873216868E-011
 -7.699999999999999E-003    4.032132631095536E-011
 -7.599999999999999E-003    4.859307044045418E-012
 -7.499999999999999E-003   -3.338554348725818E-011
 -7.399999999999999E-003   -7.067595267782527E-011
 -7.299999999999999E-003   -1.030633851145186E-010
 -7.199999999999999E-003   -1.267824490748892E-010
 -7.100000000000000E-003   -1.386612016812504E-010
 -6.999999999999999E-003   -1.365055989146340E-010
 -6.899999999999999E-003   -1.194151736455749E-010
 -6.800000000000000E-003   -8.799054794498924E-011
 -6.699999999999999E-003   -4.440128871589669E-011
 -6.599999999999999E-003    7.705321018077223E-012
 -6.499999999999999E-003    6.345903724407454E-011
 -6.399999999999999E-003    1.171723574868731E-010
 -6.299999999999999E-003    1.628676150901826E-010
 -6.199999999999999E-003    1.948805291725642E-010
 -6.100000000000000E-003    2.084833668540663E-010
 -5.999999999999999E-003    2.004639962881572E-010
 -5.899999999999999E-003    1.695963073005099E-010
 -5.800000000000000E-003    1.169436437088910E-010
 -5.699999999999999E-003    4.594937157272979E-011
 -5.599999999999999E-003   -3.771261055347827E-011
 -5.499999999999999E-003   -1.265316497457236E-010
 -5.399999999999999E-003   -2.117776350949274E-010
 -5.299999999999999E-003   -2.842958457512811E-010
 -5.199999999999999E-003   -3.354113793407422E-010
 -5.099999999999999E-003   -3.578584045663336E-010
 -4.999999999999999E-003   -3.466401541500824E-010
 -4.899999999999999E-003   -2.997258910982957E-010
 -4.799999999999999E-003   -2.185003879881929E-010
 -4.699999999999999E-003   -1.079011689953305E-010
 -4.599999999999999E-003    2.379439745027551E-011
 -4.499999999999999E-003    1.655362279097818E-010
 -4.399999999999999E-003    3.043912256938332E-010
 -4.299999999999999E-003    4.266883611366496E-010
 -4.199999999999999E-003    5.193211196329060E-010
 -4.099999999999999E-003    5.710863325828805E-010
 -3.999999999999999E-003    5.739266839800557E-010
 -3.899999999999999E-003    5.239445895773374E-010
 -3.799999999999999E-003    4.220703532551730E-010
 -3.699999999999999E-003    2.742943520830987E-010
 -3.599999999999999E-003    9.141190442841037E-011
 -3.499999999999999E-003   -1.117243366973204E-010
 -3.399999999999999E-003   -3.174002783434962E-010
 -3.299999999999999E-003   -5.065920389346539E-010
 -3.199999999999999E-003   -6.607395875099419E-010
 -3.099999999999999E-003   -7.635776858283489E-010
 -2.999999999999999E-003   -8.028450046833327E-010
 -2.899999999999999E-003   -7.716931345660282E-010
 -2.799999999999999E-003   -6.696384624405198E-010
 -2.699999999999999E-003   -5.029367469933866E-010
 -2.599999999999999E-003   -2.843118858203846E-010
 -2.499999999999999E-003   -3.203174999834496E-011
 -2.399999999999999E-003    2.316104184980139E-010
 -2.299999999999999E-003    4.822879849807830E-010
 -2.199999999999999E-003    6.959311071440128E-010
 -2.099999999999999E-003    8.511006393330569E-010
 -1.999999999999999E-003    9.312122780803359E-010
 -1.899999999999999E-003    9.263813840065115E-010
 -1.799999999999999E-003    8.346842455707470E-010
 -1.699999999999999E-003    6.626819127649497E-010
 -1.599999999999999E-003    4.251184445343254E-010
 -1.499999999999999E-003    1.437846570663640E-010
 -1.399999999999999E-003   -1.543777491800955E-010
 -1.299999999999999E-003   -4.397769470338511E-010
 -1.199999999999999E-003   -6.830534725923592E-010
 -1.099999999999999E-003   -8.580713774889344E-010
 -9.999999999999989E-004   -9.447226676266800E-010
 -8.999999999999990E-004   -9.312521454160884E-010
 -7.999999999999990E-004   -8.158452778843319E-010
 -6.999999999999989E-004   -6.072834826277973E-010
 -5.999999999999990E-004   -3.245546838265556E-010
 -4.999999999999989E-004    4.593333796883221E-012
 -3.999999999999989E-004    3.460632798323266E-010
 -2.999999999999989E-004    6.625887280590880E-010
 -1.999999999999989E-004    9.174040898557195E-010
 -9.999999999999892E-005    1.078061127355101E-009
  1.084202172485504E-018    1.120017728695222E-009
  1.000000000000011E-004    1.029628909539173E-009
  2.000000000000011E-004    8.062109900830402E-010
  3.000000000000011E-004    4.629249744235543E-010
  4.000000000000011E-004    2.633008545387296E-011
  5.000000000000011E-004   -4.654191497953798E-010
  6.000000000000011E-004   -9.656266460564759E-010
  7.000000000000011E-004   -1.423126385827454E-009
  8.000000000000011E-004   -1.787027836954407E-009
  9.000000000000012E-004   -2.011710162161479E-009
  1.000000000000001E-003   -2.061593316363931E-009
  1.100000000000001E-003   -1.915215499146683E-009
  1.200000000000001E-003   -1.568189544160827E-009
  1.300000000000001E-003   -1.034697629667475E-009
  1.400000000000001E-003   -3.473093544441870E-010
  1.500000000000001E-003    4.449423815530034E-010
  1.600000000000001E-003    1.280130830259754E-009
  1.700000000000001E-003    2.088391506525106E-009
  1.800000000000001E-003    2.797863929389717E-009
  1.900000000000001E-003    3.341106871869598E-009
  2.000000000000001E-003    3.661407519555298E-009
  2.100000000000001E-003    3.718391750054575E-009
  2.200000000000001E-003    3.492381733825080E-009
  2.300000000000001E-003    2.987042399332560E-009
  2.400000000000001E-003    2.230000919545661E-009
  2.500000000000001E-003    1.271301178292139E-009
  2.600000000000001E-003    1.797527698644126E-010
  2.700000000000001E-003   -9.625663667624830E-010
  2.800000000000001E-003   -2.067209664478319E-009
  2.900000000000001E-003   -3.047071539530000E-009
  3.000000000000001E-003   -3.824215259255771E-009
  3.100000000000001E-003   -4.337089076973962E-009
  3.200000000000001E-003   -4.546432740600834E-009
  3.300000000000001E-003   -4.439269750096692E-009
  3.400000000000001E-003   -4.030544872952610E-009
  3.500000000000001E-003   -3.362165179208355E-009
  3.600000000000001E-003   -2.499446933787243E-009
  3.700000000000001E-003   -1.525214103360564E-009
  3.800000000000001E-003   -5.320291486270041E-010
  3.900000000000001E-003    3.867664045725338E-010
  4.000000000000001E-003    1.146382105856433E-009
  4.100000000000001E-003    1.679391454715032E-009
  4.200000000000001E-003    1.943149904334228E-009
  4.300000000000001E-003    1.925039482331232E-009
  4.400000000000001E-003    1.644934677441536E-009
  4.500000000000001E-003    1.154522355287850E-009
  4.600000000000002E-003    5.333953806340643E-010
  4.700000000000001E-003   -1.178542192836988E-010
  4.800000000000001E-003   -6.870222960342452E-010
  4.900000000000002E-003   -1.061379159399834E-009
  5.000000000000001E-003   -1.139473386778220E-009
  5.100000000000001E-003   -8.425607885862998E-010
  5.200000000000001E-003   -1.245492603089422E-010
  5.300000000000002E-003    1.020559368857822E-009
  5.400000000000001E-003    2.554561161435232E-009
  5.500000000000001E-003    4.394831939913044E-009
  5.600000000000002E-003    6.418217744547843E-009
  5.700000000000001E-003    8.468870272854935E-009
  5.800000000000001E-003    1.036950996707723E-008
  5.900000000000002E-003    1.193524427847865E-008
  6.000000000000001E-003    1.298881400005584E-008
  6.100000000000001E-003    1.337596132492255E-008
  6.200000000000002E-003    1.297957310026963E-008
  6.300000000000002E-003    1.173131837212641E-008
  6.400000000000001E-003    9.619704888678738E-009
  6.500000000000001E-003    6.693784908016352E-009
  6.600000000000002E-003    3.062144336340328E-009
  6.700000000000001E-003   -1.112755925883557E-009
  6.800000000000001E-003   -5.624361668412403E-009
  6.900000000000002E-003   -1.023498639442749E-008
  7.000000000000001E-003   -1.469067688402757E-008
  7.100000000000001E-003   -1.873647448407721E-008
  7.200000000000002E-003   -2.213048171056113E-008
  7.300000000000002E-003   -2.465522550924407E-008
  7.400000000000001E-003   -2.612500178568894E-008
  7.500000000000001E-003   -2.638828012683616E-008
  7.600000000000002E-003   -2.532467631048802E-008
  7.700000000000001E-003   -2.283657288785323E-008
  7.800000000000001E-003   -1.883596979491306E-008
  7.900000000000001E-003   -1.322769636900753E-008
  8.000000000000002E-003   -5.890505843399396E-009
  8.100000000000001E-003    3.342120467578233E-009
  8.200000000000001E-003    1.469953057512920E-008
  8.300000000000002E-003    2.848797075237146E-008
  8.400000000000001E-003    4.509949002817914E-008
  8.500000000000002E-003    6.501460957033802E-008
  8.600000000000002E-003    8.879796720384643E-008
  8.700000000000001E-003    1.170871956333249E-007
  8.800000000000002E-003    1.505753669422961E-007
  8.900000000000002E-003    1.899887595220279E-007
  9.000000000000001E-003    2.360613750961665E-007
  9.100000000000002E-003    2.895086961386074E-007
  9.200000000000002E-003    3.510030816029861E-007
  9.300000000000001E-003    4.211529808760263E-007
  9.400000000000002E-003    5.004882179612524E-007
  9.500000000000001E-003    5.894528827193938E-007
  9.600000000000001E-003    6.884069343922077E-007
  9.700000000000002E-003    7.976364397480850E-007
  9.800000000000001E-003    9.173721259883965E-007
  9.900000000000001E-003    1.047814861356456E-006
  1.000000000000000E-002    1.189166113655121E-006
  1.010000000000000E-002    1.341660503593895E-006
  1.020000000000000E-002    1.505598096126754E-006
  1.030000000000000E-002    1.681374124962228E-006
  1.040000000000000E-002    1.869501921579184E-006
  1.050000000000000E-002    2.070629324462114E-006
  1.060000000000000E-002    2.285545479112023E-006
  1.070000000000000E-002    2.515177934266006E-006
  1.080000000000000E-002    2.760581619972826E-006
  1.090000000000000E-002    3.022918443656763E-006
  1.100000000000000E-002    3.303432660691947E-006
  1.110000000000000E-002    3.603421974815473E-006
  1.120000000000000E-002    3.924209484949591E-006
  1.130000000000000E-002    4.267117433620177E-006
  1.140000000000000E-002    4.633447332165463E-006
  1.150000000000000E-002    5.024467970482796E-006
  1.160000000000000E-002    5.441412657799365E-006
  1.170000000000000E-002    5.885488324255003E-006
  1.180000000000000E-002    6.357893568847370E-006
  1.190000000000000E-002    6.859845565829438E-006
  1.200000000000000E-002    7.392613071024300E-006
  1.210000000000000E-002    7.957555555369669E-006
  1.220000000000000E-002    8.556162786779615E-006
  1.230000000000000E-002    9.190090535940724E-006
  1.240000000000000E-002    9.861191215317751E-006
  1.250000000000000E-002    1.057153680784589E-005
  1.260000000000000E-002    1.132343211697962E-005
  1.270000000000000E-002    1.211941591882528E-005
  1.280000000000000E-002    1.296225046006708E-005
  1.290000000000000E-002    1.385490786511891E-005
  1.300000000000000E-002    1.480053713233826E-005
  1.310000000000000E-002    1.580243818004872E-005
  1.320000000000000E-002    1.686402924940428E-005
  1.330000000000000E-002    1.798881776123824E-005
  1.340000000000000E-002    1.918037942221935E-005
  1.350000000000000E-002    2.044234148368877E-005
  1.360000000000000E-002    2.177838415765002E-005
  1.370000000000000E-002    2.319225316991091E-005
  1.380000000000000E-002    2.468777989388228E-005
  1.390000000000000E-002    2.626891815184280E-005
  1.400000000000000E-002    2.793979369630562E-005
  1.410000000000000E-002    2.970474933274749E-005
  1.420000000000000E-002    3.156840752854551E-005
  1.430000000000000E-002    3.353571733981168E-005
  1.440000000000000E-002    3.561200478403108E-005
  1.450000000000000E-002    3.780300748049054E-005
  1.460000000000000E-002    4.011490521474898E-005
  1.470000000000000E-002    4.255433319781750E-005
  1.480000000000000E-002    4.512837523613920E-005
  1.490000000000000E-002    4.784455705223822E-005
  1.500000000000000E-002    5.071082429429362E-005
  1.510000000000000E-002    5.373548998753296E-005
  1.520000000000000E-002    5.692722892858781E-005
  1.530000000000000E-002    6.029501874092719E-005
  1.540000000000000E-002    6.384812450731321E-005
  1.550000000000000E-002    6.759606951365331E-005
  1.560000000000000E-002    7.154862772475049E-005
  1.570000000000000E-002    7.571584686669738E-005
  1.580000000000000E-002    8.010806745365566E-005
  1.590000000000000E-002    8.473595553154509E-005
  1.600000000000000E-002    8.961056204244688E-005
  1.610000000000000E-002    9.474340852791340E-005
  1.620000000000000E-002    1.001465293123234E-004
  1.630000000000000E-002    1.058325829366453E-004
  1.640000000000000E-002    1.118148938226255E-004
  1.650000000000000E-002    1.181075268148065E-004
  1.660000000000000E-002    1.247253638712207E-004
  1.670000000000000E-002    1.316840993360525E-004
  1.680000000000000E-002    1.390002916565639E-004
  1.690000000000000E-002    1.466913677203231E-004
  1.700000000000000E-002    1.547756051211348E-004
  1.710000000000000E-002    1.632721225307013E-004
  1.720000000000000E-002    1.722008354477283E-004
  1.730000000000000E-002    1.815824310788058E-004
  1.740000000000000E-002    1.914383532150380E-004
  1.750000000000000E-002    2.017907572272522E-004
  1.760000000000000E-002    2.126625598776284E-004
  1.770000000000000E-002    2.240773558587445E-004
  1.780000000000000E-002    2.360595569288157E-004
  1.790000000000000E-002    2.486343384550819E-004
  1.800000000000000E-002    2.618277526811664E-004
  1.810000000000000E-002    2.756668414447087E-004
  1.820000000000000E-002    2.901796577220382E-004
  1.830000000000000E-002    3.053953651295156E-004
  1.840000000000000E-002    3.213444006130590E-004
  1.850000000000000E-002    3.380584857842481E-004
  1.860000000000000E-002    3.555707726528439E-004
  1.870000000000000E-002    3.739158168512336E-004