 -4.000000000000000E-002    0.000000000000000E+000
 -3.990000000000000E-002    0.000000000000000E+000
 -3.980000000000000E-002    0.000000000000000E+000
 -3.970000000000000E-002    0.000000000000000E+000
 -3.960000000000000E-002    0.000000000000000E+000
 -3.950000000000000E-002   -2.211837920200088E-021
 -3.940000000000000E-002   -2.311953870013691E-020
 -3.930000000000000E-002   -1.299940825791664E-019
 -3.920000000000000E-002   -5.193634867622803E-019
 -3.910000000000000E-002   -1.643807959189986E-018
 -3.900000000000000E-002   -4.355670248640723E-018
 -3.890000000000000E-002   -9.961174834946210E-018
 -3.880000000000000E-002   -1.996493273217444E-017
 -3.870000000000000E-002   -3.515198906504781E-017
 -3.860000000000000E-002   -5.355048227419682E-017
 -3.850000000000000E-002   -6.682089995720404E-017
 -3.840000000000000E-002   -5.484079867537183E-017
 -3.830000000000000E-002    2.120080542816061E-017
 -3.820000000000000E-002    2.259161689743174E-016
 -3.810000000000000E-002    6.544003015040312E-016
 -3.800000000000000E-002    1.430188584466487E-015
 -3.790000000000000E-002    2.690617810750698E-015
 -3.780000000000000E-002    4.552712183572116E-015
 -3.770000000000000E-002    7.052955337703045E-015
 -3.760000000000000E-002    1.005663041470987E-014
 -3.750000000000000E-002    1.313748114042833E-014
 -3.740000000000000E-002    1.543651740229365E-014
 -3.730000000000000E-002    1.552009113266387E-014
 -3.720000000000000E-002    1.127039891202313E-014
 -3.710000000000000E-002   -1.450573365498676E-016
 -3.700000000000000E-002   -2.216787937759378E-014
 -3.690000000000000E-002   -5.854581789328345E-014
 -3.680000000000000E-002   -1.127771643278541E-013
 -3.670000000000000E-002   -1.872672385668589E-013
 -3.660000000000000E-002   -2.821983323002774E-013
 -3.650000000000000E-002   -3.941688769180344E-013
 -3.640000000000000E-002   -5.147231754986601E-013
 -3.630000000000000E-002   -6.289713943302116E-013
 -3.620000000000000E-002   -7.145702872954398E-013
 -3.610000000000000E-002   -7.413958883512978E-013
 -3.600000000000000E-002   -6.722611040786422E-013
 -3.590000000000000E-002   -4.650182879191022E-013
 -3.580000000000000E-002   -7.629447099695427E-014
 -3.570000000000000E-002    5.330328491512497E-013
 -3.560000000000000E-002    1.390735829378983E-012
 -3.550000000000000E-002    2.504900708364283E-012
 -3.540000000000000E-002    3.855055901829498E-012
 -3.530000000000000E-002    5.383765412141460E-012
 -3.520000000000000E-002    6.989950133288197E-012
 -3.510000000000000E-002    8.525353474173755E-012
 -3.500000000000000E-002    9.795593989357876E-012
 -3.490000000000000E-002    1.056702994850581E-011
 -3.480000000000000E-002    1.058031376401387E-011
 -3.470000000000000E-002    9.570854232133885E-012
 -3.460000000000000E-002    7.295627422435353E-012
 -3.450000000000000E-002    3.564841224369958E-012
 -3.440000000000000E-002   -1.724004084996166E-012
 -3.430000000000000E-002   -8.552970678883111E-012
 -3.420000000000000E-002   -1.675543274469517E-011
 -3.410000000000000E-002   -2.599697338241611E-011
 -3.400000000000000E-002   -3.576952131675165E-011
 -3.390000000000000E-002   -4.540211224302044E-011
 -3.380000000000000E-002   -5.409035386961824E-011
 -3.370000000000000E-002   -6.094494449632489E-011
 -3.360000000000000E-002   -6.505750161672390E-011
 -3.350000000000000E-002   -6.557950005637223E-011
 -3.340000000000000E-002   -6.180811279861155E-011
 -3.330000000000000E-002   -5.327072651884124E-011
 -3.320000000000000E-002   -3.979891729301682E-011
 -3.310000000000000E-002   -2.158234056927799E-011
 -3.300000000000000E-002    8.060866085029315E-013
 -3.290000000000000E-002    2.642024615373699E-011
 -3.280000000000000E-002    5.398953168555824E-011
 -3.270000000000000E-002    8.200557739982871E-011
 -3.260000000000000E-002    1.088418146065137E-010
 -3.250000000000000E-002    1.328961797387924E-010
 -3.240000000000000E-002    1.527432140782789E-010
 -3.230000000000000E-002    1.672789100269727E-010
 -3.220000000000000E-002    1.758404178142395E-010
 -3.210000000000000E-002    1.782833483053955E-010
 -3.200000000000000E-002    1.750023806478349E-010
 -3.190000000000000E-002    1.668858035407108E-010
 -3.180000000000000E-002    1.552014972782979E-010
 -3.170000000000000E-002    1.414197397789164E-010
 -3.160000000000000E-002    1.269868213052137E-010
 -3.150000000000000E-002    1.130710739839967E-010
 -3.140000000000000E-002    1.003095122287579E-010
 -3.130000000000000E-002    8.858706406529291E-011
 -3.120000000000000E-002    7.688100801887539E-011
 -3.110000000000000E-002    6.320043021277085E-011
 -3.100000000000000E-002    4.464367361234526E-011
 -3.090000000000000E-002    1.758670001509359E-011
 -3.080000000000000E-002   -2.199738928604569E-011
 -3.070000000000000E-002   -7.810210664340032E-011
 -3.060000000000000E-002   -1.541631510984034E-010
 -3.050000000000000E-002   -2.524878007829954E-010
 -3.040000000000000E-002   -3.736906209384832E-010
 -3.030000000000000E-002   -5.161940088651451E-010
 -3.020000000000000E-002   -6.758531253501266E-010
 -3.010000000000000E-002   -8.457604694270872E-010
 -3.000000000000000E-002   -1.016274554710455E-009
 -2.990000000000000E-002   -1.175302139542522E-009
 -2.980000000000000E-002   -1.308843309993007E-009
 -2.970000000000000E-002   -1.401787075796128E-009
 -2.960000000000000E-002   -1.438920728023623E-009
 -2.950000000000000E-002   -1.406096878417075E-009
 -2.940000000000000E-002   -1.291479649024556E-009
 -2.930000000000000E-002   -1.086780720489492E-009
 -2.920000000000000E-002   -7.883857551455333E-010
 -2.910000000000000E-002   -3.982720350594399E-010
 -2.900000000000000E-002    7.537514846141133E-011
 -2.890000000000000E-002    6.179259999500026E-010
 -2.880000000000000E-002    1.208506725296119E-009
 -2.870000000000000E-002    1.820667016614982E-009
 -2.860000000000000E-002    2.423514253665131E-009
 -2.850000000000000E-002    2.983277075613455E-009
 -2.840000000000000E-002    3.465232868147236E-009
 -2.830000000000000E-002    3.835890271297707E-009
 -2.820000000000000E-002    4.065304005635836E-009
 -2.810000000000000E-002    4.129357605781773E-009
 -2.800000000000000E-002    4.011855937906268E-009
 -2.790000000000000E-002    3.706246363539897E-009
 -2.780000000000000E-002    3.216809257614274E-009
 -2.770000000000000E-002    2.559175065381976E-009
 -2.760000000000000E-002    1.760058975546514E-009
 -2.750000000000000E-002    8.561548613951012E-010
 -2.740000000000000E-002   -1.078095582582013E-010
 -2.730000000000000E-002   -1.081789838496440E-009
 -2.720000000000000E-002   -2.013771226279682E-009
 -2.710000000000000E-002   -2.853535540142967E-009
 -2.700000000000000E-002   -3.556575168964630E-009
 -2.690000000000000E-002   -4.087836095131536E-009
 -2.680000000000000E-002   -4.424949340794342E-009
 -2.670000000000000E-002   -4.560608463461561E-009
 -2.660000000000000E-002   -4.503797986545195E-009
 -2.650000000000000E-002   -4.279636893470071E-009
 -2.640000000000000E-002   -3.927713060627258E-009
 -2.630000000000000E-002   -3.498909150499907E-009
 -2.620000000000000E-002   -3.050867182517913E-009
 -2.610000000000000E-002   -2.642393180175540E-009
 -2.600000000000000E-002   -2.327241683101700E-009
 -2.590000000000000E-002   -2.147834877956919E-009
 -2.580000000000000E-002   -2.129545913904053E-009
 -2.570000000000000E-002   -2.276188752687029E-009
 -2.560000000000000E-002   -2.567310881013518E-009
 -2.550000000000000E-002   -2.957766636910019E-009
 -2.540000000000000E-002   -3.379869255864167E-009
 -2.530000000000000E-002   -3.748182083668163E-009
 -2.520000000000000E-002   -3.966743644317390E-009
 -2.510000000000000E-002   -3.938239177416947E-009
 -2.500000000000000E-002   -3.574373640388396E-009
 -2.490000000000000E-002   -2.806493105722215E-009
 -2.480000000000000E-002   -1.595370578313039E-009
 -2.470000000000000E-002    6.095761090688005E-011
 -2.460000000000000E-002    2.122326615138529E-009
 -2.450000000000000E-002    4.505369327087521E-009
 -2.440000000000000E-002    7.086733596287943E-009
 -2.430000000000000E-002    9.710686028865188E-009
 -2.420000000000000E-002    1.220075478500966E-008
 -2.410000000000000E-002    1.437458188432493E-008
 -2.400000000000000E-002    1.606076188420184E-008
 -2.390000000000000E-002    1.711609912719118E-008
 -2.380000000000000E-002    1.744154321492661E-008
 -2.370000000000000E-002    1.699502270745282E-008
 -2.360000000000000E-002    1.579958548121505E-008
 -2.350000000000000E-002    1.394560129888248E-008
 -2.340000000000000E-002    1.158629258379971E-008
 -2.330000000000000E-002    8.926508308117681E-009
 -2.320000000000000E-002    6.205354843365508E-009
 -2.310000000000000E-002    3.673988255741973E-009
 -2.300000000000000E-002    1.570488139272454E-009
 -2.290000000000000E-002    9.417427892319089E-011
 -2.280000000000000E-002   -6.180079744989649E-010
 -2.270000000000000E-002   -5.104607385351679E-010
 -2.260000000000000E-002    3.790423017787141E-010
 -2.250000000000000E-002    1.916021551762102E-009
 -2.240000000000000E-002    3.875608382490412E-009
 -2.230000000000000E-002    5.958562131667759E-009
 -2.220000000000000E-002    7.816032124194028E-009
 -2.210000000000000E-002    9.081167196253640E-009
 -2.200000000000000E-002    9.404866947539666E-009
 -2.190000000000000E-002    8.492378968575136E-009
 -2.180000000000000E-002    6.137213787794941E-009
 -2.170000000000000E-002    2.248911518838433E-009
 -2.160000000000000E-002   -3.128342415140023E-009
 -2.150000000000000E-002   -9.808447609946976E-009
 -2.140000000000000E-002   -1.746862870268991E-008
 -2.130000000000000E-002   -2.566709639564484E-008
 -2.120000000000000E-002   -3.387178629703508E-008
 -2.110000000000000E-002   -4.149760731093686E-008
 -2.100000000000000E-002   -4.794869537232792E-008
 -2.090000000000000E-002   -5.266146067422074E-008
 -2.080000000000000E-002   -5.514399160137291E-008
 -2.070000000000000E-002   -5.500758918268267E-008
 -2.060000000000000E-002   -5.198678529700338E-008
 -2.050000000000000E-002   -4.594531775426404E-008
 -2.040000000000000E-002   -3.686675338363290E-008
 -2.030000000000000E-002   -2.483007794174165E-008
 -2.020000000000000E-002   -9.971978198710946E-009
 -2.010000000000000E-002    7.560984708580158E-009
 -2.000000000000000E-002    2.766605311821419E-008
 -1.990000000000000E-002    5.033882702532484E-008
 -1.980000000000000E-002    7.572344982868076E-008
 -1.970000000000000E-002    1.041536231729133E-007
 -1.960000000000000E-002    1.361802125447688E-007
 -1.950000000000000E-002    1.725827031805434E-007
 -1.940000000000000E-002    2.143630737564746E-007
 -1.930000000000000E-002    2.627224501932991E-007
 -1.920000000000000E-002    3.190225222650296E-007
 -1.910000000000000E-002    3.847354589280140E-007
 -1.900000000000000E-002    4.613868317358691E-007
 -1.890000000000000E-002    5.504971114266491E-007
 -1.880000000000000E-002    6.535274525331668E-007
 -1.870000000000000E-002    7.718350151633823E-007
 -1.860000000000000E-002    9.066422357231269E-007
 -1.850000000000000E-002    1.059023208316053E-006
 -1.840000000000000E-002    1.229908925554778E-006
 -1.830000000000000E-002    1.420110600540736E-006
 -1.820000000000000E-002    1.630359179876809E-006
 -1.810000000000000E-002    1.861358638171408E-006
 -1.800000000000000E-002    2.113846225275547E-006
 -1.790000000000000E-002    2.388655767310664E-006
 -1.780000000000000E-002    2.686777568210174E-006
 -1.770000000000000E-002    3.009409202988009E-006
 -1.760000000000000E-002    3.357993237793896E-006
 -1.750000000000000E-002    3.734238099466390E-006
 -1.740000000000000E-002    4.140119746531716E-006
 -1.730000000000000E-002    4.577865256731068E-006
 -1.720000000000000E-002    5.049918142100797E-006
 -1.710000000000000E-002    5.558890819257928E-006
 -1.700000000000000E-002    6.107506228836164E-006
 -1.690000000000000E-002    6.698537888638985E-006
 -1.680000000000000E-002    7.334748329718528E-006
 -1.670000000000000E-002    8.018837160311702E-006
 -1.660000000000000E-002    8.753401438701670E-006
 -1.650000000000000E-002    9.540913133127446E-006
 -1.640000000000000E-002    1.038371603363122E-005
 -1.630000000000000E-002    1.128404205287337E-005
 -1.620000000000000E-002    1.224405037640874E-005
 -1.610000000000000E-002    1.326588203650515E-005
 -1.600000000000000E-002    1.435173273708275E-005
 -1.590000000000000E-002    1.550393158550828E-005
 -1.580000000000000E-002    1.672502476344369E-005
 -1.570000000000000E-002    1.801786131761801E-005
 -1.560000000000000E-002    1.938566594591064E-005
 -1.550000000000000E-002    2.083210423213792E-005
 -1.540000000000000E-002    2.236132466026020E-005
 -1.530000000000000E-002    2.397798856869773E-005
 -1.520000000000000E-002    2.568727527352932E-005
 -1.510000000000000E-002    2.749486099630188E-005
 -1.500000000000000E-002    2.940689038782927E-005
 -1.490000000000000E-002    3.142992577727812E-005
 -1.480000000000000E-002    3.357089081447549E-005
 -1.470000000000000E-002    3.583700750815252E-005
 -1.460000000000000E-002    3.823573338060501E-005
 -1.450000000000000E-002    4.077471772719905E-005
 -1.440000000000000E-002    4.346176338045893E-005
 -1.430000000000000E-002    4.630481063293354E-005
 -1.420000000000000E-002    4.931195362320870E-005
 -1.410000000000000E-002    5.249146161675910E-005
 -1.400000000000000E-002    5.585184015553320E-005
 -1.390000000000000E-002    5.940190153809751E-005
 -1.380000000000000E-002    6.315086860729441E-005
 -1.370000000000000E-002    6.710845809656175E-005
 -1.360000000000000E-002    7.128501133537947E-005
 -1.350000000000000E-002    7.569155610947544E-005
 -1.340000000000000E-002    8.033991071139404E-005
 -1.330000000000000E-002    8.524275338709148E-005
 -1.320000000000000E-002    9.041365378615949E-005
 -1.310000000000000E-002    9.586709481159217E-005
 -1.300000000000000E-002    1.016184500280943E-004
 -1.290000000000000E-002    1.076839493006164E-004
 -1.280000000000000E-002    1.140806359990668E-004
 -1.270000000000000E-002    1.208262701244407E-004
 -1.260000000000000E-002    1.279392990500168E-004
 -1.250000000000000E-002    1.354387551946058E-004
 -1.240000000000000E-002    1.433442403557547E-004
 -1.230000000000000E-002    1.516758749208455E-004
 -1.220000000000000E-002    1.604543458646579E-004
 -1.210000000000000E-002    1.697008933971003E-004
 -1.200000000000000E-002    1.794374547585003E-004
 -1.190000000000000E-002    1.896867385086809E-004
 -1.180000000000000E-002    2.004723895807445E-004
 -1.170000000000000E-002    2.118191102115051E-004
 -1.160000000000000E-002    2.237528516295078E-004
 -1.150000000000000E-002    2.363010241382853E-004
 -1.140000000000000E-002    2.494926060669088E-004
 -1.130000000000000E-002    2.633582515565588E-004
 -1.120000000000000E-002    2.779304350350970E-004
 -1.110000000000000E-002    2.932434841792075E-004
 -1.100000000000000E-002    3.093336434266299E-004
 -1.090000000000000E-002    3.262389973448323E-004
 -1.080000000000000E-002    3.439994713418444E-004
 -1.070000000000000E-002    3.626567805311935E-004
 -1.060000000000000E-002    3.822542730919189E-004
 -1.050000000000000E-002    4.028369610211934E-004
 -1.040000000000000E-002    4.244513499162971E-004
 -1.030000000000000E-002    4.471455412271998E-004
 -1.020000000000000E-002    4.709690492389299E-004
 -1.010000000000000E-002    4.959729845090240E-004
 -1.000000000000000E-002    5.222099926126655E-004
 -9.899999999999999E-003    5.497344821584007E-004
 -9.800000000000000E-003    5.786026748071250E-004
 -9.699999999999999E-003    6.088728201991960E-004
 -9.599999999999999E-003    6.406052584627987E-004
 -9.500000000000000E-003    6.738627641364457E-004
 -9.399999999999999E-003    7.087106056718877E-004
 -9.299999999999999E-003    7.452166413482108E-004
 -9.200000000000000E-003    7.834516459436140E-004
 -9.099999999999999E-003    8.234891080258387E-004
 -8.999999999999999E-003    8.654056467043408E-004
 -8.900000000000000E-003    9.092807675389056E-004
 -8.799999999999999E-003    9.551969055355318E-004
 -8.699999999999999E-003    1.003239667909346E-003
 -8.600000000000000E-003    1.053497478584668E-003
 -8.499999999999999E-003    1.106061895601889E-003
 -8.399999999999999E-003    1.161027399782841E-003
 -8.300000000000000E-003    1.218491475676458E-003
 -8.199999999999999E-003    1.278554848400904E-003
 -8.100000000000000E-003    1.341321432433378E-003
 -8.000000000000000E-003    1.406898470127053E-003
 -7.899999999999999E-003    1.475396518189536E-003
 -7.800000000000000E-003    1.546929788917958E-003
 -7.699999999999999E-003    1.621616202561360E-003
 -7.599999999999999E-003    1.699577673209652E-003
 -7.499999999999999E-003    1.780940115784181E-003
 -7.399999999999999E-003    1.865833618747107E-003
 -7.299999999999999E-003    1.954392502586102E-003
 -7.199999999999999E-003    2.046755566439961E-003
 -7.100000000000000E-003    2.143065666717946E-003
 -6.999999999999999E-003    2.243470375914768E-003
 -6.899999999999999E-003    2.348121729583472E-003
 -6.800000000000000E-003    2.457176153997103E-003
 -6.699999999999999E-003    2.570794114205582E-003
 -6.599999999999999E-003    2.689141171116228E-003
 -6.499999999999999E-003    2.812386639115416E-003
 -6.399999999999999E-003    2.940704698037841E-003
 -6.299999999999999E-003    3.074273855525578E-003
 -6.199999999999999E-003    3.213277205037768E-003
 -6.100000000000000E-003    3.357902324371107E-003
 -5.999999999999999E-003    3.508341894119153E-003
 -5.899999999999999E-003    3.664792723110405E-003
 -5.800000000000000E-003    3.827457187845550E-003
 -5.699999999999999E-003    3.996542033085546E-003
 -5.599999999999999E-003    4.172259342037492E-003
 -5.499999999999999E-003    4.354826973279604E-003
 -5.399999999999999E-003    4.544467175604264E-003
 -5.299999999999999E-003    4.741408235434748E-003
 -5.199999999999999E-003    4.945883102837316E-003
 -5.099999999999999E-003    5.158130882571331E-003
 -4.999999999999999E-003    5.378395164290854E-003
 -4.899999999999999E-003    5.606925871360873E-003
 -4.799999999999999E-003    5.843978020572134E-003
 -4.699999999999999E-003    6.089811431943728E-003
 -4.599999999999999E-003    6.344691858423021E-003
 -4.499999999999999E-003    6.608890099914558E-003
 -4.399999999999999E-003    6.882682133532301E-003
 -4.299999999999999E-003    7.166348511240886E-003
 -4.199999999999999E-003    7.460176260322997E-003
 -4.099999999999999E-003    7.764455580215711E-003
 -3.999999999999999E-003    8.079483376230158E-003
 -3.899999999999999E-003    8.405560628104854E-003
 -3.799999999999999E-003    8.742992809340279E-003
 -3.699999999999999E-003    9.092090143352747E-003
 -3.599999999999999E-003    9.453166675011703E-003
 -3.499999999999999E-003    9.826541673350167E-003
 -3.399999999999999E-003    1.021253821738606E-002
 -3.299999999999999E-003    1.061148277902999E-002
 -3.199999999999999E-003    1.102370599315630E-002
 -3.099999999999999E-003    1.144954198438555E-002
 -2.999999999999999E-003    1.188932796812485E-002
 -2.899999999999999E-003    1.234340534206132E-002
 -2.799999999999999E-003    1.281211743746734E-002
 -2.699999999999999E-003    1.329581091419627E-002
 -2.599999999999999E-003    1.379483627242002E-002
 -2.499999999999999E-003    1.430954388933082E-002
 -2.399999999999999E-003    1.484029039525290E-002
 -2.299999999999999E-003    1.538743089507144E-002
 -2.199999999999999E-003    1.595132506619974E-002
 -2.099999999999999E-003    1.653233295558388E-002
 -1.999999999999999E-003    1.713081498708529E-002
 -1.899999999999999E-003    1.774713583410729E-002
 -1.799999999999999E-003    1.838165676293418E-002
 -1.699999999999999E-003    1.903474006674022E-002
 -1.599999999999999E-003    1.970675071428955E-002
 -1.499999999999999E-003    2.039804767671949E-002
 -1.399999999999999E-003    2.110899284778520E-002
 -1.299999999999999E-003    2.183994394568086E-002
 -1.199999999999999E-003    2.259125587476632E-002
 -1.099999999999999E-003    2.336328104149756E-002
 -9.999999999999989E-004    2.415636936088538E-002
 -8.999999999999990E-004    2.497086508535845E-002
 -7.999999999999990E-004    2.580710745954268E-002
 -6.999999999999989E-004    2.666542959535407E-002
 -5.999999999999990E-004    2.754616304990833E-002
 -4.999999999999989E-004    2.844962788461065E-002
 -3.999999999999989E-004    2.937613900015720E-002
 -2.999999999999989E-004    3.032600320768695E-002
 -1.999999999999989E-004    3.129951758781636E-002
 -9.999999999999892E-005    3.229697044366598E-002
  1.084202172485504E-018    3.331864365050731E-002
  1.000000000000011E-004    3.436480353233518E-002
  2.000000000000011E-004    3.543570613189968E-002
  3.000000000000011E-004    3.653159832409826E-002
  4.000000000000011E-004    3.765270910044525E-002
  5.000000000000011E-004    3.879925654626900E-002
  6.000000000000011E-004    3.997144022890776E-002
  7.000000000000011E-004    4.116944831806867E-002
  8.000000000000011E-004    4.239344708477216E-002
  9.000000000000012E-004    4.364359395861919E-002
  1.000000000000001E-003    4.492001758725361E-002
  1.100000000000001E-003    4.622283444050564E-002
  1.200000000000001E-003    4.755213769009044E-002
  1.300000000000001E-003    4.890800018520119E-002
  1.400000000000001E-003    5.029047509478258E-002
  1.500000000000001E-003    5.169958527975065E-002
  1.600000000000001E-003    5.313533461161810E-002
  1.700000000000001E-003    5.459770211328611E-002
  1.800000000000001E-003    5.608663861547464E-002
  1.900000000000001E-003    5.760206790865036E-002
  2.000000000000001E-003    5.914388177584177E-002
  2.100000000000001E-003    6.071194404854961E-002
  2.200000000000001E-003    6.230609240855253E-002
  2.300000000000001E-003    6.392612111633421E-002
  2.400000000000001E-003    6.557179821366224E-002
  2.500000000000001E-003    6.724286175071716E-002
  2.600000000000001E-003    6.893900526392102E-002
  2.700000000000001E-003    7.065988851605091E-002
  2.800000000000001E-003    7.240513793281932E-002
  2.900000000000001E-003    7.417433585327624E-002
  3.000000000000001E-003    7.596703067015922E-002
  3.100000000000001E-003    7.778272366577482E-002
  3.200000000000001E-003    7.962087427124617E-002
  3.300000000000001E-003    8.148090471395765E-002
  3.400000000000001E-003    8.336219016116261E-002
  3.500000000000001E-003    8.526406166777453E-002
  3.600000000000001E-003    8.718580188975679E-002
  3.700000000000001E-003    8.912664745770554E-002
  3.800000000000001E-003    9.108578763547523E-002
  3.900000000000001E-003    9.306235511966265E-002
  4.000000000000001E-003    9.505543909261008E-002
  4.100000000000001E-003    9.706407836049109E-002
  4.200000000000001E-003    9.908725544272767E-002
  4.300000000000001E-003    0.101123895249611     
  4.400000000000001E-003    0.103172873454062     
  4.500000000000001E-003    0.105233011528889     
  4.600000000000002E-003    0.107303071525816     
  4.700000000000001E-003    0.109381760754082     
  4.800000000000001E-003    0.111467731942693     
  4.900000000000002E-003    0.113559581595622     
  5.000000000000001E-003    0.115655836807152     
  5.100000000000001E-003    0.117754980115462     
  5.200000000000001E-003    0.119855434493960     
  5.300000000000002E-003    0.121955540860031     
  5.400000000000001E-003    0.124053596899194     
  5.500000000000001E-003    0.126147846292234     
  5.600000000000002E-003    0.128236459031088     
  5.700000000000001E-003    0.130317542078592     
  5.800000000000001E-003    0.132389143690543     
  5.900000000000002E-003    0.134449238891977     
  6.000000000000001E-003    0.136495769027535     
  6.100000000000001E-003    0.138526582380716     
  6.200000000000002E-003    0.140539485617085     
  6.300000000000002E-003    0.142532206703823     
  6.400000000000001E-003    0.144502428849659     
  6.500000000000001E-003    0.146447756993591     
  6.600000000000002E-003    0.148365745741950     
  6.700000000000001E-003    0.150253881049403     
  6.800000000000001E-003    0.152109608428182     
  6.900000000000002E-003    0.153930290567651     
  7.000000000000001E-003    0.155713242642100     
  7.100000000000001E-003    0.157455730475949     
  7.200000000000002E-003    0.159154941519152     
  7.300000000000002E-003    0.160808030778905     
  7.400000000000001E-003    0.162412090341384     
  7.500000000000001E-003    0.163964138500748     
  7.600000000000002E-003    0.165461174758458     
  7.700000000000001E-003    0.166900125337253     
  7.800000000000001E-003    0.168277871869645     
  7.900000000000001E-003    0.169591249515498     
  8.000000000000002E-003    0.170837043818989     
  8.100000000000001E-003    0.172011997870039     
  8.200000000000001E-003    0.173112814441002     
  8.300000000000002E-003    0.174136154880586     
  8.400000000000001E-003    0.175078635604451     
  8.500000000000002E-003    0.175936840496514     
  8.600000000000002E-003    0.176707330849283     
  8.700000000000001E-003    0.177386622293621     
  8.800000000000002E-003    0.177971219526017     
  8.900000000000002E-003    0.178457577475354     
  9.000000000000001E-003    0.178842146497020     
  9.100000000000002E-003    0.179121345781914     
  9.200000000000002E-003    0.179291597536067     
  9.300000000000001E-003    0.179349292077312     
  9.400000000000002E-003    0.179290814472519     
  9.500000000000001E-003    0.179112530316157     
  9.600000000000001E-003    0.178810821113977     
  9.700000000000002E-003    0.178382047320702     
  9.800000000000001E-003    0.177822591395213     
  9.900000000000001E-003    0.177128826697346     
  1.000000000000000E-002    0.176297137401940     
  1.010000000000000E-002    0.175323926743935     
  1.020000000000000E-002    0.174205609583682     
  1.030000000000000E-002    0.172938633046635     
  1.040000000000000E-002    0.171519456887560     
  1.050000000000000E-002    0.169944592049490     
  1.060000000000000E-002    0.168210564490458     
  1.070000000000000E-002    0.166313959433357     
  1.080000000000000E-002    0.164251380480417     
  1.090000000000000E-002    0.162019489639223     
  1.100000000000000E-002    0.159615003750967     
  1.110000000000000E-002    0.157034691818510     
  1.120000000000000E-002    0.154275403474422     
  1.130000000000000E-002    0.151334010212651     
  1.140000000000000E-002    0.148207502913344     
  1.150000000000000E-002    0.144892920455646     
  1.160000000000000E-002    0.141387381764383     
  1.170000000000000E-002    0.137688087680513     
  1.180000000000000E-002    0.133792345030926     
  1.190000000000000E-002    0.129697531773973     
  1.200000000000000E-002    0.125401142611193     
  1.210000000000000E-002    0.120900766258559     
  1.220000000000000E-002    0.116194104771048     
  1.230000000000000E-002    0.111278972708389     
  1.240000000000000E-002    0.106153294809213     
  1.250000000000000E-002    0.100815131138493     
  1.260000000000000E-002    9.526266173515405E-002
  1.270000000000000E-002    8.949420274025374E-002
  1.280000000000000E-002    8.350819834490672E-002
  1.290000000000000E-002    7.730324018598683E-002
  1.300000000000000E-002    7.087806617598877E-002
  1.310000000000000E-002    6.423156307011092E-002
  1.320000000000000E-002    5.736276437173976E-002
  1.330000000000000E-002    5.027086816597496E-002
  1.340000000000000E-002    4.295523554865587E-002
  1.350000000000000E-002    3.541538892452613E-002
  1.360000000000000E-002    2.765102391286014E-002
  1.370000000000000E-002    1.966200736385356E-002
  1.380000000000000E-002    1.144838156469667E-002
  1.390000000000000E-002    3.010372529493724E-003
  1.400000000000000E-002   -5.651608050201071E-003
  1.410000000000000E-002   -1.453696285595328E-002
  1.420000000000000E-002   -2.364490557157611E-002
  1.430000000000000E-002   -3.297445913057388E-002
  1.440000000000000E-002   -4.252444255850785E-002
  1.450000000000000E-002   -5.229347910991294E-002
  1.460000000000000E-002   -6.227999058078749E-002
  1.470000000000000E-002   -7.248219377895490E-002
  1.480000000000000E-002   -8.289810328175710E-002
  1.490000000000000E-002   -9.352551133049863E-002
  1.500000000000000E-002   -0.104362019640183     
  1.510000000000000E-002   -0.115404994036903     
  1.520000000000000E-002   -0.126651607326829     
  1.530000000000000E-002   -0.138098814805593     
  1.540000000000000E-002   -0.149743350171245     
  1.550000000000000E-002   -0.161581733524933     
  1.560000000000000E-002   -0.173610266118222     
  1.570000000000000E-002   -0.185825041388858     
  1.580000000000000E-002   -0.198221937816049     
  1.590000000000000E-002   -0.210796612366241     
  1.600000000000000E-002   -0.223544500693618     
  1.610000000000000E-002   -0.236460829832511     
  1.620000000000000E-002   -0.249540613365657     
  1.630000000000000E-002   -0.262778647728384     
  1.640000000000000E-002   -0.276169516838565     
  1.650000000000000E-002   -0.289707603714682     
  1.660000000000000E-002   -0.303387089758491     
  1.670000000000000E-002   -0.317201944556275     
  1.680000000000000E-002   -0.331145919484445     
  1.690000000000000E-002   -0.345212566981758     
  1.700000000000000E-002   -0.359395276556641     
  1.710000000000000E-002   -0.373687196622719     
  1.720000000000000E-002   -0.388081295763515     
  1.730000000000000E-002   -0.402570375501392     
  1.740000000000000E-002   -0.417147050185771     
  1.750000000000000E-002   -0.431803725057759     
  1.760000000000000E-002   -0.446532659130364     
  1.770000000000000E-002   -0.461325885693590     
  1.780000000000000E-002   -0.476175330041423     
  1.790000000000000E-002   -0.491072775040191     
  1.800000000000000E-002   -0.506009817919892     
  1.810000000000000E-002   -0.520977881517336     
  1.820000000000000E-002   -0.535968260119918     
  1.830000000000000E-002   -0.550972108312923     
  1.840000000000000E-002   -0.565980527039786     
  1.850000000000000E-002   -0.580984355980854     
  1.860000000000000E-002   -0.595974433165708     
  1.870000000000000E-002   -0.610941414492452     