 -4.000000000000000E-002    0.000000000000000E+000
 -3.990000000000000E-002    0.000000000000000E+000
 -3.980000000000000E-002    0.000000000000000E+000
 -3.970000000000000E-002    0.000000000000000E+000
 -3.960000000000000E-002    0.000000000000000E+000
 -3.950000000000000E-002    0.000000000000000E+000
 -3.940000000000000E-002    0.000000000000000E+000
 -3.930000000000000E-002    0.000000000000000E+000
 -3.920000000000000E-002    0.000000000000000E+000
 -3.910000000000000E-002    0.000000000000000E+000
 -3.900000000000000E-002    0.000000000000000E+000
 -3.890000000000000E-002    0.000000000000000E+000
 -3.880000000000000E-002    0.000000000000000E+000
 -3.870000000000000E-002    0.000000000000000E+000
 -3.860000000000000E-002    0.000000000000000E+000
 -3.850000000000000E-002    0.000000000000000E+000
 -3.840000000000000E-002    0.000000000000000E+000
 -3.830000000000000E-002    0.000000000000000E+000
 -3.820000000000000E-002    0.000000000000000E+000
 -3.810000000000000E-002    0.000000000000000E+000
 -3.800000000000000E-002    0.000000000000000E+000
 -3.790000000000000E-002    0.000000000000000E+000
 -3.780000000000000E-002   -1.900734176592889E-046
 -3.770000000000000E-002   -1.114781964738849E-045
 -3.760000000000000E-002   -5.700037100965659E-045
 -3.750000000000000E-002   -2.618763174170440E-044
 -3.740000000000000E-002   -1.079897578535861E-043
 -3.730000000000000E-002   -4.121635656748148E-043
 -3.720000000000000E-002   -1.445741353159774E-042
 -3.710000000000000E-002   -4.694536321338820E-042
 -3.700000000000000E-002   -1.418212808941636E-041
 -3.690000000000000E-002   -3.999735097084980E-041
 -3.680000000000000E-002   -1.055299542095987E-040
 -3.670000000000000E-002   -2.606008344541503E-040
 -3.660000000000000E-002   -6.014071507310064E-040
 -3.650000000000000E-002   -1.291134355804239E-039
 -3.640000000000000E-002   -2.553437993917532E-039
 -3.630000000000000E-002   -4.557261936381665E-039
 -3.620000000000000E-002   -6.995704027845057E-039
 -3.610000000000000E-002   -7.938570906338215E-039
 -3.600000000000000E-002   -1.152313510359814E-039
 -3.590000000000000E-002    2.951182742639793E-038
 -3.580000000000000E-002    1.208356200239619E-037
 -3.570000000000000E-002    3.489811740859667E-037
 -3.560000000000000E-002    8.593275775921434E-037
 -3.550000000000000E-002    1.908720630395007E-036
 -3.540000000000000E-002    3.915559723050139E-036
 -3.530000000000000E-002    7.499427804100311E-036
 -3.520000000000000E-002    1.346536585639996E-035
 -3.510000000000000E-002    2.264255478011685E-035
 -3.500000000000000E-002    3.541850313753552E-035
 -3.490000000000000E-002    5.071872295823839E-035
 -3.480000000000000E-002    6.408217121082697E-035
 -3.470000000000000E-002    6.441193851512808E-035
 -3.460000000000000E-002    2.901507277621461E-035
 -3.450000000000000E-002   -8.318627608072330E-035
 -3.440000000000000E-002   -3.396960673546918E-034
 -3.430000000000000E-002   -8.417930457539867E-034
 -3.420000000000000E-002   -1.726931336374143E-033
 -3.410000000000000E-002   -3.158485876344106E-033
 -3.400000000000000E-002   -5.290580257195352E-033
 -3.390000000000000E-002   -8.190586840726033E-033
 -3.380000000000000E-002   -1.169748989679252E-032
 -3.370000000000000E-002   -1.519320632741898E-032
 -3.360000000000000E-002   -1.727021501347775E-032
 -3.350000000000000E-002   -1.529829335348474E-032
 -3.340000000000000E-002   -4.932803421688525E-033
 -3.330000000000000E-002    2.032578195282237E-032
 -3.320000000000000E-002    6.931151068024823E-032
 -3.310000000000000E-002    1.527701546677173E-031
 -3.300000000000000E-002    2.818404515902261E-031
 -3.290000000000000E-002    4.648037420319318E-031
 -3.280000000000000E-002    7.013886820712398E-031
 -3.270000000000000E-002    9.739893566922773E-031
 -3.260000000000000E-002    1.235490271336317E-030
 -3.250000000000000E-002    1.394129410236507E-030
 -3.240000000000000E-002    1.297104478686801E-030
 -3.230000000000000E-002    7.165402708275885E-031
 -3.220000000000000E-002   -6.560230269076735E-031
 -3.210000000000000E-002   -3.197468274776443E-030
 -3.200000000000000E-002   -7.311138294601388E-030
 -3.190000000000000E-002   -1.334080643200111E-029
 -3.180000000000000E-002   -2.142626971444377E-029
 -3.170000000000000E-002   -3.128998012142575E-029
 -3.160000000000000E-002   -4.195352673000284E-029
 -3.150000000000000E-002   -5.139990906770153E-029
 -3.140000000000000E-002   -5.622361490577502E-029
 -3.130000000000000E-002   -5.134599480137136E-029
 -3.120000000000000E-002   -2.991592809556209E-029
 -3.110000000000000E-002    1.643953521055187E-029
 -3.100000000000000E-002    9.681284560256419E-029
 -3.090000000000000E-002    2.194444426851013E-028
 -3.080000000000000E-002    3.891892617129356E-028
 -3.070000000000000E-002    6.039144107097301E-028
 -3.060000000000000E-002    8.498914863686365E-028
 -3.050000000000000E-002    1.096516338515153E-027
 -3.040000000000000E-002    1.291063970079736E-027
 -3.030000000000000E-002    1.354650284203161E-027
 -3.020000000000000E-002    1.181076838373435E-027
 -3.010000000000000E-002    6.407021178571571E-028
 -3.000000000000000E-002   -4.082217169394518E-028
 -2.990000000000000E-002   -2.098344882851495E-027
 -2.980000000000000E-002   -4.520312564711312E-027
 -2.970000000000000E-002   -7.677614852945600E-027
 -2.960000000000000E-002   -1.143083729746025E-026
 -2.950000000000000E-002   -1.543609018066601E-026
 -2.940000000000000E-002   -1.908640583106416E-026
 -2.930000000000000E-002   -2.146943064115543E-026
 -2.920000000000000E-002   -2.135921968146579E-026
 -2.910000000000000E-002   -1.726342178507351E-026
 -2.900000000000000E-002   -7.548366053685916E-027
 -2.890000000000000E-002    9.337908117944819E-027
 -2.880000000000000E-002    3.453233716603010E-026
 -2.870000000000000E-002    6.831514159777472E-026
 -2.860000000000000E-002    1.095830786335077E-025
 -2.850000000000000E-002    1.552892895677089E-025
 -2.840000000000000E-002    1.999348396162768E-025
 -2.830000000000000E-002    2.352316626575441E-025
 -2.820000000000000E-002    2.500869395805052E-025
 -2.810000000000000E-002    2.310769778875954E-025
 -2.800000000000000E-002    1.635744496605827E-025
 -2.790000000000000E-002    3.365776129116813E-026
 -2.780000000000000E-002   -1.691454007636078E-025
 -2.770000000000000E-002   -4.483501205344264E-025
 -2.760000000000000E-002   -7.964808793096666E-025
 -2.750000000000000E-002   -1.190957320683458E-024
 -2.740000000000000E-002   -1.590568884096630E-024
 -2.730000000000000E-002   -1.933419061294469E-024
 -2.720000000000000E-002   -2.137375780906076E-024
 -2.710000000000000E-002   -2.104110793315474E-024
 -2.700000000000000E-002   -1.727690503855938E-024
 -2.690000000000000E-002   -9.083432833840019E-025
 -2.680000000000000E-002    4.285681406823194E-025
 -2.670000000000000E-002    2.309203458116051E-024
 -2.660000000000000E-002    4.685460908705173E-024
 -2.650000000000000E-002    7.409927702896499E-024
 -2.640000000000000E-002    1.021598643313357E-023
 -2.630000000000000E-002    1.270853035130891E-023
 -2.620000000000000E-002    1.437130750386631E-023
 -2.610000000000000E-002    1.459670708944820E-023
 -2.600000000000000E-002    1.274256390112104E-023
 -2.590000000000000E-002    8.218053298804680E-024
 -2.580000000000000E-002    5.968818690008691E-025
 -2.570000000000000E-002   -1.024913665985828E-023
 -2.560000000000000E-002   -2.400910216188425E-023
 -2.550000000000000E-002   -3.980396755805178E-023
 -2.540000000000000E-002   -5.609449631170837E-023
 -2.530000000000000E-002   -7.065528534905121E-023
 -2.520000000000000E-002   -8.064476891203361E-023
 -2.510000000000000E-002   -8.279757562663189E-023
 -2.500000000000000E-002   -7.375640402677035E-023
 -2.490000000000000E-002   -5.054538452317961E-023
 -2.480000000000000E-002   -1.116538742666503E-023
 -2.470000000000000E-002    4.473449805490498E-023
 -2.460000000000000E-002    1.151839999612223E-022
 -2.450000000000000E-002    1.953198320448360E-022
 -2.440000000000000E-002    2.770396386838633E-022
 -2.430000000000000E-002    3.490172698767760E-022
 -2.420000000000000E-002    3.972085935449520E-022
 -2.410000000000000E-002    4.059485966717317E-022
 -2.400000000000000E-002    3.596865621685182E-022
 -2.390000000000000E-002    2.453257415484296E-022
 -2.380000000000000E-002    5.503045802847746E-023
 -2.370000000000000E-002   -2.107548809369934E-022
 -2.360000000000000E-002   -5.404513612657433E-022
 -2.350000000000000E-002   -9.091380192654753E-022
 -2.340000000000000E-002   -1.277541968047976E-021
 -2.330000000000000E-002   -1.592787111013369E-021
 -2.320000000000000E-002   -1.791390899108382E-021
 -2.310000000000000E-002   -1.804830189956324E-021
 -2.300000000000000E-002   -1.567725903310178E-021
 -2.290000000000000E-002   -1.028325601164187E-021
 -2.280000000000000E-002   -1.605215748144146E-022
 -2.270000000000000E-002    1.023835770553190E-021
 -2.260000000000000E-002    2.464015509672161E-021
 -2.250000000000000E-002    4.042906240293885E-021
 -2.240000000000000E-002    5.585128690548631E-021
 -2.230000000000000E-002    6.862841006031322E-021
 -2.220000000000000E-002    7.610869090441888E-021
 -2.210000000000000E-002    7.551970326869973E-021
 -2.200000000000000E-002    6.431843869555808E-021
 -2.190000000000000E-002    4.061982601243032E-021
 -2.180000000000000E-002    3.667647983667841E-022
 -2.170000000000000E-002   -4.570536618936390E-021
 -2.160000000000000E-002   -1.046962093407267E-020
 -2.150000000000000E-002   -1.683064345283128E-020
 -2.140000000000000E-002   -2.293521248996627E-020
 -2.130000000000000E-002   -2.787785029268660E-020
 -2.120000000000000E-002   -3.063269893433033E-020
 -2.110000000000000E-002   -3.015673864322443E-020
 -2.100000000000000E-002   -2.552611013921124E-020
 -2.090000000000000E-002   -1.609654224109637E-020
 -2.080000000000000E-002   -1.672929754786686E-021
 -2.070000000000000E-002    1.733241368794066E-020
 -2.060000000000000E-002    3.977764646796947E-020
 -2.050000000000000E-002    6.373233481727705E-020
 -2.040000000000000E-002    8.650732013939401E-020
 -2.030000000000000E-002    1.047945520181237E-019
 -2.020000000000000E-002    1.149288651531354E-019
 -2.010000000000000E-002    1.132704554488722E-019
 -2.000000000000000E-002    9.669018098631009E-020
 -1.990000000000000E-002    6.312113037906600E-020
 -1.980000000000000E-002    1.212105070772828E-020
 -1.970000000000000E-002   -5.462614174310299E-020
 -1.960000000000000E-002   -1.329525127984862E-019
 -1.950000000000000E-002   -2.160775167035062E-019
 -1.940000000000000E-002   -2.947863447287184E-019
 -1.930000000000000E-002   -3.579725218767633E-019
 -1.920000000000000E-002   -3.935685744162724E-019
 -1.910000000000000E-002   -3.898438497261497E-019
 -1.900000000000000E-002   -3.369944014439329E-019
 -1.890000000000000E-002   -2.288925625657544E-019
 -1.880000000000000E-002   -6.480924949556162E-020
 -1.870000000000000E-002    1.491215022991386E-019
 -1.860000000000000E-002    3.989501805064106E-019
 -1.850000000000000E-002    6.627224972833596E-019
 -1.840000000000000E-002    9.112666666863660E-019
 -1.830000000000000E-002    1.110096491822821E-018
 -1.820000000000000E-002    1.222458220872384E-018
 -1.810000000000000E-002    1.213408821897584E-018
 -1.800000000000000E-002    1.054652012344478E-018
 -1.790000000000000E-002    7.296960965813296E-019
 -1.780000000000000E-002    2.387516358637581E-019
 -1.770000000000000E-002   -3.973171229546486E-019
 -1.760000000000000E-002   -1.134712522147395E-018
 -1.750000000000000E-002   -1.906777846888940E-018
 -1.740000000000000E-002   -2.626965154271361E-018
 -1.730000000000000E-002   -3.194992163217562E-018
 -1.720000000000000E-002   -3.506144768827471E-018
 -1.710000000000000E-002   -3.463274730379085E-018
 -1.700000000000000E-002   -2.990593474032196E-018
 -1.690000000000000E-002   -2.047937967254331E-018
 -1.680000000000000E-002   -6.438215375588235E-019
 -1.670000000000000E-002    1.154636206874682E-018
 -1.660000000000000E-002    3.216839225447906E-018
 -1.650000000000000E-002    5.350635250141361E-018
 -1.640000000000000E-002    7.312284352428200E-018
 -1.630000000000000E-002    8.825003522873792E-018
 -1.620000000000000E-002    9.605653154489878E-018
 -1.610000000000000E-002    9.398026555635853E-018
 -1.600000000000000E-002    8.010048228634072E-018
 -1.590000000000000E-002    5.351124064060750E-018
 -1.580000000000000E-002    1.465076747670132E-018
 -1.570000000000000E-002   -3.446326563463761E-018
 -1.560000000000000E-002   -9.014126670232420E-018
 -1.550000000000000E-002   -1.471133819122872E-017
 -1.540000000000000E-002   -1.988324311833439E-017
 -1.530000000000000E-002   -2.379951089198273E-017
 -1.520000000000000E-002   -2.572629414159341E-017
 -1.510000000000000E-002   -2.501363096667656E-017
 -1.500000000000000E-002   -2.119067927898067E-017
 -1.490000000000000E-002   -1.405884341451347E-017
 -1.480000000000000E-002   -3.771111618105738E-018
 -1.470000000000000E-002    9.114714761410443E-018
 -1.460000000000000E-002    2.362050565865654E-017
 -1.450000000000000E-002    3.837932573640179E-017
 -1.440000000000000E-002    5.171947054722603E-017
 -1.430000000000000E-002    6.180122878456103E-017
 -1.420000000000000E-002    6.680029684403593E-017
 -1.410000000000000E-002    6.512500532565001E-017
 -1.400000000000000E-002    5.564803906571330E-017
 -1.390000000000000E-002    3.792790284862847E-017
 -1.380000000000000E-002    1.239200686682977E-017
 -1.370000000000000E-002   -1.954749045283855E-017
 -1.360000000000000E-002   -5.547132373916731E-017
 -1.350000000000000E-002   -9.204422168516576E-017
 -1.340000000000000E-002   -1.252297266731496E-016
 -1.330000000000000E-002   -1.506262134712378E-016
 -1.320000000000000E-002   -1.639068663030222E-016
 -1.310000000000000E-002   -1.613310410024664E-016
 -1.300000000000000E-002   -1.402802084778608E-016
 -1.290000000000000E-002   -9.976048287693580E-017
 -1.280000000000000E-002   -4.080742441145061E-017
 -1.270000000000000E-002    3.327111733370359E-017
 -1.260000000000000E-002    1.168706410763305E-016
 -1.250000000000000E-002    2.023249260476498E-016
 -1.240000000000000E-002    2.804181042961068E-016
 -1.230000000000000E-002    3.411624481839362E-016
 -1.220000000000000E-002    3.747978626392955E-016
 -1.210000000000000E-002    3.729357638393869E-016
 -1.200000000000000E-002    3.297407853168445E-016
 -1.190000000000000E-002    2.430208712595154E-016
 -1.180000000000000E-002    1.150862481302601E-016
 -1.170000000000000E-002   -4.675952808859128E-017
 -1.160000000000000E-002   -2.302129969290198E-016
 -1.150000000000000E-002   -4.185287093149185E-016
 -1.140000000000000E-002   -5.916705973454395E-016
 -1.130000000000000E-002   -7.280218409218990E-016
 -1.120000000000000E-002   -8.065496334805049E-016
 -1.110000000000000E-002   -8.092528136728861E-016
 -1.100000000000000E-002   -7.236603720343861E-016
 -1.090000000000000E-002   -5.451074775232924E-016
 -1.080000000000000E-002   -2.784966620945640E-016
 -1.070000000000000E-002    6.073421050075565E-017
 -1.060000000000000E-002    4.466701615391051E-016
 -1.050000000000000E-002    8.441562418097642E-016
 -1.040000000000000E-002    1.211257305093655E-015
 -1.030000000000000E-002    1.502853358693634E-015
 -1.020000000000000E-002    1.675142204003500E-015
 -1.010000000000000E-002    1.690686896189367E-015
 -1.000000000000000E-002    1.523527003987857E-015
 -9.899999999999999E-003    1.163796813830494E-015
 -9.800000000000000E-003    6.212632885963267E-016
 -9.699999999999999E-003   -7.276878935528574E-017
 -9.599999999999999E-003   -8.656382590698447E-016
 -9.500000000000000E-003   -1.685884343782248E-015
 -9.399999999999999E-003   -2.448247031048010E-015
 -9.299999999999999E-003   -3.060919964578938E-015
 -9.200000000000000E-003   -3.434587770698060E-015
 -9.099999999999999E-003   -3.492519678541561E-015
 -8.999999999999999E-003   -3.180767110359942E-015
 -8.900000000000000E-003   -2.477368061584253E-015
 -8.799999999999999E-003   -1.399416160077267E-015
 -8.699999999999999E-003   -6.920010618961388E-018
 -8.600000000000000E-003    1.597420364681960E-015
 -8.499999999999999E-003    3.273071851997662E-015
 -8.399999999999999E-003    4.851290709375199E-015
 -8.300000000000000E-003    6.149137072906632E-015
 -8.199999999999999E-003    6.986990258668166E-015
 -8.100000000000000E-003    7.208169984721853E-015
 -8.000000000000000E-003    6.698856350298648E-015
 -7.899999999999999E-003    5.406223574262663E-015
 -7.800000000000000E-003    3.352610820619277E-015
 -7.699999999999999E-003    6.436867070237278E-016
 -7.599999999999999E-003   -2.531071679854970E-015
 -7.499999999999999E-003   -5.906670717376583E-015
 -7.399999999999999E-003   -9.159964296135799E-015
 -7.299999999999999E-003   -1.193547082812988E-014
 -7.199999999999999E-003   -1.387805161137625E-014
 -7.100000000000000E-003   -1.466992999785699E-014
 -6.999999999999999E-003   -1.406874998247350E-014
 -6.899999999999999E-003   -1.194283297510544E-014
 -6.800000000000000E-003   -8.299596558092127E-015
 -6.699999999999999E-003   -3.303288301377697E-015
 -6.599999999999999E-003    2.721178200539392E-015
 -6.499999999999999E-003    9.300473922289573E-015
 -6.399999999999999E-003    1.584197332770641E-014
 -6.299999999999999E-003    2.167889486458699E-014
 -6.199999999999999E-003    2.612882306004897E-014
 -6.100000000000000E-003    2.856130030650157E-014
 -5.999999999999999E-003    2.846866363089353E-014
 -5.899999999999999E-003    2.553327923348725E-014
 -5.800000000000000E-003    1.968383579543549E-014
 -5.699999999999999E-003    1.113357674389384E-014
 -5.599999999999999E-003    3.943264214187570E-016
 -5.499999999999999E-003   -1.173809929579050E-014
 -5.399999999999999E-003   -2.422913183523811E-014
 -5.299999999999999E-003   -3.588048793689252E-014
 -5.199999999999999E-003   -4.543101395919677E-014
 -5.099999999999999E-003   -5.167621467672020E-014
 -4.999999999999999E-003   -5.359660057006398E-014
 -4.899999999999999E-003   -5.048288521110821E-014
 -4.799999999999999E-003   -4.204491942226130E-014
 -4.699999999999999E-003   -2.849137314617760E-014
 -4.599999999999999E-003   -1.056851206644843E-014
 -4.499999999999999E-003    1.045077773183488E-014
 -4.399999999999999E-003    3.283259906881403E-014
 -4.299999999999999E-003    5.450220964181686E-014
 -4.199999999999999E-003    7.321312204162755E-014
 -4.099999999999999E-003    8.675381866911890E-014
 -3.999999999999999E-003    9.317570624872236E-014
 -3.899999999999999E-003    9.102158838686408E-014
 -3.799999999999999E-003    7.953163946677690E-014
 -3.699999999999999E-003    5.880314010595393E-014
 -3.599999999999999E-003    2.988217132312226E-014
 -3.499999999999999E-003   -5.230251050244308E-015
 -3.399999999999999E-003   -4.366858383614989E-014
 -3.299999999999999E-003   -8.189219032112557E-014
 -3.199999999999999E-003   -1.159664823434598E-013
 -3.099999999999999E-003   -1.419182475103116E-013
 -2.999999999999999E-003   -1.561378707290103E-013
 -2.899999999999999E-003   -1.557931744376828E-013
 -2.799999999999999E-003   -1.392138588150378E-013
 -2.699999999999999E-003   -1.062038022297487E-013
 -2.599999999999999E-003   -5.824027362230847E-014
 -2.499999999999999E-003    1.474186405129489E-015
 -2.399999999999999E-003    6.813062876323817E-014
 -2.299999999999999E-003    1.356122864014775E-013
 -2.199999999999999E-003    1.969643198219685E-013
 -2.099999999999999E-003    2.450079075871205E-013
 -1.999999999999999E-003    2.730533973249623E-013
 -1.899999999999999E-003    2.756516804487406E-013
 -1.799999999999999E-003    2.493115118842953E-013
 -1.699999999999999E-003    1.931046838781618E-013
 -1.599999999999999E-003    1.090831803831589E-013
 -1.499999999999999E-003    2.441869545486661E-015
 -1.399999999999999E-003   -1.186214091219485E-013
 -1.299999999999999E-003   -2.433718520421487E-013
 -1.199999999999999E-003   -3.593224797581404E-013
 -1.099999999999999E-003   -4.532967046581517E-013
 -9.999999999999989E-004   -5.126943587453660E-013
 -8.999999999999990E-004   -5.268561956080067E-013
 -7.999999999999990E-004   -4.883996392637690E-013
 -6.999999999999989E-004   -3.943848213440004E-013
 -5.999999999999990E-004   -2.471709768133588E-013
 -4.999999999999989E-004   -5.483716460878804E-014
 -3.999999999999989E-004    1.689290672515179E-013
 -2.999999999999989E-004    4.055285417265716E-013
 -1.999999999999989E-004    6.327327992959686E-013
 -9.999999999999892E-005    8.264918509817210E-013
  1.084202172485504E-018    9.631459851325583E-013
  1.000000000000011E-004    1.021864156002223E-012
  2.000000000000011E-004    9.870872623583437E-013
  3.000000000000011E-004    8.507274144738285E-013
  4.000000000000011E-004    6.138702676031505E-013
  5.000000000000011E-004    2.877484594130897E-013
  6.000000000000011E-004   -1.061983794380932E-013
  7.000000000000011E-004   -5.372885945514013E-013
  8.000000000000011E-004   -9.676088988472244E-013
  9.000000000000012E-004   -1.354984499869160E-012
  1.000000000000001E-003   -1.656716098716501E-012
  1.100000000000001E-003   -1.833788962975760E-012
  1.200000000000001E-003   -1.855179588861990E-012
  1.300000000000001E-003   -1.701830589552514E-012
  1.400000000000001E-003   -1.369854081052509E-012
  1.500000000000001E-003   -8.725507085978943E-013
  1.600000000000001E-003   -2.409116749391810E-013
  1.700000000000001E-003    4.776127827436751E-013
  1.800000000000001E-003    1.222137449972851E-012
  1.900000000000001E-003    1.923041400709090E-012
  2.000000000000001E-003    2.508038997045144E-012
  2.100000000000001E-003    2.909146371648834E-012
  2.200000000000001E-003    3.069923688933480E-012
  2.300000000000001E-003    2.952281165783936E-012
  2.400000000000001E-003    2.542105932898169E-012
  2.500000000000001E-003    1.853014417803286E-012
  2.600000000000001E-003    9.276535851192412E-013
  2.700000000000001E-003   -1.638271002506631E-013
  2.800000000000001E-003   -1.328259749717812E-012
  2.900000000000001E-003   -2.456729833277353E-012
  3.000000000000001E-003   -3.434160164973416E-012
  3.100000000000001E-003   -4.150447674838765E-012
  3.200000000000001E-003   -4.512149891036032E-012
  3.300000000000001E-003   -4.453570645319104E-012
  3.400000000000001E-003   -3.946033458691264E-012
  3.500000000000001E-003   -3.004209032573171E-012
  3.600000000000001E-003   -1.688555250423517E-012
  3.700000000000001E-003   -1.032442119992711E-013
  3.800000000000001E-003    1.610640310340768E-012
  3.900000000000001E-003    3.286376124372137E-012
  4.000000000000001E-003    4.746596310066141E-012
  4.100000000000001E-003    5.820792067742227E-012
  4.200000000000001E-003    6.363731308774884E-012
  4.300000000000001E-003    6.272955553086340E-012
  4.400000000000001E-003    5.503437172124857E-012
  4.500000000000001E-003    4.077592287181725E-012
  4.600000000000002E-003    2.089164454663089E-012
  4.700000000000001E-003   -3.000055127421337E-013
  4.800000000000001E-003   -2.870657050041330E-012
  4.900000000000002E-003   -5.363811677634753E-012
  5.000000000000001E-003   -7.504309192936921E-012
  5.100000000000001E-003   -9.028253722714086E-012
  5.200000000000001E-003   -9.711866916113052E-012
  5.300000000000002E-003   -9.398854295402149E-012
  5.400000000000001E-003   -8.023283068168649E-012
  5.500000000000001E-003   -5.625163049670443E-012
  5.600000000000002E-003   -2.356414321779782E-012
  5.700000000000001E-003    1.524287434658039E-012
  5.800000000000001E-003    5.668286546548512E-012
  5.900000000000002E-003    9.664672178876692E-012
  6.000000000000001E-003    1.307707857893186E-011
  6.100000000000001E-003    1.548656878227089E-011
  6.200000000000002E-003    1.653672037089578E-011
  6.300000000000002E-003    1.597642849709075E-011
  6.400000000000001E-003    1.369581945996085E-011
  6.500000000000001E-003    9.750913672808207E-012
  6.600000000000002E-003    4.373515839430282E-012
  6.700000000000001E-003   -2.036019380625652E-012
  6.800000000000001E-003   -8.933913040793464E-012
  6.900000000000002E-003   -1.567497986750783E-011
  7.000000000000001E-003   -2.156871172099099E-011
  7.100000000000001E-003   -2.594492506052693E-011
  7.200000000000002E-003   -2.822308016994395E-011
  7.300000000000002E-003   -2.797855957682655E-011
  7.400000000000001E-003   -2.499887982498832E-011
  7.500000000000001E-003   -1.932332055835703E-011
  7.600000000000002E-003   -1.126056583029807E-011
  7.700000000000001E-003   -1.380776041054744E-012
  7.800000000000001E-003    9.519185527052391E-012
  7.900000000000001E-003    2.047601636005543E-011
  8.000000000000002E-003    3.044169287721345E-011
  8.100000000000001E-003    3.838009738496123E-011
  8.200000000000001E-003    4.337001683553464E-011
  8.300000000000002E-003    4.470464249633080E-011
  8.400000000000001E-003    4.197735424117088E-011
  8.500000000000002E-003    3.514414379725094E-011
  8.600000000000002E-003    2.455468878128542E-011
  8.700000000000001E-003    1.094669350860820E-011
  8.800000000000002E-003   -4.598629201291154E-012
  8.900000000000002E-003   -2.073826319891990E-011
  9.000000000000001E-003   -3.598075093512212E-011
  9.100000000000002E-003   -4.882210386818448E-011
  9.200000000000002E-003   -5.789226374933573E-011
  9.300000000000001E-003   -6.209820684058234E-011
  9.400000000000002E-003   -6.074913509972680E-011
  9.500000000000001E-003   -5.365010443280960E-011
  9.600000000000001E-003   -4.115258037792473E-011
  9.700000000000002E-003   -2.415404469059561E-011
  9.800000000000001E-003   -4.043360721795358E-012
  9.900000000000001E-003    1.740615650641453E-011
  1.000000000000000E-002    3.818863982276255E-011
  1.010000000000000E-002    5.625018410229711E-011
  1.020000000000000E-002    6.968958028208706E-011
  1.030000000000000E-002    7.695614288320157E-011
  1.040000000000000E-002    7.702464060791584E-011
  1.050000000000000E-002    6.952828203356644E-011
  1.060000000000000E-002    5.483383932419041E-011
  1.070000000000000E-002    3.404775236692221E-011
  1.080000000000000E-002    8.948325490449604E-012
  1.090000000000000E-002   -1.815372399103271E-011
  1.100000000000000E-002   -4.461671241550419E-011
  1.110000000000000E-002   -6.771498235576664E-011
  1.120000000000000E-002   -8.490933780565005E-011
  1.130000000000000E-002   -9.411509505177166E-011
  1.140000000000000E-002   -9.394055848912977E-011
  1.150000000000000E-002   -8.387009531031540E-011
  1.160000000000000E-002   -6.436984477719501E-011
  1.170000000000000E-002   -3.690069968365736E-011
  1.180000000000000E-002   -3.831471211381088E-012
  1.190000000000000E-002    3.174518052850009E-011
  1.200000000000000E-002    6.628152512470933E-011
  1.210000000000000E-002    9.610644975599764E-011
  1.220000000000000E-002    1.177905655391925E-010
  1.230000000000000E-002    1.285100714160011E-010
  1.240000000000000E-002    1.263727697854407E-010
  1.250000000000000E-002    1.106710901665108E-010
  1.260000000000000E-002    8.203212437381768E-011
  1.270000000000000E-002    4.244328098322732E-011
  1.280000000000000E-002   -4.856853648519162E-012
  1.290000000000000E-002   -5.561996854548415E-011
  1.300000000000000E-002   -1.049460074122143E-010
  1.310000000000000E-002   -1.477292985544106E-010
  1.320000000000000E-002   -1.791539193588750E-010
  1.330000000000000E-002   -1.951922489936151E-010
  1.340000000000000E-002   -1.930574487149796E-010
  1.350000000000000E-002   -1.715622957514996E-010
  1.360000000000000E-002   -1.313431003810906E-010
  1.370000000000000E-002   -7.491845954552324E-011
  1.380000000000000E-002   -6.566930012144885E-012
  1.390000000000000E-002    6.797538257397986E-011
  1.400000000000000E-002    1.419784552363955E-010
  1.410000000000000E-002    2.083075337406748E-010
  1.420000000000000E-002    2.600877878680281E-010
  1.430000000000000E-002    2.913840308305697E-010
  1.440000000000000E-002    2.978302894799419E-010
  1.450000000000000E-002    2.771449972624611E-010
  1.460000000000000E-002    2.294754010053808E-010
  1.470000000000000E-002    1.575279564407855E-010
  1.480000000000000E-002    6.646010178284174E-011
  1.490000000000000E-002   -3.646938122479019E-011
  1.500000000000000E-002   -1.424710099157873E-010
  1.510000000000000E-002   -2.419731747895377E-010
  1.520000000000000E-002   -3.254861224393027E-010
  1.530000000000000E-002   -3.845041391544105E-010
  1.540000000000000E-002   -4.123611205554281E-010
  1.550000000000000E-002   -4.049547336141563E-010
  1.560000000000000E-002   -3.612625720668209E-010
  1.570000000000000E-002   -2.835901091743249E-010
  1.580000000000000E-002   -1.775129289488363E-010
  1.590000000000000E-002   -5.150351529509287E-011
  1.600000000000000E-002    8.373714635862600E-011
  1.610000000000000E-002    2.161932400888868E-010
  1.620000000000000E-002    3.336170428256031E-010
  1.630000000000000E-002    4.246846196875345E-010
  1.640000000000000E-002    4.801163806604930E-010
  1.650000000000000E-002    4.936523120153737E-010
  1.660000000000000E-002    4.627805492200186E-010
  1.670000000000000E-002    3.891369438217904E-010
  1.680000000000000E-002    2.785211705057653E-010
  1.690000000000000E-002    1.405093367729095E-010
  1.700000000000000E-002   -1.231843956343378E-011
  1.710000000000000E-002   -1.654788605572631E-010
  1.720000000000000E-002   -3.039232195083468E-010
  1.730000000000000E-002   -4.134932282756954E-010
  1.740000000000000E-002   -4.823583883753085E-010
  1.750000000000000E-002   -5.022938356755675E-010
  1.760000000000000E-002   -4.696658555161079E-010
  1.770000000000000E-002   -3.860140195174471E-010
  1.780000000000000E-002   -2.581530335945343E-010
  1.790000000000000E-002   -9.775993861061569E-011
  1.800000000000000E-002    7.953930440080862E-011
  1.810000000000000E-002    2.555202698386241E-010
  1.820000000000000E-002    4.110383127702426E-010
  1.830000000000000E-002    5.278884469302009E-010
  1.840000000000000E-002    5.906747695794015E-010
  1.850000000000000E-002    5.885091751959475E-010
  1.860000000000000E-002    5.163645510396992E-010
  1.870000000000000E-002    3.759344687472526E-010