 -4.000000000000000E-002    0.000000000000000E+000
 -3.990000000000000E-002    0.000000000000000E+000
 -3.980000000000000E-002    0.000000000000000E+000
 -3.970000000000000E-002    0.000000000000000E+000
 -3.960000000000000E-002    0.000000000000000E+000
 -3.950000000000000E-002    0.000000000000000E+000
 -3.940000000000000E-002    0.000000000000000E+000
 -3.930000000000000E-002    0.000000000000000E+000
 -3.920000000000000E-002    0.000000000000000E+000
 -3.910000000000000E-002    0.000000000000000E+000
 -3.900000000000000E-002    0.000000000000000E+000
 -3.890000000000000E-002    0.000000000000000E+000
 -3.880000000000000E-002    0.000000000000000E+000
 -3.870000000000000E-002    0.000000000000000E+000
 -3.860000000000000E-002    0.000000000000000E+000
 -3.850000000000000E-002    0.000000000000000E+000
 -3.840000000000000E-002    0.000000000000000E+000
 -3.830000000000000E-002    0.000000000000000E+000
 -3.820000000000000E-002    0.000000000000000E+000
 -3.810000000000000E-002    0.000000000000000E+000
 -3.800000000000000E-002    0.000000000000000E+000
 -3.790000000000000E-002    0.000000000000000E+000
 -3.780000000000000E-002    0.000000000000000E+000
 -3.770000000000000E-002    0.000000000000000E+000
 -3.760000000000000E-002    0.000000000000000E+000
 -3.750000000000000E-002    0.000000000000000E+000
 -3.740000000000000E-002    0.000000000000000E+000
 -3.730000000000000E-002    0.000000000000000E+000
 -3.720000000000000E-002    0.000000000000000E+000
 -3.710000000000000E-002    0.000000000000000E+000
 -3.700000000000000E-002    0.000000000000000E+000
 -3.690000000000000E-002    0.000000000000000E+000
 -3.680000000000000E-002    0.000000000000000E+000
 -3.670000000000000E-002    0.000000000000000E+000
 -3.660000000000000E-002    0.000000000000000E+000
 -3.650000000000000E-002    0.000000000000000E+000
 -3.640000000000000E-002    0.000000000000000E+000
 -3.630000000000000E-002    0.000000000000000E+000
 -3.620000000000000E-002    0.000000000000000E+000
 -3.610000000000000E-002    0.000000000000000E+000
 -3.600000000000000E-002    0.000000000000000E+000
 -3.590000000000000E-002    0.000000000000000E+000
 -3.580000000000000E-002    0.000000000000000E+000
 -3.570000000000000E-002    0.000000000000000E+000
 -3.560000000000000E-002    0.000000000000000E+000
 -3.550000000000000E-002    0.000000000000000E+000
 -3.540000000000000E-002    0.000000000000000E+000
 -3.530000000000000E-002    0.000000000000000E+000
 -3.520000000000000E-002    0.000000000000000E+000
 -3.510000000000000E-002    0.000000000000000E+000
 -3.500000000000000E-002    0.000000000000000E+000
 -3.490000000000000E-002    0.000000000000000E+000
 -3.480000000000000E-002    0.000000000000000E+000
 -3.470000000000000E-002    0.000000000000000E+000
 -3.460000000000000E-002    0.000000000000000E+000
 -3.450000000000000E-002    0.000000000000000E+000
 -3.440000000000000E-002    0.000000000000000E+000
 -3.430000000000000E-002    0.000000000000000E+000
 -3.420000000000000E-002    0.000000000000000E+000
 -3.410000000000000E-002    0.000000000000000E+000
 -3.400000000000000E-002    0.000000000000000E+000
 -3.390000000000000E-002    0.000000000000000E+000
 -3.380000000000000E-002    0.000000000000000E+000
 -3.370000000000000E-002    0.000000000000000E+000
 -3.360000000000000E-002    0.000000000000000E+000
 -3.350000000000000E-002    0.000000000000000E+000
 -3.340000000000000E-002    0.000000000000000E+000
 -3.330000000000000E-002    0.000000000000000E+000
 -3.320000000000000E-002    0.000000000000000E+000
 -3.310000000000000E-002    0.000000000000000E+000
 -3.300000000000000E-002    0.000000000000000E+000
 -3.290000000000000E-002    0.000000000000000E+000
 -3.280000000000000E-002    0.000000000000000E+000
 -3.270000000000000E-002    0.000000000000000E+000
 -3.260000000000000E-002    0.000000000000000E+000
 -3.250000000000000E-002    0.000000000000000E+000
 -3.240000000000000E-002    0.000000000000000E+000
 -3.230000000000000E-002    0.000000000000000E+000
 -3.220000000000000E-002    0.000000000000000E+000
 -3.210000000000000E-002    0.000000000000000E+000
 -3.200000000000000E-002    0.000000000000000E+000
 -3.190000000000000E-002    0.000000000000000E+000
 -3.180000000000000E-002    0.000000000000000E+000
 -3.170000000000000E-002    0.000000000000000E+000
 -3.160000000000000E-002    0.000000000000000E+000
 -3.150000000000000E-002    0.000000000000000E+000
 -3.140000000000000E-002    0.000000000000000E+000
 -3.130000000000000E-002    0.000000000000000E+000
 -3.120000000000000E-002    0.000000000000000E+000
 -3.110000000000000E-002    0.000000000000000E+000
 -3.100000000000000E-002    0.000000000000000E+000
 -3.090000000000000E-002    0.000000000000000E+000
 -3.080000000000000E-002    0.000000000000000E+000
 -3.070000000000000E-002    6.414635304221270E-048
 -3.060000000000000E-002    1.931064346411026E-047
 -3.050000000000000E-002    7.336657562897227E-048
 -3.040000000000000E-002    3.915518733979217E-048
 -3.030000000000000E-002   -1.643831863012550E-048
 -3.020000000000000E-002   -1.368455531567204E-047
 -3.010000000000000E-002   -2.029940327423268E-047
 -3.000000000000000E-002   -3.638912056376429E-047
 -2.990000000000000E-002   -5.564741294064967E-047
 -2.980000000000000E-002    2.505634227557727E-047
 -2.970000000000000E-002    2.437457520210855E-047
 -2.960000000000000E-002    1.160384224671372E-046
 -2.950000000000000E-002    5.606223490311517E-047
 -2.940000000000000E-002   -1.513299150410350E-046
 -2.930000000000000E-002   -7.149717135154896E-046
 -2.920000000000000E-002   -1.900684230883578E-045
 -2.910000000000000E-002   -2.074521869114271E-045
 -2.900000000000000E-002   -3.616356530437898E-045
 -2.890000000000000E-002   -5.305305615003552E-045
 -2.880000000000000E-002   -6.255182092059639E-045
 -2.870000000000000E-002   -7.581339552929822E-045
 -2.860000000000000E-002   -6.794326516757023E-045
 -2.850000000000000E-002   -3.250904522920013E-045
 -2.840000000000000E-002    3.403564115387845E-045
 -2.830000000000000E-002    1.661347760546674E-044
 -2.820000000000000E-002    3.873451676962130E-044
 -2.810000000000000E-002    7.290169293909378E-044
 -2.800000000000000E-002    1.197418798510704E-043
 -2.790000000000000E-002    1.813786585985530E-043
 -2.780000000000000E-002    2.546708620527674E-043
 -2.770000000000000E-002    3.324293756306820E-043
 -2.760000000000000E-002    3.973860472578789E-043
 -2.750000000000000E-002    4.233654306728315E-043
 -2.740000000000000E-002    3.669337458418730E-043
 -2.730000000000000E-002    1.678634224633510E-043
 -2.720000000000000E-002   -2.524235785731264E-043
 -2.710000000000000E-002   -9.863758743859880E-043
 -2.700000000000000E-002   -2.131494806381153E-042
 -2.690000000000000E-002   -3.771292292430982E-042
 -2.680000000000000E-002   -5.943908197817907E-042
 -2.670000000000000E-002   -8.592831106241928E-042
 -2.660000000000000E-002   -1.150569659180247E-041
 -2.650000000000000E-002   -1.423410153437254E-041
 -2.640000000000000E-002   -1.600346425853850E-041
 -2.630000000000000E-002   -1.563549140370237E-041
 -2.620000000000000E-002   -1.148413082535530E-041
 -2.610000000000000E-002   -1.443112740191311E-042
 -2.600000000000000E-002    1.694738598821734E-041
 -2.590000000000000E-002    4.623093612980345E-041
 -2.580000000000000E-002    8.853963466555292E-041
 -2.570000000000000E-002    1.448238169086783E-040
 -2.560000000000000E-002    2.137622681319773E-040
 -2.550000000000000E-002    2.903545911367863E-040
 -2.540000000000000E-002    3.642751422239243E-040
 -2.530000000000000E-002    4.181688384220644E-040
 -2.520000000000000E-002    4.262074734960773E-040
 -2.510000000000000E-002    3.533919710601473E-040
 -2.500000000000000E-002    1.562817124520867E-040
 -2.490000000000000E-002   -2.140181051242564E-040
 -2.480000000000000E-002   -8.056741746030522E-040
 -2.470000000000000E-002   -1.655836182193323E-039
 -2.460000000000000E-002   -2.775575478553830E-039
 -2.450000000000000E-002   -4.129918979491441E-039
 -2.440000000000000E-002   -5.613754096509752E-039
 -2.430000000000000E-002   -7.025773853694236E-039
 -2.420000000000000E-002   -8.044365150691674E-039
 -2.410000000000000E-002   -8.211637083382600E-039
 -2.400000000000000E-002   -6.933911689216517E-039
 -2.390000000000000E-002   -3.509351380115690E-039
 -2.380000000000000E-002    2.805636170763704E-039
 -2.370000000000000E-002    1.267952225200361E-038
 -2.360000000000000E-002    2.652953142539445E-038
 -2.350000000000000E-002    4.428369007864968E-038
 -2.340000000000000E-002    6.508880053532239E-038
 -2.330000000000000E-002    8.698778840624799E-038
 -2.320000000000000E-002    1.066096955696753E-037
 -2.310000000000000E-002    1.189400142083524E-037
 -2.300000000000000E-002    1.172635149000752E-037
 -2.290000000000000E-002    9.339484304133812E-038
 -2.280000000000000E-002    3.832461248692275E-038
 -2.270000000000000E-002   -5.659550640788084E-038
 -2.260000000000000E-002   -1.978321162952182E-037
 -2.250000000000000E-002   -3.871878305176812E-037
 -2.240000000000000E-002   -6.187340646723735E-037
 -2.230000000000000E-002   -8.753954974433376E-037
 -2.220000000000000E-002   -1.125624221195308E-036
 -2.210000000000000E-002   -1.320832640668262E-036
 -2.200000000000000E-002   -1.394494217411961E-036
 -2.190000000000000E-002   -1.264030886248099E-036
 -2.180000000000000E-002   -8.367087238692739E-037
 -2.170000000000000E-002   -2.070835458917007E-038
 -2.160000000000000E-002    1.257759381128581E-036
 -2.150000000000000E-002    3.031059625698409E-036
 -2.140000000000000E-002    5.261249889507220E-036
 -2.130000000000000E-002    7.807939228439420E-036
 -2.120000000000000E-002    1.039689910086119E-035
 -2.110000000000000E-002    1.259552363624865E-035
 -2.100000000000000E-002    1.380326343007339E-035
 -2.090000000000000E-002    1.326678095693384E-035
 -2.080000000000000E-002    1.013050491340533E-035
 -2.070000000000000E-002    3.532326970660153E-036
 -2.060000000000000E-002   -7.248369491148165E-036
 -2.050000000000000E-002   -2.258891035807496E-035
 -2.040000000000000E-002   -4.227504687739361E-035
 -2.030000000000000E-002   -6.522535291599358E-035
 -2.020000000000000E-002   -8.922214961797647E-035
 -2.010000000000000E-002   -1.106993033402358E-034
 -2.000000000000000E-002   -1.246528110402873E-034
 -1.990000000000000E-002   -1.247526718841742E-034
 -1.980000000000000E-002   -1.037392703745217E-034
 -1.970000000000000E-002   -5.418019786675382E-035
 -1.960000000000000E-002    3.035891396268268E-035
 -1.950000000000000E-002    1.537224628183204E-034
 -1.940000000000000E-002    3.152095585166890E-034
 -1.930000000000000E-002    5.074061275108403E-034
 -1.920000000000000E-002    7.140625223052096E-034
 -1.910000000000000E-002    9.083934037636610E-034
 -1.900000000000000E-002    1.052288346190264E-033
 -1.890000000000000E-002    1.097005207514763E-033
 -1.880000000000000E-002    9.859459475135850E-034
 -1.870000000000000E-002    6.600537062040973E-034
 -1.860000000000000E-002    6.619748017501062E-035
 -1.850000000000000E-002   -8.314102014395282E-034
 -1.840000000000000E-002   -2.037185829648162E-033
 -1.830000000000000E-002   -3.508588710862833E-033
 -1.820000000000000E-002   -5.140756246805805E-033
 -1.810000000000000E-002   -6.753919377648117E-033
 -1.800000000000000E-002   -8.086896096115942E-033
 -1.790000000000000E-002   -8.800447328578442E-033
 -1.780000000000000E-002   -8.494448554063198E-033
 -1.770000000000000E-002   -6.742389583571593E-033
 -1.760000000000000E-002   -3.145523216429942E-033
 -1.750000000000000E-002    2.593052517665971E-033
 -1.740000000000000E-002    1.057711758412183E-032
 -1.730000000000000E-002    2.061548511025671E-032
 -1.720000000000000E-002    3.212073146779174E-032
 -1.710000000000000E-002    4.402433848576344E-032
 -1.700000000000000E-002    5.472842031206313E-032
 -1.690000000000000E-002    6.211702334876647E-032
 -1.680000000000000E-002    6.365065912063952E-032
 -1.670000000000000E-002    5.656504058055218E-032
 -1.660000000000000E-002    3.818762827789383E-032
 -1.650000000000000E-002    6.373257025113722E-033
 -1.640000000000000E-002   -3.995689627712849E-032
 -1.630000000000000E-002   -1.002114771579257E-031
 -1.620000000000000E-002   -1.715240595092442E-031
 -1.610000000000000E-002   -2.482368347480760E-031
 -1.600000000000000E-002   -3.215860879971155E-031
 -1.590000000000000E-002   -3.797167490758478E-031
 -1.580000000000000E-002   -4.081571531368084E-031
 -1.570000000000000E-002   -3.908655867261476E-031
 -1.560000000000000E-002   -3.119228339047392E-031
 -1.550000000000000E-002   -1.578754742046720E-031
 -1.540000000000000E-002    7.935787780603659E-032
 -1.530000000000000E-002    3.992231344476793E-031
 -1.520000000000000E-002    7.892481002893489E-031
 -1.510000000000000E-002    1.222210032259896E-030
 -1.500000000000000E-002    1.654338770297497E-030
 -1.490000000000000E-002    2.025209415381908E-030
 -1.480000000000000E-002    2.259981382211810E-030
 -1.470000000000000E-002    2.274547095910636E-030
 -1.460000000000000E-002    1.983939228842170E-030
 -1.450000000000000E-002    1.313998792839882E-030
 -1.440000000000000E-002    2.158561913189544E-031
 -1.430000000000000E-002   -1.317826222293076E-030
 -1.420000000000000E-002   -3.236516960133823E-030
 -1.410000000000000E-002   -5.417686930907371E-030
 -1.400000000000000E-002   -7.657696821098961E-030
 -1.390000000000000E-002   -9.670832366504505E-030
 -1.380000000000000E-002   -1.109955823828764E-029
 -1.370000000000000E-002   -1.153856036752145E-029
 -1.360000000000000E-002   -1.057412028847962E-029
 -1.350000000000000E-002   -7.838705386011466E-030
 -1.340000000000000E-002   -3.078455983985620E-030
 -1.330000000000000E-002    3.771361732870186E-030
 -1.320000000000000E-002    1.251079606851751E-029
 -1.310000000000000E-002    2.261007836443106E-029
 -1.300000000000000E-002    3.316775228046914E-029
 -1.290000000000000E-002    4.290589786003294E-029
 -1.280000000000000E-002    5.021613071000591E-029
 -1.270000000000000E-002    5.326719301748558E-029
 -1.260000000000000E-002    5.018049967155719E-029
 -1.250000000000000E-002    3.927218730789729E-029
 -1.240000000000000E-002    1.935094690128656E-029
 -1.230000000000000E-002   -9.951093473194389E-030
 -1.220000000000000E-002   -4.784884674962136E-029
 -1.210000000000000E-002   -9.212224869080578E-029
 -1.200000000000000E-002   -1.389365073651743E-028
 -1.190000000000000E-002   -1.828235043557516E-028
 -1.180000000000000E-002   -2.168806477973328E-028
 -1.170000000000000E-002   -2.332309847681151E-028
 -1.160000000000000E-002   -2.237692125039505E-028
 -1.150000000000000E-002   -1.811835467642279E-028
 -1.140000000000000E-002   -1.002057346721587E-028
 -1.130000000000000E-002    2.100768857425814E-029
 -1.120000000000000E-002    1.795076836572233E-028
 -1.110000000000000E-002    3.663888790180526E-028
 -1.100000000000000E-002    5.660523214192340E-028
 -1.090000000000000E-002    7.561303672616813E-028
 -1.080000000000000E-002    9.082971689036009E-028
 -1.070000000000000E-002    9.901337189862480E-028
 -1.060000000000000E-002    9.681335702753968E-028
 -1.050000000000000E-002    8.118030149466064E-028
 -1.040000000000000E-002    4.986507165663771E-028
 -1.030000000000000E-002    1.968109362399903E-029
 -1.020000000000000E-002   -6.151866291053010E-028
 -1.010000000000000E-002   -1.372514946476326E-027
 -1.000000000000000E-002   -2.192419642320554E-027
 -9.899999999999999E-003   -2.988222656767695E-027
 -9.800000000000000E-003   -3.649508518927065E-027
 -9.699999999999999E-003   -4.049228406462104E-027
 -9.599999999999999E-003   -4.055128208827800E-027
 -9.500000000000000E-003   -3.545306191817456E-027
 -9.399999999999999E-003   -2.427102223371652E-027
 -9.299999999999999E-003   -6.578418710651245E-028
 -9.200000000000000E-003    1.734728357336851E-027
 -9.099999999999999E-003    4.635046180895179E-027
 -8.999999999999999E-003    7.828545008756864E-027
 -8.900000000000000E-003    1.099993402019860E-026
 -8.799999999999999E-003    1.374388167910132E-026
 -8.699999999999999E-003    1.559039952229104E-026
 -8.600000000000000E-003    1.604575038946227E-026
 -8.499999999999999E-003    1.464821074467606E-026
 -8.399999999999999E-003    1.103561100388629E-026
 -8.300000000000000E-003    5.019461832439084E-027
 -8.199999999999999E-003   -3.342060310112753E-027
 -8.100000000000000E-003   -1.368184711198000E-026
 -8.000000000000000E-003   -2.528330978612595E-026
 -7.899999999999999E-003   -3.707266394351895E-026
 -7.800000000000000E-003   -4.765420091661706E-026
 -7.699999999999999E-003   -5.539581518743512E-026
 -7.599999999999999E-003   -5.856773290076499E-026
 -7.499999999999999E-003   -5.553140331162166E-026
 -7.399999999999999E-003   -4.496807436146242E-026
 -7.299999999999999E-003   -2.612914952796642E-026
 -7.199999999999999E-003    9.176888000630629E-028
 -7.100000000000000E-003    3.507861707248544E-026
 -6.999999999999999E-003    7.409627536445130E-026
 -6.899999999999999E-003    1.145211547904520E-025
 -6.800000000000000E-003    1.518243257470414E-025
 -6.699999999999999E-003    1.806743774604931E-025
 -6.599999999999999E-003    1.953865308306393E-025
 -6.499999999999999E-003    1.905328411692306E-025
 -6.399999999999999E-003    1.616784087871141E-025
 -6.299999999999999E-003    1.061840764693424E-025
 -6.199999999999999E-003    2.399214094132669E-026
 -6.100000000000000E-003   -8.170764544716250E-026
 -5.999999999999999E-003   -2.040458658521189E-025
 -5.899999999999999E-003   -3.323881711069455E-025
 -5.800000000000000E-003   -4.526962524476749E-025
 -5.699999999999999E-003   -5.484022543144749E-025
 -5.599999999999999E-003   -6.018180156921255E-025
 -5.499999999999999E-003   -5.960347834445439E-025
 -5.399999999999999E-003   -5.172034944390428E-025
 -5.299999999999999E-003   -3.570024201355838E-025
 -5.199999999999999E-003   -1.150325881648667E-025
 -5.099999999999999E-003    1.991752144850275E-025
 -4.999999999999999E-003    5.648887428003646E-025
 -4.899999999999999E-003    9.499780923211541E-025
 -4.799999999999999E-003    1.312083826583517E-024
 -4.699999999999999E-003    1.601340708073098E-024
 -4.599999999999999E-003    1.764699669469305E-024
 -4.499999999999999E-003    1.751700758869343E-024
 -4.399999999999999E-003    1.521335451290471E-024
 -4.299999999999999E-003    1.049412845018128E-024
 -4.199999999999999E-003    3.356354744264533E-025
 -4.099999999999999E-003   -5.905609473364577E-025
 -3.999999999999999E-003   -1.666424969412607E-024
 -3.899999999999999E-003   -2.795559281427696E-024
 -3.799999999999999E-003   -3.851658174359509E-024
 -3.699999999999999E-003   -4.686838193120342E-024
 -3.599999999999999E-003   -5.144638690926674E-024
 -3.499999999999999E-003   -5.077198145773611E-024
 -3.399999999999999E-003   -4.365500593389371E-024
 -3.299999999999999E-003   -2.940933319079099E-024
 -3.199999999999999E-003   -8.058200036555784E-025
 -3.099999999999999E-003    1.949831630738368E-024
 -2.999999999999999E-003    5.138311082664612E-024
 -2.899999999999999E-003    8.473734141095587E-024
 -2.799999999999999E-003    1.158343312953228E-023
 -2.699999999999999E-003    1.403258355148657E-023
 -2.599999999999999E-003    1.536222632107560E-023
 -2.499999999999999E-003    1.513914851691304E-023
 -2.399999999999999E-003    1.301438023054757E-023
 -2.299999999999999E-003    8.785243872906616E-024
 -2.199999999999999E-003    2.454255803562614E-024
 -2.099999999999999E-003   -5.722895797708472E-024
 -1.999999999999999E-003   -1.520860432945861E-023
 -1.899999999999999E-003   -2.518167431862862E-023
 -1.799999999999999E-003   -3.456912121049990E-023
 -1.699999999999999E-003   -4.211524282986879E-023
 -1.599999999999999E-003   -4.648825609131505E-023
 -1.499999999999999E-003   -4.642021135906557E-023
 -1.399999999999999E-003   -4.087117636707525E-023
 -1.299999999999999E-003   -2.920365290181898E-023
 -1.199999999999999E-003   -1.134893875743896E-023
 -1.099999999999999E-003    1.205596114458156E-023
 -9.999999999999989E-004    3.958343865124060E-023
 -8.999999999999990E-004    6.900387503990778E-023
 -7.999999999999990E-004    9.736505225838537E-023
 -6.999999999999989E-004    1.211730096042358E-022
 -5.999999999999990E-004    1.366752087579409E-022
 -4.999999999999989E-004    1.402352317095813E-022
 -3.999999999999989E-004    1.287753081563776E-022
 -2.999999999999989E-004    1.002497033023454E-022
 -1.999999999999989E-004    5.410113632938242E-023
 -9.999999999999892E-005   -8.356142803727098E-024
  1.084202172485504E-018   -8.368595017394505E-023
  1.000000000000011E-004   -1.662691372305074E-022
  2.000000000000011E-004   -2.484780259237687E-022
  3.000000000000011E-004   -3.211151843973290E-022
  4.000000000000011E-004   -3.741213294288209E-022
  5.000000000000011E-004   -3.975257500601050E-022
  6.000000000000011E-004   -3.825809139771921E-022
  7.000000000000011E-004   -3.229902761506640E-022
  8.000000000000011E-004   -2.161075061938495E-022
  9.000000000000012E-004   -6.396693650290762E-023
  1.000000000000001E-003    1.260060652717886E-022
  1.100000000000001E-003    3.407478283784540E-022
  1.200000000000001E-003    5.618897483457801E-022
  1.300000000000001E-003    7.667518083469396E-022
  1.400000000000001E-003    9.300084003058346E-022
  1.500000000000001E-003    1.025972091938730E-021
  1.600000000000001E-003    1.031356795400892E-021
  1.700000000000001E-003    9.283014276420015E-022
  1.800000000000001E-003    7.073646512140600E-022
  1.900000000000001E-003    3.701508273681034E-022
  2.000000000000001E-003   -6.879798824478800E-023
  2.100000000000001E-003   -5.811922930255753E-022
  2.200000000000001E-003   -1.125559194441521E-021
  2.300000000000001E-003   -1.649372075634376E-021
  2.400000000000001E-003   -2.092797139047606E-021
  2.500000000000001E-003   -2.393933610908594E-021
  2.600000000000001E-003   -2.495234083242076E-021
  2.700000000000001E-003   -2.350605461326592E-021
  2.800000000000001E-003   -1.932516171888778E-021
  2.900000000000001E-003   -1.238320136608211E-021
  3.000000000000001E-003   -2.949499475897426E-022
  3.100000000000001E-003    8.388407074099463E-022
  3.200000000000001E-003    2.073365356682581E-021
  3.300000000000001E-003    3.292486657783924E-021
  3.400000000000001E-003    4.361821682719479E-021
  3.500000000000001E-003    5.140413452218682E-021
  3.600000000000001E-003    5.495170409271085E-021
  3.700000000000001E-003    5.316938329359453E-021
  3.800000000000001E-003    4.536699624493518E-021
  3.900000000000001E-003    3.140101168394321E-021
  4.000000000000001E-003    1.178390636853953E-021
  4.100000000000001E-003   -1.226080382216985E-021
  4.200000000000001E-003   -3.881361538523267E-021
  4.300000000000001E-003   -6.535438148683327E-021
  4.400000000000001E-003   -8.894143172233343E-021
  4.500000000000001E-003   -1.064684443790407E-020
  4.600000000000002E-003   -1.149840703730809E-020
  4.700000000000001E-003   -1.120488339891084E-020
  4.800000000000001E-003   -9.609580992068502E-021
  4.900000000000002E-003   -6.675512916257419E-021
  5.000000000000001E-003   -2.509967817535196E-021
  5.100000000000001E-003    2.622926302175006E-021
  5.200000000000001E-003    8.305115853529795E-021
  5.300000000000002E-003    1.398532059910967E-020
  5.400000000000001E-003    1.901831478746038E-020
  5.500000000000001E-003    2.272146981601908E-020
  5.600000000000002E-003    2.444526063829888E-020
  5.700000000000001E-003    2.365215226176854E-020
  5.800000000000001E-003    1.999652509290129E-020
  5.900000000000002E-003    1.339678659397816E-020
  6.000000000000001E-003    4.090295584895350E-021
  6.100000000000001E-003   -7.338001475513201E-021
  6.200000000000002E-003   -1.996092842509997E-020
  6.300000000000002E-003   -3.255364783852904E-020
  6.400000000000001E-003   -4.367919670439543E-020
  6.500000000000001E-003   -5.181244348818075E-020
  6.600000000000002E-003   -5.549525530643860E-020
  6.700000000000001E-003   -5.351092859607196E-020
  6.800000000000001E-003   -4.506190314096055E-020
  6.900000000000002E-003   -2.993150106262503E-020
  7.000000000000001E-003   -8.609218027883242E-021
  7.100000000000001E-003    1.764053429188106E-020
  7.200000000000002E-003    4.678330498575985E-020
  7.300000000000002E-003    7.610512860374231E-020
  7.400000000000001E-003    1.023930271030335E-019
  7.500000000000001E-003    1.222011201372086E-019
  7.600000000000002E-003    1.321873294801704E-019
  7.700000000000001E-003    1.294959286566761E-019
  7.800000000000001E-003    1.121518354791687E-019
  7.900000000000001E-003    7.942584057805459E-020
  8.000000000000002E-003    3.212622255573313E-020
  8.100000000000001E-003   -2.722696738694195E-020
  8.200000000000001E-003   -9.438316347722169E-020
  8.300000000000002E-003   -1.635254255984798E-019
  8.400000000000001E-003   -2.276301046531987E-019
  8.500000000000002E-003   -2.790150866011243E-019
  8.600000000000002E-003   -3.100482294557149E-019
  8.700000000000001E-003   -3.139669662564528E-019
  8.800000000000002E-003   -2.857381256262528E-019
  8.900000000000002E-003   -2.228742415671658E-019
  9.000000000000001E-003   -1.261114933206730E-019
  9.100000000000002E-003    1.440917460698923E-022
  9.200000000000002E-003    1.476862133282524E-019
  9.300000000000001E-003    3.047579061889897E-019
  9.400000000000002E-003    4.567126899662785E-019
  9.500000000000001E-003    5.870838660967947E-019
  9.600000000000001E-003    6.790113500269865E-019
  9.700000000000002E-003    7.169319174218537E-019
  9.800000000000001E-003    6.883957343459424E-019
  9.900000000000001E-003    5.858381647101524E-019
  1.000000000000000E-002    4.081152548495279E-019
  1.010000000000000E-002    1.616054620458582E-019
  1.020000000000000E-002   -1.393017211920304E-019
  1.030000000000000E-002   -4.724741228702209E-019
  1.040000000000000E-002   -8.091460691498037E-019
  1.050000000000000E-002   -1.115879772187122E-018
  1.060000000000000E-002   -1.357298500021563E-018
  1.070000000000000E-002   -1.499425261022462E-018
  1.080000000000000E-002   -1.513364541065290E-018
  1.090000000000000E-002   -1.378999967109892E-018
  1.100000000000000E-002   -1.088323853236322E-018
  1.110000000000000E-002   -6.480045631475009E-019
  1.120000000000000E-002   -8.081250661317740E-020
  1.130000000000000E-002    5.744037698510887E-019
  1.140000000000000E-002    1.264392481225803E-018
  1.150000000000000E-002    1.924892895787981E-018
  1.160000000000000E-002    2.485634521741600E-018
  1.170000000000000E-002    2.876654595554071E-018
  1.180000000000000E-002    3.035467398950148E-018
  1.190000000000000E-002    2.914463329998462E-018
  1.200000000000000E-002    2.487807741869926E-018
  1.210000000000000E-002    1.757061067088616E-018
  1.220000000000000E-002    7.547611680206111E-019
  1.230000000000000E-002   -4.546777161672696E-019
  1.240000000000000E-002   -1.777209085529420E-018
  1.250000000000000E-002   -3.094740424477733E-018
  1.260000000000000E-002   -4.273942558398911E-018
  1.270000000000000E-002   -5.177808976952811E-018
  1.280000000000000E-002   -5.679145839220689E-018
  1.290000000000000E-002   -5.674864208839681E-018
  1.300000000000000E-002   -5.099712742430386E-018
  1.310000000000000E-002   -3.937954967447842E-018
  1.320000000000000E-002   -2.231518144850716E-018
  1.330000000000000E-002   -8.330316016410231E-020
  1.340000000000000E-002    2.345332895606450E-018
  1.350000000000000E-002    4.843433835188063E-018
  1.360000000000000E-002    7.165564538878441E-018
  1.370000000000000E-002    9.052465956254091E-018
  1.380000000000000E-002    1.025584609496191E-017
  1.390000000000000E-002    1.056529194922769E-017
  1.400000000000000E-002    9.834804482101579E-018
  1.410000000000000E-002    8.006172812817728E-018
  1.420000000000000E-002    5.126357232738895E-018
  1.430000000000000E-002    1.356300182275132E-018
  1.440000000000000E-002   -3.030846656269044E-018
  1.450000000000000E-002   -7.663309612451625E-018
  1.460000000000000E-002   -1.209618296818721E-017
  1.470000000000000E-002   -1.584780091031736E-017
  1.480000000000000E-002   -1.844458352832933E-017
  1.490000000000000E-002   -1.947087230834078E-017
  1.500000000000000E-002   -1.861924271656986E-017
  1.510000000000000E-002   -1.573615406310072E-017
  1.520000000000000E-002   -1.085762478583601E-017
  1.530000000000000E-002   -4.229953316715355E-018
  1.540000000000000E-002    3.688562481396131E-018
  1.550000000000000E-002    1.224756178446379E-017
  1.560000000000000E-002    2.064693266332978E-017
  1.570000000000000E-002    2.799999290452469E-017
  1.580000000000000E-002    3.341373228869676E-017
  1.590000000000000E-002    3.608001317358980E-017
  1.600000000000000E-002    3.536968709075559E-017
  1.610000000000000E-002    3.092037328110278E-017
  1.620000000000000E-002    2.270796202486206E-017
  1.630000000000000E-002    1.109241060348221E-017
  1.640000000000000E-002   -3.170107705571590E-018
  1.650000000000000E-002   -1.895438059148803E-017
  1.660000000000000E-002   -3.483465256734291E-017
  1.670000000000000E-002   -4.919285303268591E-017
  1.680000000000000E-002   -6.036032998780081E-017
  1.690000000000000E-002   -6.678274096912966E-017
  1.700000000000000E-002   -6.719413741181137E-017
  1.710000000000000E-002   -6.078344862694413E-017
  1.720000000000000E-002   -4.733530193965863E-017
  1.730000000000000E-002   -2.732748647203675E-017
  1.740000000000000E-002   -1.969563145384119E-018
  1.750000000000000E-002    2.682872404013067E-017
  1.760000000000000E-002    5.656474283774708E-017
  1.770000000000000E-002    8.432442964451201E-017
  1.780000000000000E-002    1.070286896111101E-016
  1.790000000000000E-002    1.217274060845243E-016
  1.800000000000000E-002    1.259169572491104E-016
  1.810000000000000E-002    1.178515370518893E-016
  1.820000000000000E-002    9.681567855022985E-017
  1.830000000000000E-002    6.332530106075022E-017
  1.840000000000000E-002    1.922790062415957E-017
  1.850000000000000E-002   -3.232095515899095E-017
  1.860000000000000E-002   -8.701745407227919E-017
  1.870000000000000E-002   -1.397060347515965E-016