 -4.000000000000000E-002    0.000000000000000E+000
 -3.990000000000000E-002    0.000000000000000E+000
 -3.980000000000000E-002    0.000000000000000E+000
 -3.970000000000000E-002    0.000000000000000E+000
 -3.960000000000000E-002    0.000000000000000E+000
 -3.950000000000000E-002    0.000000000000000E+000
 -3.940000000000000E-002    0.000000000000000E+000
 -3.930000000000000E-002    0.000000000000000E+000
 -3.920000000000000E-002    0.000000000000000E+000
 -3.910000000000000E-002    0.000000000000000E+000
 -3.900000000000000E-002    0.000000000000000E+000
 -3.890000000000000E-002    0.000000000000000E+000
 -3.880000000000000E-002    0.000000000000000E+000
 -3.870000000000000E-002    0.000000000000000E+000
 -3.860000000000000E-002   -1.149012739707603E-045
 -3.850000000000000E-002   -2.996574155579794E-044
 -3.840000000000000E-002   -4.258195842128118E-043
 -3.830000000000000E-002   -4.155992688489252E-042
 -3.820000000000000E-002   -3.124373962292568E-041
 -3.810000000000000E-002   -1.926200246069148E-040
 -3.800000000000000E-002   -1.013039924977776E-039
 -3.790000000000000E-002   -4.668758624731746E-039
 -3.780000000000000E-002   -1.922287291138420E-038
 -3.770000000000000E-002   -7.173640206098477E-038
 -3.760000000000000E-002   -2.453396149322563E-037
 -3.750000000000000E-002   -7.756159487479334E-037
 -3.740000000000000E-002   -2.281989937491065E-036
 -3.730000000000000E-002   -6.281573603179357E-036
 -3.720000000000000E-002   -1.624298150831079E-035
 -3.710000000000000E-002   -3.957021064034100E-035
 -3.700000000000000E-002   -9.098203343789854E-035
 -3.690000000000000E-002   -1.975474862864778E-034
 -3.680000000000000E-002   -4.046617143270175E-034
 -3.670000000000000E-002   -7.795582826327661E-034
 -3.660000000000000E-002   -1.402970266866837E-033
 -3.650000000000000E-002   -2.327858978000139E-033
 -3.640000000000000E-002   -3.463682169562254E-033
 -3.630000000000000E-002   -4.312437249881808E-033
 -3.620000000000000E-002   -3.437259626083660E-033
 -3.610000000000000E-002    2.510187539247635E-033
 -3.600000000000000E-002    2.042575041666871E-032
 -3.590000000000000E-002    6.328246147431182E-032
 -3.580000000000000E-002    1.536844586922214E-031
 -3.570000000000000E-002    3.282616685029732E-031
 -3.560000000000000E-002    6.420306727991960E-031
 -3.550000000000000E-002    1.170576818097633E-030
 -3.540000000000000E-002    2.005829139505581E-030
 -3.530000000000000E-002    3.238130018098046E-030
 -3.520000000000000E-002    4.913235193677511E-030
 -3.510000000000000E-002    6.948175064771180E-030
 -3.500000000000000E-002    8.985653563465020E-030
 -3.490000000000000E-002    1.016477388180667E-029
 -3.480000000000000E-002    8.790115939560634E-030
 -3.470000000000000E-002    1.896234796459808E-030
 -3.460000000000000E-002   -1.526195873444534E-029
 -3.450000000000000E-002   -4.970368864852291E-029
 -3.440000000000000E-002   -1.110186131501511E-028
 -3.430000000000000E-002   -2.111505442652327E-028
 -3.420000000000000E-002   -3.631845739200953E-028
 -3.410000000000000E-002   -5.784637014647189E-028
 -3.400000000000000E-002   -8.611826154010621E-028
 -3.390000000000000E-002   -1.199511005079888E-027
 -3.380000000000000E-002   -1.552378076782469E-027
 -3.370000000000000E-002   -1.831443554604297E-027
 -3.360000000000000E-002   -1.878678936752274E-027
 -3.350000000000000E-002   -1.441544693862949E-027
 -3.340000000000000E-002   -1.501565398083058E-028
 -3.330000000000000E-002    2.495816465277255E-027
 -3.320000000000000E-002    7.118594844826365E-027
 -3.310000000000000E-002    1.441553908614821E-026
 -3.300000000000000E-002    2.505327731327424E-026
 -3.290000000000000E-002    3.947908706800641E-026
 -3.280000000000000E-002    5.762665308801491E-026
 -3.270000000000000E-002    7.850010587477564E-026
 -3.260000000000000E-002    9.963599478307235E-026
 -3.250000000000000E-002    1.164700369176831E-025
 -3.240000000000000E-002    1.216772299090388E-025
 -3.230000000000000E-002    1.046106995714570E-025
 -3.220000000000000E-002    5.103271802673116E-026
 -3.210000000000000E-002   -5.659110057856862E-026
 -3.200000000000000E-002   -2.378962068710977E-025
 -3.190000000000000E-002   -5.121347289578593E-025
 -3.180000000000000E-002   -8.940211702456893E-025
 -3.170000000000000E-002   -1.387612785704140E-024
 -3.160000000000000E-002   -1.978130437429553E-024
 -3.150000000000000E-002   -2.621975733558887E-024
 -3.140000000000000E-002   -3.235715776132823E-024
 -3.130000000000000E-002   -3.685508431496885E-024
 -3.120000000000000E-002   -3.779241156002412E-024
 -3.110000000000000E-002   -3.264554886164826E-024
 -3.100000000000000E-002   -1.836703417410816E-024
 -3.090000000000000E-002    8.393161753920227E-025
 -3.080000000000000E-002    5.087959609830433E-024
 -3.070000000000000E-002    1.116020032405208E-023
 -3.060000000000000E-002    1.914703631516023E-023
 -3.050000000000000E-002    2.887154922412829E-023
 -3.040000000000000E-002    3.976659333563310E-023
 -3.030000000000000E-002    5.075159559979762E-023
 -3.020000000000000E-002    6.012948588901439E-023
 -3.010000000000000E-002    6.553206231547332E-023
 -3.000000000000000E-002    6.394881346479145E-023
 -2.990000000000000E-002    5.187738154484056E-023
 -2.980000000000000E-002    2.563249270895390E-023
 -2.970000000000000E-002   -1.815865908978088E-023
 -2.960000000000000E-002   -8.186488556638240E-023
 -2.950000000000000E-002   -1.659820383069282E-022
 -2.940000000000000E-002   -2.681445746946075E-022
 -2.930000000000000E-002   -3.821248301717405E-022
 -2.920000000000000E-002   -4.969781920658221E-022
 -2.910000000000000E-002   -5.965444919718009E-022
 -2.900000000000000E-002   -6.595529871876701E-022
 -2.890000000000000E-002   -6.605894834225448E-022
 -2.880000000000000E-002   -5.721646492451556E-022
 -2.870000000000000E-002   -3.680356425868526E-022
 -2.860000000000000E-002   -2.780598639764567E-023
 -2.850000000000000E-002    4.573870859178973E-022
 -2.840000000000000E-002    1.078542736690637E-021
 -2.830000000000000E-002    1.802580071934174E-021
 -2.820000000000000E-002    2.567300891072548E-021
 -2.810000000000000E-002    3.278865792743602E-021
 -2.800000000000000E-002    3.813278985354253E-021
 -2.790000000000000E-002    4.023364850692784E-021
 -2.780000000000000E-002    3.752433004657814E-021
 -2.770000000000000E-002    2.855247361751866E-021
 -2.760000000000000E-002    1.225982955707958E-021
 -2.750000000000000E-002   -1.168457055450848E-021
 -2.740000000000000E-002   -4.252931373542811E-021
 -2.730000000000000E-002   -7.811226293969203E-021
 -2.720000000000000E-002   -1.146232796877203E-020
 -2.710000000000000E-002   -1.465348757706550E-020
 -2.700000000000000E-002   -1.667821134401467E-020
 -2.690000000000000E-002   -1.672654358862155E-020
 -2.680000000000000E-002   -1.397306088445930E-020
 -2.670000000000000E-002   -7.703966035252051E-021
 -2.660000000000000E-002    2.520812712950943E-021
 -2.650000000000000E-002    1.668181709010991E-020
 -2.640000000000000E-002    3.411018440403311E-020
 -2.630000000000000E-002    5.332153658395083E-020
 -2.620000000000000E-002    7.190912880118893E-020
 -2.610000000000000E-002    8.653622202362852E-020
 -2.600000000000000E-002    9.306810542186019E-020
 -2.590000000000000E-002    8.687888302938057E-020
 -2.580000000000000E-002    6.335476526727987E-020
 -2.570000000000000E-002    1.859489786223715E-020
 -2.560000000000000E-002   -4.971825742619236E-020
 -2.550000000000000E-002   -1.413428483403675E-019
 -2.540000000000000E-002   -2.524979810923444E-019
 -2.530000000000000E-002   -3.750213778528014E-019
 -2.520000000000000E-002   -4.958355264429952E-019
 -2.510000000000000E-002   -5.969119197484934E-019
 -2.500000000000000E-002   -6.559176649941974E-019
 -2.490000000000000E-002   -6.477002192305048E-019
 -2.480000000000000E-002   -5.466977597468353E-019
 -2.470000000000000E-002   -3.302690602357233E-019
 -2.460000000000000E-002    1.719504520911550E-020
 -2.450000000000000E-002    4.996720386852724E-019
 -2.440000000000000E-002    1.104873974001160E-018
 -2.430000000000000E-002    1.800192045745891E-018
 -2.420000000000000E-002    2.529947542162999E-018
 -2.410000000000000E-002    3.214745685915915E-018
 -2.400000000000000E-002    3.753690684586002E-018
 -2.390000000000000E-002    4.030091027334050E-018
 -2.380000000000000E-002    3.921009848421140E-018
 -2.370000000000000E-002    3.310626533690520E-018
 -2.360000000000000E-002    2.106867097741686E-018
 -2.350000000000000E-002    2.601719796238954E-019
 -2.340000000000000E-002   -2.217343104440721E-018
 -2.330000000000000E-002   -5.234639762740963E-018
 -2.320000000000000E-002   -8.609153358806349E-018
 -2.310000000000000E-002   -1.206175851861520E-017
 -2.300000000000000E-002   -1.522209654816055E-017
 -2.290000000000000E-002   -1.764653102212275E-017
 -2.280000000000000E-002   -1.885003595261506E-017
 -2.270000000000000E-002   -1.835193067603740E-017
 -2.260000000000000E-002   -1.573362236312457E-017
 -2.250000000000000E-002   -1.070450594584269E-017
 -2.240000000000000E-002   -3.170157393650783E-018
 -2.230000000000000E-002    6.704880399066445E-018
 -2.220000000000000E-002    1.844876346786653E-017
 -2.210000000000000E-002    3.125802067243957E-017
 -2.200000000000000E-002    4.400633383867221E-017
 -2.190000000000000E-002    5.529363083257749E-017
 -2.180000000000000E-002    6.353970804940402E-017
 -2.170000000000000E-002    6.712205671673205E-017
 -2.160000000000000E-002    6.455210188094287E-017
 -2.150000000000000E-002    5.467807143319116E-017
 -2.140000000000000E-002    3.689652661741825E-017
 -2.130000000000000E-002    1.134925412137419E-017
 -2.120000000000000E-002   -2.092144460456415E-017
 -2.110000000000000E-002   -5.788728255706271E-017
 -2.100000000000000E-002   -9.654472632220574E-017
 -2.090000000000000E-002   -1.330425969980775E-016
 -2.080000000000000E-002   -1.629379992296780E-016
 -2.070000000000000E-002   -1.815786411213081E-016
 -2.060000000000000E-002   -1.845946066268311E-016
 -2.050000000000000E-002   -1.684647903179926E-016
 -2.040000000000000E-002   -1.311071034423154E-016
 -2.030000000000000E-002   -7.242728603759713E-017
 -2.020000000000000E-002    5.248313755619661E-018
 -2.010000000000000E-002    9.693271447920412E-017
 -2.000000000000000E-002    1.950011250580620E-016
 -1.990000000000000E-002    2.895302718335054E-016
 -1.980000000000000E-002    3.689810405684950E-016
 -1.970000000000000E-002    4.212163978729005E-016
 -1.960000000000000E-002    4.348032376733212E-016
 -1.950000000000000E-002    4.005035289190035E-016
 -1.940000000000000E-002    3.128163160060314E-016
 -1.930000000000000E-002    1.713980772085304E-016
 -1.920000000000000E-002   -1.783297007964732E-017
 -1.910000000000000E-002   -2.421050072546999E-016
 -1.900000000000000E-002   -4.818886628162786E-016
 -1.890000000000000E-002   -7.118114090228908E-016
 -1.880000000000000E-002   -9.024487786750023E-016
 -1.870000000000000E-002   -1.022958230231600E-015
 -1.860000000000000E-002   -1.044418344353121E-015
 -1.850000000000000E-002   -9.436197784225825E-016
 -1.840000000000000E-002   -7.069535083884710E-016
 -1.830000000000000E-002   -3.339624797485918E-016
 -1.820000000000000E-002    1.599295620739889E-016
 -1.810000000000000E-002    7.419915749768397E-016
 -1.800000000000000E-002    1.362484413905774E-015
 -1.790000000000000E-002    1.956990213896089E-015
 -1.780000000000000E-002    2.450898400142459E-015
 -1.770000000000000E-002    2.765948500622046E-015
 -1.760000000000000E-002    2.828472410846443E-015
 -1.750000000000000E-002    2.578718569792400E-015
 -1.740000000000000E-002    1.980391582670906E-015
 -1.730000000000000E-002    1.029364000332324E-015
 -1.720000000000000E-002   -2.395921885237355E-016
 -1.710000000000000E-002   -1.749184762554356E-015
 -1.700000000000000E-002   -3.380085128903554E-015
 -1.690000000000000E-002   -4.976216085261192E-015
 -1.680000000000000E-002   -6.355132811388400E-015
 -1.670000000000000E-002   -7.323257825430141E-015
 -1.660000000000000E-002   -7.695152653576416E-015
 -1.650000000000000E-002   -7.315397794847793E-015
 -1.640000000000000E-002   -6.081112823615710E-015
 -1.630000000000000E-002   -3.962752076639692E-015
 -1.620000000000000E-002   -1.020559382645430E-015
 -1.610000000000000E-002    2.585871203738275E-015
 -1.600000000000000E-002    6.597168854521547E-015
 -1.590000000000000E-002    1.066450767150328E-014
 -1.580000000000000E-002    1.437137347769293E-014
 -1.570000000000000E-002    1.726633808901313E-014
 -1.560000000000000E-002    1.890511498557889E-014
 -1.550000000000000E-002    1.889890215895238E-014
 -1.540000000000000E-002    1.696482359105169E-014
 -1.530000000000000E-002    1.297338658567417E-014
 -1.520000000000000E-002    6.987382173213363E-015
 -1.510000000000000E-002   -7.132842916328112E-016
 -1.500000000000000E-002   -9.625738262406480E-015
 -1.490000000000000E-002   -1.904083732168135E-014
 -1.480000000000000E-002   -2.808419045568799E-014
 -1.470000000000000E-002   -3.578088819473751E-014
 -1.460000000000000E-002   -4.114075702563323E-014
 -1.450000000000000E-002   -4.325824283632813E-014
 -1.440000000000000E-002   -4.141863608861793E-014
 -1.430000000000000E-002   -3.520041446788317E-014
 -1.420000000000000E-002   -2.456242651188364E-014
 -1.410000000000000E-002   -9.904557051975247E-015
 -1.400000000000000E-002    7.908319194042244E-015
 -1.390000000000000E-002    2.756688363875365E-014
 -1.380000000000000E-002    4.738664957950515E-014
 -1.370000000000000E-002    6.542572285266272E-014
 -1.360000000000000E-002    7.964565706657609E-014
 -1.350000000000000E-002    8.810475070473322E-014
 -1.340000000000000E-002    8.916841005625657E-014
 -1.330000000000000E-002    8.171706219698960E-014
 -1.320000000000000E-002    6.533000351788199E-014
 -1.310000000000000E-002    4.042284513298256E-014
 -1.300000000000000E-002    8.318232575734663E-015
 -1.290000000000000E-002   -2.876647336528690E-014
 -1.280000000000000E-002   -6.782429302823955E-014
 -1.270000000000000E-002   -1.052580861633301E-013
 -1.260000000000000E-002   -1.371664174305756E-013
 -1.250000000000000E-002   -1.596978559347875E-013
 -1.240000000000000E-002   -1.694464917776260E-013
 -1.230000000000000E-002   -1.638535170069955E-013
 -1.220000000000000E-002   -1.415746856575201E-013
 -1.210000000000000E-002   -1.027716909417482E-013
 -1.200000000000000E-002   -4.928792823255231E-014
 -1.190000000000000E-002    1.532410361297417E-014
 -1.180000000000000E-002    8.594562862386658E-014
 -1.170000000000000E-002    1.562119098035338E-013
 -1.160000000000000E-002    2.190000429030354E-013
 -1.150000000000000E-002    2.670558890790249E-013
 -1.140000000000000E-002    2.937144472244622E-013
 -1.130000000000000E-002    2.936519492415003E-013
 -1.120000000000000E-002    2.635977610137040E-013
 -1.110000000000000E-002    2.029284645147245E-013
 -1.100000000000000E-002    1.140690076054238E-013
 -1.090000000000000E-002    2.635828721814704E-015
 -1.080000000000000E-002   -1.227254257604131E-013
 -1.070000000000000E-002   -2.508300209130673E-013
 -1.060000000000000E-002   -3.687644912295583E-013
 -1.050000000000000E-002   -4.629758696696186E-013
 -1.040000000000000E-002   -5.205662757142334E-013
 -1.030000000000000E-002   -5.306881370679183E-013
 -1.020000000000000E-002   -4.859129559299434E-013
 -1.010000000000000E-002   -3.834329126244277E-013
 -1.000000000000000E-002   -2.259533290531834E-013
 -9.899999999999999E-003   -2.214739863831458E-014
 -9.800000000000000E-003    2.134283555993733E-013
 -9.699999999999999E-003    4.610183541713060E-013
 -9.599999999999999E-003    6.969604161839269E-013
 -9.500000000000000E-003    8.955354048060411E-013
 -9.399999999999999E-003    1.031261477588366E-012
 -9.299999999999999E-003    1.081462943223604E-012
 -9.200000000000000E-003    1.028892981626785E-012
 -9.099999999999999E-003    8.641600269986986E-013
 -8.999999999999999E-003    5.876915844043420E-013
 -8.900000000000000E-003    2.109850164234948E-013
 -8.799999999999999E-003   -2.430680773854889E-013
 -8.699999999999999E-003   -7.409326660003033E-013
 -8.600000000000000E-003   -1.240316623772435E-012
 -8.499999999999999E-003   -1.693151279244919E-012
 -8.399999999999999E-003   -2.049509228666707E-012
 -8.300000000000000E-003   -2.262194947970309E-012
 -8.199999999999999E-003   -2.291643004247743E-012
 -8.100000000000000E-003   -2.110683575911584E-012
 -8.000000000000000E-003   -1.708697085149625E-012
 -7.899999999999999E-003   -1.094677491756806E-012
 -7.800000000000000E-003   -2.987769366664182E-013
 -7.699999999999999E-003    6.280024064119859E-013
 -7.599999999999999E-003    1.616159360388239E-012
 -7.499999999999999E-003    2.582104035659351E-012
 -7.399999999999999E-003    3.434439775577275E-012
 -7.299999999999999E-003    4.081727286203902E-012
 -7.199999999999999E-003    4.441151930056982E-012
 -7.100000000000000E-003    4.447352609264870E-012
 -6.999999999999999E-003    4.060576204663991E-012
 -6.899999999999999E-003    3.273288417475869E-012
 -6.800000000000000E-003    2.114419411476847E-012
 -6.699999999999999E-003    6.505684304134026E-013
 -6.599999999999999E-003   -1.016291389913834E-012
 -6.499999999999999E-003   -2.754770682955523E-012
 -6.399999999999999E-003   -4.413509358319158E-012
 -6.299999999999999E-003   -5.833556817827868E-012
 -6.199999999999999E-003   -6.862805370626357E-012
 -6.100000000000000E-003   -7.371265464039971E-012
 -5.999999999999999E-003   -7.265778807454249E-012
 -5.899999999999999E-003   -6.502652711947687E-012
 -5.800000000000000E-003   -5.096744508106784E-012
 -5.699999999999999E-003   -3.125719372849045E-012
 -5.599999999999999E-003   -7.285484679172459E-013
 -5.499999999999999E-003    1.902205648193424E-012
 -5.399999999999999E-003    4.534203472892168E-012
 -5.299999999999999E-003    6.914485019946436E-012
 -5.199999999999999E-003    8.792615211789881E-012
 -5.099999999999999E-003    9.945891340766563E-012
 -4.999999999999999E-003    1.020428947089742E-011
 -4.899999999999999E-003    9.472598666825099E-012
 -4.799999999999999E-003    7.747204405146328E-012
 -4.699999999999999E-003    5.125251195782358E-012
 -4.599999999999999E-003    1.804475400577131E-012
 -4.499999999999999E-003   -1.927264411813158E-012
 -4.399999999999999E-003   -5.712751320988282E-012
 -4.299999999999999E-003   -9.155418931750099E-012
 -4.199999999999999E-003   -1.185649761563407E-011
 -4.099999999999999E-003   -1.345622666289919E-011
 -3.999999999999999E-003   -1.367532156845296E-011
 -3.899999999999999E-003   -1.235244797621085E-011
 -3.799999999999999E-003   -9.473437303548423E-012
 -3.699999999999999E-003   -5.188347088140375E-012
 -3.599999999999999E-003    1.866740001436959E-013
 -3.499999999999999E-003    6.184518085645320E-012
 -3.399999999999999E-003    1.221949118678643E-011
 -3.299999999999999E-003    1.763542149953887E-011
 -3.199999999999999E-003    2.176623667686981E-011
 -3.099999999999999E-003    2.400409457617095E-011
 -2.999999999999999E-003    2.386889019627797E-011
 -2.899999999999999E-003    2.107215000827755E-011
 -2.799999999999999E-003    1.556821741152294E-011
 -2.699999999999999E-003    7.586138870761318E-012
 -2.599999999999999E-003   -2.362993460199116E-012
 -2.499999999999999E-003   -1.350655262284179E-011
 -2.399999999999999E-003   -2.485954172646473E-011
 -2.299999999999999E-003   -3.530038111121440E-011
 -2.199999999999999E-003   -4.366842135800840E-011
 -2.099999999999999E-003   -4.887549195772841E-011
 -1.999999999999999E-003   -5.002178018625036E-011
 -1.899999999999999E-003   -4.650481080685749E-011
 -1.799999999999999E-003   -3.810995454762427E-011
 -1.699999999999999E-003   -2.507164662444804E-011
 -1.599999999999999E-003   -8.096422792011441E-012
 -1.499999999999999E-003    1.165818328668938E-011
 -1.399999999999999E-003    3.265092430245406E-011
 -1.299999999999999E-003    5.306796141123526E-011
 -1.199999999999999E-003    7.097082050269991E-011
 -1.099999999999999E-003    8.447003884386162E-011
 -9.999999999999989E-004    9.190962850812042E-011
 -8.999999999999990E-004    9.204523672564150E-011
 -7.999999999999990E-004    8.419803322481868E-011
 -6.999999999999989E-004    6.836712752310097E-011
 -5.999999999999990E-004    4.528615496043805E-011
 -4.999999999999989E-004    1.641388011382542E-011
 -3.999999999999989E-004   -1.614558878785710E-011
 -2.999999999999989E-004   -4.979071795788228E-011
 -1.999999999999989E-004   -8.162954027696862E-011
 -9.999999999999892E-005   -1.087299355957543E-010
  1.084202172485504E-018   -1.283921209671452E-010
  1.000000000000011E-004   -1.384183482199127E-010
  2.000000000000011E-004   -1.373532666095283E-010
  3.000000000000011E-004   -1.246692830934727E-010
  4.000000000000011E-004   -1.008750396267440E-010
  5.000000000000011E-004   -6.753088743881942E-011
  6.000000000000011E-004   -2.716367247789476E-011
  7.000000000000011E-004    1.691768829353404E-011
  8.000000000000011E-004    6.089415979591100E-011
  9.000000000000012E-004    1.007749538780984E-010
  1.000000000000001E-003    1.327731806267672E-010
  1.100000000000001E-003    1.536838270113098E-010
  1.200000000000001E-003    1.612265691584569E-010
  1.300000000000001E-003    1.543172108171230E-010
  1.400000000000001E-003    1.332358984371189E-010
  1.500000000000001E-003    9.966881786559211E-011
  1.600000000000001E-003    5.661134865618763E-011
  1.700000000000001E-003    8.133692456547774E-012
  1.800000000000001E-003   -4.097596031393557E-011
  1.900000000000001E-003   -8.566222039542169E-011
  2.000000000000001E-003   -1.211074767331290E-010
  2.100000000000001E-003   -1.432430173677011E-010
  2.200000000000001E-003   -1.492146767623005E-010
  2.300000000000001E-003   -1.377522851596535E-010
  2.400000000000001E-003   -1.093991371741373E-010
  2.500000000000001E-003   -6.656839711831806E-011
  2.600000000000001E-003   -1.340942273568120E-011
  2.700000000000001E-003    4.451525475384657E-011
  2.800000000000001E-003    1.007221541404024E-010
  2.900000000000001E-003    1.484291737552854E-010
  3.000000000000001E-003    1.812537664644200E-010
  3.100000000000001E-003    1.939203475089335E-010
  3.200000000000001E-003    1.829058627083773E-010
  3.300000000000001E-003    1.469528864007374E-010
  3.400000000000001E-003    8.738884176920125E-011
  3.500000000000001E-003    8.204726277276269E-012
  3.600000000000001E-003   -8.413181664142643E-011
  3.700000000000001E-003   -1.811296444750335E-010
  3.800000000000001E-003   -2.729672104098508E-010
  3.900000000000001E-003   -3.493738437903736E-010
  4.000000000000001E-003   -4.006247449038389E-010
  4.100000000000001E-003   -4.185592998219015E-010
  4.200000000000001E-003   -3.975236327154654E-010
  4.300000000000001E-003   -3.351390632207298E-010
  4.400000000000001E-003   -2.328091529294079E-010
  4.500000000000001E-003   -9.589709934293751E-011
  4.600000000000002E-003    6.646611205599550E-011
  4.700000000000001E-003    2.419497080704849E-010
  4.800000000000001E-003    4.159376723382547E-010
  4.900000000000002E-003    5.727249070988405E-010
  5.000000000000001E-003    6.968988715380268E-010
  5.100000000000001E-003    7.747864567482065E-010
  5.200000000000001E-003    7.958329341543100E-010
  5.300000000000002E-003    7.537780357451949E-010
  5.400000000000001E-003    6.475050142996750E-010
  5.500000000000001E-003    4.814644639821711E-010
  5.600000000000002E-003    2.656073962746262E-010
  5.700000000000001E-003    1.480705647770477E-011
  5.800000000000001E-003   -2.522047691171398E-010
  5.900000000000002E-003   -5.143134594959633E-010
  6.000000000000001E-003   -7.497921936035395E-010
  6.100000000000001E-003   -9.382176830114599E-010
  6.200000000000002E-003   -1.062358421482362E-009
  6.300000000000002E-003   -1.109857771851883E-009
  6.400000000000001E-003   -1.074544482190782E-009
  6.500000000000001E-003   -9.572308124142382E-010
  6.600000000000002E-003   -7.658997032314254E-010
  6.700000000000001E-003   -5.152359069156923E-010
  6.800000000000001E-003   -2.255163194627953E-010
  6.900000000000002E-003    7.906411780408118E-011
  7.000000000000001E-003    3.724971435313018E-010
  7.100000000000001E-003    6.293163273289411E-010
  7.200000000000002E-003    8.269902799982681E-010
  7.300000000000002E-003    9.481282344528539E-010
  7.400000000000001E-003    9.822807092945377E-010
  7.500000000000001E-003    9.271466871944372E-010
  7.600000000000002E-003    7.890474813630009E-010
  7.700000000000001E-003    5.825903969837419E-010
  7.800000000000001E-003    3.295207641101436E-010
  7.900000000000001E-003    5.683711001797596E-011
  8.000000000000002E-003   -2.056809562434106E-010
  8.100000000000001E-003   -4.283204973516110E-010
  8.200000000000001E-003   -5.844010936365456E-010
  8.300000000000002E-003   -6.530790987857916E-010
  8.400000000000001E-003   -6.217131572831125E-010
  8.500000000000002E-003   -4.875444034499441E-010
  8.600000000000002E-003   -2.584982243288216E-010
  8.700000000000001E-003    4.700931690248271E-011
  8.800000000000002E-003    4.012871224127806E-010
  8.900000000000002E-003    7.695377926226273E-010
  9.000000000000001E-003    1.112816207365041E-009
  9.100000000000002E-003    1.391531999393643E-009
  9.200000000000002E-003    1.569187164782824E-009
  9.300000000000001E-003    1.616005666167730E-009
  9.400000000000002E-003    1.512106391148043E-009
  9.500000000000001E-003    1.249899743494134E-009
  9.600000000000001E-003    8.354489625428138E-010
  9.700000000000002E-003    2.886254972746190E-010
  9.800000000000001E-003   -3.580049520833237E-010
  9.900000000000001E-003   -1.061509420703957E-009
  1.000000000000000E-002   -1.771954526416493E-009
  1.010000000000000E-002   -2.436532094003977E-009
  1.020000000000000E-002   -3.004080267429406E-009
  1.030000000000000E-002   -3.429582726695815E-009
  1.040000000000000E-002   -3.678215332370465E-009
  1.050000000000000E-002   -3.728537947019587E-009
  1.060000000000000E-002   -3.574491722252009E-009
  1.070000000000000E-002   -3.225971045062693E-009
  1.080000000000000E-002   -2.707863503275234E-009
  1.090000000000000E-002   -2.057602369550563E-009
  1.100000000000000E-002   -1.321421009991900E-009
  1.110000000000000E-002   -5.496360791210893E-010
  1.120000000000000E-002    2.085998320521124E-010
  1.130000000000000E-002    9.105660059577354E-010
  1.140000000000000E-002    1.524719958127385E-009
  1.150000000000000E-002    2.034408820376761E-009
  1.160000000000000E-002    2.440103156407621E-009
  1.170000000000000E-002    2.759838366723897E-009
  1.180000000000000E-002    3.027702281677263E-009
  1.190000000000000E-002    3.290397031406974E-009
  1.200000000000000E-002    3.602090276798660E-009
  1.210000000000000E-002    4.017951653671920E-009
  1.220000000000000E-002    4.586926689338884E-009
  1.230000000000000E-002    5.344404460158839E-009
  1.240000000000000E-002    6.305486899441784E-009
  1.250000000000000E-002    7.459562601592136E-009
  1.260000000000000E-002    8.766801305359895E-009
  1.270000000000000E-002    1.015705753573460E-008
  1.280000000000000E-002    1.153146563573538E-008
  1.290000000000000E-002    1.276680186873054E-008
  1.300000000000000E-002    1.372242579738096E-008
  1.310000000000000E-002    1.424939700187242E-008
  1.320000000000000E-002    1.420113244715470E-008
  1.330000000000000E-002    1.344483767722259E-008
  1.340000000000000E-002    1.187281780559660E-008
  1.350000000000000E-002    9.412780093823304E-009
  1.360000000000000E-002    6.036298801008589E-009
  1.370000000000000E-002    1.764733442665701E-009
  1.380000000000000E-002   -3.327863600693460E-009
  1.390000000000000E-002   -9.115093151160261E-009
  1.400000000000000E-002   -1.542172868220347E-008
  1.410000000000000E-002   -2.203008448703575E-008
  1.420000000000000E-002   -2.868860137764323E-008
  1.430000000000000E-002   -3.512181909828927E-008
  1.440000000000000E-002   -4.104078591627941E-008
  1.450000000000000E-002   -4.615287820612163E-008
  1.460000000000000E-002   -5.017004635734400E-008
  1.470000000000000E-002   -5.281466400348577E-008
  1.480000000000000E-002   -5.382235201715078E-008
  1.490000000000000E-002   -5.294144275693644E-008
  1.500000000000000E-002   -4.992908733432075E-008
  1.510000000000000E-002   -4.454432016831762E-008
  1.520000000000000E-002   -3.653875254975317E-008
  1.530000000000000E-002   -2.564576521910727E-008
  1.540000000000000E-002   -1.156928311708611E-008
  1.550000000000000E-002    6.026715666432018E-009
  1.560000000000000E-002    2.752676326493502E-008
  1.570000000000000E-002    5.336971147391129E-008
  1.580000000000000E-002    8.405088820719574E-008
  1.590000000000000E-002    1.201203160451952E-007
  1.600000000000000E-002    1.621769323958310E-007
  1.610000000000000E-002    2.108591110302416E-007
  1.620000000000000E-002    2.668325335156341E-007
  1.630000000000000E-002    3.307759804985203E-007
  1.640000000000000E-002    4.033669942326994E-007
  1.650000000000000E-002    4.852681412820992E-007
  1.660000000000000E-002    5.771159861009116E-007
  1.670000000000000E-002    6.795136521729151E-007
  1.680000000000000E-002    7.930276027005171E-007
  1.690000000000000E-002    9.181905399568408E-007
  1.700000000000000E-002    1.055508543770119E-006
  1.710000000000000E-002    1.205474563400501E-006
  1.720000000000000E-002    1.368584929783015E-006
  1.730000000000000E-002    1.545360096637641E-006
  1.740000000000000E-002    1.736366218967274E-006
  1.750000000000000E-002    1.942237212083046E-006
  1.760000000000000E-002    2.163694475256837E-006
  1.770000000000000E-002    2.401563467511949E-006
  1.780000000000000E-002    2.656785694556944E-006
  1.790000000000000E-002    2.930424520854888E-006
  1.800000000000000E-002    3.223666022760627E-006
  1.810000000000000E-002    3.537813066109604E-006
  1.820000000000000E-002    3.874274754182176E-006
  1.830000000000000E-002    4.234551132760701E-006
  1.840000000000000E-002    4.620217168269367E-006
  1.850000000000000E-002    5.032905719384306E-006
  1.860000000000000E-002    5.474290550092292E-006
  1.870000000000000E-002    5.946075839716899E-006