 -4.000000000000000E-002    0.000000000000000E+000
 -3.990000000000000E-002    0.000000000000000E+000
 -3.980000000000000E-002    0.000000000000000E+000
 -3.970000000000000E-002    0.000000000000000E+000
 -3.960000000000000E-002    0.000000000000000E+000
 -3.950000000000000E-002    0.000000000000000E+000
 -3.940000000000000E-002    0.000000000000000E+000
 -3.930000000000000E-002    0.000000000000000E+000
 -3.920000000000000E-002    0.000000000000000E+000
 -3.910000000000000E-002    0.000000000000000E+000
 -3.900000000000000E-002    0.000000000000000E+000
 -3.890000000000000E-002    0.000000000000000E+000
 -3.880000000000000E-002    0.000000000000000E+000
 -3.870000000000000E-002    0.000000000000000E+000
 -3.860000000000000E-002    0.000000000000000E+000
 -3.850000000000000E-002    0.000000000000000E+000
 -3.840000000000000E-002    0.000000000000000E+000
 -3.830000000000000E-002    0.000000000000000E+000
 -3.820000000000000E-002    0.000000000000000E+000
 -3.810000000000000E-002    0.000000000000000E+000
 -3.800000000000000E-002    0.000000000000000E+000
 -3.790000000000000E-002    0.000000000000000E+000
 -3.780000000000000E-002    0.000000000000000E+000
 -3.770000000000000E-002    0.000000000000000E+000
 -3.760000000000000E-002    0.000000000000000E+000
 -3.750000000000000E-002    0.000000000000000E+000
 -3.740000000000000E-002    0.000000000000000E+000
 -3.730000000000000E-002    0.000000000000000E+000
 -3.720000000000000E-002    0.000000000000000E+000
 -3.710000000000000E-002    0.000000000000000E+000
 -3.700000000000000E-002    0.000000000000000E+000
 -3.690000000000000E-002    0.000000000000000E+000
 -3.680000000000000E-002    0.000000000000000E+000
 -3.670000000000000E-002    0.000000000000000E+000
 -3.660000000000000E-002    0.000000000000000E+000
 -3.650000000000000E-002    0.000000000000000E+000
 -3.640000000000000E-002    0.000000000000000E+000
 -3.630000000000000E-002    0.000000000000000E+000
 -3.620000000000000E-002    0.000000000000000E+000
 -3.610000000000000E-002   -6.414635304221270E-048
 -3.600000000000000E-002   -6.414635304221270E-048
 -3.590000000000000E-002   -3.354401277471556E-048
 -3.580000000000000E-002    3.461181359785883E-047
 -3.570000000000000E-002    1.211018270859955E-046
 -3.560000000000000E-002    2.165322874691740E-046
 -3.550000000000000E-002    8.244091524639304E-046
 -3.540000000000000E-002    2.444064858997052E-045
 -3.530000000000000E-002    5.737474568211434E-045
 -3.520000000000000E-002    1.285206983266874E-044
 -3.510000000000000E-002    2.731643087166199E-044
 -3.500000000000000E-002    5.495966670213838E-044
 -3.490000000000000E-002    1.060927622273657E-043
 -3.480000000000000E-002    1.973741383297507E-043
 -3.470000000000000E-002    3.480367792539149E-043
 -3.460000000000000E-002    5.788410028859976E-043
 -3.450000000000000E-002    9.007456770670533E-043
 -3.440000000000000E-002    1.278943175007560E-042
 -3.430000000000000E-002    1.574668037859725E-042
 -3.420000000000000E-002    1.429552194206098E-042
 -3.410000000000000E-002    6.854407035637942E-044
 -3.400000000000000E-002   -4.003427499448980E-042
 -3.390000000000000E-002   -1.343891832938202E-041
 -3.380000000000000E-002   -3.260540951328792E-041
 -3.370000000000000E-002   -6.817700512762849E-041
 -3.360000000000000E-002   -1.295356796961547E-040
 -3.350000000000000E-002   -2.285178892509016E-040
 -3.340000000000000E-002   -3.776617882206955E-040
 -3.330000000000000E-002   -5.856086753736989E-040
 -3.320000000000000E-002   -8.476901967623860E-040
 -3.310000000000000E-002   -1.129055090844368E-039
 -3.300000000000000E-002   -1.337283326522755E-039
 -3.290000000000000E-002   -1.281606803753137E-039
 -3.280000000000000E-002   -6.173618805914105E-040
 -3.270000000000000E-002    1.221953027591205E-039
 -3.260000000000000E-002    5.095361234910843E-039
 -3.250000000000000E-002    1.220594173550068E-038
 -3.240000000000000E-002    2.409298446855968E-038
 -3.230000000000000E-002    4.249925562279561E-038
 -3.220000000000000E-002    6.901715130569561E-038
 -3.210000000000000E-002    1.043843841159299E-037
 -3.200000000000000E-002    1.472738097631549E-037
 -3.190000000000000E-002    1.924165338805356E-037
 -3.180000000000000E-002    2.279345520707629E-037
 -3.170000000000000E-002    2.318725637482537E-037
 -3.160000000000000E-002    1.681417403947545E-037
 -3.150000000000000E-002   -1.753106236604270E-038
 -3.140000000000000E-002   -4.004828480804811E-037
 -3.130000000000000E-002   -1.076877445349271E-036
 -3.120000000000000E-002   -2.157427996201081E-036
 -3.110000000000000E-002   -3.751110759029436E-036
 -3.100000000000000E-002   -5.933913149125758E-036
 -3.090000000000000E-002   -8.697180498532437E-036
 -3.080000000000000E-002   -1.187056338722994E-035
 -3.070000000000000E-002   -1.501669664420822E-035
 -3.060000000000000E-002   -1.729938029714282E-035
 -3.050000000000000E-002   -1.733523949630090E-035
 -3.040000000000000E-002   -1.305126857380533E-035
 -3.030000000000000E-002   -1.587939563347746E-036
 -3.020000000000000E-002    2.069052864413840E-035
 -3.010000000000000E-002    5.799246360639359E-035
 -3.000000000000000E-002    1.145914093649124E-034
 -2.990000000000000E-002    1.938872565298153E-034
 -2.980000000000000E-002    2.969079006036686E-034
 -2.970000000000000E-002    4.201488804650198E-034
 -2.960000000000000E-002    5.527217522137445E-034
 -2.950000000000000E-002    6.729142662855342E-034
 -2.940000000000000E-002    7.444715108519298E-034
 -2.930000000000000E-002    7.132023493382562E-034
 -2.920000000000000E-002    5.048937319216278E-034
 -2.910000000000000E-002    2.594898195400133E-035
 -2.900000000000000E-002   -8.313873109351163E-034
 -2.890000000000000E-002   -2.177002429970645E-033
 -2.880000000000000E-002   -4.101728662528122E-033
 -2.870000000000000E-002   -6.644893562958617E-033
 -2.860000000000000E-002   -9.749418731398252E-033
 -2.850000000000000E-002   -1.320501318631437E-032
 -2.840000000000000E-002   -1.658286488583412E-032
 -2.830000000000000E-002   -1.916920378788355E-032
 -2.820000000000000E-002   -1.991044195694150E-032
 -2.810000000000000E-002   -1.738851258933042E-032
 -2.800000000000000E-002   -9.851388674054190E-033
 -2.790000000000000E-002    4.670996084106961E-033
 -2.780000000000000E-002    2.813308064267977E-032
 -2.770000000000000E-002    6.209128002683097E-032
 -2.760000000000000E-002    1.071533538302950E-031
 -2.750000000000000E-002    1.622589412111600E-031
 -2.740000000000000E-002    2.238240374841358E-031
 -2.730000000000000E-002    2.848291555056150E-031
 -2.720000000000000E-002    3.339893173214970E-031
 -2.710000000000000E-002    3.552132771100193E-031
 -2.700000000000000E-002    3.276296660650194E-031
 -2.690000000000000E-002    2.265107846532256E-031
 -2.680000000000000E-002    2.545827678778494E-032
 -2.670000000000000E-002   -2.998188857392203E-031
 -2.660000000000000E-002   -7.659049778454396E-031
 -2.650000000000000E-002   -1.374237027887312E-030
 -2.640000000000000E-002   -2.102140164170981E-030
 -2.630000000000000E-002   -2.893115592655284E-030
 -2.620000000000000E-002   -3.647731451493972E-030
 -2.610000000000000E-002   -4.217120640551319E-030
 -2.600000000000000E-002   -4.401712469332691E-030
 -2.590000000000000E-002   -3.958311282563463E-030
 -2.580000000000000E-002   -2.618831508664416E-030
 -2.570000000000000E-002   -1.236473017951224E-031
 -2.560000000000000E-002    3.728515921561764E-030
 -2.550000000000000E-002    9.014200685380825E-030
 -2.540000000000000E-002    1.560540092408727E-029
 -2.530000000000000E-002    2.308331573977792E-029
 -2.520000000000000E-002    3.065770711886322E-029
 -2.510000000000000E-002    3.710889474584324E-029
 -2.500000000000000E-002    4.077443072409935E-029
 -2.490000000000000E-002    3.960605825712603E-029
 -2.480000000000000E-002    3.132278587414332E-029
 -2.470000000000000E-002    1.368266864740480E-029
 -2.460000000000000E-002   -1.511354725805289E-029
 -2.450000000000000E-002   -5.589059166765171E-029
 -2.440000000000000E-002   -1.078658711291307E-028
 -2.430000000000000E-002   -1.679741365781953E-028
 -2.420000000000000E-002   -2.302444278992353E-028
 -2.410000000000000E-002   -2.853612024535347E-028
 -2.400000000000000E-002   -3.205748384515035E-028
 -2.390000000000000E-002   -3.201472064142987E-028
 -2.380000000000000E-002   -2.665149846611066E-028
 -2.370000000000000E-002   -1.423252327392581E-028
 -2.360000000000000E-002    6.658384038429733E-029
 -2.350000000000000E-002    3.672985890442297E-028
 -2.340000000000000E-002    7.552598706431257E-028
 -2.330000000000000E-002    1.209435640819987E-027
 -2.320000000000000E-002    1.687908199260148E-027
 -2.310000000000000E-002    2.124787510012233E-027
 -2.300000000000000E-002    2.429563917181562E-027
 -2.290000000000000E-002    2.490120482480154E-027
 -2.280000000000000E-002    2.180586959706089E-027
 -2.270000000000000E-002    1.374970657003316E-027
 -2.260000000000000E-002   -3.301287241732946E-029
 -2.250000000000000E-002   -2.104269832649687E-027
 -2.240000000000000E-002   -4.824288350002145E-027
 -2.230000000000000E-002   -8.071485396969410E-027
 -2.220000000000000E-002   -1.158817587908229E-026
 -2.210000000000000E-002   -1.495977422915762E-026
 -2.200000000000000E-002   -1.760898786347197E-026
 -2.190000000000000E-002   -1.881223306932797E-026
 -2.180000000000000E-002   -1.774524802680227E-026
 -2.170000000000000E-002   -1.356319738043766E-026
 -2.160000000000000E-002   -5.517632180438496E-027
 -2.150000000000000E-002    6.892118635024412E-027
 -2.140000000000000E-002    2.374135869408057E-026
 -2.130000000000000E-002    4.449213043691268E-026
 -2.120000000000000E-002    6.781847671763245E-026
 -2.110000000000000E-002    9.147580758749089E-026
 -2.100000000000000E-002    1.122510630759152E-025
 -2.090000000000000E-002    1.260326223062222E-025
 -2.080000000000000E-002    1.280367626134898E-025
 -2.070000000000000E-002    1.132187599459624E-025
 -2.060000000000000E-002    7.688050064179494E-026
 -2.050000000000000E-002    1.546279733288096E-026
 -2.040000000000000E-002   -7.252011217194471E-026
 -2.030000000000000E-002   -1.854835526660545E-025
 -2.020000000000000E-002   -3.178296962388176E-025
 -2.010000000000000E-002   -4.592122617685004E-025
 -2.000000000000000E-002   -5.941866563804319E-025
 -1.990000000000000E-002   -7.024360121791985E-025
 -1.980000000000000E-002   -7.597476493524075E-025
 -1.970000000000000E-002   -7.398745430346577E-025
 -1.960000000000000E-002   -6.173372115068368E-025
 -1.950000000000000E-002   -3.711132805228390E-025
 -1.940000000000000E-002    1.098134682535099E-026
 -1.930000000000000E-002    5.275816859822293E-025
 -1.920000000000000E-002    1.159258485587186E-024
 -1.910000000000000E-002    1.864883107378146E-024
 -1.900000000000000E-002    2.579659807017252E-024
 -1.890000000000000E-002    3.215654460680986E-024
 -1.880000000000000E-002    3.665582616768421E-024
 -1.870000000000000E-002    3.810422186460114E-024
 -1.860000000000000E-002    3.531088067396423E-024
 -1.850000000000000E-002    2.723937585555965E-024
 -1.840000000000000E-002    1.319259396585106E-024
 -1.830000000000000E-002   -6.987530414207794E-025
 -1.820000000000000E-002   -3.272724099027525E-024
 -1.810000000000000E-002   -6.256310360624984E-024
 -1.800000000000000E-002   -9.405103932598450E-024
 -1.790000000000000E-002   -1.237752335078077E-023
 -1.780000000000000E-002   -1.474867821389318E-023
 -1.770000000000000E-002   -1.603942122443269E-023
 -1.760000000000000E-002   -1.576137859252303E-023
 -1.750000000000000E-002   -1.347694802968465E-023
 -1.740000000000000E-002   -8.870893573338940E-024
 -1.730000000000000E-002   -1.827619680264615E-024
 -1.720000000000000E-002    7.494310735259226E-024
 -1.710000000000000E-002    1.860102133282081E-023
 -1.700000000000000E-002    3.062756302567990E-023
 -1.690000000000000E-002    4.233968746959251E-023
 -1.680000000000000E-002    5.218403340923495E-023
 -1.670000000000000E-002    5.839432072065885E-023
 -1.660000000000000E-002    5.915608545951003E-023
 -1.650000000000000E-002    5.282526238881627E-023
 -1.640000000000000E-002    3.818792763248296E-023
 -1.630000000000000E-002    1.473906024045538E-023
 -1.620000000000000E-002   -1.705053677362466E-023
 -1.610000000000000E-002   -5.551716934476817E-023
 -1.600000000000000E-002   -9.767939810888341E-023
 -1.590000000000000E-002   -1.392475434236427E-022
 -1.580000000000000E-002   -1.748047244843080E-022
 -1.570000000000000E-002   -1.981833462998827E-022
 -1.560000000000000E-002   -2.030434941217437E-022
 -1.550000000000000E-002   -1.836350310362753E-022
 -1.540000000000000E-002   -1.356953435688952E-022
 -1.530000000000000E-002   -5.740545354029886E-023
 -1.520000000000000E-002    4.970280041388055E-023
 -1.510000000000000E-002    1.800182255172055E-022
 -1.500000000000000E-002    3.234423399561486E-022
 -1.490000000000000E-002    4.654418297960416E-022
 -1.480000000000000E-002    5.876784639038819E-022
 -1.470000000000000E-002    6.692934383509202E-022
 -1.460000000000000E-002    6.888575667336705E-022
 -1.450000000000000E-002    6.269177037353245E-022
 -1.440000000000000E-002    4.689769266173804E-022
 -1.430000000000000E-002    2.086459170491647E-022
 -1.420000000000000E-002   -1.493866399626004E-022
 -1.410000000000000E-002   -5.869855441717664E-022
 -1.400000000000000E-002   -1.071259329836108E-021
 -1.390000000000000E-002   -1.554744509434000E-021
 -1.380000000000000E-002   -1.977455716955098E-021
 -1.370000000000000E-002   -2.271020256236062E-021
 -1.360000000000000E-002   -2.364924027389277E-021
 -1.350000000000000E-002   -2.194627308409150E-021
 -1.340000000000000E-002   -1.711029037376933E-021
 -1.330000000000000E-002   -8.904426759992142E-022
 -1.320000000000000E-002    2.560085715486934E-022
 -1.310000000000000E-002    1.674881418923280E-021
 -1.300000000000000E-002    3.266178569990277E-021
 -1.290000000000000E-002    4.883717306083920E-021
 -1.280000000000000E-002    6.341187890295322E-021
 -1.270000000000000E-002    7.424574201041103E-021
 -1.260000000000000E-002    7.910941026419519E-021
 -1.250000000000000E-002    7.592902507109681E-021
 -1.240000000000000E-002    6.307144848725575E-021
 -1.230000000000000E-002    3.964551500176957E-021
 -1.220000000000000E-002    5.786823555565665E-022
 -1.210000000000000E-002   -3.711200298165529E-021
 -1.200000000000000E-002   -8.626596461533722E-021
 -1.190000000000000E-002   -1.374957501887944E-020
 -1.180000000000000E-002   -1.853901822004610E-020
 -1.170000000000000E-002   -2.236521771191094E-020
 -1.160000000000000E-002   -2.456284857269501E-020
 -1.150000000000000E-002   -2.450033773385793E-020
 -1.140000000000000E-002   -2.166104145773897E-020
 -1.130000000000000E-002   -1.572937445462975E-020
 -1.120000000000000E-002   -6.672795837133205E-021
 -1.110000000000000E-002    5.190876156942162E-021
 -1.100000000000000E-002    1.915204043741465E-020
 -1.090000000000000E-002    3.410425904904694E-020
 -1.080000000000000E-002    4.858425983792941E-020
 -1.070000000000000E-002    6.086196114087687E-020
 -1.060000000000000E-002    6.908098144083576E-020
 -1.050000000000000E-002    7.144399978316101E-020
 -1.040000000000000E-002    6.643103696375451E-020
 -1.030000000000000E-002    5.303224939263871E-020
 -1.020000000000000E-002    3.097119888850728E-020
 -1.010000000000000E-002    8.907510841449614E-022
 -1.000000000000000E-002   -3.552778214433972E-020
 -9.899999999999999E-003   -7.554002961242593E-020
 -9.800000000000000E-003   -1.154308685238227E-019
 -9.699999999999999E-003   -1.507370794033658E-019
 -9.599999999999999E-003   -1.766014208988840E-019
 -9.500000000000000E-003   -1.882438146693564E-019
 -9.399999999999999E-003   -1.815196720160302E-019
 -9.299999999999999E-003   -1.535181058999810E-019
 -9.200000000000000E-003   -1.031395259633901E-019
 -9.099999999999999E-003   -3.158187677140674E-020
 -8.999999999999999E-003    5.733846837141901E-020
 -8.900000000000000E-003    1.571009573579377E-019
 -8.799999999999999E-003    2.586864446157464E-019
 -8.699999999999999E-003    3.511083220623711E-019
 -8.600000000000000E-003    4.222718097558315E-019
 -8.499999999999999E-003    4.601276193363755E-019
 -8.399999999999999E-003    4.540449989326610E-019
 -8.300000000000000E-003    3.962903324859970E-019
 -8.199999999999999E-003    2.834622397455044E-019
 -8.100000000000000E-003    1.177116689742731E-019
 -8.000000000000000E-003   -9.243381815306415E-020
 -7.899999999999999E-003   -3.318115275668394E-019
 -7.800000000000000E-003   -5.790679498009652E-019
 -7.699999999999999E-003   -8.078885350728040E-019
 -7.599999999999999E-003   -9.890237234179590E-019
 -7.499999999999999E-003   -1.093031742863781E-018
 -7.399999999999999E-003   -1.093560676264367E-018
 -7.299999999999999E-003   -9.709033750905432E-019
 -7.199999999999999E-003   -7.154711259341536E-019
 -7.100000000000000E-003   -3.307814689527809E-019
 -6.999999999999999E-003    1.644689841531665E-019
 -6.899999999999999E-003    7.356478092071243E-019
 -6.800000000000000E-003    1.333077230188039E-018
 -6.699999999999999E-003    1.894772422463005E-018
 -6.599999999999999E-003    2.351063054302104E-018
 -6.499999999999999E-003    2.630928791509063E-018
 -6.399999999999999E-003    2.669647580363006E-018
 -6.299999999999999E-003    2.417151332669603E-018
 -6.199999999999999E-003    1.846283584962354E-018
 -6.100000000000000E-003    9.600277660108078E-019
 -5.999999999999999E-003   -2.032833972558609E-019
 -5.899999999999999E-003   -1.567708086736201E-018
 -5.800000000000000E-003   -3.021169547840341E-018
 -5.699999999999999E-003   -4.421158244617451E-018
 -5.599999999999999E-003   -5.604791121734586E-018
 -5.499999999999999E-003   -6.402884114410905E-018
 -5.399999999999999E-003   -6.657209873898370E-018
 -5.299999999999999E-003   -6.239616183770468E-018
 -5.199999999999999E-003   -5.071236444366623E-018
 -5.099999999999999E-003   -3.139728640881587E-018
 -4.999999999999999E-003   -5.123335144266803E-019
 -4.899999999999999E-003    2.657385803557233E-018
 -4.799999999999999E-003    6.130903588559677E-018
 -4.699999999999999E-003    9.595448224124512E-018
 -4.599999999999999E-003    1.268447183580672E-017
 -4.499999999999999E-003    1.500733144549714E-017
 -4.399999999999999E-003    1.618652905660671E-017
 -4.299999999999999E-003    1.589978257191236E-017
 -4.199999999999999E-003    1.392323678196223E-017
 -4.099999999999999E-003    1.017141977398480E-017
 -3.999999999999999E-003    4.729142438113879E-018
 -3.899999999999999E-003   -2.129334300055333E-018
 -3.799999999999999E-003   -9.937933009786505E-018
 -3.699999999999999E-003   -1.805615215898484E-017
 -3.599999999999999E-003   -2.570749189915854E-017
 -3.499999999999999E-003   -3.203823726483047E-017
 -3.399999999999999E-003   -3.619357286198419E-017
 -3.299999999999999E-003   -3.740572031015064E-017
 -3.199999999999999E-003   -3.508680235430820E-017
 -3.099999999999999E-003   -2.891731351244728E-017
 -2.999999999999999E-003   -1.892037092495818E-017
 -2.899999999999999E-003   -5.511710976323373E-018
 -2.799999999999999E-003    1.048336449195017E-017
 -2.699999999999999E-003    2.785291732087008E-017
 -2.599999999999999E-003    4.506477597228615E-017
 -2.499999999999999E-003    6.037591055526843E-017
 -2.399999999999999E-003    7.197975120188154E-017
 -2.299999999999999E-003    7.818183868326052E-017
 -2.199999999999999E-003    7.758951803383771E-017
 -2.099999999999999E-003    6.929807029200844E-017
 -1.999999999999999E-003    5.305344023972999E-017
 -1.899999999999999E-003    2.937115725621851E-017
 -1.799999999999999E-003   -4.071625260164811E-019
 -1.699999999999999E-003   -3.413455688774596E-017
 -1.599999999999999E-003   -6.896566700056798E-017
 -1.499999999999999E-003   -1.015510655348744E-016
 -1.399999999999999E-003   -1.283109451064024E-016
 -1.299999999999999E-003   -1.457712515796437E-016
 -1.199999999999999E-003   -1.509358787638954E-016
 -1.099999999999999E-003   -1.416612992822004E-016
 -9.999999999999989E-004   -1.169950171871591E-016
 -8.999999999999990E-004   -7.743750646992563E-017
 -7.999999999999990E-004   -2.508948376271538E-017
 -6.999999999999989E-004    3.634664438140439E-017
 -5.999999999999990E-004    1.017317301947878E-016
 -4.999999999999989E-004    1.648275224921292E-016
 -3.999999999999989E-004    2.187954081345965E-016
 -2.999999999999989E-004    2.568268739744546E-016
 -1.999999999999989E-004    2.728581652556956E-016
 -9.999999999999892E-005    2.623062670870552E-016
  1.084202172485504E-018    2.227522514944665E-016
  1.000000000000011E-004    1.544933452868346E-016
  2.000000000000011E-004    6.088776907916759E-017
  3.000000000000011E-004   -5.157310151941952E-017
  4.000000000000011E-004   -1.735095856871289E-016
  5.000000000000011E-004   -2.932358127167076E-016
  6.000000000000011E-004   -3.976644193090899E-016
  7.000000000000011E-004   -4.734846307005017E-016
  8.000000000000011E-004   -5.085295607555212E-016
  9.000000000000012E-004   -4.932163895525589E-016
  1.000000000000001E-003   -4.219197410733526E-016
  1.100000000000001E-003   -2.941258423439712E-016
  1.200000000000001E-003   -1.152168685008080E-016
  1.300000000000001E-003    1.032475993657297E-016
  1.400000000000001E-003    3.438524257734011E-016
  1.500000000000001E-003    5.843023064527588E-016
  1.600000000000001E-003    7.990424359816128E-016
  1.700000000000001E-003    9.614458927659576E-016
  1.800000000000001E-003    1.046423651599000E-015
  1.900000000000001E-003    1.033244488424476E-015
  2.000000000000001E-003    9.083067830171837E-016
  2.100000000000001E-003    6.675695650426786E-016
  2.200000000000001E-003    3.183459872848116E-016
  2.300000000000001E-003   -1.198113839938389E-016
  2.400000000000001E-003   -6.153514399330302E-016
  2.500000000000001E-003   -1.126220527329225E-015
  2.600000000000001E-003   -1.602637804477443E-015
  2.700000000000001E-003   -1.991037579832380E-015
  2.800000000000001E-003   -2.238946239290004E-015
  2.900000000000001E-003   -2.300422628306000E-015
  3.000000000000001E-003   -2.141591204833213E-015
  3.100000000000001E-003   -1.745722003038720E-015
  3.200000000000001E-003   -1.117285965038096E-015
  3.300000000000001E-003   -2.844415699064636E-016
  3.400000000000001E-003    7.005079121449830E-016
  3.500000000000001E-003    1.762998018190177E-015
  3.600000000000001E-003    2.810551986784488E-015
  3.700000000000001E-003    3.739481272358727E-015
  3.800000000000001E-003    4.443579987671072E-015
  3.900000000000001E-003    4.824205621965395E-015
  4.000000000000001E-003    4.800926166277239E-015
  4.100000000000001E-003    4.321745107186209E-015
  4.200000000000001E-003    3.371842028697903E-015
  4.300000000000001E-003    1.979778009860555E-015
  4.400000000000001E-003    2.202217195942414E-016
  4.500000000000001E-003   -1.787485985395779E-015
  4.600000000000002E-003   -3.885328270639380E-015
  4.700000000000001E-003   -5.887120808158904E-015
  4.800000000000001E-003   -7.593060912238300E-015
  4.900000000000002E-003   -8.807364263593082E-015
  5.000000000000001E-003   -9.357637009915521E-015
  5.100000000000001E-003   -9.114273198309712E-015
  5.200000000000001E-003   -8.007981738828315E-015
  5.300000000000002E-003   -6.043486555568653E-015
  5.400000000000001E-003   -3.307604898950646E-015
  5.500000000000001E-003    2.974106008229098E-017
  5.600000000000002E-003    3.722510906660616E-015
  5.700000000000001E-003    7.463758221901686E-015
  5.800000000000001E-003    1.090850337326090E-014
  5.900000000000002E-003    1.370289967137710E-014
  6.000000000000001E-003    1.551751707501360E-014
  6.100000000000001E-003    1.608190659971057E-014
  6.200000000000002E-003    1.521719805418430E-014
  6.300000000000002E-003    1.286325656167269E-014
  6.400000000000001E-003    9.097121866968379E-015
  6.500000000000001E-003    4.139912578194574E-015
  6.600000000000002E-003   -1.649718654159979E-015
  6.700000000000001E-003   -7.796451283435332E-015
  6.800000000000001E-003   -1.374293321387318E-014
  6.900000000000002E-003   -1.889625745955627E-014
  7.000000000000001E-003   -2.268291104370362E-014
  7.100000000000001E-003   -2.460759749445974E-014
  7.200000000000002E-003   -2.431049830344511E-014
  7.300000000000002E-003   -2.161701003511370E-014
  7.400000000000001E-003   -1.657417243112150E-014
  7.500000000000001E-003   -9.468662515072962E-015
  7.600000000000002E-003   -8.225532593346977E-016
  7.700000000000001E-003    8.635111977000664E-015
  7.800000000000001E-003    1.802073726044488E-014
  7.900000000000001E-003    2.636978598610387E-014
  8.000000000000002E-003    3.272645392415820E-014
  8.100000000000001E-003    3.624206699872216E-014
  8.200000000000001E-003    3.627309023190175E-014
  8.300000000000002E-003    3.246877458414043E-014
  8.400000000000001E-003    2.483838307301453E-014
  8.500000000000002E-003    1.378888660206959E-014
  8.600000000000002E-003    1.260572946704005E-016
  8.700000000000001E-003   -1.498516160569495E-014
  8.800000000000002E-003   -3.010138831512295E-014
  8.900000000000002E-003   -4.361906041702361E-014
  9.000000000000001E-003   -5.392220002989540E-014
  9.100000000000002E-003   -5.954780655230915E-014
  9.200000000000002E-003   -5.935409195475575E-014
  9.300000000000001E-003   -5.267462582169853E-014
  9.400000000000002E-003   -3.944110311480039E-014
  9.500000000000001E-003   -2.025871924265232E-014
  9.600000000000001E-003    3.578646392959814E-015
  9.700000000000002E-003    3.014198777527574E-014
  9.800000000000001E-003    5.699136991413769E-014
  9.900000000000001E-003    8.136627518580437E-014
  1.000000000000000E-002    1.004299348846908E-013
  1.010000000000000E-002    1.115492083161184E-013
  1.020000000000000E-002    1.125853323678128E-013
  1.030000000000000E-002    1.021676566312573E-013
  1.040000000000000E-002    7.992076237724737E-014
  1.050000000000000E-002    4.661696505230132E-014
  1.060000000000000E-002    4.230731267297010E-015
  1.070000000000000E-002   -4.412131528405987E-014
  1.080000000000000E-002   -9.436112211303579E-014
  1.090000000000000E-002   -1.417460057922544E-013
  1.100000000000000E-002   -1.812642312643942E-013
  1.110000000000000E-002   -2.081006775292102E-013
  1.120000000000000E-002   -2.181339622892702E-013
  1.130000000000000E-002   -2.084187440639407E-013
  1.140000000000000E-002   -1.776039438196531E-013
  1.150000000000000E-002   -1.262387254829918E-013
  1.160000000000000E-002   -5.692413429945887E-014
  1.170000000000000E-002    2.572073151544797E-014
  1.180000000000000E-002    1.152938055038051E-013
  1.190000000000000E-002    2.040439041228236E-013
  1.200000000000000E-002    2.834812318715167E-013
  1.210000000000000E-002    3.451223361614561E-013
  1.220000000000000E-002    3.813099211916511E-013
  1.230000000000000E-002    3.860346925212391E-013
  1.240000000000000E-002    3.556789455289818E-013
  1.250000000000000E-002    2.896013314334548E-013
  1.260000000000000E-002    1.904898780691978E-013
  1.270000000000000E-002    6.442685852767429E-014
  1.280000000000000E-002   -7.936952575196036E-014
  1.290000000000000E-002   -2.291317851343340E-013
  1.300000000000000E-002   -3.714323301936246E-013
  1.310000000000000E-002   -4.923162558875254E-013
  1.320000000000000E-002   -5.785914176356624E-013
  1.330000000000000E-002   -6.191627846494998E-013
  1.340000000000000E-002   -6.062863830442876E-013
  1.350000000000000E-002   -5.366123532299205E-013
  1.360000000000000E-002   -4.118958657075661E-013
  1.370000000000000E-002   -2.392770624964729E-013
  1.380000000000000E-002   -3.106353743683377E-014
  1.390000000000000E-002    1.960081276294481E-013
  1.400000000000000E-002    4.220055006944102E-013
  1.410000000000000E-002    6.254516685800943E-013
  1.420000000000000E-002    7.852692740486899E-013
  1.430000000000000E-002    8.828537444458325E-013
  1.440000000000000E-002    9.040825936841731E-013
  1.450000000000000E-002    8.410591523295597E-013
  1.460000000000000E-002    6.933959664936615E-013
  1.470000000000000E-002    4.688728435598339E-013
  1.480000000000000E-002    1.833510701171876E-013
  1.490000000000000E-002   -1.401115443239872E-013
  1.500000000000000E-002   -4.729252392170055E-013
  1.510000000000000E-002   -7.833161535652043E-013
  1.520000000000000E-002   -1.039181994846198E-012
  1.530000000000000E-002   -1.211219046351014E-012
  1.540000000000000E-002   -1.276033405991283E-012
  1.550000000000000E-002   -1.218928833716871E-012
  1.560000000000000E-002   -1.036067725323479E-012
  1.570000000000000E-002   -7.357403181819275E-013
  1.580000000000000E-002   -3.385405659212140E-013
  1.590000000000000E-002    1.236600006106935E-013
  1.600000000000000E-002    6.099386669070090E-013
  1.610000000000000E-002    1.073630441698987E-012
  1.620000000000000E-002    1.466478584187466E-012
  1.630000000000000E-002    1.743289731847991E-012
  1.640000000000000E-002    1.866672336474826E-012
  1.650000000000000E-002    1.811396337970286E-012
  1.660000000000000E-002    1.567910655918691E-012
  1.670000000000000E-002    1.144599741056624E-012
  1.680000000000000E-002    5.684500844398547E-013
  1.690000000000000E-002   -1.160680242014375E-013
  1.700000000000000E-002   -8.499478955905310E-013
  1.710000000000000E-002   -1.564274228801793E-012
  1.720000000000000E-002   -2.186217990963331E-012
  1.730000000000000E-002   -2.645917498165718E-012
  1.740000000000000E-002   -2.883634736609411E-012
  1.750000000000000E-002   -2.856505508697035E-012
  1.760000000000000E-002   -2.544180990653419E-012
  1.770000000000000E-002   -1.952713709809977E-012
  1.780000000000000E-002   -1.116157040894750E-012
  1.790000000000000E-002   -9.553703884479304E-014
  1.800000000000000E-002    1.024915771205248E-012
  1.810000000000000E-002    2.144128124613120E-012
  1.820000000000000E-002    3.152721637178826E-012
  1.830000000000000E-002    3.943060282159828E-012
  1.840000000000000E-002    4.419940183510017E-012
  1.850000000000000E-002    4.510922710011451E-012
  1.860000000000000E-002    4.175264521143351E-012
  1.870000000000000E-002    3.410456864393577E-012