 -4.000000000000000E-002    0.000000000000000E+000
 -3.990000000000000E-002    0.000000000000000E+000
 -3.980000000000000E-002    0.000000000000000E+000
 -3.970000000000000E-002    0.000000000000000E+000
 -3.960000000000000E-002    0.000000000000000E+000
 -3.950000000000000E-002    0.000000000000000E+000
 -3.940000000000000E-002    0.000000000000000E+000
 -3.930000000000000E-002    0.000000000000000E+000
 -3.920000000000000E-002    0.000000000000000E+000
 -3.910000000000000E-002    0.000000000000000E+000
 -3.900000000000000E-002    0.000000000000000E+000
 -3.890000000000000E-002    0.000000000000000E+000
 -3.880000000000000E-002    0.000000000000000E+000
 -3.870000000000000E-002    0.000000000000000E+000
 -3.860000000000000E-002    0.000000000000000E+000
 -3.850000000000000E-002    0.000000000000000E+000
 -3.840000000000000E-002    0.000000000000000E+000
 -3.830000000000000E-002    0.000000000000000E+000
 -3.820000000000000E-002    0.000000000000000E+000
 -3.810000000000000E-002    0.000000000000000E+000
 -3.800000000000000E-002    0.000000000000000E+000
 -3.790000000000000E-002    0.000000000000000E+000
 -3.780000000000000E-002    0.000000000000000E+000
 -3.770000000000000E-002    0.000000000000000E+000
 -3.760000000000000E-002   -9.180702080249142E-048
 -3.750000000000000E-002   -2.462403445472887E-046
 -3.740000000000000E-002   -8.583035558177249E-046
 -3.730000000000000E-002   -4.611898104577112E-045
 -3.720000000000000E-002   -1.959710007013504E-044
 -3.710000000000000E-002   -7.988047205408903E-044
 -3.700000000000000E-002   -2.958350837126651E-043
 -3.690000000000000E-002   -1.016986730489515E-042
 -3.680000000000000E-002   -3.250594770250338E-042
 -3.670000000000000E-002   -9.736087482826299E-042
 -3.660000000000000E-002   -2.746804994159812E-041
 -3.650000000000000E-002   -7.329772448223496E-041
 -3.640000000000000E-002   -1.855609403638343E-040
 -3.630000000000000E-002   -4.466963049849555E-040
 -3.620000000000000E-002   -1.024091521689181E-039
 -3.610000000000000E-002   -2.237704219144359E-039
 -3.600000000000000E-002   -4.659771808867474E-039
 -3.590000000000000E-002   -9.236409309445279E-039
 -3.580000000000000E-002   -1.737888693112455E-038
 -3.570000000000000E-002   -3.087916185139790E-038
 -3.560000000000000E-002   -5.132355942638646E-038
 -3.550000000000000E-002   -7.836344346112470E-038
 -3.540000000000000E-002   -1.057028128638573E-037
 -3.530000000000000E-002   -1.129598575898506E-037
 -3.520000000000000E-002   -5.070754116289923E-038
 -3.510000000000000E-002    1.847735165137594E-037
 -3.500000000000000E-002    7.906463633206018E-037
 -3.490000000000000E-002    2.112685216769161E-036
 -3.480000000000000E-002    4.713652106875429E-036
 -3.470000000000000E-002    9.441154853871928E-036
 -3.460000000000000E-002    1.746078452776566E-035
 -3.450000000000000E-002    3.018656928500385E-035
 -3.440000000000000E-002    4.898992083121747E-035
 -3.430000000000000E-002    7.450020479754887E-035
 -3.420000000000000E-002    1.052299876057941E-034
 -3.410000000000000E-002    1.351825481118780E-034
 -3.400000000000000E-002    1.500647155966901E-034
 -3.390000000000000E-002    1.217925900435130E-034
 -3.380000000000000E-002    1.239016617302808E-036
 -3.370000000000000E-002   -2.902478652131271E-034
 -3.360000000000000E-002   -8.689669847559400E-034
 -3.350000000000000E-002   -1.893333661009626E-033
 -3.340000000000000E-002   -3.558952350598116E-033
 -3.330000000000000E-002   -6.075333861780478E-033
 -3.320000000000000E-002   -9.611539819462844E-033
 -3.310000000000000E-002   -1.419447573496457E-032
 -3.300000000000000E-002   -1.954128588021216E-032
 -3.290000000000000E-002   -2.480835809398646E-032
 -3.280000000000000E-002   -2.824677787564308E-032
 -3.270000000000000E-002   -2.677139363634032E-032
 -3.260000000000000E-002   -1.548211518117387E-032
 -3.250000000000000E-002    1.277365972576532E-032
 -3.240000000000000E-002    6.763633361575025E-032
 -3.230000000000000E-002    1.610133895511942E-031
 -3.220000000000000E-002    3.060392043602047E-031
 -3.210000000000000E-002    5.147429779571814E-031
 -3.200000000000000E-002    7.938703259809781E-031
 -3.190000000000000E-002    1.138290379083700E-030
 -3.180000000000000E-002    1.521541655800085E-030
 -3.170000000000000E-002    1.883394223950113E-030
 -3.160000000000000E-002    2.114937540802765E-030
 -3.150000000000000E-002    2.042694261314284E-030
 -3.140000000000000E-002    1.414727546701079E-030
 -3.130000000000000E-002   -1.064326167843632E-031
 -3.120000000000000E-002   -2.936956941267102E-030
 -3.110000000000000E-002   -7.541592292038536E-030
 -3.100000000000000E-002   -1.436891273637478E-029
 -3.090000000000000E-002   -2.373972695146622E-029
 -3.080000000000000E-002   -3.567762594699758E-029
 -3.070000000000000E-002   -4.967514439270264E-029
 -3.060000000000000E-002   -6.439803959628720E-029
 -3.050000000000000E-002   -7.734515510009995E-029
 -3.040000000000000E-002   -8.450325403045436E-029
 -3.030000000000000E-002   -8.006491039185691E-029
 -3.020000000000000E-002   -5.631088116352329E-029
 -3.010000000000000E-002   -3.795273303044967E-030
 -3.000000000000000E-002    8.799702572451654E-029
 -2.990000000000000E-002    2.293339917361716E-028
 -2.980000000000000E-002    4.280799936226450E-028
 -2.970000000000000E-002    6.865716205456128E-028
 -2.960000000000000E-002    9.975004718845345E-028
 -2.950000000000000E-002    1.338962759834118E-027
 -2.940000000000000E-002    1.669089608171551E-027
 -2.930000000000000E-002    1.921018712233176E-027
 -2.920000000000000E-002    1.999370069816187E-027
 -2.910000000000000E-002    1.779803393558241E-027
 -2.900000000000000E-002    1.113613074809596E-027
 -2.890000000000000E-002   -1.604645815395564E-028
 -2.880000000000000E-002   -2.195139828644454E-027
 -2.870000000000000E-002   -5.102564381937292E-027
 -2.860000000000000E-002   -8.910918621698134E-027
 -2.850000000000000E-002   -1.351095438581023E-026
 -2.840000000000000E-002   -1.859637551342676E-026
 -2.830000000000000E-002   -2.360537234192977E-026
 -2.820000000000000E-002   -2.767431430813205E-026
 -2.810000000000000E-002   -2.961864497743083E-026
 -2.800000000000000E-002   -2.795914033276711E-026
 -2.790000000000000E-002   -2.101332356032363E-026
 -2.780000000000000E-002   -7.070894532845744E-027
 -2.770000000000000E-002    1.533317516316391E-026
 -2.760000000000000E-002    4.704456710132698E-026
 -2.750000000000000E-002    8.782720198135855E-026
 -2.740000000000000E-002    1.358478796306313E-025
 -2.730000000000000E-002    1.871701916619396E-025
 -2.720000000000000E-002    2.353511527557196E-025
 -2.710000000000000E-002    2.712616339204758E-025
 -2.700000000000000E-002    2.832752856783554E-025
 -2.690000000000000E-002    2.579757087929977E-025
 -2.680000000000000E-002    1.815177602141218E-025
 -2.670000000000000E-002    4.172898394971712E-026
 -2.660000000000000E-002   -1.690482270144648E-025
 -2.650000000000000E-002   -4.505011530207096E-025
 -2.640000000000000E-002   -7.905762380661991E-025
 -2.630000000000000E-002   -1.161889039175207E-024
 -2.620000000000000E-002   -1.519012981624781E-024
 -2.610000000000000E-002   -1.797535763216516E-024
 -2.600000000000000E-002   -1.915877657915658E-024
 -2.590000000000000E-002   -1.780876603674369E-024
 -2.580000000000000E-002   -1.297958543779914E-024
 -2.570000000000000E-002   -3.863362498324128E-025
 -2.560000000000000E-002    1.001002922286107E-024
 -2.550000000000000E-002    2.853623041126579E-024
 -2.540000000000000E-002    5.078566772119712E-024
 -2.530000000000000E-002    7.477386808580792E-024
 -2.520000000000000E-002    9.730092902522600E-024
 -2.510000000000000E-002    1.139176421522170E-023
 -2.500000000000000E-002    1.190814311557015E-023
 -2.490000000000000E-002    1.065620483556491E-023
 -2.480000000000000E-002    7.014231604339052E-024
 -2.470000000000000E-002    4.632632446444920E-025
 -2.460000000000000E-002   -9.282655418845410E-024
 -2.450000000000000E-002   -2.212544933060603E-023
 -2.440000000000000E-002   -3.742623020696785E-023
 -2.430000000000000E-002   -5.386492160095441E-023
 -2.420000000000000E-002   -6.934534052810026E-023
 -2.410000000000000E-002   -8.097988889083728E-023
 -2.400000000000000E-002   -8.518962437498025E-023
 -2.390000000000000E-002   -7.795313898897635E-023
 -2.380000000000000E-002   -5.522754642697657E-023
 -2.370000000000000E-002   -1.354920826992929E-023
 -2.360000000000000E-002    4.920316463087760E-023
 -2.350000000000000E-002    1.329309412577138E-022
 -2.340000000000000E-002    2.344082692514848E-022
 -2.330000000000000E-002    3.464669926654498E-022
 -2.320000000000000E-002    4.574290425122412E-022
 -2.310000000000000E-002    5.509664498761581E-022
 -2.300000000000000E-002    6.065735184441290E-022
 -2.290000000000000E-002    6.008188088152313E-022
 -2.280000000000000E-002    5.094930254730324E-022
 -2.270000000000000E-002    3.106850764907536E-022
 -2.260000000000000E-002   -1.130308816415673E-023
 -2.250000000000000E-002   -4.614430993868371E-022
 -2.240000000000000E-002   -1.029278775402279E-021
 -2.230000000000000E-002   -1.684622928251989E-021
 -2.220000000000000E-002   -2.374387624218311E-021
 -2.210000000000000E-002   -3.021384280935815E-021
 -2.200000000000000E-002   -3.525947811108114E-021
 -2.190000000000000E-002   -3.771147150608885E-021
 -2.180000000000000E-002   -3.632104600994428E-021
 -2.170000000000000E-002   -2.989575885241796E-021
 -2.160000000000000E-002   -1.747395079543647E-021
 -2.150000000000000E-002    1.472447862786725E-022
 -2.140000000000000E-002    2.682437708035269E-021
 -2.130000000000000E-002    5.761615370269144E-021
 -2.120000000000000E-002    9.188083507891760E-021
 -2.110000000000000E-002    1.265751562235314E-020
 -2.100000000000000E-002    1.576191507653251E-020
 -2.090000000000000E-002    1.800814618776595E-020
 -2.080000000000000E-002    1.885313231601548E-020
 -2.070000000000000E-002    1.775633543857274E-020
 -2.060000000000000E-002    1.424799057657543E-020
 -2.050000000000000E-002    8.009080463832558E-021
 -2.040000000000000E-002   -1.043734989736288E-021
 -2.030000000000000E-002   -1.267764737535382E-020
 -2.020000000000000E-002   -2.627930684316946E-020
 -2.010000000000000E-002   -4.081946834146011E-020
 -2.000000000000000E-002   -5.485956407530107E-020
 -1.990000000000000E-002   -6.661140421334613E-020
 -1.980000000000000E-002   -7.405763668706000E-020
 -1.970000000000000E-002   -7.513472337060969E-020
 -1.960000000000000E-002   -6.797277456052058E-020
 -1.950000000000000E-002   -5.117775221659843E-020
 -1.940000000000000E-002   -2.413190518384769E-020
 -1.930000000000000E-002    1.272053112612699E-020
 -1.920000000000000E-002    5.764241974295713E-020
 -1.910000000000000E-002    1.074717270920713E-019
 -1.900000000000000E-002    1.576314378402098E-019
 -1.890000000000000E-002    2.023181702408406E-019
 -1.880000000000000E-002    2.348930980155515E-019
 -1.870000000000000E-002    2.484789796024373E-019
 -1.860000000000000E-002    2.367423081393513E-019
 -1.850000000000000E-002    1.948101290442510E-019
 -1.840000000000000E-002    1.202411620763383E-019
 -1.830000000000000E-002    1.394259980968399E-020
 -1.820000000000000E-002   -1.190964429135215E-019
 -1.810000000000000E-002   -2.693936762307288E-019
 -1.800000000000000E-002   -4.230192727213832E-019
 -1.790000000000000E-002   -5.622064104266352E-019
 -1.780000000000000E-002   -6.665946101894477E-019
 -1.770000000000000E-002   -7.151063270209310E-019
 -1.760000000000000E-002   -6.883808898547874E-019
 -1.750000000000000E-002   -5.715980346620695E-019
 -1.740000000000000E-002   -3.574347823278612E-019
 -1.730000000000000E-002   -4.881735092857805E-020
 -1.720000000000000E-002    3.389271726438516E-019
 -1.710000000000000E-002    7.769341851368538E-019
 -1.700000000000000E-002    1.223072677388190E-018
 -1.690000000000000E-002    1.623929149982099E-018
 -1.680000000000000E-002    1.918677217423311E-018
 -1.670000000000000E-002    2.044804112855750E-018
 -1.660000000000000E-002    1.945430971372762E-018
 -1.650000000000000E-002    1.577702715134546E-018
 -1.640000000000000E-002    9.214632761097805E-019
 -1.630000000000000E-002   -1.278733512536803E-020
 -1.620000000000000E-002   -1.177805226177877E-018
 -1.610000000000000E-002   -2.486572245464136E-018
 -1.600000000000000E-002   -3.813418456559596E-018
 -1.590000000000000E-002   -5.000125848129786E-018
 -1.580000000000000E-002   -5.867436200594806E-018
 -1.570000000000000E-002   -6.231801803512393E-018
 -1.560000000000000E-002   -5.926563189207948E-018
 -1.550000000000000E-002   -4.825999652805331E-018
 -1.540000000000000E-002   -2.869993233180844E-018
 -1.530000000000000E-002   -8.648550555754803E-020
 -1.520000000000000E-002    3.391486281323279E-018
 -1.510000000000000E-002    7.317429708881875E-018
 -1.500000000000000E-002    1.133464263959542E-017
 -1.490000000000000E-002    1.499327251000165E-017
 -1.480000000000000E-002    1.778218439570631E-017
 -1.470000000000000E-002    1.917513114570862E-017
 -1.460000000000000E-002    1.868885476791818E-017
 -1.450000000000000E-002    1.594889055397204E-017
 -1.440000000000000E-002    1.075693398442653E-017
 -1.430000000000000E-002    3.152262305066882E-018
 -1.420000000000000E-002   -6.541272392244569E-018
 -1.410000000000000E-002   -1.769117998184458E-017
 -1.400000000000000E-002   -2.936281255383856E-017
 -1.390000000000000E-002   -4.036196047658633E-017
 -1.380000000000000E-002   -4.931613549809281E-017
 -1.370000000000000E-002   -5.479300789333241E-017
 -1.360000000000000E-002   -5.544996703893654E-017
 -1.350000000000000E-002   -5.020390987782963E-017
 -1.340000000000000E-002   -3.840582413730105E-017
 -1.330000000000000E-002   -2.000116707880674E-017
 -1.320000000000000E-002    4.345064519451709E-018
 -1.310000000000000E-002    3.317971356576335E-017
 -1.300000000000000E-002    6.426808744253566E-017
 -1.290000000000000E-002    9.468963762207303E-017
 -1.280000000000000E-002    1.210288564228095E-016
 -1.270000000000000E-002    1.396579262173504E-016
 -1.260000000000000E-002    1.470967712961781E-016
 -1.250000000000000E-002    1.404241932517340E-016
 -1.240000000000000E-002    1.177036708477285E-016
 -1.230000000000000E-002    7.837850711928761E-017
 -1.220000000000000E-002    2.358659756246633E-017
 -1.210000000000000E-002   -4.365502374112422E-017
 -1.200000000000000E-002   -1.184401517279504E-016
 -1.190000000000000E-002   -1.941702746482212E-016
 -1.180000000000000E-002   -2.629731006395086E-016
 -1.170000000000000E-002   -3.163357567473450E-016
 -1.160000000000000E-002   -3.459197783040121E-016
 -1.150000000000000E-002   -3.444990731628809E-016
 -1.140000000000000E-002   -3.069381279664596E-016
 -1.130000000000000E-002   -2.311092121570825E-016
 -1.120000000000000E-002   -1.186359471659801E-016
 -1.110000000000000E-002    2.464819217998669E-017
 -1.100000000000000E-002    1.886257610764009E-016
 -1.090000000000000E-002    3.592785915002761E-016
 -1.080000000000000E-002    5.195625260841603E-016
 -1.070000000000000E-002    6.507595973583127E-016
 -1.060000000000000E-002    7.342366159790467E-016
 -1.050000000000000E-002    7.534847230399045E-016
 -1.040000000000000E-002    6.962601917758521E-016
 -1.030000000000000E-002    5.566076017989532E-016
 -1.020000000000000E-002    3.365239409178785E-016
 -1.010000000000000E-002    4.702146404939177E-017
 -1.000000000000000E-002   -2.916240093886322E-016
 -9.899999999999999E-003   -6.505981660928299E-016
 -9.800000000000000E-003   -9.943233352439386E-016
 -9.699999999999999E-003   -1.283256331646753E-015
 -9.599999999999999E-003   -1.477565631663809E-015
 -9.500000000000000E-003   -1.541424855825607E-015
 -9.399999999999999E-003   -1.447551080342002E-015
 -9.299999999999999E-003   -1.181528209555975E-015
 -9.200000000000000E-003   -7.454118040165751E-016
 -9.099999999999999E-003   -1.601085732029500E-016
 -8.999999999999999E-003    5.339211709326301E-016
 -8.900000000000000E-003    1.277976167400111E-015
 -8.799999999999999E-003    1.998611553465055E-015
 -8.699999999999999E-003    2.613285163974512E-015
 -8.600000000000000E-003    3.037866741179287E-015
 -8.499999999999999E-003    3.195494054671568E-015
 -8.399999999999999E-003    3.026019837174093E-015
 -8.300000000000000E-003    2.495129318729736E-015
 -8.199999999999999E-003    1.602089689488568E-015
 -8.100000000000000E-003    3.850988086453970E-016
 -8.000000000000000E-003   -1.076711232881857E-015
 -7.899999999999999E-003   -2.665331614634077E-015
 -7.800000000000000E-003   -4.230394105741034E-015
 -7.699999999999999E-003   -5.600123774753104E-015
 -7.599999999999999E-003   -6.596227034936668E-015
 -7.499999999999999E-003   -7.051735600474202E-015
 -7.399999999999999E-003   -6.830348205081916E-015
 -7.299999999999999E-003   -5.845471395642534E-015
 -7.199999999999999E-003   -4.076894850059889E-015
 -7.100000000000000E-003   -1.583026968372243E-015
 -6.999999999999999E-003    1.493250681606343E-015
 -6.899999999999999E-003    4.926638556485281E-015
 -6.800000000000000E-003    8.420316350958058E-015
 -6.699999999999999E-003    1.162582010215263E-014
 -6.599999999999999E-003    1.417113022539622E-014
 -6.499999999999999E-003    1.569522966512723E-014
 -6.399999999999999E-003    1.588649513650825E-014
 -6.299999999999999E-003    1.452152622860648E-014
 -6.199999999999999E-003    1.150047489524914E-014
 -6.100000000000000E-003    6.874805785210906E-015
 -5.999999999999999E-003    8.635964014398052E-016
 -5.899999999999999E-003   -6.144835602167038E-015
 -5.800000000000000E-003   -1.360814090973652E-014
 -5.699999999999999E-003   -2.086270623169034E-014
 -5.599999999999999E-003   -2.717304135292617E-014
 -5.499999999999999E-003   -3.179497400761466E-014
 -5.399999999999999E-003   -3.404815481030550E-014
 -5.299999999999999E-003   -3.339176459415884E-014
 -5.199999999999999E-003   -2.949626126513809E-014
 -5.099999999999999E-003   -2.230343658008234E-014
 -4.999999999999999E-003   -1.206728562284168E-014
 -4.899999999999999E-003    6.308844824944489E-016
 -4.799999999999999E-003    1.489785104256574E-014
 -4.699999999999999E-003    2.957671092593436E-014
 -4.599999999999999E-003    4.332723197892125E-014
 -4.499999999999999E-003    5.473433313390385E-014
 -4.399999999999999E-003    6.243728956452821E-014
 -4.299999999999999E-003    6.526939770501406E-014
 -4.199999999999999E-003    6.239538690510917E-014
 -4.099999999999999E-003    5.343261722760545E-014
 -3.999999999999999E-003    3.854201280356023E-014
 -3.899999999999999E-003    1.847596949436227E-014
 -3.799999999999999E-003   -5.426685622940292E-015
 -3.699999999999999E-003   -3.130452290116715E-014
 -3.599999999999999E-003   -5.689681842713167E-014
 -3.499999999999999E-003   -7.972092897685721E-014
 -3.399999999999999E-003   -9.729250064135381E-014
 -3.299999999999999E-003   -1.073714658714593E-013
 -3.199999999999999E-003   -1.082120210168330E-013
 -3.099999999999999E-003   -9.879217793285427E-014
 -2.999999999999999E-003   -7.899704539230794E-014
 -2.899999999999999E-003   -4.973211895530927E-014
 -2.799999999999999E-003   -1.294681618133044E-014
 -2.699999999999999E-003    2.844474121819331E-014
 -2.599999999999999E-003    7.074976492638746E-014
 -2.499999999999999E-003    1.097835123034610E-013
 -2.399999999999999E-003    1.412393154876261E-013
 -2.299999999999999E-003    1.611143152602728E-013
 -2.199999999999999E-003    1.661541182798854E-013
 -2.099999999999999E-003    1.542732511777621E-013
 -1.999999999999999E-003    1.249056388192490E-013
 -1.899999999999999E-003    7.924078528736004E-014
 -1.799999999999999E-003    2.030781130050255E-014
 -1.699999999999999E-003   -4.711970396374973E-014
 -1.599999999999999E-003   -1.168101407447151E-013
 -1.499999999999999E-003   -1.815453117486438E-013
 -1.399999999999999E-003   -2.337513920689962E-013
 -1.299999999999999E-003   -2.662441574038950E-013
 -1.199999999999999E-003   -2.730258632200228E-013
 -1.099999999999999E-003   -2.500588281552028E-013
 -9.999999999999989E-004   -1.959332642095205E-013
 -8.999999999999990E-004   -1.123476710813434E-013
 -7.999999999999990E-004   -4.329657125713452E-015
 -6.999999999999989E-004    1.198580660401589E-013
 -5.999999999999990E-004    2.491560459328885E-013
 -4.999999999999989E-004    3.704889197297751E-013
 -3.999999999999989E-004    4.698517421378442E-013
 -2.999999999999989E-004    5.336296354431566E-013
 -1.999999999999989E-004    5.500452349585184E-013
 -9.999999999999892E-005    5.106025397455529E-013
  1.084202172485504E-018    4.113810495519136E-013
  1.000000000000011E-004    2.540300158588190E-013
  2.000000000000011E-004    4.632521995539126E-014
  3.000000000000011E-004   -1.978217219613225E-013
  4.000000000000011E-004   -4.589699622186743E-013
  5.000000000000011E-004   -7.133861284575209E-013
  6.000000000000011E-004   -9.348644377272984E-013
  7.000000000000011E-004   -1.097017445826799E-012
  8.000000000000011E-004   -1.175866433270605E-012
  9.000000000000012E-004   -1.152508726228086E-012
  1.000000000000001E-003   -1.015603556757817E-012
  1.100000000000001E-003   -7.634108344213854E-013
  1.200000000000001E-003   -4.051247761488672E-013
  1.300000000000001E-003    3.870938490313747E-014
  1.400000000000001E-003    5.368447900860300E-013
  1.500000000000001E-003    1.049104267672233E-012
  1.600000000000001E-003    1.529228304943472E-012
  1.700000000000001E-003    1.928637599285240E-012
  1.800000000000001E-003    2.200842547975459E-012
  1.900000000000001E-003    2.306137454982144E-012
  2.000000000000001E-003    2.216146650688968E-012
  2.100000000000001E-003    1.917762355723405E-012
  2.200000000000001E-003    1.416020342301227E-012
  2.300000000000001E-003    7.355193471474769E-013
  2.400000000000001E-003   -7.990817593645374E-014
  2.500000000000001E-003   -9.694221396399754E-013
  2.600000000000001E-003   -1.859274206599768E-012
  2.700000000000001E-003   -2.668566818448476E-012
  2.800000000000001E-003   -3.316272619003579E-012
  2.900000000000001E-003   -3.728950382140405E-012
  3.000000000000001E-003   -3.848463677896058E-012
  3.100000000000001E-003   -3.638943361056198E-012
  3.200000000000001E-003   -3.092235754895816E-012
  3.300000000000001E-003   -2.231151927072526E-012
  3.400000000000001E-003   -1.109990153397954E-012
  3.500000000000001E-003    1.879747059863274E-013
  3.600000000000001E-003    1.556067454020649E-012
  3.700000000000001E-003    2.872582710793878E-012
  3.800000000000001E-003    4.011367508108230E-012
  3.900000000000001E-003    4.853762946713108E-012
  4.000000000000001E-003    5.300833198310725E-012
  4.100000000000001E-003    5.284677104141340E-012
  4.200000000000001E-003    4.777606252805653E-012
  4.300000000000001E-003    3.798079185341592E-012
  4.400000000000001E-003    2.412497663872835E-012
  4.500000000000001E-003    7.323239094952887E-013
  4.600000000000002E-003   -1.093601328046040E-012
  4.700000000000001E-003   -2.891182220795596E-012
  4.800000000000001E-003   -4.476783345435048E-012
  4.900000000000002E-003   -5.675251078206920E-012
  5.000000000000001E-003   -6.338591272032759E-012
  5.100000000000001E-003   -6.363445230667749E-012
  5.200000000000001E-003   -5.705460333508568E-012
  5.300000000000002E-003   -4.388794522545779E-012
  5.400000000000001E-003   -2.509340419139440E-012
  5.500000000000001E-003   -2.307708868847601E-013
  5.600000000000002E-003    2.226829888778884E-012
  5.700000000000001E-003    4.605241387856911E-012
  5.800000000000001E-003    6.632023320671552E-012
  5.900000000000002E-003    8.048097956452475E-012
  6.000000000000001E-003    8.636483296501887E-012
  6.100000000000001E-003    8.249287411411481E-012
  6.200000000000002E-003    6.830006538833848E-012
  6.300000000000002E-003    4.428379405853542E-012
  6.400000000000001E-003    1.205549806068978E-012
  6.500000000000001E-003   -2.571888699556936E-012
  6.600000000000002E-003   -6.549408100930221E-012
  6.700000000000001E-003   -1.031289718376505E-011
  6.800000000000001E-003   -1.342594426890991E-011
  6.900000000000002E-003   -1.547306791628191E-011
  7.000000000000001E-003   -1.610501098026670E-011
  7.100000000000001E-003   -1.508165705564078E-011
  7.200000000000002E-003   -1.230797048889813E-011
  7.300000000000002E-003   -7.858638748459570E-012
  7.400000000000001E-003   -1.987856554071305E-012
  7.500000000000001E-003    4.878107431011648E-012
  7.600000000000002E-003    1.216641572815919E-011
  7.700000000000001E-003    1.920032976975614E-011
  7.800000000000001E-003    2.525629745602486E-011
  7.900000000000001E-003    2.963110084180731E-011
  8.000000000000002E-003    3.171320750789590E-011
  8.100000000000001E-003    3.105164212327507E-011
  8.200000000000001E-003    2.741529716309532E-011
  8.300000000000002E-003    2.083600474892395E-011
  8.400000000000001E-003    1.162967914709455E-011
  8.500000000000002E-003    3.916324318571732E-013
  8.600000000000002E-003   -1.203569485229036E-011
  8.700000000000001E-003   -2.462168645355046E-011
  8.800000000000002E-003   -3.622961899141726E-011
  8.900000000000002E-003   -4.571570766461131E-011
  9.000000000000001E-003   -5.203682912635260E-011
  9.100000000000002E-003   -5.435711619840541E-011
  9.200000000000002E-003   -5.214303911389164E-011
  9.300000000000001E-003   -4.523682003359360E-011
  9.400000000000002E-003   -3.389949610830629E-011
  9.500000000000001E-003   -1.881721267582940E-011
  9.600000000000001E-003   -1.067473587879555E-012
  9.700000000000002E-003    1.795424650984025E-011
  9.800000000000001E-003    3.664322243019260E-011
  9.900000000000001E-003    5.332148809251736E-011
  1.000000000000000E-002    6.638987228532364E-011
  1.010000000000000E-002    7.448243589363599E-011
  1.020000000000000E-002    7.660861804142727E-011
  1.030000000000000E-002    7.226850189280785E-011
  1.040000000000000E-002    6.152839603869132E-011
  1.050000000000000E-002    4.504689925588776E-011
  1.060000000000000E-002    2.404585846325029E-011
  1.070000000000000E-002    2.256575086747330E-013
  1.080000000000000E-002   -2.437032234830221E-011
  1.090000000000000E-002   -4.753190909541581E-011
  1.100000000000000E-002   -6.708430935657268E-011
  1.110000000000000E-002   -8.109801374326282E-011
  1.120000000000000E-002   -8.808636769888865E-011
  1.130000000000000E-002   -8.717081017097827E-011
  1.140000000000000E-002   -7.819561395223209E-011
  1.150000000000000E-002   -6.177805230833217E-011
  1.160000000000000E-002   -3.928527417098015E-011
  1.170000000000000E-002   -1.273604809449337E-011
  1.180000000000000E-002    1.536721761950098E-011
  1.190000000000000E-002    4.226349750767084E-011
  1.200000000000000E-002    6.519613534118488E-011
  1.210000000000000E-002    8.168978576730706E-011
  1.220000000000000E-002    8.981453009372838E-011
  1.230000000000000E-002    8.840999779374251E-011
  1.240000000000000E-002    7.724474163303122E-011
  1.250000000000000E-002    5.709108124701318E-011
  1.260000000000000E-002    2.970285000787934E-011
  1.270000000000000E-002   -2.307560232306434E-012
  1.280000000000000E-002   -3.568667011461270E-011
  1.290000000000000E-002   -6.683580852113806E-011
  1.300000000000000E-002   -9.216058517152358E-011
  1.310000000000000E-002   -1.084422426173641E-010
  1.320000000000000E-002   -1.131948729990697E-010
  1.330000000000000E-002   -1.049718916466779E-010
  1.340000000000000E-002   -8.358772430614825E-011
  1.350000000000000E-002   -5.022696088189677E-011
  1.360000000000000E-002   -7.422869879873879E-012
  1.370000000000000E-002    4.110128428242238E-011
  1.380000000000000E-002    9.072130038315980E-011
  1.390000000000000E-002    1.363113670104709E-010
  1.400000000000000E-002    1.727214973877653E-010
  1.410000000000000E-002    1.952909742189085E-010
  1.420000000000000E-002    2.003495723103223E-010
  1.430000000000000E-002    1.856566625210056E-010
  1.440000000000000E-002    1.507309153060854E-010
  1.450000000000000E-002    9.703123819745799E-011
  1.460000000000000E-002    2.796163548929675E-011
  1.470000000000000E-002   -5.131196598931685E-011
  1.480000000000000E-002   -1.342272871262747E-010
  1.490000000000000E-002   -2.133501286656239E-010
  1.500000000000000E-002   -2.810170467448917E-010
  1.510000000000000E-002   -3.300423248182322E-010
  1.520000000000000E-002   -3.544251306107701E-010
  1.530000000000000E-002   -3.499899775565530E-010
  1.540000000000000E-002   -3.148946255541987E-010
  1.550000000000000E-002   -2.499503143968686E-010
  1.560000000000000E-002   -1.587122347028771E-010
  1.570000000000000E-002   -4.731896942205193E-011
  1.580000000000000E-002    7.591812755926910E-011
  1.590000000000000E-002    2.011507229211413E-010
  1.600000000000000E-002    3.178065347124171E-010
  1.610000000000000E-002    4.155123581220891E-010
  1.620000000000000E-002    4.850460242036269E-010
  1.630000000000000E-002    5.192289821839290E-010
  1.640000000000000E-002    5.136720627609945E-010
  1.650000000000000E-002    4.672974770913036E-010
  1.660000000000000E-002    3.825762179412053E-010
  1.670000000000000E-002    2.654453170876581E-010
  1.680000000000000E-002    1.248976266719385E-010
  1.690000000000000E-002   -2.773218318500811E-011
  1.700000000000000E-002   -1.797314757542657E-010
  1.710000000000000E-002   -3.181429291753511E-010
  1.720000000000000E-002   -4.309663927704889E-010
  1.730000000000000E-002   -5.083176432224114E-010
  1.740000000000000E-002   -5.434304991784220E-010
  1.750000000000000E-002   -5.333988119993667E-010
  1.760000000000000E-002   -4.795749668049953E-010
  1.770000000000000E-002   -3.875701370409208E-010
  1.780000000000000E-002   -2.668383040335718E-010
  1.790000000000000E-002   -1.298647393606199E-010
  1.800000000000000E-002    8.980698624127812E-012
  1.810000000000000E-002    1.348293590772216E-010
  1.820000000000000E-002    2.338150192882946E-010
  1.830000000000000E-002    2.945484996466057E-010
  1.840000000000000E-002    3.094202452867148E-010
  1.850000000000000E-002    2.755928620640380E-010
  1.860000000000000E-002    1.955701915803758E-010
  1.870000000000000E-002    7.726278335786267E-011