 -4.000000000000000E-002    0.000000000000000E+000
 -3.990000000000000E-002    0.000000000000000E+000
 -3.980000000000000E-002    0.000000000000000E+000
 -3.970000000000000E-002    0.000000000000000E+000
 -3.960000000000000E-002    0.000000000000000E+000
 -3.950000000000000E-002    0.000000000000000E+000
 -3.940000000000000E-002    0.000000000000000E+000
 -3.930000000000000E-002    0.000000000000000E+000
 -3.920000000000000E-002    0.000000000000000E+000
 -3.910000000000000E-002    0.000000000000000E+000
 -3.900000000000000E-002    0.000000000000000E+000
 -3.890000000000000E-002    0.000000000000000E+000
 -3.880000000000000E-002    0.000000000000000E+000
 -3.870000000000000E-002    0.000000000000000E+000
 -3.860000000000000E-002    0.000000000000000E+000
 -3.850000000000000E-002    0.000000000000000E+000
 -3.840000000000000E-002    0.000000000000000E+000
 -3.830000000000000E-002    0.000000000000000E+000
 -3.820000000000000E-002    0.000000000000000E+000
 -3.810000000000000E-002    0.000000000000000E+000
 -3.800000000000000E-002    0.000000000000000E+000
 -3.790000000000000E-002    0.000000000000000E+000
 -3.780000000000000E-002    0.000000000000000E+000
 -3.770000000000000E-002    0.000000000000000E+000
 -3.760000000000000E-002    0.000000000000000E+000
 -3.750000000000000E-002    0.000000000000000E+000
 -3.740000000000000E-002    0.000000000000000E+000
 -3.730000000000000E-002    0.000000000000000E+000
 -3.720000000000000E-002    0.000000000000000E+000
 -3.710000000000000E-002    0.000000000000000E+000
 -3.700000000000000E-002    0.000000000000000E+000
 -3.690000000000000E-002   -6.414635304221270E-048
 -3.680000000000000E-002   -6.977244119065092E-047
 -3.670000000000000E-002   -1.815205705869939E-046
 -3.660000000000000E-002   -4.790656941064783E-046
 -3.650000000000000E-002   -1.264296096356183E-045
 -3.640000000000000E-002   -2.946799202597439E-045
 -3.630000000000000E-002   -6.587313348865807E-045
 -3.620000000000000E-002   -1.396526470658050E-044
 -3.610000000000000E-002   -2.380845942983984E-044
 -3.600000000000000E-002   -3.153590743277431E-044
 -3.590000000000000E-002   -1.010482806569111E-044
 -3.580000000000000E-002    1.186907549990374E-043
 -3.570000000000000E-002    5.621441778365366E-043
 -3.560000000000000E-002    1.819672689167766E-042
 -3.550000000000000E-002    4.985100022454052E-042
 -3.540000000000000E-002    1.229574905376809E-041
 -3.530000000000000E-002    2.802779052493831E-041
 -3.520000000000000E-002    5.981739795209375E-041
 -3.510000000000000E-002    1.203162300222497E-040
 -3.500000000000000E-002    2.286761281386596E-040
 -3.490000000000000E-002    4.104541734626033E-040
 -3.480000000000000E-002    6.928666582556362E-040
 -3.470000000000000E-002    1.089569145868855E-039
 -3.460000000000000E-002    1.565052690859662E-039
 -3.450000000000000E-002    1.963467611941360E-039
 -3.440000000000000E-002    1.881231722233021E-039
 -3.430000000000000E-002    4.597976480800724E-040
 -3.420000000000000E-002   -3.920268015971995E-039
 -3.410000000000000E-002   -1.404098132274689E-038
 -3.400000000000000E-002   -3.428887508590205E-038
 -3.390000000000000E-002   -7.097959110898088E-038
 -3.380000000000000E-002   -1.322353443560581E-037
 -3.370000000000000E-002   -2.268261551867123E-037
 -3.360000000000000E-002   -3.610395915494497E-037
 -3.350000000000000E-002   -5.322467160804357E-037
 -3.340000000000000E-002   -7.174885229240663E-037
 -3.330000000000000E-002   -8.553217991319419E-037
 -3.320000000000000E-002   -8.196855531228489E-037
 -3.310000000000000E-002   -3.861906714054486E-037
 -3.300000000000000E-002    8.053359781894657E-037
 -3.290000000000000E-002    3.282255566004976E-036
 -3.280000000000000E-002    7.745545300083798E-036
 -3.270000000000000E-002    1.501985636067717E-035
 -3.260000000000000E-002    2.590082334180261E-035
 -3.250000000000000E-002    4.083829784221107E-035
 -3.240000000000000E-002    5.938437396574048E-035
 -3.230000000000000E-002    7.933891131707785E-035
 -3.220000000000000E-002    9.555518521023026E-035
 -3.210000000000000E-002    9.844020930662981E-035
 -3.200000000000000E-002    7.231592905069317E-035
 -3.190000000000000E-002   -5.985177455845212E-036
 -3.180000000000000E-002   -1.676266127971249E-034
 -3.170000000000000E-002   -4.503519507816931E-034
 -3.160000000000000E-002   -8.937320028855689E-034
 -3.150000000000000E-002   -1.529331147948140E-033
 -3.140000000000000E-002   -2.363925951527831E-033
 -3.130000000000000E-002   -3.354208615990568E-033
 -3.120000000000000E-002   -4.372402907710017E-033
 -3.110000000000000E-002   -5.164219044487073E-033
 -3.100000000000000E-002   -5.303866426447667E-033
 -3.090000000000000E-002   -4.155595977991809E-033
 -3.080000000000000E-002   -8.573707764849674E-034
 -3.070000000000000E-002    5.650738301261760E-033
 -3.060000000000000E-002    1.652411200778794E-032
 -3.050000000000000E-002    3.280321063088599E-032
 -3.040000000000000E-002    5.506179473887115E-032
 -3.030000000000000E-002    8.288927397548929E-032
 -3.020000000000000E-002    1.142043981995244E-031
 -3.010000000000000E-002    1.444359738150556E-031
 -3.000000000000000E-002    1.656641842469291E-031
 -2.990000000000000E-002    1.658937156981391E-031
 -2.980000000000000E-002    1.287228012946354E-031
 -2.970000000000000E-002    3.376926506640349E-032
 -2.960000000000000E-002   -1.417032266315420E-031
 -2.950000000000000E-002   -4.194773842406738E-031
 -2.940000000000000E-002   -8.149552725362127E-031
 -2.930000000000000E-002   -1.329343386059293E-030
 -2.920000000000000E-002   -1.939521358889193E-030
 -2.910000000000000E-002   -2.586209540790271E-030
 -2.900000000000000E-002   -3.161815685328603E-030
 -2.890000000000000E-002   -3.500293753348159E-030
 -2.880000000000000E-002   -3.372413195583346E-030
 -2.870000000000000E-002   -2.490848708334287E-030
 -2.860000000000000E-002   -5.302245281362489E-031
 -2.850000000000000E-002    2.832642296197879E-030
 -2.840000000000000E-002    7.853949117955981E-030
 -2.830000000000000E-002    1.463150324660051E-029
 -2.820000000000000E-002    2.298870351895879E-029
 -2.810000000000000E-002    3.234190814634585E-029
 -2.800000000000000E-002    4.156704428081549E-029
 -2.790000000000000E-002    4.889057322251881E-029
 -2.780000000000000E-002    5.183946678718689E-029
 -2.770000000000000E-002    4.729302539820483E-029
 -2.760000000000000E-002    3.168386282983167E-029
 -2.750000000000000E-002    1.393405884548210E-030
 -2.740000000000000E-002   -4.662448490549414E-029
 -2.730000000000000E-002   -1.139822188751143E-028
 -2.720000000000000E-002   -1.997885842440080E-028
 -2.710000000000000E-002   -2.994528314289812E-028
 -2.700000000000000E-002   -4.035108605070366E-028
 -2.690000000000000E-002   -4.966944358362346E-028
 -2.680000000000000E-002   -5.575329685482943E-028
 -2.670000000000000E-002   -5.588293046002303E-028
 -2.660000000000000E-002   -4.693669910304144E-028
 -2.650000000000000E-002   -2.571662430840131E-028
 -2.640000000000000E-002    1.055084261737478E-028
 -2.630000000000000E-002    6.353934053687710E-028
 -2.620000000000000E-002    1.330032221690755E-027
 -2.610000000000000E-002    2.158845637004657E-027
 -2.600000000000000E-002    3.054628143553690E-027
 -2.590000000000000E-002    3.907101396696151E-027
 -2.580000000000000E-002    4.560567603287633E-027
 -2.570000000000000E-002    4.817947451433485E-027
 -2.560000000000000E-002    4.453459907275391E-027
 -2.550000000000000E-002    3.235773348418889E-027
 -2.540000000000000E-002    9.625333674934588E-028
 -2.530000000000000E-002   -2.494310564444428E-027
 -2.520000000000000E-002   -7.134995930877108E-027
 -2.510000000000000E-002   -1.277535716193139E-026
 -2.500000000000000E-002   -1.899497008797470E-026
 -2.490000000000000E-002   -2.510042901898108E-026
 -2.480000000000000E-002   -3.011612649126510E-026
 -2.470000000000000E-002   -3.281568097196329E-026
 -2.460000000000000E-002   -3.180611625154171E-026
 -2.450000000000000E-002   -2.567345338506109E-026
 -2.440000000000000E-002   -1.319213237035131E-026
 -2.430000000000000E-002    6.408527087867718E-027
 -2.420000000000000E-002    3.313942238815205E-026
 -2.410000000000000E-002    6.594052370901784E-026
 -2.400000000000000E-002    1.024095972464830E-025
 -2.390000000000000E-002    1.386288698070039E-025
 -2.380000000000000E-002    1.691555021538985E-025
 -2.370000000000000E-002    1.872416645616654E-025
 -2.360000000000000E-002    1.853400657691907E-025
 -2.350000000000000E-002    1.559279172625800E-025
 -2.340000000000000E-002    9.264580228118914E-026
 -2.330000000000000E-002   -8.302296573478197E-027
 -2.320000000000000E-002   -1.466019266217444E-025
 -2.310000000000000E-002   -3.163135901791880E-025
 -2.300000000000000E-002   -5.046328801615630E-025
 -2.290000000000000E-002   -6.912150758541985E-025
 -2.280000000000000E-002   -8.483751189284002E-025
 -2.270000000000000E-002   -9.424558184269764E-025
 -2.260000000000000E-002   -9.365863767848464E-025
 -2.250000000000000E-002   -7.949247908509027E-025
 -2.240000000000000E-002   -4.882879104054238E-025
 -2.230000000000000E-002   -8.313079793094656E-028
 -2.220000000000000E-002    6.628373738206370E-025
 -2.210000000000000E-002    1.471008460698708E-024
 -2.200000000000000E-002    2.359827644832783E-024
 -2.190000000000000E-002    3.231166082931793E-024
 -2.180000000000000E-002    3.954731790444608E-024
 -2.170000000000000E-002    4.375582826659483E-024
 -2.160000000000000E-002    4.327809390490477E-024
 -2.150000000000000E-002    3.654511144920935E-024
 -2.140000000000000E-002    2.233320233695581E-024
 -2.130000000000000E-002    5.659844051190510E-027
 -2.120000000000000E-002   -2.993213359454079E-024
 -2.110000000000000E-002   -6.607437263714780E-024
 -2.100000000000000E-002   -1.054195118877508E-023
 -2.090000000000000E-002   -1.435744924215034E-023
 -2.080000000000000E-002   -1.748403014471255E-023
 -2.070000000000000E-002   -1.925772306359782E-023
 -2.060000000000000E-002   -1.898214453070544E-023
 -2.050000000000000E-002   -1.601470381532872E-023
 -2.040000000000000E-002   -9.873120404908442E-024
 -2.030000000000000E-002   -3.538037336388878E-025
 -2.020000000000000E-002    1.235064477511374E-023
 -2.010000000000000E-002    2.755144850059060E-023
 -2.000000000000000E-002    4.400051310110365E-023
 -1.990000000000000E-002    5.988427629959080E-023
 -1.980000000000000E-002    7.289298489766018E-023
 -1.970000000000000E-002    8.037897417240959E-023
 -1.960000000000000E-002    7.960940054742120E-023
 -1.950000000000000E-002    6.810744262562055E-023
 -1.940000000000000E-002    4.406219746669447E-023
 -1.930000000000000E-002    6.772071791982816E-024
 -1.920000000000000E-002   -4.292825189512282E-023
 -1.910000000000000E-002   -1.023197966635373E-022
 -1.900000000000000E-002   -1.666000159671138E-022
 -1.890000000000000E-002   -2.289022561274741E-022
 -1.880000000000000E-002   -2.805943376736694E-022
 -1.870000000000000E-002   -3.118967720078262E-022
 -1.860000000000000E-002   -3.128290527223995E-022
 -1.850000000000000E-002   -2.744518257772415E-022
 -1.840000000000000E-002   -1.903233663102149E-022
 -1.830000000000000E-002   -5.803854434250261E-023
 -1.820000000000000E-002    1.193295789110284E-022
 -1.810000000000000E-002    3.321010685405046E-022
 -1.800000000000000E-002    5.634071202331133E-022
 -1.790000000000000E-002    7.893788504142930E-022
 -1.780000000000000E-002    9.802902956111053E-022
 -1.770000000000000E-002    1.102763575384210E-021
 -1.760000000000000E-002    1.123032570686719E-021
 -1.750000000000000E-002    1.011123755748729E-021
 -1.740000000000000E-002    7.456556360373092E-022
 -1.730000000000000E-002    3.188004156571866E-022
 -1.720000000000000E-002   -2.591875441739978E-022
 -1.710000000000000E-002   -9.565685385172483E-022
 -1.700000000000000E-002   -1.718564206613218E-021
 -1.690000000000000E-002   -2.468322046533187E-021
 -1.680000000000000E-002   -3.110915116080570E-021
 -1.670000000000000E-002   -3.540628446935134E-021
 -1.660000000000000E-002   -3.651431057443383E-021
 -1.650000000000000E-002   -3.350097541602988E-021
 -1.640000000000000E-002   -2.570975029321007E-021
 -1.630000000000000E-002   -1.290933938201089E-021
 -1.620000000000000E-002    4.573348626799228E-022
 -1.610000000000000E-002    2.575752799717887E-021
 -1.600000000000000E-002    4.897115630495389E-021
 -1.590000000000000E-002    7.189051929773672E-021
 -1.580000000000000E-002    9.167022337303288E-021
 -1.570000000000000E-002    1.051687421973282E-020
 -1.560000000000000E-002    1.092640333256045E-020
 -1.550000000000000E-002    1.012409521149482E-020
 -1.540000000000000E-002    7.921924169935019E-021
 -1.530000000000000E-002    4.257835225353239E-021
 -1.520000000000000E-002   -7.674228957441583E-022
 -1.510000000000000E-002   -6.864949124095296E-021
 -1.500000000000000E-002   -1.354958586278097E-020
 -1.490000000000000E-002   -2.015395364209589E-020
 -1.480000000000000E-002   -2.586790566746592E-020
 -1.470000000000000E-002   -2.980426923650259E-020
 -1.460000000000000E-002   -3.108869559728758E-020
 -1.450000000000000E-002   -2.896799950263990E-020
 -1.440000000000000E-002   -2.292785210726907E-020
 -1.430000000000000E-002   -1.280759834320850E-020
 -1.420000000000000E-002    1.102403401771352E-021
 -1.410000000000000E-002    1.799644838834173E-020
 -1.400000000000000E-002    3.653714904036090E-020
 -1.390000000000000E-002    5.489921527476593E-020
 -1.380000000000000E-002    7.088106278762824E-020
 -1.370000000000000E-002    8.208512055180077E-020
 -1.360000000000000E-002    8.615971809586126E-020
 -1.350000000000000E-002    8.108658584674879E-020
 -1.340000000000000E-002    6.548911872154821E-020
 -1.330000000000000E-002    3.892896989082197E-020
 -1.320000000000000E-002    2.153420821998274E-021
 -1.310000000000000E-002   -4.274598898373498E-020
 -1.300000000000000E-002   -9.230021957567633E-020
 -1.290000000000000E-002   -1.417842517031071E-019
 -1.280000000000000E-002   -1.855100436856447E-019
 -1.270000000000000E-002   -2.172907886675396E-019
 -1.260000000000000E-002   -2.310557157361368E-019
 -1.250000000000000E-002   -2.215734346732109E-019
 -1.240000000000000E-002   -1.852203503042310E-019
 -1.230000000000000E-002   -1.207134725658380E-019
 -1.220000000000000E-002   -2.971542275873330E-020
 -1.210000000000000E-002    8.278289952178374E-020
 -1.200000000000000E-002    2.083890246756886E-019
 -1.190000000000000E-002    3.356116796585119E-019
 -1.180000000000000E-002    4.505752908277880E-019
 -1.170000000000000E-002    5.381414759567403E-019
 -1.160000000000000E-002    5.833836281891462E-019
 -1.150000000000000E-002    5.733104629062609E-019
 -1.140000000000000E-002    4.986871175345524E-019
 -1.130000000000000E-002    3.557633536621667E-019
 -1.120000000000000E-002    1.476947179404802E-019
 -1.110000000000000E-002   -1.145599805189592E-019
 -1.100000000000000E-002   -4.120604412219306E-019
 -1.090000000000000E-002   -7.185733350867585E-019
 -1.080000000000000E-002   -1.002202920877428E-018
 -1.070000000000000E-002   -1.227942044314640E-018
 -1.060000000000000E-002   -1.361018402652612E-018
 -1.050000000000000E-002   -1.370793726780390E-018
 -1.040000000000000E-002   -1.234872844182980E-018
 -1.030000000000000E-002   -9.429970745999236E-019
 -1.020000000000000E-002   -5.002481016738438E-019
 -1.010000000000000E-002    7.091158180166334E-020
 -1.000000000000000E-002    7.301869161355335E-019
 -9.899999999999999E-003    1.420899853259370E-018
 -9.800000000000000E-003    2.073493676334076E-018
 -9.699999999999999E-003    2.611041649820629E-018
 -9.599999999999999E-003    2.956474035704187E-018
 -9.500000000000000E-003    3.041001757595032E-018
 -9.399999999999999E-003    2.812998501394991E-018
 -9.299999999999999E-003    2.246430160690891E-018
 -9.200000000000000E-003    1.347830944315193E-018
 -9.099999999999999E-003    1.608250728608496E-019
 -8.999999999999999E-003   -1.232693397549318E-018
 -8.900000000000000E-003   -2.715374326172094E-018
 -8.799999999999999E-003   -4.141541366104059E-018
 -8.699999999999999E-003   -5.348525773069907E-018
 -8.600000000000000E-003   -6.171624753631554E-018
 -8.499999999999999E-003   -6.461599378150690E-018
 -8.399999999999999E-003   -6.103213598876299E-018
 -8.300000000000000E-003   -5.032949754665664E-018
 -8.199999999999999E-003   -3.253856743996198E-018
 -8.100000000000000E-003   -8.454959318371926E-019
 -8.000000000000000E-003    2.032828521515207E-018
 -7.899999999999999E-003    5.146911429690320E-018
 -7.800000000000000E-003    8.201236921455016E-018
 -7.699999999999999E-003    1.086115808279469E-017
 -7.599999999999999E-003    1.278256329126643E-017
 -7.499999999999999E-003    1.364696269521174E-017
 -7.399999999999999E-003    1.319904661197871E-017
 -7.299999999999999E-003    1.128309858188695E-017
 -7.199999999999999E-003    7.874239430323484E-018
 -7.100000000000000E-003    3.100458425808041E-018
 -6.999999999999999E-003   -2.748195156848751E-018
 -6.899999999999999E-003   -9.226044434560208E-018
 -6.800000000000000E-003   -1.575539791636798E-017
 -6.699999999999999E-003   -2.166725758388916E-017
 -6.599999999999999E-003   -2.625728582163703E-017
 -6.499999999999999E-003   -2.885334864668693E-017
 -6.399999999999999E-003   -2.888922622407225E-017
 -6.299999999999999E-003   -2.597775266141661E-017
 -6.199999999999999E-003   -1.997576517298605E-017
 -6.100000000000000E-003   -1.103310280504077E-017
 -5.999999999999999E-003    3.814972542346570E-019
 -5.899999999999999E-003    1.348333197047721E-017
 -5.800000000000000E-003    2.720703446140627E-017
 -5.699999999999999E-003    4.027493650676817E-017
 -5.599999999999999E-003    5.129590483000325E-017
 -5.499999999999999E-003    5.888865753491967E-017
 -5.399999999999999E-003    6.182040526779160E-017
 -5.299999999999999E-003    5.914883127032695E-017
 -5.199999999999999E-003    5.035370048682696E-017
 -5.099999999999999E-003    3.544365247277922E-017
 -4.999999999999999E-003    1.502447962463700E-017
 -4.899999999999999E-003   -9.682658889061097E-018
 -4.799999999999999E-003   -3.688120711709794E-017
 -4.699999999999999E-003   -6.430049726429047E-017
 -4.599999999999999E-003   -8.935591506538129E-017
 -4.499999999999999E-003   -1.093595101479784E-016
 -4.399999999999999E-003   -1.217664168684566E-016
 -4.299999999999999E-003   -1.244374446318294E-016
 -4.199999999999999E-003   -1.158940370489048E-016
 -4.099999999999999E-003   -9.554017017689943E-017
 -3.999999999999999E-003   -6.382537590299566E-017
 -3.899999999999999E-003   -2.232651216024880E-017
 -3.799999999999999E-003    2.626927915550375E-017
 -3.699999999999999E-003    7.829008348646718E-017
 -3.599999999999999E-003    1.293139488074006E-016
 -3.499999999999999E-003    1.745022033941935E-016
 -3.399999999999999E-003    2.090111550467649E-016
 -3.299999999999999E-003    2.284509100443917E-016
 -3.199999999999999E-003    2.293528525381118E-016
 -3.099999999999999E-003    2.096017398463388E-016
 -2.999999999999999E-003    1.687864906061606E-016
 -2.899999999999999E-003    1.084275773099338E-016
 -2.799999999999999E-003    3.204465156172231E-017
 -2.699999999999999E-003   -5.496008174583230E-017
 -2.599999999999999E-003   -1.456115181160353E-016
 -2.499999999999999E-003   -2.318563390628968E-016
 -2.399999999999999E-003   -3.052163474289372E-016
 -2.299999999999999E-003   -3.575540214432991E-016
 -2.199999999999999E-003   -3.818897368965357E-016
 -2.099999999999999E-003   -3.731971709361932E-016
 -1.999999999999999E-003   -3.290975380945159E-016
 -1.899999999999999E-003   -2.503732501862516E-016
 -1.799999999999999E-003   -1.412318951787405E-016
 -1.699999999999999E-003   -9.266115459693270E-018
 -1.599999999999999E-003    1.349222285028844E-016
 -1.499999999999999E-003    2.784339635804871E-016
 -1.399999999999999E-003    4.070895266342736E-016
 -1.299999999999999E-003    5.066883914186770E-016
 -1.199999999999999E-003    5.644127722603909E-016
 -1.099999999999999E-003    5.702572207889266E-016
 -9.999999999999989E-004    5.183452994160634E-016
 -8.999999999999990E-004    4.079900642423777E-016
 -7.999999999999990E-004    2.443638972620890E-016
 -6.999999999999989E-004    3.866531886061738E-017
 -5.999999999999990E-004   -1.922952836254967E-016
 -4.999999999999989E-004   -4.271195304714832E-016
 -3.999999999999989E-004   -6.414290397358920E-016
 -2.999999999999989E-004   -8.099679482440151E-016
 -1.999999999999989E-004   -9.090539584051640E-016
 -9.999999999999892E-005   -9.191795452161709E-016
  1.084202172485504E-018   -8.275225949414492E-016
  1.000000000000011E-004   -6.301095006223785E-016
  2.000000000000011E-004   -3.333714904737558E-016
  3.000000000000011E-004    4.513566832108841E-017
  4.000000000000011E-004    4.770253571975336E-016
  5.000000000000011E-004    9.244841521234783E-016
  6.000000000000011E-004    1.342794124101149E-015
  7.000000000000011E-004    1.683865531277708E-015
  8.000000000000011E-004    1.900562948000891E-015
  9.000000000000012E-004    1.951504146212447E-015
  1.000000000000001E-003    1.805924954621631E-015
  1.100000000000001E-003    1.448147024121520E-015
  1.200000000000001E-003    8.811653498982276E-016
  1.300000000000001E-003    1.288962499508035E-016
  1.400000000000001E-003   -7.632896319604384E-016
  1.500000000000001E-003   -1.730030074666390E-015
  1.600000000000001E-003   -2.689516486382092E-015
  1.700000000000001E-003   -3.549064514451605E-015
  1.800000000000001E-003   -4.212413475980535E-015
  1.900000000000001E-003   -4.588281935037794E-015
  2.000000000000001E-003   -4.599523329788310E-015
  2.100000000000001E-003   -4.192097418527124E-015
  2.200000000000001E-003   -3.343005379301785E-015
  2.300000000000001E-003   -2.066308723746849E-015
  2.400000000000001E-003   -4.164771536568276E-016
  2.500000000000001E-003    1.511558017886500E-015
  2.600000000000001E-003    3.586030404697956E-015
  2.700000000000001E-003    5.645699132111632E-015
  2.800000000000001E-003    7.510707368372739E-015
  2.900000000000001E-003    8.996311963594654E-015
  3.000000000000001E-003    9.928553048964300E-015
  3.100000000000001E-003    1.016066418131220E-014
  3.200000000000001E-003    9.588805335580978E-015
  3.300000000000001E-003    8.165662146765504E-015
  3.400000000000001E-003    5.910493969624642E-015
  3.500000000000001E-003    2.914370935671336E-015
  3.600000000000001E-003   -6.603077093454445E-016
  3.700000000000001E-003   -4.586489747424841E-015
  3.800000000000001E-003   -8.585362315053410E-015
  3.900000000000001E-003   -1.234484062336511E-014
  4.000000000000001E-003   -1.554256433216963E-014
  4.100000000000001E-003   -1.787177004153395E-014
  4.200000000000001E-003   -1.906805635212517E-014
  4.300000000000001E-003   -1.893477767575296E-014
  4.400000000000001E-003   -1.736480475539609E-014
  4.500000000000001E-003   -1.435646439399271E-014
  4.600000000000002E-003   -1.002190606280732E-014
  4.700000000000001E-003   -4.586547742722428E-015
  4.800000000000001E-003    1.620898961838208E-015
  4.900000000000002E-003    8.187675159552612E-015
  5.000000000000001E-003    1.464451030809427E-014
  5.100000000000001E-003    2.049961991265312E-014
  5.200000000000001E-003    2.527669988363243E-014
  5.300000000000002E-003    2.855398936171121E-014
  5.400000000000001E-003    3.000118584183508E-014
  5.500000000000001E-003    2.941087681139742E-014
  5.600000000000002E-003    2.672171220736382E-014
  5.700000000000001E-003    2.203072089688137E-014
  5.800000000000001E-003    1.559328240466973E-014
  5.900000000000002E-003    7.810045487191455E-015
  6.000000000000001E-003   -7.987818557210626E-016
  6.100000000000001E-003   -9.630196094762158E-015
  6.200000000000002E-003   -1.804372041284436E-014
  6.300000000000002E-003   -2.541187228935434E-014
  6.400000000000001E-003   -3.117164345015224E-014
  6.500000000000001E-003   -3.487287090129048E-014
  6.600000000000002E-003   -3.621904123264534E-014
  6.700000000000001E-003   -3.509673386097984E-014
  6.800000000000001E-003   -3.159064526577093E-014
  6.900000000000002E-003   -2.598202856957903E-014
  7.000000000000001E-003   -1.873008808377479E-014
  7.100000000000001E-003   -1.043673300810960E-014
  7.200000000000002E-003   -1.797084363020558E-015
  7.300000000000002E-003    6.460834590742206E-015
  7.400000000000001E-003    1.364243494681174E-014
  7.500000000000001E-003    1.915333976713187E-014
  7.600000000000002E-003    2.256079582383695E-014
  7.700000000000001E-003    2.364330142420092E-014
  7.800000000000001E-003    2.242349862264044E-014
  7.900000000000001E-003    1.917951516325198E-014
  8.000000000000002E-003    1.443210672326757E-014
  8.100000000000001E-003    8.906347212424684E-015
  8.200000000000001E-003    3.469201600487026E-015
  8.300000000000002E-003   -9.537191786671542E-016
  8.400000000000001E-003   -3.476365151282260E-015
  8.500000000000002E-003   -3.357878864272210E-015
  8.600000000000002E-003   -1.062047420561225E-016
  8.700000000000001E-003    6.430575190013376E-015
  8.800000000000002E-003    1.599559807800002E-014
  8.900000000000002E-003    2.788713840817969E-014
  9.000000000000001E-003    4.096318853247483E-014
  9.100000000000002E-003    5.369208060883992E-014
  9.200000000000002E-003    6.425119319221525E-014
  9.300000000000001E-003    7.067133655424681E-014
  9.400000000000002E-003    7.102025128153176E-014
  9.500000000000001E-003    6.361275883590952E-014
  9.600000000000001E-003    4.723275625973459E-014
  9.700000000000002E-003    2.134581616885178E-014
  9.800000000000001E-003   -1.371788416356564E-014
  9.900000000000001E-003   -5.663434182863283E-014
  1.000000000000000E-002   -1.050306996234033E-013
  1.010000000000000E-002   -1.555220448389892E-013
  1.020000000000000E-002   -2.038519874065614E-013
  1.030000000000000E-002   -2.451405924350819E-013
  1.040000000000000E-002   -2.742337786670865E-013
  1.050000000000000E-002   -2.861376054610975E-013
  1.060000000000000E-002   -2.765107760220998E-013
  1.070000000000000E-002   -2.421770923359959E-013
  1.080000000000000E-002   -1.816142442738211E-013
  1.090000000000000E-002   -9.536791768841984E-014
  1.100000000000000E-002    1.365839076627014E-014
  1.110000000000000E-002    1.400849977641271E-013
  1.120000000000000E-002    2.761461465674446E-013
  1.130000000000000E-002    4.120124427387628E-013
  1.140000000000000E-002    5.363501843450259E-013
  1.150000000000000E-002    6.371017334179588E-013
  1.160000000000000E-002    7.024446093324650E-013
  1.170000000000000E-002    7.218696856972997E-013
  1.180000000000000E-002    6.872925179683329E-013
  1.190000000000000E-002    5.941014194608556E-013
  1.200000000000000E-002    4.420366072247506E-013
  1.210000000000000E-002    2.357949592917048E-013
  1.220000000000000E-002   -1.473044345443897E-014
  1.230000000000000E-002   -2.946473680813437E-013
  1.240000000000000E-002   -5.847362225336029E-013
  1.250000000000000E-002   -8.625950122927730E-013
  1.260000000000000E-002   -1.104211933028839E-012
  1.270000000000000E-002   -1.285870513858346E-012
  1.280000000000000E-002   -1.386258348024640E-012
  1.290000000000000E-002   -1.388600267979989E-012
  1.300000000000000E-002   -1.282628959229239E-012
  1.310000000000000E-002   -1.066188097344061E-012
  1.320000000000000E-002   -7.462799802392343E-013
  1.330000000000000E-002   -3.393976539798911E-013
  1.340000000000000E-002    1.289674952802837E-013
  1.350000000000000E-002    6.256843880412709E-013
  1.360000000000000E-002    1.112174471436486E-012
  1.370000000000000E-002    1.547316947206684E-012
  1.380000000000000E-002    1.890871570215695E-012
  1.390000000000000E-002    2.107146423768686E-012
  1.400000000000000E-002    2.168594639318014E-012
  1.410000000000000E-002    2.058993244043239E-012
  1.420000000000000E-002    1.775861879866954E-012
  1.430000000000000E-002    1.331823224895597E-012
  1.440000000000000E-002    7.546765038130633E-013
  1.450000000000000E-002    8.605715640981096E-014
  1.460000000000000E-002   -6.213153047197990E-013
  1.470000000000000E-002   -1.307667190020201E-012
  1.480000000000000E-002   -1.911198545481574E-012
  1.490000000000000E-002   -2.373719587494403E-012
  1.500000000000000E-002   -2.646395819124794E-012
  1.510000000000000E-002   -2.695051648701308E-012
  1.520000000000000E-002   -2.504481790364539E-012
  1.530000000000000E-002   -2.081258228024967E-012
  1.540000000000000E-002   -1.454632435462143E-012
  1.550000000000000E-002   -6.752815538339753E-013
  1.560000000000000E-002    1.881597864596146E-013
  1.570000000000000E-002    1.054617076931607E-012
  1.580000000000000E-002    1.837773639967150E-012
  1.590000000000000E-002    2.454351938153210E-012
  1.600000000000000E-002    2.832749388920900E-012
  1.610000000000000E-002    2.921178387418060E-012
  1.620000000000000E-002    2.694442569086154E-012
  1.630000000000000E-002    2.158550259894982E-012
  1.640000000000000E-002    1.352503855814779E-012
  1.650000000000000E-002    3.468435042739980E-013
  1.660000000000000E-002   -7.611884798553428E-013
  1.670000000000000E-002   -1.855654614075360E-012
  1.680000000000000E-002   -2.812557450326150E-012
  1.690000000000000E-002   -3.512234113487906E-012
  1.700000000000000E-002   -3.852396193427305E-012
  1.710000000000000E-002   -3.760510050506043E-012
  1.720000000000000E-002   -3.204194255753773E-012
  1.730000000000000E-002   -2.198368809007677E-012
  1.740000000000000E-002   -8.081311950679958E-013
  1.750000000000000E-002    8.533398689577869E-013
  1.760000000000000E-002    2.632074060226419E-012
  1.770000000000000E-002    4.345548021218944E-012
  1.780000000000000E-002    5.799026009134690E-012
  1.790000000000000E-002    6.804750426997899E-012
  1.800000000000000E-002    7.202226554870410E-012
  1.810000000000000E-002    6.877654058459584E-012
  1.820000000000000E-002    5.780417877238968E-012
  1.830000000000000E-002    3.934678023685883E-012
  1.840000000000000E-002    1.444429193142351E-012
  1.850000000000000E-002   -1.509106220897692E-012
  1.860000000000000E-002   -4.678187589502740E-012
  1.870000000000000E-002   -7.767035721353209E-012