 -4.000000000000000E-002    0.000000000000000E+000
 -3.990000000000000E-002    0.000000000000000E+000
 -3.980000000000000E-002    0.000000000000000E+000
 -3.970000000000000E-002    0.000000000000000E+000
 -3.960000000000000E-002    0.000000000000000E+000
 -3.950000000000000E-002    0.000000000000000E+000
 -3.940000000000000E-002   -3.818777296190838E-024
 -3.930000000000000E-002   -4.349211836482878E-023
 -3.920000000000000E-002   -2.592772942491533E-022
 -3.910000000000000E-002   -1.067295139795977E-021
 -3.900000000000000E-002   -3.368466434708266E-021
 -3.890000000000000E-002   -8.535632406067521E-021
 -3.880000000000000E-002   -1.754033269939406E-020
 -3.870000000000000E-002   -2.815056265895561E-020
 -3.860000000000000E-002   -2.895169916590335E-020
 -3.850000000000000E-002    1.041540434712753E-020
 -3.840000000000000E-002    1.512079538338104E-019
 -3.830000000000000E-002    4.936485285085031E-019
 -3.820000000000000E-002    1.167952100545586E-018
 -3.810000000000000E-002    2.286155842852362E-018
 -3.800000000000000E-002    3.823987228956887E-018
 -3.790000000000000E-002    5.397809038200917E-018
 -3.780000000000000E-002    5.908560128425288E-018
 -3.770000000000000E-002    3.049306303578376E-018
 -3.760000000000000E-002   -7.275999584335169E-018
 -3.750000000000000E-002   -3.149570010453562E-017
 -3.740000000000000E-002   -7.864021917710538E-017
 -3.730000000000000E-002   -1.599820841131941E-016
 -3.720000000000000E-002   -2.875767237109735E-016
 -3.710000000000000E-002   -4.711736459243794E-016
 -3.700000000000000E-002   -7.130084854437009E-016
 -3.690000000000000E-002   -1.000182280465352E-015
 -3.680000000000000E-002   -1.294747041050314E-015
 -3.670000000000000E-002   -1.522265377294227E-015
 -3.660000000000000E-002   -1.560486902022902E-015
 -3.650000000000000E-002   -1.230839847047509E-015
 -3.640000000000000E-002   -2.964629903012815E-016
 -3.630000000000000E-002    1.528583708124885E-015
 -3.620000000000000E-002    4.553985887646044E-015
 -3.610000000000000E-002    9.067147493816866E-015
 -3.600000000000000E-002    1.526351262050348E-014
 -3.590000000000000E-002    2.315318005033746E-014
 -3.580000000000000E-002    3.244812892533110E-014
 -3.570000000000000E-002    4.243996487184795E-014
 -3.560000000000000E-002    5.188459609048016E-014
 -3.550000000000000E-002    5.891675276920221E-014
 -3.540000000000000E-002    6.102226346234888E-014
 -3.530000000000000E-002    5.509932949164591E-014
 -3.520000000000000E-002    3.763841736551915E-014
 -3.510000000000000E-002    5.044187801016592E-015
 -3.500000000000000E-002   -4.588958725325540E-014
 -3.490000000000000E-002   -1.173605624958603E-013
 -3.480000000000000E-002   -2.098266631840855E-013
 -3.470000000000000E-002   -3.212243776169039E-013
 -3.460000000000000E-002   -4.462271510835996E-013
 -3.450000000000000E-002   -5.756596533191925E-013
 -3.440000000000000E-002   -6.962010222208718E-013
 -3.430000000000000E-002   -7.905127265435263E-013
 -3.420000000000000E-002   -8.379133982205966E-013
 -3.410000000000000E-002   -8.156847590654653E-013
 -3.400000000000000E-002   -7.010357755287478E-013
 -3.390000000000000E-002   -4.736714026890651E-013
 -3.380000000000000E-002   -1.188222724667612E-013
 -3.370000000000000E-002    3.695124148177764E-013
 -3.360000000000000E-002    9.854431361763730E-013
 -3.350000000000000E-002    1.708598085385990E-012
 -3.340000000000000E-002    2.502503975252430E-012
 -3.330000000000000E-002    3.314365325571639E-012
 -3.320000000000000E-002    4.076596425139001E-012
 -3.310000000000000E-002    4.710323717534768E-012
 -3.300000000000000E-002    5.130877209915307E-012
 -3.290000000000000E-002    5.255055955032575E-012
 -3.280000000000000E-002    5.009678368109144E-012
 -3.270000000000000E-002    4.340684860758101E-012
 -3.260000000000000E-002    3.221831621756094E-012
 -3.250000000000000E-002    1.661889229838006E-012
 -3.240000000000000E-002   -2.907687938117535E-013
 -3.230000000000000E-002   -2.547185525268503E-012
 -3.220000000000000E-002   -4.981177040792785E-012
 -3.210000000000000E-002   -7.437361472516547E-012
 -3.200000000000000E-002   -9.743646493054340E-012
 -3.190000000000000E-002   -1.172738775460541E-011
 -3.180000000000000E-002   -1.323381965599023E-011
 -3.170000000000000E-002   -1.414481432760219E-011
 -3.160000000000000E-002   -1.439567075811463E-011
 -3.150000000000000E-002   -1.398746320905432E-011
 -3.140000000000000E-002   -1.299262056334987E-011
 -3.130000000000000E-002   -1.155187553271781E-011
 -3.120000000000000E-002   -9.861481363412573E-012
 -3.110000000000000E-002   -8.150681857401021E-012
 -3.100000000000000E-002   -6.650605230237484E-012
 -3.090000000000000E-002   -5.557146327089154E-012
 -3.080000000000000E-002   -4.991529748932230E-012
 -3.070000000000000E-002   -4.963316971804662E-012
 -3.060000000000000E-002   -5.341095565826952E-012
 -3.050000000000000E-002   -5.836166245239885E-012
 -3.040000000000000E-002   -6.003882174763596E-012
 -3.030000000000000E-002   -5.266030850578084E-012
 -3.020000000000000E-002   -2.955726971002002E-012
 -3.010000000000000E-002    1.616073095379897E-012
 -3.000000000000000E-002    9.076003490336011E-012
 -2.990000000000000E-002    1.989197370888636E-011
 -2.980000000000000E-002    3.427366451679042E-011
 -2.970000000000000E-002    5.208038479153900E-011
 -2.960000000000000E-002    7.274761264004430E-011
 -2.950000000000000E-002    9.524343695119385E-011
 -2.940000000000000E-002    1.180647297382037E-010
 -2.930000000000000E-002    1.392802156774012E-010
 -2.920000000000000E-002    1.566239455626455E-010
 -2.910000000000000E-002    1.676380041441514E-010
 -2.900000000000000E-002    1.698583878433121E-010
 -2.890000000000000E-002    1.610328614620707E-010
 -2.880000000000000E-002    1.393549038974988E-010
 -2.870000000000000E-002    1.036947730866038E-010
 -2.860000000000000E-002    5.380591244837977E-011
 -2.850000000000000E-002   -9.514596493729246E-012
 -2.840000000000000E-002   -8.433175408184087E-011
 -2.830000000000000E-002   -1.675606815311034E-010
 -2.820000000000000E-002   -2.550477358340882E-010
 -2.810000000000000E-002   -3.417483319059998E-010
 -2.800000000000000E-002   -4.219972625035696E-010
 -2.790000000000000E-002   -4.898585858066089E-010
 -2.780000000000000E-002   -5.395348144534006E-010
 -2.770000000000000E-002   -5.658077845577659E-010
 -2.760000000000000E-002   -5.644785892892664E-010
 -2.750000000000000E-002   -5.327712396502072E-010
 -2.740000000000000E-002   -4.696648263556943E-010
 -2.730000000000000E-002   -3.761211158943094E-010
 -2.720000000000000E-002   -2.551808252375284E-010
 -2.710000000000000E-002   -1.119096664397805E-010
 -2.700000000000000E-002    4.681439824309903E-011
 -2.690000000000000E-002    2.126691958066513E-010
 -2.680000000000000E-002    3.763957290953779E-010
 -2.670000000000000E-002    5.284163775636062E-010
 -2.660000000000000E-002    6.595246779512843E-010
 -2.650000000000000E-002    7.615966613975839E-010
 -2.640000000000000E-002    8.282699280203804E-010
 -2.630000000000000E-002    8.555309455882036E-010
 -2.620000000000000E-002    8.421556876920521E-010
 -2.610000000000000E-002    7.899522335764057E-010
 -2.600000000000000E-002    7.037675144583416E-010
 -2.590000000000000E-002    5.912337151049317E-010
 -2.580000000000000E-002    4.622506556269129E-010
 -2.570000000000000E-002    3.282214576670610E-010
 -2.560000000000000E-002    2.010830735960570E-010
 -2.550000000000000E-002    9.219563832212246E-011
 -2.540000000000000E-002    1.117545243581499E-011
 -2.530000000000000E-002   -3.522764344320670E-011
 -2.520000000000000E-002   -4.409914978327215E-011
 -2.510000000000000E-002   -1.706493311929044E-011
 -2.500000000000000E-002    3.936820203441400E-011
 -2.490000000000000E-002    1.139153650439297E-010
 -2.480000000000000E-002    1.911088822955984E-010
 -2.470000000000000E-002    2.523940143617789E-010
 -2.460000000000000E-002    2.776859390710867E-010
 -2.450000000000000E-002    2.472993889056305E-010
 -2.440000000000000E-002    1.441123766998012E-010
 -2.430000000000000E-002   -4.421598022942455E-011
 -2.420000000000000E-002   -3.231837007097545E-010
 -2.410000000000000E-002   -6.897653137264343E-010
 -2.400000000000000E-002   -1.131329300269741E-009
 -2.390000000000000E-002   -1.625341229884701E-009
 -2.380000000000000E-002   -2.139988006209475E-009
 -2.370000000000000E-002   -2.635783692239299E-009
 -2.360000000000000E-002   -3.068128699195388E-009
 -2.350000000000000E-002   -3.390694644206089E-009
 -2.340000000000000E-002   -3.559409031255307E-009
 -2.330000000000000E-002   -3.536725413274703E-009
 -2.320000000000000E-002   -3.295798036880236E-009
 -2.310000000000000E-002   -2.824145365951721E-009
 -2.300000000000000E-002   -2.126387046551270E-009
 -2.290000000000000E-002   -1.225686500671328E-009
 -2.280000000000000E-002   -1.636190853034893E-010
 -2.270000000000000E-002    1.001685061679725E-009
 -2.260000000000000E-002    2.199119188653872E-009
 -2.250000000000000E-002    3.349718516100844E-009
 -2.240000000000000E-002    4.372964058495998E-009
 -2.230000000000000E-002    5.193766129907807E-009
 -2.220000000000000E-002    5.749495750094396E-009
 -2.210000000000000E-002    5.996376426025586E-009
 -2.200000000000000E-002    5.914544148535331E-009
 -2.190000000000000E-002    5.511162180999110E-009
 -2.180000000000000E-002    4.821116549071278E-009
 -2.170000000000000E-002    3.905033830685496E-009
 -2.160000000000000E-002    2.844613190498921E-009
 -2.150000000000000E-002    1.735545124007013E-009
 -2.140000000000000E-002    6.785605327865751E-010
 -2.130000000000000E-002   -2.306007416972218E-010
 -2.120000000000000E-002   -9.113401037929880E-010
 -2.110000000000000E-002   -1.307417605403771E-009
 -2.100000000000000E-002   -1.394192137893090E-009
 -2.090000000000000E-002   -1.182977038404822E-009
 -2.080000000000000E-002   -7.218297663873586E-010
 -2.070000000000000E-002   -9.241950267732290E-011
 -2.060000000000000E-002    5.969928527832248E-010
 -2.050000000000000E-002    1.222015162417886E-009
 -2.040000000000000E-002    1.655181922795572E-009
 -2.030000000000000E-002    1.780416065570950E-009
 -2.020000000000000E-002    1.507479428833578E-009
 -2.010000000000000E-002    7.848754596160538E-010
 -2.000000000000000E-002   -3.902781228488957E-010
 -1.990000000000000E-002   -1.966679506981744E-009
 -1.980000000000000E-002   -3.838495516557310E-009
 -1.970000000000000E-002   -5.850675563841031E-009
 -1.960000000000000E-002   -7.809816090251947E-009
 -1.950000000000000E-002   -9.499878057838367E-009
 -1.940000000000000E-002   -1.070151702430355E-008
 -1.930000000000000E-002   -1.121334262088761E-008
 -1.920000000000000E-002   -1.087310958313016E-008
 -1.910000000000000E-002   -9.576742107357667E-009
 -1.900000000000000E-002   -7.293174252945821E-009
 -1.890000000000000E-002   -4.073312420641979E-009
 -1.880000000000000E-002   -5.190758545059627E-011
 -1.870000000000000E-002    4.558216283830662E-009
 -1.860000000000000E-002    9.479408251292245E-009
 -1.850000000000000E-002    1.438899035470843E-008
 -1.840000000000000E-002    1.894400514494358E-008
 -1.830000000000000E-002    2.280875325166813E-008
 -1.820000000000000E-002    2.568262773619832E-008
 -1.810000000000000E-002    2.732560531085079E-008
 -1.800000000000000E-002    2.757897747456537E-008
 -1.790000000000000E-002    2.637923559389390E-008
 -1.780000000000000E-002    2.376374416843715E-008
 -1.770000000000000E-002    1.986755960579594E-008
 -1.760000000000000E-002    1.491170295968026E-008
 -1.750000000000000E-002    9.184034233155655E-009
 -1.740000000000000E-002    3.014687130453602E-009
 -1.730000000000000E-002   -3.251384231225710E-009
 -1.720000000000000E-002   -9.281815646346484E-009
 -1.710000000000000E-002   -1.478122787642068E-008
 -1.700000000000000E-002   -1.950983756859520E-008
 -1.690000000000000E-002   -2.329409549090062E-008
 -1.680000000000000E-002   -2.602787503872267E-008
 -1.670000000000000E-002   -2.766371841607945E-008
 -1.660000000000000E-002   -2.819463999871658E-008
 -1.650000000000000E-002   -2.762798008525458E-008
 -1.640000000000000E-002   -2.595364475370253E-008
 -1.630000000000000E-002   -2.310972729305760E-008
 -1.620000000000000E-002   -1.894882040544896E-008
 -1.610000000000000E-002   -1.320839643760828E-008
 -1.600000000000000E-002   -5.488256398232254E-009
 -1.590000000000000E-002    4.762510137220064E-009
 -1.580000000000000E-002    1.824756924017738E-008
 -1.570000000000000E-002    3.581383980590306E-008
 -1.560000000000000E-002    5.843110009717026E-008
 -1.550000000000000E-002    8.716238557809071E-008
 -1.540000000000000E-002    1.231277356350053E-007
 -1.530000000000000E-002    1.674644991059557E-007
 -1.520000000000000E-002    2.212879734932106E-007
 -1.510000000000000E-002    2.856558003766914E-007
 -1.500000000000000E-002    3.615397329702645E-007
 -1.490000000000000E-002    4.498070281843710E-007
 -1.480000000000000E-002    5.512138827743016E-007
 -1.470000000000000E-002    6.664112360353398E-007
 -1.460000000000000E-002    7.959624925660574E-007
 -1.450000000000000E-002    9.403723073918410E-007
 -1.440000000000000E-002    1.100123338123851E-006
 -1.430000000000000E-002    1.275718679220630E-006
 -1.420000000000000E-002    1.467725925897488E-006
 -1.410000000000000E-002    1.676818777359325E-006
 -1.400000000000000E-002    1.903814669865976E-006
 -1.390000000000000E-002    2.149702679095196E-006
 -1.380000000000000E-002    2.415663010428867E-006
 -1.370000000000000E-002    2.703073035672662E-006
 -1.360000000000000E-002    3.013503259879412E-006
 -1.350000000000000E-002    3.348702386488967E-006
 -1.340000000000000E-002    3.710572012483030E-006
 -1.330000000000000E-002    4.101136380564680E-006
 -1.320000000000000E-002    4.522509009314224E-006
 -1.310000000000000E-002    4.976857808955078E-006
 -1.300000000000000E-002    5.466375161033237E-006
 -1.290000000000000E-002    5.993252523715383E-006
 -1.280000000000000E-002    6.559665372526136E-006
 -1.270000000000000E-002    7.167768967283181E-006
 -1.260000000000000E-002    7.819702901561133E-006
 -1.250000000000000E-002    8.517607770794943E-006
 -1.240000000000000E-002    9.263655542415065E-006
 -1.230000000000000E-002    1.006008170227563E-005
 -1.220000000000000E-002    1.090922910203698E-005
 -1.210000000000000E-002    1.181358798752235E-005
 -1.200000000000000E-002    1.277584393308931E-005
 -1.190000000000000E-002    1.379891168810445E-005
 -1.180000000000000E-002    1.488597255619910E-005
 -1.170000000000000E-002    1.604049517890725E-005
 -1.160000000000000E-002    1.726624975820231E-005
 -1.150000000000000E-002    1.856731100976678E-005
 -1.140000000000000E-002    1.994804785618280E-005
 -1.130000000000000E-002    2.141311067726368E-005
 -1.120000000000000E-002    2.296740468012884E-005
 -1.110000000000000E-002    2.461606329000923E-005
 -1.100000000000000E-002    2.636442167629557E-005
 -1.090000000000000E-002    2.821799858421760E-005
 -1.080000000000000E-002    3.018246828292470E-005
 -1.070000000000000E-002    3.226367096144666E-005
 -1.060000000000000E-002    3.446761042128375E-005
 -1.050000000000000E-002    3.680047437042445E-005
 -1.040000000000000E-002    3.926867951378365E-005
 -1.030000000000000E-002    4.187890963741054E-005
 -1.020000000000000E-002    4.463817535266644E-005
 -1.010000000000000E-002    4.755388458636589E-005
 -1.000000000000000E-002    5.063390041488461E-005
 -9.899999999999999E-003    5.388660841922260E-005
 -9.800000000000000E-003    5.732096169420676E-005
 -9.699999999999999E-003    6.094655020315780E-005
 -9.599999999999999E-003    6.477360597578214E-005
 -9.500000000000000E-003    6.881302920290579E-005
 -9.399999999999999E-003    7.307638313310221E-005
 -9.299999999999999E-003    7.757588376810103E-005
 -9.200000000000000E-003    8.232436521187689E-005
 -9.099999999999999E-003    8.733525944062587E-005
 -8.999999999999999E-003    9.262255372771892E-005
 -8.900000000000000E-003    9.820077515589478E-005
 -8.799999999999999E-003    1.040849814495782E-004
 -8.699999999999999E-003    1.102907470768321E-004
 -8.600000000000000E-003    1.168341957536556E-004
 -8.499999999999999E-003    1.237320698506583E-004
 -8.399999999999999E-003    1.310017582118918E-004
 -8.300000000000000E-003    1.386614133203412E-004
 -8.199999999999999E-003    1.467300546207116E-004
 -8.100000000000000E-003    1.552276729807603E-004
 -8.000000000000000E-003    1.641753362070443E-004
 -7.899999999999999E-003    1.735952895927648E-004
 -7.800000000000000E-003    1.835110620893632E-004
 -7.699999999999999E-003    1.939475331616004E-004
 -7.599999999999999E-003    2.049309477113400E-004
 -7.499999999999999E-003    2.164889509359967E-004
 -7.399999999999999E-003    2.286505516212461E-004
 -7.299999999999999E-003    2.414461353576199E-004
 -7.199999999999999E-003    2.549073535646084E-004
 -7.100000000000000E-003    2.690670977911049E-004
 -6.999999999999999E-003    2.839594254343093E-004
 -6.899999999999999E-003    2.996195074814609E-004
 -6.800000000000000E-003    3.160836548630558E-004
 -6.699999999999999E-003    3.333892638722604E-004
 -6.599999999999999E-003    3.515748880414672E-004
 -6.499999999999999E-003    3.706803011715380E-004
 -6.399999999999999E-003    3.907466442734498E-004
 -6.299999999999999E-003    4.118165542794850E-004
 -6.199999999999999E-003    4.339343303054954E-004
 -6.100000000000000E-003    4.571461679490047E-004
 -5.999999999999999E-003    4.815002970131226E-004
 -5.899999999999999E-003    5.070471848326618E-004
 -5.800000000000000E-003    5.338397361103857E-004
 -5.699999999999999E-003    5.619334044155249E-004
 -5.599999999999999E-003    5.913862147405120E-004
 -5.499999999999999E-003    6.222589999758044E-004
 -5.399999999999999E-003    6.546152465793146E-004
 -5.299999999999999E-003    6.885211741695882E-004
 -5.199999999999999E-003    7.240456741281200E-004
 -5.099999999999999E-003    7.612602647321830E-004
 -4.999999999999999E-003    8.002389616920076E-004
 -4.899999999999999E-003    8.410583668738188E-004
 -4.799999999999999E-003    8.837973422101728E-004
 -4.699999999999999E-003    9.285373265219625E-004
 -4.599999999999999E-003    9.753621427442324E-004
 -4.499999999999999E-003    1.024358148565168E-003
 -4.399999999999999E-003    1.075614175410449E-003
 -4.299999999999999E-003    1.129221936484298E-003
 -4.199999999999999E-003    1.185275970507378E-003
 -4.099999999999999E-003    1.243873948443804E-003
 -3.999999999999999E-003    1.305116803836201E-003
 -3.899999999999999E-003    1.369108981726748E-003
 -3.799999999999999E-003    1.435958619389051E-003
 -3.699999999999999E-003    1.505777666998090E-003
 -3.599999999999999E-003    1.578682340914023E-003
 -3.499999999999999E-003    1.654792692187487E-003
 -3.399999999999999E-003    1.734233138725235E-003
 -3.299999999999999E-003    1.817132489491459E-003
 -3.199999999999999E-003    1.903623850511453E-003
 -3.099999999999999E-003    1.993844397763338E-003
 -2.999999999999999E-003    2.087936084829164E-003
 -2.899999999999999E-003    2.186044691082786E-003
 -2.799999999999999E-003    2.288320699682323E-003
 -2.699999999999999E-003    2.394918662973007E-003
 -2.599999999999999E-003    2.505997309406777E-003
 -2.499999999999999E-003    2.621720102769920E-003
 -2.399999999999999E-003    2.742254524634451E-003
 -2.299999999999999E-003    2.867772607886880E-003
 -2.199999999999999E-003    2.998451031942393E-003
 -2.099999999999999E-003    3.134471127632370E-003
 -1.999999999999999E-003    3.276019041193689E-003
 -1.899999999999999E-003    3.423286018578065E-003
 -1.799999999999999E-003    3.576468468701879E-003
 -1.699999999999999E-003    3.735767433167492E-003
 -1.599999999999999E-003    3.901389715953312E-003
 -1.499999999999999E-003    4.073547561024484E-003
 -1.399999999999999E-003    4.252458171057614E-003
 -1.299999999999999E-003    4.438344568169477E-003
 -1.199999999999999E-003    4.631435592077577E-003
 -1.099999999999999E-003    4.831965255426169E-003
 -9.999999999999989E-004    5.040173177677045E-003
 -8.999999999999990E-004    5.256303689702542E-003
 -7.999999999999990E-004    5.480607776729811E-003
 -6.999999999999989E-004    5.713341031411248E-003
 -5.999999999999990E-004    5.954764352415437E-003
 -4.999999999999989E-004    6.205144727466848E-003
 -3.999999999999989E-004    6.464754055463327E-003
 -2.999999999999989E-004    6.733869192838787E-003
 -1.999999999999989E-004    7.012772881807277E-003
 -9.999999999999892E-005    7.301752895276180E-003
  1.084202172485504E-018    7.601103119991008E-003
  1.000000000000011E-004    7.911121929541796E-003
  2.000000000000011E-004    8.232113780530285E-003
  3.000000000000011E-004    8.564388241135902E-003
  4.000000000000011E-004    8.908260424402594E-003
  5.000000000000011E-004    9.264051524476846E-003
  6.000000000000011E-004    9.632086364089585E-003
  7.000000000000011E-004    1.001269631056369E-002
  8.000000000000011E-004    1.040621672167234E-002
  9.000000000000012E-004    1.081298795843038E-002
  1.000000000000001E-003    1.123335474328903E-002
  1.100000000000001E-003    1.166766619472087E-002
  1.200000000000001E-003    1.211627520324079E-002
  1.300000000000001E-003    1.257953941503181E-002
  1.400000000000001E-003    1.305781903334572E-002
  1.500000000000001E-003    1.355147677700665E-002
  1.600000000000001E-003    1.406088077455724E-002
  1.700000000000001E-003    1.458639956118860E-002
  1.800000000000001E-003    1.512840504802488E-002
  1.900000000000001E-003    1.568727208633888E-002
  2.000000000000001E-003    1.626337660329200E-002
  2.100000000000001E-003    1.685709825608117E-002
  2.200000000000001E-003    1.746881617669440E-002
  2.300000000000001E-003    1.809891200408985E-002
  2.400000000000001E-003    1.874776853970693E-002
  2.500000000000001E-003    1.941576961242605E-002
  2.600000000000001E-003    2.010330095379209E-002
  2.700000000000001E-003    2.081074526807994E-002
  2.800000000000001E-003    2.153848891614717E-002
  2.900000000000001E-003    2.228691484056852E-002
  3.000000000000001E-003    2.305640447597415E-002
  3.100000000000001E-003    2.384734090864501E-002
  3.200000000000001E-003    2.466010052473248E-002
  3.300000000000001E-003    2.549506053068702E-002
  3.400000000000001E-003    2.635259168447069E-002
  3.500000000000001E-003    2.723306464780341E-002
  3.600000000000001E-003    2.813683971935865E-002
  3.700000000000001E-003    2.906427623950901E-002
  3.800000000000001E-003    3.001572611279705E-002
  3.900000000000001E-003    3.099153317904455E-002
  4.000000000000001E-003    3.199203559536096E-002
  4.100000000000001E-003    3.301756050227020E-002
  4.200000000000001E-003    3.406843386305095E-002
  4.300000000000001E-003    3.514496267824690E-002
  4.400000000000001E-003    3.624745268621609E-002
  4.500000000000001E-003    3.737619246254167E-002
  4.600000000000002E-003    3.853146424219969E-002
  4.700000000000001E-003    3.971353311470265E-002
  4.800000000000001E-003    4.092265553065551E-002
  4.900000000000002E-003    4.215907302774050E-002
  5.000000000000001E-003    4.342300590765891E-002
  5.100000000000001E-003    4.471466674660048E-002
  5.200000000000001E-003    4.603425039263130E-002
  5.300000000000002E-003    4.738193042730043E-002
  5.400000000000001E-003    4.875786264378890E-002
  5.500000000000001E-003    5.016218759727109E-002
  5.600000000000002E-003    5.159501974774305E-002
  5.700000000000001E-003    5.305645703062985E-002
  5.800000000000001E-003    5.454657658934685E-002
  5.900000000000002E-003    5.606542497417456E-002
  6.000000000000001E-003    5.761302649428546E-002
  6.100000000000001E-003    5.918938547292638E-002
  6.200000000000002E-003    6.079448077514030E-002
  6.300000000000002E-003    6.242825402226898E-002
  6.400000000000001E-003    6.409062726566397E-002
  6.500000000000001E-003    6.578149356136714E-002
  6.600000000000002E-003    6.750071039095323E-002
  6.700000000000001E-003    6.924810720596809E-002
  6.800000000000001E-003    7.102347395654919E-002
  6.900000000000002E-003    7.282657919271991E-002
  7.000000000000001E-003    7.465715023704096E-002
  7.100000000000001E-003    7.651487268112515E-002
  7.200000000000002E-003    7.839940353009252E-002
  7.300000000000002E-003    8.031035272052939E-002
  7.400000000000001E-003    8.224730596970509E-002
  7.500000000000001E-003    8.420979416185112E-002
  7.600000000000002E-003    8.619730898972482E-002
  7.700000000000001E-003    8.820931093973901E-002
  7.800000000000001E-003    9.024520545807044E-002
  7.900000000000001E-003    9.230436001238944E-002
  8.000000000000002E-003    9.438608669073756E-002
  8.100000000000001E-003    9.648966688540625E-002
  8.200000000000001E-003    9.861432306409926E-002
  8.300000000000002E-003    0.100759234621798     
  8.400000000000001E-003    0.102923531196446     
  8.500000000000002E-003    0.105106293687758     
  8.600000000000002E-003    0.107306546251749     
  8.700000000000001E-003    0.109523266462527     
  8.800000000000002E-003    0.111755375348873     
  8.900000000000002E-003    0.114001750141215     
  9.000000000000001E-003    0.116261204824810     
  9.100000000000002E-003    0.118532502047800     
  9.200000000000002E-003    0.120814342703451     
  9.300000000000001E-003    0.123105378696652     
  9.400000000000002E-003    0.125404214597607     
  9.500000000000001E-003    0.127709376392030     
  9.600000000000001E-003    0.130019339615527     
  9.700000000000002E-003    0.132332516612883     
  9.800000000000001E-003    0.134647286994226     
  9.900000000000001E-003    0.136961945055240     
  1.000000000000000E-002    0.139274721941757     
  1.010000000000000E-002    0.141583814812399     
  1.020000000000000E-002    0.143887344352757     
  1.030000000000000E-002    0.146183365950345     
  1.040000000000000E-002    0.148469887284847     
  1.050000000000000E-002    0.150744861705383     
  1.060000000000000E-002    0.153006167466842     
  1.070000000000000E-002    0.155251634168451     
  1.080000000000000E-002    0.157479022038299     
  1.090000000000000E-002    0.159686052332435     
  1.100000000000000E-002    0.161870367376049     
  1.110000000000000E-002    0.164029573639896     
  1.120000000000000E-002    0.166161202561254     
  1.130000000000000E-002    0.168262735263188     
  1.140000000000000E-002    0.170331589834304     
  1.150000000000000E-002    0.172365143111205     
  1.160000000000000E-002    0.174360714693316     
  1.170000000000000E-002    0.176315556119018     
  1.180000000000000E-002    0.178226879645358     
  1.190000000000000E-002    0.180091860829665     
  1.200000000000000E-002    0.181907597303704     
  1.210000000000000E-002    0.183671161830311     
  1.220000000000000E-002    0.185379559503133     
  1.230000000000000E-002    0.187029775514268     
  1.240000000000000E-002    0.188618746765064     
  1.250000000000000E-002    0.190143352728970     
  1.260000000000000E-002    0.191600444252873     
  1.270000000000000E-002    0.192986853828979     
  1.280000000000000E-002    0.194299338941268     
  1.290000000000000E-002    0.195534668704663     
  1.300000000000000E-002    0.196689549324295     
  1.310000000000000E-002    0.197760672182239     
  1.320000000000000E-002    0.198744696860705     
  1.330000000000000E-002    0.199638272186898     
  1.340000000000000E-002    0.200438016694812     
  1.350000000000000E-002    0.201140525236338     
  1.360000000000000E-002    0.201742386008976     
  1.370000000000000E-002    0.202240177515784     
  1.380000000000000E-002    0.202630467309223     
  1.390000000000000E-002    0.202909807286647     
  1.400000000000000E-002    0.203074764354423     
  1.410000000000000E-002    0.203121907507343     
  1.420000000000000E-002    0.203047798887516     
  1.430000000000000E-002    0.202849022997979     
  1.440000000000000E-002    0.202522150163766     
  1.450000000000000E-002    0.202063801934614     
  1.460000000000000E-002    0.201470582985579     
  1.470000000000000E-002    0.200739159018065     
  1.480000000000000E-002    0.199866181924486     
  1.490000000000000E-002    0.198848371121738     
  1.500000000000000E-002    0.197682465267439     
  1.510000000000000E-002    0.196365233198431     
  1.520000000000000E-002    0.194893500992794     
  1.530000000000000E-002    0.193264128530707     
  1.540000000000000E-002    0.191474040739568     
  1.550000000000000E-002    0.189520200685176     
  1.560000000000000E-002    0.187399647749140     
  1.570000000000000E-002    0.185109476826813     
  1.580000000000000E-002    0.182646854645864     
  1.590000000000000E-002    0.180009006844199     
  1.600000000000000E-002    0.177193258164855     
  1.610000000000000E-002    0.174197007036361     
  1.620000000000000E-002    0.171017728164005     
  1.630000000000000E-002    0.167652988038596     
  1.640000000000000E-002    0.164100461480681     
  1.650000000000000E-002    0.160357914711292     
  1.660000000000000E-002    0.156423206961432     
  1.670000000000000E-002    0.152294332990267     
  1.680000000000000E-002    0.147969369131201     
  1.690000000000000E-002    0.143446523895634     
  1.700000000000000E-002    0.138724119687904     
  1.710000000000000E-002    0.133800606097802     
  1.720000000000000E-002    0.128674563382575     
  1.730000000000000E-002    0.123344694436321     
  1.740000000000000E-002    0.117809848729131     
  1.750000000000000E-002    0.112069003879260     
  1.760000000000000E-002    0.106121295478083     
  1.770000000000000E-002    9.996599931413008E-002
  1.780000000000000E-002    9.360253798161117E-002
  1.790000000000000E-002    8.703049911888264E-002
  1.800000000000000E-002    8.024962417617149E-002
  1.810000000000000E-002    7.325981211971530E-002
  1.820000000000000E-002    6.606113428591132E-002
  1.830000000000000E-002    5.865382342844289E-002
  1.840000000000000E-002    5.103828445879231E-002
  1.850000000000000E-002    4.321509839039034E-002
  1.860000000000000E-002    3.518501657010159E-002
  1.870000000000000E-002    2.694897183503277E-002