 -4.000000000000000E-002    0.000000000000000E+000
 -3.990000000000000E-002    0.000000000000000E+000
 -3.980000000000000E-002    0.000000000000000E+000
 -3.970000000000000E-002    0.000000000000000E+000
 -3.960000000000000E-002    0.000000000000000E+000
 -3.950000000000000E-002    0.000000000000000E+000
 -3.940000000000000E-002    0.000000000000000E+000
 -3.930000000000000E-002    0.000000000000000E+000
 -3.920000000000000E-002    0.000000000000000E+000
 -3.910000000000000E-002    0.000000000000000E+000
 -3.900000000000000E-002    0.000000000000000E+000
 -3.890000000000000E-002    0.000000000000000E+000
 -3.880000000000000E-002    0.000000000000000E+000
 -3.870000000000000E-002    0.000000000000000E+000
 -3.860000000000000E-002    0.000000000000000E+000
 -3.850000000000000E-002    0.000000000000000E+000
 -3.840000000000000E-002    0.000000000000000E+000
 -3.830000000000000E-002    0.000000000000000E+000
 -3.820000000000000E-002   -6.414635304221270E-048
 -3.810000000000000E-002   -1.309920353090068E-046
 -3.800000000000000E-002   -1.222320408150491E-045
 -3.790000000000000E-002   -7.116079500398414E-045
 -3.780000000000000E-002   -3.555354402287738E-044
 -3.770000000000000E-002   -1.444974385938492E-043
 -3.760000000000000E-002   -4.918515726867464E-043
 -3.750000000000000E-002   -1.331212825661343E-042
 -3.740000000000000E-002   -2.356437618717538E-042
 -3.730000000000000E-002    1.209470846973847E-042
 -3.720000000000000E-002    3.498688860921483E-041
 -3.710000000000000E-002    2.023217617130324E-040
 -3.700000000000000E-002    8.583611251097831E-040
 -3.690000000000000E-002    3.091655341639619E-039
 -3.680000000000000E-002    9.946573553044142E-039
 -3.670000000000000E-002    2.929422524284701E-038
 -3.660000000000000E-002    8.009931560571293E-038
 -3.650000000000000E-002    2.051517484116274E-037
 -3.640000000000000E-002    4.950881885566995E-037
 -3.630000000000000E-002    1.130193597972805E-036
 -3.620000000000000E-002    2.446455686380145E-036
 -3.610000000000000E-002    5.027062602454570E-036
 -3.600000000000000E-002    9.803179976512160E-036
 -3.590000000000000E-002    1.810711148440740E-035
 -3.580000000000000E-002    3.154046855671061E-035
 -3.570000000000000E-002    5.137993951727890E-035
 -3.560000000000000E-002    7.702667066920076E-035
 -3.550000000000000E-002    1.027118075998013E-034
 -3.540000000000000E-002    1.113427860033816E-034
 -3.530000000000000E-002    6.413730493253706E-035
 -3.520000000000000E-002   -1.151947749000670E-034
 -3.510000000000000E-002   -5.620412097710310E-034
 -3.500000000000000E-002   -1.496148209421866E-033
 -3.490000000000000E-002   -3.243611711819426E-033
 -3.480000000000000E-002   -6.240383734579588E-033
 -3.470000000000000E-002   -1.098957837773823E-032
 -3.460000000000000E-002   -1.792817874990577E-032
 -3.450000000000000E-002   -2.713974038258336E-032
 -3.440000000000000E-002   -3.783326356364182E-032
 -3.430000000000000E-002   -4.750420340905956E-032
 -3.420000000000000E-002   -5.071718785462151E-032
 -3.410000000000000E-002   -3.752343134977576E-032
 -3.400000000000000E-002    8.323057602867791E-033
 -3.390000000000000E-002    1.109295787657490E-031
 -3.380000000000000E-002    3.028050183392475E-031
 -3.370000000000000E-002    6.230648609526636E-031
 -3.360000000000000E-002    1.111405005603730E-030
 -3.350000000000000E-002    1.795401968355314E-030
 -3.340000000000000E-002    2.668402534297851E-030
 -3.330000000000000E-002    3.655552118560484E-030
 -3.320000000000000E-002    4.566827341610868E-030
 -3.310000000000000E-002    5.038811944265430E-030
 -3.300000000000000E-002    4.471923287253374E-030
 -3.290000000000000E-002    1.977218787964349E-030
 -3.280000000000000E-002   -3.643231363069073E-030
 -3.270000000000000E-002   -1.384687325815345E-029
 -3.260000000000000E-002   -3.018513985859870E-029
 -3.250000000000000E-002   -5.396680504250038E-029
 -3.240000000000000E-002   -8.569520987788043E-029
 -3.230000000000000E-002   -1.242389922863833E-028
 -3.220000000000000E-002   -1.657324055661221E-028
 -3.210000000000000E-002   -2.022670891073908E-028
 -3.200000000000000E-002   -2.205372659114567E-028
 -3.190000000000000E-002   -2.007347950467855E-028
 -3.180000000000000E-002   -1.161521144009432E-028
 -3.170000000000000E-002    6.588165987064089E-029
 -3.160000000000000E-002    3.809675394568784E-028
 -3.150000000000000E-002    8.616861268433461E-028
 -3.140000000000000E-002    1.528003855636318E-027
 -3.130000000000000E-002    2.373633617123807E-027
 -3.120000000000000E-002    3.348580402529171E-027
 -3.110000000000000E-002    4.339096654499254E-027
 -3.100000000000000E-002    5.147651503665746E-027
 -3.090000000000000E-002    5.477204166282148E-027
 -3.080000000000000E-002    4.925909171128107E-027
 -3.070000000000000E-002    3.000055870569945E-027
 -3.060000000000000E-002   -8.458923122245683E-028
 -3.050000000000000E-002   -7.133433005995176E-027
 -3.040000000000000E-002   -1.624162074383378E-026
 -3.030000000000000E-002   -2.824398709296399E-026
 -3.020000000000000E-002   -4.270629691167170E-026
 -3.010000000000000E-002   -5.846161396714425E-026
 -3.000000000000000E-002   -7.339301067092378E-026
 -2.990000000000000E-002   -8.426999930705899E-026
 -2.980000000000000E-002   -8.670005800674415E-026
 -2.970000000000000E-002   -7.526866367289584E-026
 -2.960000000000000E-002   -4.394558470421429E-026
 -2.950000000000000E-002    1.317293967304236E-026
 -2.940000000000000E-002    1.007417049043737E-025
 -2.930000000000000E-002    2.206662258445726E-025
 -2.920000000000000E-002    3.702970766692924E-025
 -2.910000000000000E-002    5.404840198125869E-025
 -2.900000000000000E-002    7.137631867825544E-025
 -2.890000000000000E-002    8.630639646296240E-025
 -2.880000000000000E-002    9.514193989885406E-025
 -2.870000000000000E-002    9.332252229856123E-025
 -2.860000000000000E-002    7.575827350084852E-025
 -2.850000000000000E-002    3.741549549462295E-025
 -2.840000000000000E-002   -2.582652488854797E-025
 -2.830000000000000E-002   -1.160649122800461E-024
 -2.820000000000000E-002   -2.320774100271777E-024
 -2.810000000000000E-002   -3.679725376088238E-024
 -2.800000000000000E-002   -5.119849851720401E-024
 -2.790000000000000E-002   -6.456800920754737E-024
 -2.780000000000000E-002   -7.438798189090273E-024
 -2.770000000000000E-002   -7.756386016428291E-024
 -2.760000000000000E-002   -7.065679518484906E-024
 -2.750000000000000E-002   -5.027145801055651E-024
 -2.740000000000000E-002   -1.360305098329397E-024
 -2.730000000000000E-002    4.087677204945766E-024
 -2.720000000000000E-002    1.126462431513034E-023
 -2.710000000000000E-002    1.983583681470797E-023
 -2.700000000000000E-002    2.911858974479386E-023
 -2.690000000000000E-002    3.804379595342100E-023
 -2.680000000000000E-002    4.516172458454481E-023
 -2.670000000000000E-002    4.870839440028021E-023
 -2.660000000000000E-002    4.674627561448068E-023
 -2.650000000000000E-002    3.738655313548917E-023
 -2.640000000000000E-002    1.909030377909194E-023
 -2.630000000000000E-002   -8.967289720890139E-024
 -2.620000000000000E-002   -4.650139436916250E-023
 -2.610000000000000E-002   -9.173902520309669E-023
 -2.600000000000000E-002   -1.411213683136436E-022
 -2.590000000000000E-002   -1.891618441279873E-022
 -2.580000000000000E-002   -2.285386594172982E-022
 -2.570000000000000E-002   -2.504932215830902E-022
 -2.560000000000000E-002   -2.455856960803596E-022
 -2.550000000000000E-002   -2.048228758991506E-022
 -2.540000000000000E-002   -1.211233973364041E-022
 -2.530000000000000E-002    8.977755128953888E-024
 -2.520000000000000E-002    1.835535656109123E-022
 -2.510000000000000E-002    3.936748000033323E-022
 -2.500000000000000E-002    6.222590117331357E-022
 -2.490000000000000E-002    8.437048459745271E-022
 -2.480000000000000E-002    1.024632740468587E-021
 -2.470000000000000E-002    1.125997519461989E-021
 -2.460000000000000E-002    1.106727642520062E-021
 -2.450000000000000E-002    9.288738830916312E-022
 -2.440000000000000E-002    5.640238513958458E-022
 -2.430000000000000E-002    4.774460018590491E-025
 -2.420000000000000E-002   -7.495968801585922E-022
 -2.410000000000000E-002   -1.644052857030134E-021
 -2.400000000000000E-002   -2.606912097688202E-021
 -2.390000000000000E-002   -3.528031481260911E-021
 -2.380000000000000E-002   -4.267460061249113E-021
 -2.370000000000000E-002   -4.665347400838029E-021
 -2.360000000000000E-002   -4.557755534856409E-021
 -2.350000000000000E-002   -3.797993002981132E-021
 -2.340000000000000E-002   -2.282203195870703E-021
 -2.330000000000000E-002    2.304856816159617E-023
 -2.320000000000000E-002    3.054398737555014E-021
 -2.310000000000000E-002    6.630534888420608E-021
 -2.300000000000000E-002    1.044074820942630E-020
 -2.290000000000000E-002    1.404765851540498E-020
 -2.280000000000000E-002    1.690793251294218E-020
 -2.270000000000000E-002    1.841347613786759E-020
 -2.260000000000000E-002    1.795348268516188E-020
 -2.250000000000000E-002    1.499500906414870E-020
 -2.240000000000000E-002    9.176545920029913E-021
 -2.230000000000000E-002    4.057468847534383E-022
 -2.220000000000000E-002   -1.105056517866371E-020
 -2.210000000000000E-002   -2.449828075686368E-020
 -2.200000000000000E-002   -3.878494875297380E-020
 -2.190000000000000E-002   -5.232010206630548E-020
 -2.180000000000000E-002   -6.315846273647108E-020
 -2.170000000000000E-002   -6.915224024380736E-020
 -2.160000000000000E-002   -6.817124903701666E-020
 -2.150000000000000E-002   -5.838041805159653E-020
 -2.140000000000000E-002   -3.855389742379698E-020
 -2.130000000000000E-002   -8.394758637050419E-021
 -2.120000000000000E-002    3.117946956338622E-020
 -2.110000000000000E-002    7.783100579695993E-020
 -2.100000000000000E-002    1.277226612254659E-019
 -2.090000000000000E-002    1.756078103820762E-019
 -2.080000000000000E-002    2.151209144827079E-019
 -2.070000000000000E-002    2.392819671121723E-019
 -2.060000000000000E-002    2.412045029851175E-019
 -2.050000000000000E-002    2.149681673267901E-019
 -2.040000000000000E-002    1.565863555928869E-019
 -2.030000000000000E-002    6.497073745719058E-020
 -2.020000000000000E-002   -5.722864290332161E-020
 -2.010000000000000E-002   -2.030420156866612E-019
 -2.000000000000000E-002   -3.609911036014146E-019
 -1.990000000000000E-002   -5.154082383879539E-019
 -1.980000000000000E-002   -6.473424808315198E-019
 -1.970000000000000E-002   -7.360762013464370E-019
 -1.960000000000000E-002   -7.612056183221112E-019
 -1.950000000000000E-002   -7.051578301422987E-019
 -1.940000000000000E-002   -5.559343418215585E-019
 -1.930000000000000E-002   -3.097964899443364E-019
 -1.920000000000000E-002    2.644783541066018E-020
 -1.910000000000000E-002    4.339221231852856E-019
 -1.900000000000000E-002    8.812760163734770E-019
 -1.890000000000000E-002    1.325687248574476E-018
 -1.880000000000000E-002    1.715453637863095E-018
 -1.870000000000000E-002    1.994198819187038E-018
 -1.860000000000000E-002    2.106529858999761E-018
 -1.850000000000000E-002    2.004768934562545E-018
 -1.840000000000000E-002    1.656175811818414E-018
 -1.830000000000000E-002    1.049897204273898E-018
 -1.820000000000000E-002    2.027538486138773E-019
 -1.810000000000000E-002   -8.370608103383234E-019
 -1.800000000000000E-002   -1.989237592743681E-018
 -1.790000000000000E-002   -3.144249444951937E-018
 -1.780000000000000E-002   -4.170271712344914E-018
 -1.770000000000000E-002   -4.924108336853325E-018
 -1.760000000000000E-002   -5.265619794493823E-018
 -1.750000000000000E-002   -5.074640561243855E-018
 -1.740000000000000E-002   -4.268871381745289E-018
 -1.730000000000000E-002   -2.820835960077601E-018
 -1.720000000000000E-002   -7.717253629673113E-019
 -1.710000000000000E-002    1.760079030873640E-018
 -1.700000000000000E-002    4.577827287963159E-018
 -1.690000000000000E-002    7.414074543744593E-018
 -1.680000000000000E-002    9.947992208157037E-018
 -1.670000000000000E-002    1.183209727992372E-017
 -1.660000000000000E-002    1.272704757134936E-017
 -1.650000000000000E-002    1.234197204665806E-017
 -1.640000000000000E-002    1.047669560212547E-017
 -1.630000000000000E-002    7.061360780935130E-018
 -1.620000000000000E-002    2.188413926122223E-018
 -1.610000000000000E-002   -3.868045021619466E-018
 -1.600000000000000E-002   -1.065003640448992E-017
 -1.590000000000000E-002   -1.753383751068735E-017
 -1.580000000000000E-002   -2.377003177397944E-017
 -1.570000000000000E-002   -2.854475108711259E-017
 -1.560000000000000E-002   -3.105884569204081E-017
 -1.550000000000000E-002   -3.061920484215962E-017
 -1.540000000000000E-002   -2.673403251539633E-017
 -1.530000000000000E-002   -1.920211708000712E-017
 -1.520000000000000E-002   -8.185165778953286E-018
 -1.510000000000000E-002    5.747676936767489E-018
 -1.500000000000000E-002    2.161259057784277E-017
 -1.490000000000000E-002    3.804802375946072E-017
 -1.480000000000000E-002    5.339892452629717E-017
 -1.470000000000000E-002    6.584659188029052E-017
 -1.460000000000000E-002    7.357727748265355E-017
 -1.450000000000000E-002    7.497718810830117E-017
 -1.440000000000000E-002    6.883693215800631E-017
 -1.430000000000000E-002    5.454472575110354E-017
 -1.420000000000000E-002    3.224572616264814E-017
 -1.410000000000000E-002    2.945261370338679E-018
 -1.400000000000000E-002   -3.146354730520988E-017
 -1.390000000000000E-002   -6.826216370104073E-017
 -1.380000000000000E-002   -1.040654115653266E-016
 -1.370000000000000E-002   -1.350741305136510E-016
 -1.360000000000000E-002   -1.574085043894513E-016
 -1.350000000000000E-002   -1.674983062687107E-016
 -1.340000000000000E-002   -1.624972002790498E-016
 -1.330000000000000E-002   -1.406808216487766E-016
 -1.320000000000000E-002   -1.017847716820039E-016
 -1.310000000000000E-002   -4.723872968319966E-017
 -1.300000000000000E-002    1.974199884322426E-017
 -1.290000000000000E-002    9.423608749878751E-017
 -1.280000000000000E-002    1.698826289276809E-016
 -1.270000000000000E-002    2.393308037464030E-016
 -1.260000000000000E-002    2.948517984561831E-016
 -1.250000000000000E-002    3.290703873431872E-016
 -1.240000000000000E-002    3.357575049824547E-016
 -1.230000000000000E-002    3.106101988977900E-016
 -1.220000000000000E-002    2.519378574625773E-016
 -1.210000000000000E-002    1.611724291666947E-016
 -1.200000000000000E-002    4.312910795139660E-017
 -1.190000000000000E-002   -9.404125165219819E-017
 -1.180000000000000E-002   -2.392409768672402E-016
 -1.170000000000000E-002   -3.791600562285444E-016
 -1.160000000000000E-002   -4.993240493650029E-016
 -1.150000000000000E-002   -5.853899654553724E-016
 -1.140000000000000E-002   -6.245898995302321E-016
 -1.130000000000000E-002   -6.071972384892466E-016
 -1.120000000000000E-002   -5.278713319021896E-016
 -1.110000000000000E-002   -3.867327392777343E-016
 -1.100000000000000E-002   -1.900297071010219E-016
 -1.090000000000000E-002    4.971928879660913E-017
 -1.080000000000000E-002    3.141843688995821E-016
 -1.070000000000000E-002    5.803098109193734E-016
 -1.060000000000000E-002    8.219977692949352E-016
 -1.050000000000000E-002    1.012294780770970E-015
 -1.040000000000000E-002    1.125928276032110E-015
 -1.030000000000000E-002    1.141988354781771E-015
 -1.020000000000000E-002    1.046512121571354E-015
 -1.010000000000000E-002    8.347070818118790E-016
 -1.000000000000000E-002    5.125591829397536E-016
 -9.899999999999999E-003    9.759321168297034E-017
 -9.800000000000000E-003   -3.813874021160742E-016
 -9.699999999999999E-003   -8.856777319525028E-016
 -9.599999999999999E-003   -1.369168244099522E-015
 -9.500000000000000E-003   -1.781859163290533E-015
 -9.399999999999999E-003   -2.074178745802561E-015
 -9.299999999999999E-003   -2.201793754416151E-015
 -9.200000000000000E-003   -2.130516010691449E-015
 -9.099999999999999E-003   -1.840852907482237E-015
 -8.999999999999999E-003   -1.331729122059309E-015
 -8.900000000000000E-003   -6.229295258141251E-016
 -8.799999999999999E-003    2.441211206544393E-016
 -8.699999999999999E-003    1.207522640550505E-015
 -8.600000000000000E-003    2.188127995465172E-015
 -8.499999999999999E-003    3.094802351444997E-015
 -8.399999999999999E-003    3.831454943107352E-015
 -8.300000000000000E-003    4.305417803303923E-015
 -8.199999999999999E-003    4.436559576697015E-015
 -8.100000000000000E-003    4.166371198027816E-015
 -8.000000000000000E-003    3.466182123808792E-015
 -7.899999999999999E-003    2.343638281521660E-015
 -7.800000000000000E-003    8.466241286189298E-016
 -7.699999999999999E-003   -9.360518494881377E-016
 -7.599999999999999E-003   -2.877668330990934E-015
 -7.499999999999999E-003   -4.820473667118176E-015
 -7.399999999999999E-003   -6.586296295234765E-015
 -7.299999999999999E-003   -7.990346801224642E-015
 -7.199999999999999E-003   -8.857342364591614E-015
 -7.100000000000000E-003   -9.038743587245836E-015
 -6.999999999999999E-003   -8.429648917540961E-015
 -6.899999999999999E-003   -6.983743633385375E-015
 -6.800000000000000E-003   -4.724696995034402E-015
 -6.699999999999999E-003   -1.752522219531652E-015
 -6.599999999999999E-003    1.756314093025985E-015
 -6.499999999999999E-003    5.555753480979148E-015
 -6.399999999999999E-003    9.344208801001128E-015
 -6.299999999999999E-003    1.278534997363238E-014
 -6.199999999999999E-003    1.553450339457957E-014
 -6.100000000000000E-003    1.726885795899391E-014
 -5.999999999999999E-003    1.771911959810719E-014
 -5.899999999999999E-003    1.669986238566007E-014
 -5.800000000000000E-003    1.413559483791621E-014
 -5.699999999999999E-003    1.007963266954855E-014
 -5.599999999999999E-003    4.723246116422068E-015
 -5.499999999999999E-003   -1.606861889071846E-015
 -5.399999999999999E-003   -8.463788121242357E-015
 -5.299999999999999E-003   -1.530832449547809E-014
 -5.199999999999999E-003   -2.154826683311417E-014
 -5.099999999999999E-003   -2.658665311683642E-014
 -4.999999999999999E-003   -2.987539133825919E-014
 -4.899999999999999E-003   -3.096975295673581E-014
 -4.799999999999999E-003   -2.957871902228779E-014
 -4.699999999999999E-003   -2.560601987694821E-014
 -4.599999999999999E-003   -1.917704180610353E-014
 -4.499999999999999E-003   -1.064766069344211E-014
 -4.399999999999999E-003   -5.923866783676890E-016
 -4.299999999999999E-003    1.022909406284430E-014
 -4.199999999999999E-003    2.092587297453397E-014
 -4.099999999999999E-003    3.054710311437648E-014
 -3.999999999999999E-003    3.816545609442578E-014
 -3.899999999999999E-003    4.296586258693516E-014
 -3.799999999999999E-003    4.433161747128235E-014
 -3.699999999999999E-003    4.191917645893224E-014
 -3.599999999999999E-003    3.571350966235659E-014
 -3.499999999999999E-003    2.605673314380997E-014
 -3.399999999999999E-003    1.364500582798222E-014
 -3.299999999999999E-003   -5.093424137778983E-016
 -3.199999999999999E-003   -1.514953466097396E-014
 -3.099999999999999E-003   -2.887639498980804E-014
 -2.999999999999999E-003   -4.027348579621222E-014
 -2.899999999999999E-003   -4.804527918568698E-014
 -2.799999999999999E-003   -5.115611930109069E-014
 -2.699999999999999E-003   -4.895649373547506E-014
 -2.599999999999999E-003   -4.128326273993124E-014
 -2.499999999999999E-003   -2.852149205122794E-014
 -2.399999999999999E-003   -1.161835431031159E-014
 -2.299999999999999E-003    7.957003443172617E-015
 -2.199999999999999E-003    2.830831448963224E-014
 -2.099999999999999E-003    4.725876953596131E-014
 -1.999999999999999E-003    6.253939897765574E-014
 -1.899999999999999E-003    7.200568629403801E-014
 -1.799999999999999E-003    7.386444712780091E-014
 -1.699999999999999E-003    6.689056081896311E-014
 -1.599999999999999E-003    5.061183481057534E-014
 -1.499999999999999E-003    2.544214802943467E-014
 -1.399999999999999E-003   -7.255573353421342E-015
 -1.299999999999999E-003   -4.518803830212105E-014
 -1.199999999999999E-003   -8.523948641996632E-014
 -1.099999999999999E-003   -1.236669586332971E-013
 -9.999999999999989E-004   -1.563742360982596E-013
 -8.999999999999990E-004   -1.792480914021866E-013
 -7.999999999999990E-004   -1.885325730393151E-013
 -6.999999999999989E-004   -1.812125148527369E-013
 -5.999999999999990E-004   -1.553738410575253E-013
 -4.999999999999989E-004   -1.105074163012732E-013
 -3.999999999999989E-004   -4.772421889730533E-014
 -2.999999999999989E-004    3.014438009969289E-014
 -1.999999999999989E-004    1.185816982405562E-013
 -9.999999999999892E-005    2.115654699702314E-013
  1.084202172485504E-018    3.018935695729739E-013
  1.000000000000011E-004    3.816417760125789E-013
  2.000000000000011E-004    4.427307076060698E-013
  3.000000000000011E-004    4.775672581241299E-013
  4.000000000000011E-004    4.797156310595755E-013
  5.000000000000011E-004    4.445500635946899E-013
  6.000000000000011E-004    3.698337471667259E-013
  7.000000000000011E-004    2.561722945168433E-013
  8.000000000000011E-004    1.072943359562257E-013
  9.000000000000012E-004   -6.988234468785690E-014
  1.000000000000001E-003   -2.654248519289210E-013
  1.100000000000001E-003   -4.668109716992115E-013
  1.200000000000001E-003   -6.596022126307390E-013
  1.300000000000001E-003   -8.283375484495660E-013
  1.400000000000001E-003   -9.576038454380582E-013
  1.500000000000001E-003   -1.033218081869884E-012
  1.600000000000001E-003   -1.043446076488610E-012
  1.700000000000001E-003   -9.801655953041083E-013
  1.800000000000001E-003   -8.398767530721437E-013
  1.900000000000001E-003   -6.244682824196638E-013
  2.000000000000001E-003   -3.416494746268742E-013
  2.100000000000001E-003   -4.978241139142974E-015
  2.200000000000001E-003    3.665624340373648E-013
  2.300000000000001E-003    7.494576998473331E-013
  2.400000000000001E-003    1.117002963149582E-012
  2.500000000000001E-003    1.441042118076688E-012
  2.600000000000001E-003    1.693999272094963E-012
  2.700000000000001E-003    1.851080070531577E-012
  2.800000000000001E-003    1.892473964069249E-012
  2.900000000000001E-003    1.805380595179501E-012
  3.000000000000001E-003    1.585671783526761E-012
  3.100000000000001E-003    1.239008387824356E-012
  3.200000000000001E-003    7.812634049002315E-013
  3.300000000000001E-003    2.381374058993905E-013
  3.400000000000001E-003   -3.560832581735260E-013
  3.500000000000001E-003   -9.606091936259661E-013
  3.600000000000001E-003   -1.530972421227569E-012
  3.700000000000001E-003   -2.022426796927204E-012
  3.800000000000001E-003   -2.393671919588128E-012
  3.900000000000001E-003   -2.610603743268002E-012
  4.000000000000001E-003   -2.649750018822352E-012
  4.100000000000001E-003   -2.501050327851503E-012
  4.200000000000001E-003   -2.169654192381655E-012
  4.300000000000001E-003   -1.676478166005864E-012
  4.400000000000001E-003   -1.057346321200648E-012
  4.500000000000001E-003   -3.606643133097091E-013
  4.600000000000002E-003    3.562941406150405E-013
  4.700000000000001E-003    1.032252067586162E-012
  4.800000000000001E-003    1.607588605681488E-012
  4.900000000000002E-003    2.030291495751106E-012
  5.000000000000001E-003    2.261645656777987E-012
  5.100000000000001E-003    2.281049435719634E-012
  5.200000000000001E-003    2.089373858433420E-012
  5.300000000000002E-003    1.710377980123987E-012
  5.400000000000001E-003    1.189829009714709E-012
  5.500000000000001E-003    5.921783301892395E-013
  5.600000000000002E-003   -5.109056765499751E-015
  5.700000000000001E-003   -5.192294642743421E-013
  5.800000000000001E-003   -8.711051899705570E-013
  5.900000000000002E-003   -9.950425066955852E-013
  6.000000000000001E-003   -8.479735878652468E-013
  6.100000000000001E-003   -4.172707844404978E-013
  6.200000000000002E-003    2.739236164549094E-013
  6.300000000000002E-003    1.164710313708964E-012
  6.400000000000001E-003    2.158430890636216E-012
  6.500000000000001E-003    3.128923416091350E-012
  6.600000000000002E-003    3.930909976558491E-012
  6.700000000000001E-003    4.413927929572941E-012
  6.800000000000001E-003    4.438751392767874E-012
  6.900000000000002E-003    3.894871042518269E-012
  7.000000000000001E-003    2.717334420550107E-012
  7.100000000000001E-003    9.010280080798674E-013
  7.200000000000002E-003   -1.489389668509320E-012
  7.300000000000002E-003   -4.315549227299027E-012
  7.400000000000001E-003   -7.368590520244719E-012
  7.500000000000001E-003   -1.038016249397529E-011
  7.600000000000002E-003   -1.304104382753420E-011
  7.700000000000001E-003   -1.502646740635418E-011
  7.800000000000001E-003   -1.602644297575885E-011
  7.900000000000001E-003   -1.577859993355602E-011
  8.000000000000002E-003   -1.410061068065426E-011
  8.100000000000001E-003   -1.091888129858315E-011
  8.200000000000001E-003   -6.290236571319686E-012
  8.300000000000002E-003   -4.136122978609154E-013
  8.400000000000001E-003    6.370531373593806E-012
  8.500000000000002E-003    1.359444982076572E-011
  8.600000000000002E-003    2.069113089046518E-011
  8.700000000000001E-003    2.703494408857284E-011
  8.800000000000002E-003    3.199232326827074E-011
  8.900000000000002E-003    3.497875697375005E-011
  9.000000000000001E-003    3.551723156260609E-011
  9.100000000000002E-003    3.329277168135615E-011
  9.200000000000002E-003    2.819746348188083E-011
  9.300000000000001E-003    2.036080638170255E-011
  9.400000000000002E-003    1.016110461528464E-011
  9.500000000000001E-003   -1.784939800757576E-012
  9.600000000000001E-003   -1.465543921771175E-011
  9.700000000000002E-003   -2.747823317416180E-011
  9.800000000000001E-003   -3.920431533641591E-011
  9.900000000000001E-003   -4.879433270944224E-011
  1.000000000000000E-002   -5.531125604251435E-011
  1.010000000000000E-002   -5.801098995697607E-011
  1.020000000000000E-002   -5.642226394472716E-011
  1.030000000000000E-002   -5.040748161010553E-011
  1.040000000000000E-002   -4.019744676697823E-011
  1.050000000000000E-002   -2.639469481105093E-011
  1.060000000000000E-002   -9.942950733762114E-012
  1.070000000000000E-002    7.936835539686044E-012
  1.080000000000000E-002    2.584006417108457E-011
  1.090000000000000E-002    4.229482765838821E-011
  1.100000000000000E-002    5.589147330443840E-011
  1.110000000000000E-002    6.541376709368606E-011
  1.120000000000000E-002    6.995937619132632E-011
  1.130000000000000E-002    6.903731592188008E-011
  1.140000000000000E-002    6.263160428443956E-011
  1.150000000000000E-002    5.122292234063672E-011
  1.160000000000000E-002    3.576367536470262E-011
  1.170000000000000E-002    1.760609923640076E-011
  1.180000000000000E-002   -1.612195796082048E-012
  1.190000000000000E-002   -2.011653315008994E-011
  1.200000000000000E-002   -3.616452942746228E-011
  1.210000000000000E-002   -4.822089005095294E-011
  1.220000000000000E-002   -5.512041277719837E-011
  1.230000000000000E-002   -5.620209468614079E-011
  1.240000000000000E-002   -5.139902575844089E-011
  1.250000000000000E-002   -4.127221568383053E-011
  1.260000000000000E-002   -2.698142829651561E-011
  1.270000000000000E-002   -1.019198090388217E-011
  1.280000000000000E-002    7.076997996910702E-012
  1.290000000000000E-002    2.265112061214593E-011
  1.300000000000000E-002    3.442874742955156E-011
  1.310000000000000E-002    4.061691183924160E-011
  1.320000000000000E-002    3.995125495493673E-011
  1.330000000000000E-002    3.187608257067608E-011
  1.340000000000000E-002    1.666305512964410E-011
  1.350000000000000E-002   -4.548377092112804E-012
  1.360000000000000E-002   -2.979880601701247E-011
  1.370000000000000E-002   -5.644681995104021E-011
  1.380000000000000E-002   -8.138975361016229E-011
  1.390000000000000E-002   -1.013512762142018E-010
  1.400000000000000E-002   -1.132115011242937E-010
  1.410000000000000E-002   -1.143495546305650E-010
  1.420000000000000E-002   -1.029650066439840E-010
  1.430000000000000E-002   -7.834399069103125E-011
  1.440000000000000E-002   -4.103911548720468E-011
  1.450000000000000E-002    7.061529174024904E-012
  1.460000000000000E-002    6.279170626597619E-011
  1.470000000000000E-002    1.218948507068169E-010
  1.480000000000000E-002    1.793337220297371E-010
  1.490000000000000E-002    2.297008439215810E-010
  1.500000000000000E-002    2.676971711754127E-010
  1.510000000000000E-002    2.886373788901728E-010
  1.520000000000000E-002    2.889352452188247E-010
  1.530000000000000E-002    2.665205531179195E-010
  1.540000000000000E-002    2.211431689823733E-010
  1.550000000000000E-002    1.545273827627673E-010
  1.560000000000000E-002    7.035219624750197E-011
  1.570000000000000E-002   -2.595184730769959E-011
  1.580000000000000E-002   -1.275812471238376E-010
  1.590000000000000E-002   -2.268883361862728E-010
  1.600000000000000E-002   -3.160186102788126E-010
  1.610000000000000E-002   -3.876025638179262E-010
  1.620000000000000E-002   -4.354389801170272E-010
  1.630000000000000E-002   -4.551040452089774E-010
  1.640000000000000E-002   -4.444240169420533E-010
  1.650000000000000E-002   -4.037589486534742E-010
  1.660000000000000E-002   -3.360600492481018E-010
  1.670000000000000E-002   -2.466834703288009E-010
  1.680000000000000E-002   -1.429658007656880E-010
  1.690000000000000E-002   -3.359016410010990E-011
  1.700000000000000E-002    7.220604903338877E-011
  1.710000000000000E-002    1.655127609351679E-010
  1.720000000000000E-002    2.386361142656312E-010
  1.730000000000000E-002    2.859074186150855E-010
  1.740000000000000E-002    3.043276524341650E-010
  1.750000000000000E-002    2.939747612244959E-010
  1.760000000000000E-002    2.581192676455324E-010
  1.770000000000000E-002    2.030198729762359E-010
  1.780000000000000E-002    1.373999966345916E-010
  1.790000000000000E-002    7.163765068594211E-011
  1.800000000000000E-002    1.673143994030921E-011
  1.810000000000000E-002   -1.686983905349980E-011
  1.820000000000000E-002   -2.046626515426525E-011
  1.830000000000000E-002    1.178131707759196E-011
  1.840000000000000E-002    8.194177454191655E-011
  1.850000000000000E-002    1.877098268539691E-010
  1.860000000000000E-002    3.221875062406507E-010
  1.870000000000000E-002    4.740993743264156E-010