 -4.000000000000000E-002    0.000000000000000E+000
 -3.990000000000000E-002    0.000000000000000E+000
 -3.980000000000000E-002    0.000000000000000E+000
 -3.970000000000000E-002    0.000000000000000E+000
 -3.960000000000000E-002    0.000000000000000E+000
 -3.950000000000000E-002    0.000000000000000E+000
 -3.940000000000000E-002    0.000000000000000E+000
 -3.930000000000000E-002    0.000000000000000E+000
 -3.920000000000000E-002    0.000000000000000E+000
 -3.910000000000000E-002    0.000000000000000E+000
 -3.900000000000000E-002    0.000000000000000E+000
 -3.890000000000000E-002    0.000000000000000E+000
 -3.880000000000000E-002    0.000000000000000E+000
 -3.870000000000000E-002    0.000000000000000E+000
 -3.860000000000000E-002    0.000000000000000E+000
 -3.850000000000000E-002    0.000000000000000E+000
 -3.840000000000000E-002    0.000000000000000E+000
 -3.830000000000000E-002    0.000000000000000E+000
 -3.820000000000000E-002    0.000000000000000E+000
 -3.810000000000000E-002    0.000000000000000E+000
 -3.800000000000000E-002    0.000000000000000E+000
 -3.790000000000000E-002    0.000000000000000E+000
 -3.780000000000000E-002    0.000000000000000E+000
 -3.770000000000000E-002    0.000000000000000E+000
 -3.760000000000000E-002    0.000000000000000E+000
 -3.750000000000000E-002    0.000000000000000E+000
 -3.740000000000000E-002    0.000000000000000E+000
 -3.730000000000000E-002    0.000000000000000E+000
 -3.720000000000000E-002    0.000000000000000E+000
 -3.710000000000000E-002    0.000000000000000E+000
 -3.700000000000000E-002    0.000000000000000E+000
 -3.690000000000000E-002    0.000000000000000E+000
 -3.680000000000000E-002    0.000000000000000E+000
 -3.670000000000000E-002    0.000000000000000E+000
 -3.660000000000000E-002    0.000000000000000E+000
 -3.650000000000000E-002    0.000000000000000E+000
 -3.640000000000000E-002    0.000000000000000E+000
 -3.630000000000000E-002    0.000000000000000E+000
 -3.620000000000000E-002    0.000000000000000E+000
 -3.610000000000000E-002    0.000000000000000E+000
 -3.600000000000000E-002    0.000000000000000E+000
 -3.590000000000000E-002    0.000000000000000E+000
 -3.580000000000000E-002    0.000000000000000E+000
 -3.570000000000000E-002    0.000000000000000E+000
 -3.560000000000000E-002    0.000000000000000E+000
 -3.550000000000000E-002    0.000000000000000E+000
 -3.540000000000000E-002    0.000000000000000E+000
 -3.530000000000000E-002    0.000000000000000E+000
 -3.520000000000000E-002    0.000000000000000E+000
 -3.510000000000000E-002    0.000000000000000E+000
 -3.500000000000000E-002    0.000000000000000E+000
 -3.490000000000000E-002    0.000000000000000E+000
 -3.480000000000000E-002    0.000000000000000E+000
 -3.470000000000000E-002    0.000000000000000E+000
 -3.460000000000000E-002    0.000000000000000E+000
 -3.450000000000000E-002    0.000000000000000E+000
 -3.440000000000000E-002    0.000000000000000E+000
 -3.430000000000000E-002    0.000000000000000E+000
 -3.420000000000000E-002    0.000000000000000E+000
 -3.410000000000000E-002    0.000000000000000E+000
 -3.400000000000000E-002    0.000000000000000E+000
 -3.390000000000000E-002    0.000000000000000E+000
 -3.380000000000000E-002    0.000000000000000E+000
 -3.370000000000000E-002    0.000000000000000E+000
 -3.360000000000000E-002    0.000000000000000E+000
 -3.350000000000000E-002    0.000000000000000E+000
 -3.340000000000000E-002    0.000000000000000E+000
 -3.330000000000000E-002    0.000000000000000E+000
 -3.320000000000000E-002    0.000000000000000E+000
 -3.310000000000000E-002    0.000000000000000E+000
 -3.300000000000000E-002    0.000000000000000E+000
 -3.290000000000000E-002    0.000000000000000E+000
 -3.280000000000000E-002    0.000000000000000E+000
 -3.270000000000000E-002    0.000000000000000E+000
 -3.260000000000000E-002    0.000000000000000E+000
 -3.250000000000000E-002    0.000000000000000E+000
 -3.240000000000000E-002    0.000000000000000E+000
 -3.230000000000000E-002    0.000000000000000E+000
 -3.220000000000000E-002    0.000000000000000E+000
 -3.210000000000000E-002    0.000000000000000E+000
 -3.200000000000000E-002    0.000000000000000E+000
 -3.190000000000000E-002    0.000000000000000E+000
 -3.180000000000000E-002    0.000000000000000E+000
 -3.170000000000000E-002    0.000000000000000E+000
 -3.160000000000000E-002    0.000000000000000E+000
 -3.150000000000000E-002    0.000000000000000E+000
 -3.140000000000000E-002    0.000000000000000E+000
 -3.130000000000000E-002    0.000000000000000E+000
 -3.120000000000000E-002    0.000000000000000E+000
 -3.110000000000000E-002    0.000000000000000E+000
 -3.100000000000000E-002    0.000000000000000E+000
 -3.090000000000000E-002    0.000000000000000E+000
 -3.080000000000000E-002    0.000000000000000E+000
 -3.070000000000000E-002    0.000000000000000E+000
 -3.060000000000000E-002    0.000000000000000E+000
 -3.050000000000000E-002    0.000000000000000E+000
 -3.040000000000000E-002    0.000000000000000E+000
 -3.030000000000000E-002    0.000000000000000E+000
 -3.020000000000000E-002    0.000000000000000E+000
 -3.010000000000000E-002    0.000000000000000E+000
 -3.000000000000000E-002    0.000000000000000E+000
 -2.990000000000000E-002    0.000000000000000E+000
 -2.980000000000000E-002    0.000000000000000E+000
 -2.970000000000000E-002    0.000000000000000E+000
 -2.960000000000000E-002    0.000000000000000E+000
 -2.950000000000000E-002    0.000000000000000E+000
 -2.940000000000000E-002    0.000000000000000E+000
 -2.930000000000000E-002    0.000000000000000E+000
 -2.920000000000000E-002    0.000000000000000E+000
 -2.910000000000000E-002    0.000000000000000E+000
 -2.900000000000000E-002    0.000000000000000E+000
 -2.890000000000000E-002    0.000000000000000E+000
 -2.880000000000000E-002    0.000000000000000E+000
 -2.870000000000000E-002    0.000000000000000E+000
 -2.860000000000000E-002    0.000000000000000E+000
 -2.850000000000000E-002    0.000000000000000E+000
 -2.840000000000000E-002    0.000000000000000E+000
 -2.830000000000000E-002   -6.414635304221270E-048
 -2.820000000000000E-002   -1.282927060844254E-047
 -2.810000000000000E-002   -1.282927060844254E-047
 -2.800000000000000E-002   -1.282927060844254E-047
 -2.790000000000000E-002    2.138211768073757E-048
 -2.780000000000000E-002    8.046350003101970E-047
 -2.770000000000000E-002    2.050409000358052E-046
 -2.760000000000000E-002    4.563339118134501E-046
 -2.750000000000000E-002    8.173035787708106E-046
 -2.740000000000000E-002    1.296436010428735E-045
 -2.730000000000000E-002    1.861724767817565E-045
 -2.720000000000000E-002    2.403493195757582E-045
 -2.710000000000000E-002    2.613866021785887E-045
 -2.700000000000000E-002    2.449745317688987E-045
 -2.690000000000000E-002    9.347840747526791E-046
 -2.680000000000000E-002   -1.034190924469585E-045
 -2.670000000000000E-002   -5.216787992352346E-045
 -2.660000000000000E-002   -1.287367979076588E-044
 -2.650000000000000E-002   -2.415085305444066E-044
 -2.640000000000000E-002   -3.881353214143173E-044
 -2.630000000000000E-002   -5.746558161521107E-044
 -2.620000000000000E-002   -7.778876773281998E-044
 -2.610000000000000E-002   -9.578275019303127E-044
 -2.600000000000000E-002   -1.054222236414527E-043
 -2.590000000000000E-002   -9.754555504518930E-044
 -2.580000000000000E-002   -5.880603731783939E-044
 -2.570000000000000E-002    2.769581734303494E-044
 -2.560000000000000E-002    1.811071994514292E-043
 -2.550000000000000E-002    4.205597967320967E-043
 -2.540000000000000E-002    7.579679505829998E-043
 -2.530000000000000E-002    1.193210168324542E-042
 -2.520000000000000E-002    1.702916398468960E-042
 -2.510000000000000E-002    2.227369558614260E-042
 -2.500000000000000E-002    2.654923920979014E-042
 -2.490000000000000E-002    2.811831262170972E-042
 -2.480000000000000E-002    2.452437240928701E-042
 -2.470000000000000E-002    1.259060222207118E-042
 -2.460000000000000E-002   -1.137943699200234E-042
 -2.450000000000000E-002   -5.115982841702666E-042
 -2.440000000000000E-002   -1.098294688825363E-041
 -2.430000000000000E-002   -1.886029796178621E-041
 -2.420000000000000E-002   -2.851617087645817E-041
 -2.410000000000000E-002   -3.917099948006945E-041
 -2.400000000000000E-002   -4.926858265487079E-041
 -2.390000000000000E-002   -5.626795924477536E-041
 -2.380000000000000E-002   -5.649265006227241E-041
 -2.370000000000000E-002   -4.512576050805992E-041
 -2.360000000000000E-002   -1.642916714448955E-041
 -2.350000000000000E-002    3.568424938520078E-041
 -2.340000000000000E-002    1.166322298984206E-040
 -2.330000000000000E-002    2.296060663490118E-040
 -2.320000000000000E-002    3.734448043553494E-040
 -2.310000000000000E-002    5.400107953579803E-040
 -2.300000000000000E-002    7.112820194078721E-040
 -2.290000000000000E-002    8.565608009893874E-040
 -2.280000000000000E-002    9.304352740407696E-040
 -2.270000000000000E-002    8.723878126560950E-040
 -2.260000000000000E-002    6.091125420596297E-040
 -2.250000000000000E-002    6.079570168544124E-041
 -2.240000000000000E-002   -8.474804879336214E-040
 -2.230000000000000E-002   -2.168323332427080E-039
 -2.220000000000000E-002   -3.908346741817642E-039
 -2.210000000000000E-002   -5.999074488055604E-039
 -2.200000000000000E-002   -8.264771649377980E-039
 -2.190000000000000E-002   -1.039155718797331E-038
 -2.180000000000000E-002   -1.190438389603839E-038
 -2.170000000000000E-002   -1.216080220884148E-038
 -2.160000000000000E-002   -1.037230733962100E-038
 -2.150000000000000E-002   -5.665016982193758E-039
 -2.140000000000000E-002    2.809331100535034E-039
 -2.130000000000000E-002    1.570432601761765E-038
 -2.120000000000000E-002    3.325052366538435E-038
 -2.110000000000000E-002    5.497676658498659E-038
 -2.100000000000000E-002    7.940436502110715E-038
 -2.090000000000000E-002    1.037548772552331E-037
 -2.080000000000000E-002    1.237316473430497E-037
 -2.070000000000000E-002    1.334542040119549E-037
 -2.060000000000000E-002    1.256388710235872E-037
 -2.050000000000000E-002    9.212412629041420E-038
 -2.040000000000000E-002    2.482896678138587E-038
 -2.030000000000000E-002   -8.279870996714002E-038
 -2.020000000000000E-002   -2.338443048537453E-037
 -2.010000000000000E-002   -4.255869905008425E-037
 -2.000000000000000E-002   -6.469617447087336E-037
 -1.990000000000000E-002   -8.761646059326348E-037
 -1.980000000000000E-002   -1.078889138468818E-036
 -1.970000000000000E-002   -1.207817186974125E-036
 -1.960000000000000E-002   -1.204078874486016E-036
 -1.950000000000000E-002   -1.001407973519922E-036
 -1.940000000000000E-002   -5.336115428094641E-037
 -1.930000000000000E-002    2.542975114909878E-037
 -1.920000000000000E-002    1.391414433340445E-036
 -1.910000000000000E-002    2.863474524797211E-036
 -1.900000000000000E-002    4.594217624325950E-036
 -1.890000000000000E-002    6.428172728545939E-036
 -1.880000000000000E-002    8.118427770505265E-036
 -1.870000000000000E-002    9.323797810631480E-036
 -1.860000000000000E-002    9.620277816101005E-036
 -1.850000000000000E-002    8.531549889448382E-036
 -1.840000000000000E-002    5.582324180141905E-036
 -1.830000000000000E-002    3.762199942296126E-037
 -1.820000000000000E-002   -7.303419430240549E-036
 -1.810000000000000E-002   -1.737593573167960E-035
 -1.800000000000000E-002   -2.934070229783981E-035
 -1.790000000000000E-002   -4.216727281175385E-035
 -1.780000000000000E-002   -5.422206759126834E-035
 -1.770000000000000E-002   -6.325990658768916E-035
 -1.760000000000000E-002   -6.651063129094860E-035
 -1.750000000000000E-002   -6.088884467450986E-035
 -1.740000000000000E-002   -4.334691020744528E-035
 -1.730000000000000E-002   -1.137687388812112E-035
 -1.720000000000000E-002    3.635480675505942E-035
 -1.710000000000000E-002    9.928446407768378E-035
 -1.700000000000000E-002    1.742185000952684E-034
 -1.690000000000000E-002    2.547040697720000E-034
 -1.680000000000000E-002    3.306482263232139E-034
 -1.670000000000000E-002    3.883520586809483E-034
 -1.660000000000000E-002    4.111302053479400E-034
 -1.650000000000000E-002    3.806642278366590E-034
 -1.640000000000000E-002    2.791827130136650E-034
 -1.630000000000000E-002    9.246849538605980E-035
 -1.620000000000000E-002   -1.864388605770375E-034
 -1.610000000000000E-002   -5.531409021041133E-034
 -1.600000000000000E-002   -9.878604813284941E-034
 -1.590000000000000E-002   -1.452169149279097E-033
 -1.580000000000000E-002   -1.887280857310104E-033
 -1.570000000000000E-002   -2.214816048946721E-033
 -1.560000000000000E-002   -2.340918527498981E-033
 -1.550000000000000E-002   -2.164435621307106E-033
 -1.540000000000000E-002   -1.589523443026459E-033
 -1.530000000000000E-002   -5.424907452020090E-034
 -1.520000000000000E-002    1.008039165934258E-033
 -1.510000000000000E-002    3.029445502795923E-033
 -1.500000000000000E-002    5.404649686239835E-033
 -1.490000000000000E-002    7.916507719847600E-033
 -1.480000000000000E-002    1.024135013129032E-032
 -1.470000000000000E-002    1.195622833352135E-032
 -1.460000000000000E-002    1.256408268409896E-032
 -1.450000000000000E-002    1.153993084628983E-032
 -1.440000000000000E-002    8.399140265602862E-033
 -1.430000000000000E-002    2.785887598037010E-033
 -1.420000000000000E-002   -5.423872934778301E-033
 -1.410000000000000E-002   -1.601499901364869E-032
 -1.400000000000000E-002   -2.833580000096754E-032
 -1.390000000000000E-002   -4.122917610918683E-032
 -1.380000000000000E-002   -5.301332015398943E-032
 -1.370000000000000E-002   -6.153333764865757E-032
 -1.360000000000000E-002   -6.430258500173273E-032
 -1.350000000000000E-002   -5.874580062588241E-032
 -1.340000000000000E-002   -4.254554216793705E-032
 -1.330000000000000E-002   -1.407841295341665E-032
 -1.320000000000000E-002    2.709057429071852E-032
 -1.310000000000000E-002    7.970741079014202E-032
 -1.300000000000000E-002    1.403937460209716E-031
 -1.290000000000000E-002    2.033643966958313E-031
 -1.280000000000000E-002    2.603941409401877E-031
 -1.270000000000000E-002    3.011279051239429E-031
 -1.260000000000000E-002    3.138115179406485E-031
 -1.250000000000000E-002    2.864859407939727E-031
 -1.240000000000000E-002    2.086351151552172E-031
 -1.230000000000000E-002    7.320805948410597E-032
 -1.220000000000000E-002   -1.211463027146908E-031
 -1.210000000000000E-002   -3.678797220063068E-031
 -1.200000000000000E-002   -6.507104364537401E-031
 -1.190000000000000E-002   -9.425434482722787E-031
 -1.180000000000000E-002   -1.205560186061749E-030
 -1.170000000000000E-002   -1.392866027046148E-030
 -1.160000000000000E-002   -1.451990241437062E-030
 -1.150000000000000E-002   -1.330371462405171E-030
 -1.140000000000000E-002   -9.827183501645298E-031
 -1.130000000000000E-002   -3.798330749929692E-031
 -1.120000000000000E-002    4.818609462465841E-031
 -1.110000000000000E-002    1.571197930315888E-030
 -1.100000000000000E-002    2.814976276618385E-030
 -1.090000000000000E-002    4.094124709679945E-030
 -1.080000000000000E-002    5.245001857169170E-030
 -1.070000000000000E-002    6.067335389023902E-030
 -1.060000000000000E-002    6.339851861264292E-030
 -1.050000000000000E-002    5.843923417187619E-030
 -1.040000000000000E-002    4.394522311493430E-030
 -1.030000000000000E-002    1.876544345203177E-030
 -1.020000000000000E-002   -1.716819248629716E-030
 -1.010000000000000E-002   -6.248323942600095E-030
 -1.000000000000000E-002   -1.140928422780550E-029
 -9.899999999999999E-003   -1.670700304054953E-029
 -9.800000000000000E-003   -2.147339902193447E-029
 -9.699999999999999E-003   -2.490029758598121E-029
 -9.599999999999999E-003   -2.610488438116792E-029
 -9.500000000000000E-003   -2.422573471438010E-029
 -9.399999999999999E-003   -1.854576216987818E-029
 -9.299999999999999E-003   -8.633616012001961E-030
 -9.200000000000000E-003    5.510036361488632E-030
 -9.099999999999999E-003    2.331975036152866E-029
 -8.999999999999999E-003    4.356817562593154E-029
 -8.900000000000000E-003    6.432850020828805E-029
 -8.799999999999999E-003    8.301950106189117E-029
 -8.699999999999999E-003    9.655191797837037E-029
 -8.600000000000000E-003    1.015867742428178E-028
 -8.499999999999999E-003    9.490411382583210E-029
 -8.399999999999999E-003    7.386552806694800E-029
 -8.300000000000000E-003    3.693600418228154E-029
 -8.199999999999999E-003   -1.578717392534163E-029
 -8.100000000000000E-003   -8.210713463542520E-029
 -8.000000000000000E-003   -1.574019694371980E-028
 -7.899999999999999E-003   -2.345256586402893E-028
 -7.800000000000000E-003   -3.040138576427457E-028
 -7.699999999999999E-003   -3.546547371368483E-028
 -7.599999999999999E-003   -3.744541635513898E-028
 -7.499999999999999E-003   -3.519794584795688E-028
 -7.399999999999999E-003   -2.780117417193835E-028
 -7.299999999999999E-003   -1.473762752737841E-028
 -7.199999999999999E-003    3.924063448625189E-029
 -7.100000000000000E-003    2.737308173494735E-028
 -6.999999999999999E-003    5.395360216532977E-028
 -6.899999999999999E-003    8.114358525682369E-028
 -6.800000000000000E-003    1.056404690881584E-027
 -6.699999999999999E-003    1.235720879016830E-027
 -6.599999999999999E-003    1.308396578734318E-027
 -6.499999999999999E-003    1.235840777729477E-027
 -6.399999999999999E-003    9.874841991223136E-028
 -6.299999999999999E-003    5.468945210200054E-028
 -6.199999999999999E-003   -8.228182718744910E-029
 -6.100000000000000E-003   -8.713687059089416E-028
 -5.999999999999999E-003   -1.763609191954519E-027
 -5.899999999999999E-003   -2.673916890506659E-027
 -5.800000000000000E-003   -3.492206850547466E-027
 -5.699999999999999E-003   -4.090826145427846E-027
 -5.599999999999999E-003   -4.336203490026675E-027
 -5.499999999999999E-003   -4.104326750606533E-027
 -5.399999999999999E-003   -3.299055777043448E-027
 -5.299999999999999E-003   -1.871652133039715E-027
 -5.199999999999999E-003    1.606698187296043E-028
 -5.099999999999999E-003    2.699807272213757E-027
 -4.999999999999999E-003    5.558301271262586E-027
 -4.899999999999999E-003    8.460089717016183E-027
 -4.799999999999999E-003    1.105274387775992E-026
 -4.699999999999999E-003    1.293256689448875E-026
 -4.599999999999999E-003    1.368261647923509E-026
 -4.499999999999999E-003    1.292207285653244E-026
 -4.399999999999999E-003    1.036353542690778E-026
 -4.299999999999999E-003    5.872924115124050E-027
 -4.199999999999999E-003   -4.749684017614631E-028
 -4.099999999999999E-003   -8.353444411818038E-027
 -3.999999999999999E-003   -1.716199376487920E-026
 -3.899999999999999E-003   -2.603354367345844E-026
 -3.799999999999999E-003   -3.387719687993632E-026
 -3.699999999999999E-003   -3.945981276130611E-026
 -3.599999999999999E-003   -4.152571566340076E-026
 -3.499999999999999E-003   -3.894874533652067E-026
 -3.399999999999999E-003   -3.090538398725368E-026
 -3.299999999999999E-003   -1.705230320155393E-026
 -3.199999999999999E-003    2.313035817496386E-027
 -3.099999999999999E-003    2.613300733278564E-026
 -2.999999999999999E-003    5.253671525013999E-026
 -2.899999999999999E-003    7.887582574115325E-026
 -2.799999999999999E-003    1.018662958817934E-025
 -2.699999999999999E-003    1.178436572250287E-025
 -2.599999999999999E-003    1.231271465054769E-025
 -2.499999999999999E-003    1.144731649293669E-025
 -2.399999999999999E-003    8.958278794041453E-026
 -2.299999999999999E-003    4.761287499715122E-026
 -2.199999999999999E-003   -1.037195822425376E-026
 -2.099999999999999E-003   -8.107653039920041E-026
 -1.999999999999999E-003   -1.588520275549683E-025
 -1.899999999999999E-003   -2.358344887272798E-025
 -1.799999999999999E-003   -3.023892401031688E-025
 -1.699999999999999E-003   -3.478772228428318E-025
 -1.599999999999999E-003   -3.617236362827400E-025
 -1.499999999999999E-003   -3.347276804128351E-025
 -1.399999999999999E-003   -2.605074051041163E-025
 -1.299999999999999E-003   -1.369341667978860E-025
 -1.199999999999999E-003    3.262171280161145E-026
 -1.099999999999999E-003    2.384290833213200E-025
 -9.999999999999989E-004    4.641106071965982E-025
 -8.999999999999990E-004    6.870988708461068E-025
 -7.999999999999990E-004    8.799452508757823E-025
 -6.999999999999989E-004    1.012516013037082E-024
 -5.999999999999990E-004    1.055006066265164E-024
 -4.999999999999989E-004    9.815899876185173E-025
 -3.999999999999989E-004    7.744107561806755E-025
 -2.999999999999989E-004    4.275002609073409E-025
 -1.999999999999989E-004   -4.985354445548415E-026
 -9.999999999999892E-005   -6.308193447281715E-025
  1.084202172485504E-018   -1.270322490350327E-024
  1.000000000000011E-004   -1.906362516168916E-024
  2.000000000000011E-004   -2.463625620799026E-024
  3.000000000000011E-004   -2.859457266940073E-024
  4.000000000000011E-004   -3.011988548010046E-024
  5.000000000000011E-004   -2.849914852864384E-024
  6.000000000000011E-004   -2.323116114439324E-024
  7.000000000000011E-004   -1.413044297495740E-024
  8.000000000000011E-004   -1.416042505959659E-025
  9.000000000000012E-004    1.422834930225916E-024
  1.000000000000001E-003    3.163596791938747E-024
  1.100000000000001E-003    4.919105985425545E-024
  1.200000000000001E-003    6.492223550698612E-024
  1.300000000000001E-003    7.665635754952158E-024
  1.400000000000001E-003    8.222726461496478E-024
  1.500000000000001E-003    7.972619183225689E-024
  1.600000000000001E-003    6.777306470548617E-024
  1.700000000000001E-003    4.578135744752357E-024
  1.800000000000001E-003    1.418452974132461E-024
  1.900000000000001E-003   -2.540988440900614E-024
  2.000000000000001E-003   -7.017050082833157E-024
  2.100000000000001E-003   -1.161228990620638E-023
  2.200000000000001E-003   -1.583772009477129E-023
  2.300000000000001E-003   -1.915045201775326E-023
  2.400000000000001E-003   -2.100476181305772E-023
  2.500000000000001E-003   -2.091330318793042E-023
  2.600000000000001E-003   -1.851332418380169E-023
  2.700000000000001E-003   -1.363128364024251E-023
  2.800000000000001E-003   -6.338106435522007E-024
  2.900000000000001E-003    3.012958413063005E-024
  3.000000000000001E-003    1.377352252081985E-023
  3.100000000000001E-003    2.501833132218126E-023
  3.200000000000001E-003    3.559836477235094E-023
  3.300000000000001E-003    4.422900117326160E-023
  3.400000000000001E-003    4.960968225840561E-023
  3.500000000000001E-003    5.056706828081743E-023
  3.600000000000001E-003    4.620964255862848E-023
  3.700000000000001E-003    3.607818047362593E-023
  3.800000000000001E-003    2.027416163282540E-023
  3.900000000000001E-003   -4.524631691706213E-025
  4.000000000000001E-003   -2.467335944280630E-023
  4.100000000000001E-003   -5.032349200558684E-023
  4.200000000000001E-003   -7.482216526604160E-023
  4.300000000000001E-003   -9.527367826123851E-023
  4.400000000000001E-003   -1.087385826286285E-022
  4.500000000000001E-003   -1.125569757035984E-022
  4.600000000000002E-003   -1.046959326547120E-022
  4.700000000000001E-003   -8.408570730275545E-023
  4.800000000000001E-003   -5.090428554275969E-023
  4.900000000000002E-003   -6.769092644564350E-024
  5.000000000000001E-003    4.520212415486734E-023
  5.100000000000001E-003    1.004907418213168E-022
  5.200000000000001E-003    1.534526847651257E-022
  5.300000000000002E-003    1.977689659189482E-022
  5.400000000000001E-003    2.270492149022223E-022
  5.500000000000001E-003    2.355454109936614E-022
  5.600000000000002E-003    2.189132105151080E-022
  5.700000000000001E-003    1.749415027572627E-022
  5.800000000000001E-003    1.041617042871802E-022
  5.900000000000002E-003    1.024664835840930E-023
  6.000000000000001E-003   -9.988192928419108E-023
  6.100000000000001E-003   -2.162988798731244E-022
  6.200000000000002E-003   -3.267056772400869E-022
  6.300000000000002E-003   -4.174377521667540E-022
  6.400000000000001E-003   -4.747972076469872E-022
  6.500000000000001E-003   -4.866144826558781E-022
  6.600000000000002E-003   -4.438982963911493E-022
  6.700000000000001E-003   -3.424011611143624E-022
  6.800000000000001E-003   -1.839074140721842E-022
  6.900000000000002E-003    2.294880797342567E-023
  7.000000000000001E-003    2.625088039255867E-022
  7.100000000000001E-003    5.126843954816061E-022
  7.200000000000002E-003    7.463847136729729E-022
  7.300000000000002E-003    9.337531539693146E-022
  7.400000000000001E-003    1.045094986489288E-021
  7.500000000000001E-003    1.054281243087526E-021
  7.600000000000002E-003    9.423240983687006E-022
  7.700000000000001E-003    7.007486043691040E-022
  7.800000000000001E-003    3.343477915192262E-022
  7.900000000000001E-003   -1.370913684004058E-022
  8.000000000000002E-003   -6.784557256783377E-022
  8.100000000000001E-003   -1.240634692452639E-021
  8.200000000000001E-003   -1.763638070708178E-021
  8.300000000000002E-003   -2.181449027374326E-021
  8.400000000000001E-003   -2.428361180254558E-021
  8.500000000000002E-003   -2.446336365497324E-021
  8.600000000000002E-003   -2.192739170303170E-021
  8.700000000000001E-003   -1.647653880603483E-021
  8.800000000000002E-003   -8.199107774331942E-022
  8.900000000000002E-003    2.490525853431914E-022
  9.000000000000001E-003    1.484266556556513E-021
  9.100000000000002E-003    2.779813569369672E-021
  9.200000000000002E-003    4.005211593359404E-021
  9.300000000000001E-003    5.015496964909439E-021
  9.400000000000002E-003    5.664510953583965E-021
  9.500000000000001E-003    5.820457700250369E-021
  9.600000000000001E-003    5.382406920003859E-021
  9.700000000000002E-003    4.296118582101037E-021
  9.800000000000001E-003    2.567379557054529E-021
  9.900000000000001E-003    2.710365702304931E-022
  1.000000000000000E-002   -2.445909237397579E-021
  1.010000000000000E-002   -5.368379736844445E-021
  1.020000000000000E-002   -8.225152708551820E-021
  1.030000000000000E-002   -1.070855625034023E-020
  1.040000000000000E-002   -1.250103350517532E-020
  1.050000000000000E-002   -1.330679888548663E-020
  1.060000000000000E-002   -1.288600687767968E-020
  1.070000000000000E-002   -1.108822681295655E-020
  1.080000000000000E-002   -7.881591091543180E-021
  1.090000000000000E-002   -3.373954204577731E-021
  1.100000000000000E-002    2.177347815683314E-021
  1.110000000000000E-002    8.369769031785903E-021
  1.120000000000000E-002    1.467547598128683E-020
  1.130000000000000E-002    2.047705938537973E-020
  1.140000000000000E-002    2.511761885959348E-020
  1.150000000000000E-002    2.796203760132061E-020
  1.160000000000000E-002    2.846471932595259E-020
  1.170000000000000E-002    2.623767876474807E-020
  1.180000000000000E-002    2.111206834682768E-020
  1.190000000000000E-002    1.318587942188334E-020
  1.200000000000000E-002    2.851031574530944E-021
  1.210000000000000E-002   -9.205716148136503E-021
  1.220000000000000E-002   -2.203166523801370E-020
  1.230000000000000E-002   -3.446798142850380E-020
  1.240000000000000E-002   -4.523832237298107E-020
  1.250000000000000E-002   -5.306124540583169E-020
  1.260000000000000E-002   -5.677792366870024E-020
  1.270000000000000E-002   -5.548428763801894E-020
  1.280000000000000E-002   -4.865468510616012E-020
  1.290000000000000E-002   -3.624347523310523E-020
  1.300000000000000E-002   -1.875131641745649E-020
  1.310000000000000E-002    2.754966585151200E-021
  1.320000000000000E-002    2.667700156722579E-020
  1.330000000000000E-002    5.097725267642213E-020
  1.340000000000000E-002    7.332709357099833E-020
  1.350000000000000E-002    9.130265440751203E-020
  1.360000000000000E-002    1.026145188135722E-019
  1.370000000000000E-002    1.053523169927794E-019
  1.380000000000000E-002    9.822133863653208E-020
  1.390000000000000E-002    8.074625440726805E-020
  1.400000000000000E-002    5.341746770268251E-020
  1.410000000000000E-002    1.775826932075970E-020
  1.420000000000000E-002   -2.370339345353750E-020
  1.430000000000000E-002   -6.756765022241539E-020
  1.440000000000000E-002   -1.097984237290979E-019
  1.450000000000000E-002   -1.460511965197160E-019
  1.460000000000000E-002   -1.720705800041486E-019
  1.470000000000000E-002   -1.841259356067604E-019
  1.480000000000000E-002   -1.794455035334806E-019
  1.490000000000000E-002   -1.566051818268144E-019
  1.500000000000000E-002   -1.158275155962309E-019
  1.510000000000000E-002   -5.914958739687591E-020
  1.520000000000000E-002    9.571360852262440E-021
  1.530000000000000E-002    8.483526771488366E-020
  1.540000000000000E-002    1.598627474831787E-019
  1.550000000000000E-002    2.271288244167317E-019
  1.560000000000000E-002    2.790341409210607E-019
  1.570000000000000E-002    3.086609900153501E-019
  1.580000000000000E-002    3.105478503494156E-019
  1.590000000000000E-002    2.814062405867860E-019
  1.600000000000000E-002    2.207010679748211E-019
  1.610000000000000E-002    1.310201078416416E-019
  1.620000000000000E-002    1.816963189596707E-020
  1.630000000000000E-002   -1.090426506535236E-019
  1.640000000000000E-002   -2.393538843066218E-019
  1.650000000000000E-002   -3.599030707608175E-019
  1.660000000000000E-002   -4.573480779546028E-019
  1.670000000000000E-002   -5.191602709381647E-019
  1.680000000000000E-002   -5.349855379931988E-019
  1.690000000000000E-002   -4.979425927337390E-019
  1.700000000000000E-002   -4.057193058801547E-019
  1.710000000000000E-002   -2.613343750470646E-019
  1.720000000000000E-002   -7.344702357619659E-020
  1.730000000000000E-002    1.438671617873398E-019
  1.740000000000000E-002    3.719138793051183E-019
  1.750000000000000E-002    5.887365882291596E-019
  1.760000000000000E-002    7.709587700201433E-019
  1.770000000000000E-002    8.959828281814167E-019
  1.780000000000000E-002    9.443641054504530E-019
  1.790000000000000E-002    9.021412684340676E-019
  1.800000000000000E-002    7.628836488439157E-019
  1.810000000000000E-002    5.292153980353904E-019
  1.820000000000000E-002    2.136041843565884E-019
  1.830000000000000E-002   -1.617486315818656E-019
  1.840000000000000E-002   -5.660113633462541E-019
  1.850000000000000E-002   -9.618189447701984E-019
  1.860000000000000E-002   -1.308268777853669E-018
  1.870000000000000E-002   -1.564616227022284E-018