 -4.000000000000000E-002    0.000000000000000E+000
 -3.990000000000000E-002    0.000000000000000E+000
 -3.980000000000000E-002    0.000000000000000E+000
 -3.970000000000000E-002    0.000000000000000E+000
 -3.960000000000000E-002    0.000000000000000E+000
 -3.950000000000000E-002    0.000000000000000E+000
 -3.940000000000000E-002    0.000000000000000E+000
 -3.930000000000000E-002    0.000000000000000E+000
 -3.920000000000000E-002    0.000000000000000E+000
 -3.910000000000000E-002    0.000000000000000E+000
 -3.900000000000000E-002    0.000000000000000E+000
 -3.890000000000000E-002    0.000000000000000E+000
 -3.880000000000000E-002    0.000000000000000E+000
 -3.870000000000000E-002    0.000000000000000E+000
 -3.860000000000000E-002    0.000000000000000E+000
 -3.850000000000000E-002    0.000000000000000E+000
 -3.840000000000000E-002    0.000000000000000E+000
 -3.830000000000000E-002    0.000000000000000E+000
 -3.820000000000000E-002    0.000000000000000E+000
 -3.810000000000000E-002    0.000000000000000E+000
 -3.800000000000000E-002    0.000000000000000E+000
 -3.790000000000000E-002    0.000000000000000E+000
 -3.780000000000000E-002    0.000000000000000E+000
 -3.770000000000000E-002    0.000000000000000E+000
 -3.760000000000000E-002    0.000000000000000E+000
 -3.750000000000000E-002    0.000000000000000E+000
 -3.740000000000000E-002    0.000000000000000E+000
 -3.730000000000000E-002    0.000000000000000E+000
 -3.720000000000000E-002    0.000000000000000E+000
 -3.710000000000000E-002    0.000000000000000E+000
 -3.700000000000000E-002    0.000000000000000E+000
 -3.690000000000000E-002    0.000000000000000E+000
 -3.680000000000000E-002    0.000000000000000E+000
 -3.670000000000000E-002    0.000000000000000E+000
 -3.660000000000000E-002    0.000000000000000E+000
 -3.650000000000000E-002    0.000000000000000E+000
 -3.640000000000000E-002    0.000000000000000E+000
 -3.630000000000000E-002    0.000000000000000E+000
 -3.620000000000000E-002    0.000000000000000E+000
 -3.610000000000000E-002    0.000000000000000E+000
 -3.600000000000000E-002    0.000000000000000E+000
 -3.590000000000000E-002    0.000000000000000E+000
 -3.580000000000000E-002    0.000000000000000E+000
 -3.570000000000000E-002    0.000000000000000E+000
 -3.560000000000000E-002    0.000000000000000E+000
 -3.550000000000000E-002    0.000000000000000E+000
 -3.540000000000000E-002    0.000000000000000E+000
 -3.530000000000000E-002    0.000000000000000E+000
 -3.520000000000000E-002    0.000000000000000E+000
 -3.510000000000000E-002    0.000000000000000E+000
 -3.500000000000000E-002    0.000000000000000E+000
 -3.490000000000000E-002    0.000000000000000E+000
 -3.480000000000000E-002    0.000000000000000E+000
 -3.470000000000000E-002    0.000000000000000E+000
 -3.460000000000000E-002    0.000000000000000E+000
 -3.450000000000000E-002    0.000000000000000E+000
 -3.440000000000000E-002    0.000000000000000E+000
 -3.430000000000000E-002    0.000000000000000E+000
 -3.420000000000000E-002    0.000000000000000E+000
 -3.410000000000000E-002    0.000000000000000E+000
 -3.400000000000000E-002    0.000000000000000E+000
 -3.390000000000000E-002    0.000000000000000E+000
 -3.380000000000000E-002    0.000000000000000E+000
 -3.370000000000000E-002    0.000000000000000E+000
 -3.360000000000000E-002    0.000000000000000E+000
 -3.350000000000000E-002    0.000000000000000E+000
 -3.340000000000000E-002    0.000000000000000E+000
 -3.330000000000000E-002    0.000000000000000E+000
 -3.320000000000000E-002    0.000000000000000E+000
 -3.310000000000000E-002    0.000000000000000E+000
 -3.300000000000000E-002    0.000000000000000E+000
 -3.290000000000000E-002    0.000000000000000E+000
 -3.280000000000000E-002    0.000000000000000E+000
 -3.270000000000000E-002    0.000000000000000E+000
 -3.260000000000000E-002    0.000000000000000E+000
 -3.250000000000000E-002    0.000000000000000E+000
 -3.240000000000000E-002    0.000000000000000E+000
 -3.230000000000000E-002    0.000000000000000E+000
 -3.220000000000000E-002    0.000000000000000E+000
 -3.210000000000000E-002    0.000000000000000E+000
 -3.200000000000000E-002    0.000000000000000E+000
 -3.190000000000000E-002    0.000000000000000E+000
 -3.180000000000000E-002    0.000000000000000E+000
 -3.170000000000000E-002    0.000000000000000E+000
 -3.160000000000000E-002    0.000000000000000E+000
 -3.150000000000000E-002    0.000000000000000E+000
 -3.140000000000000E-002    0.000000000000000E+000
 -3.130000000000000E-002    0.000000000000000E+000
 -3.120000000000000E-002    0.000000000000000E+000
 -3.110000000000000E-002    0.000000000000000E+000
 -3.100000000000000E-002    0.000000000000000E+000
 -3.090000000000000E-002    0.000000000000000E+000
 -3.080000000000000E-002    0.000000000000000E+000
 -3.070000000000000E-002    0.000000000000000E+000
 -3.060000000000000E-002    0.000000000000000E+000
 -3.050000000000000E-002    0.000000000000000E+000
 -3.040000000000000E-002    0.000000000000000E+000
 -3.030000000000000E-002    0.000000000000000E+000
 -3.020000000000000E-002    0.000000000000000E+000
 -3.010000000000000E-002    0.000000000000000E+000
 -3.000000000000000E-002    0.000000000000000E+000
 -2.990000000000000E-002    0.000000000000000E+000
 -2.980000000000000E-002    0.000000000000000E+000
 -2.970000000000000E-002    0.000000000000000E+000
 -2.960000000000000E-002    0.000000000000000E+000
 -2.950000000000000E-002    0.000000000000000E+000
 -2.940000000000000E-002    0.000000000000000E+000
 -2.930000000000000E-002    0.000000000000000E+000
 -2.920000000000000E-002    0.000000000000000E+000
 -2.910000000000000E-002    0.000000000000000E+000
 -2.900000000000000E-002    0.000000000000000E+000
 -2.890000000000000E-002    0.000000000000000E+000
 -2.880000000000000E-002    0.000000000000000E+000
 -2.870000000000000E-002    0.000000000000000E+000
 -2.860000000000000E-002    0.000000000000000E+000
 -2.850000000000000E-002    0.000000000000000E+000
 -2.840000000000000E-002    0.000000000000000E+000
 -2.830000000000000E-002    0.000000000000000E+000
 -2.820000000000000E-002    0.000000000000000E+000
 -2.810000000000000E-002    0.000000000000000E+000
 -2.800000000000000E-002    0.000000000000000E+000
 -2.790000000000000E-002    0.000000000000000E+000
 -2.780000000000000E-002    0.000000000000000E+000
 -2.770000000000000E-002    0.000000000000000E+000
 -2.760000000000000E-002    0.000000000000000E+000
 -2.750000000000000E-002    0.000000000000000E+000
 -2.740000000000000E-002    0.000000000000000E+000
 -2.730000000000000E-002    0.000000000000000E+000
 -2.720000000000000E-002    0.000000000000000E+000
 -2.710000000000000E-002    0.000000000000000E+000
 -2.700000000000000E-002    0.000000000000000E+000
 -2.690000000000000E-002    0.000000000000000E+000
 -2.680000000000000E-002    0.000000000000000E+000
 -2.670000000000000E-002    0.000000000000000E+000
 -2.660000000000000E-002    0.000000000000000E+000
 -2.650000000000000E-002    0.000000000000000E+000
 -2.640000000000000E-002    0.000000000000000E+000
 -2.630000000000000E-002    0.000000000000000E+000
 -2.620000000000000E-002    0.000000000000000E+000
 -2.610000000000000E-002    0.000000000000000E+000
 -2.600000000000000E-002    0.000000000000000E+000
 -2.590000000000000E-002    0.000000000000000E+000
 -2.580000000000000E-002    0.000000000000000E+000
 -2.570000000000000E-002    0.000000000000000E+000
 -2.560000000000000E-002    0.000000000000000E+000
 -2.550000000000000E-002    0.000000000000000E+000
 -2.540000000000000E-002    0.000000000000000E+000
 -2.530000000000000E-002    0.000000000000000E+000
 -2.520000000000000E-002    0.000000000000000E+000
 -2.510000000000000E-002    0.000000000000000E+000
 -2.500000000000000E-002    0.000000000000000E+000
 -2.490000000000000E-002    0.000000000000000E+000
 -2.480000000000000E-002    0.000000000000000E+000
 -2.470000000000000E-002    0.000000000000000E+000
 -2.460000000000000E-002    0.000000000000000E+000
 -2.450000000000000E-002    0.000000000000000E+000
 -2.440000000000000E-002    0.000000000000000E+000
 -2.430000000000000E-002    0.000000000000000E+000
 -2.420000000000000E-002    6.414635304221270E-048
 -2.410000000000000E-002    1.282927060844254E-047
 -2.400000000000000E-002    1.924390591266381E-047
 -2.390000000000000E-002    1.924390591266381E-047
 -2.380000000000000E-002    1.282927060844254E-047
 -2.370000000000000E-002   -2.138211768073757E-048
 -2.360000000000000E-002   -8.046350003101970E-047
 -2.350000000000000E-002   -2.050409000358052E-046
 -2.340000000000000E-002   -3.929761059270204E-046
 -2.330000000000000E-002   -6.991408140702463E-046
 -2.320000000000000E-002   -1.062248692795681E-045
 -2.310000000000000E-002   -1.423218359753041E-045
 -2.300000000000000E-002   -1.760734434813037E-045
 -2.290000000000000E-002   -1.907121594852175E-045
 -2.280000000000000E-002   -1.521415414031388E-045
 -2.270000000000000E-002   -7.309198335301961E-046
 -2.260000000000000E-002    1.314102801650703E-045
 -2.250000000000000E-002    3.281300493907061E-045
 -2.240000000000000E-002    6.440430853164974E-045
 -2.230000000000000E-002    1.092563802035393E-044
 -2.220000000000000E-002    1.672413225046679E-044
 -2.210000000000000E-002    2.381782803260406E-044
 -2.200000000000000E-002    3.125603690436322E-044
 -2.190000000000000E-002    3.734966606087108E-044
 -2.180000000000000E-002    3.897941783206783E-044
 -2.170000000000000E-002    3.393667524758085E-044
 -2.160000000000000E-002    1.838375383436477E-044
 -2.150000000000000E-002   -1.160675412884485E-044
 -2.140000000000000E-002   -5.852467533534074E-044
 -2.130000000000000E-002   -1.266962480400657E-043
 -2.120000000000000E-002   -2.148578124583657E-043
 -2.110000000000000E-002   -3.197627688140931E-043
 -2.100000000000000E-002   -4.311877157883512E-043
 -2.090000000000000E-002   -5.302533520877097E-043
 -2.080000000000000E-002   -5.917280841625005E-043
 -2.070000000000000E-002   -5.791054955241015E-043
 -2.060000000000000E-002   -4.463479976318352E-043
 -2.050000000000000E-002   -1.450831968641243E-043
 -2.040000000000000E-002    3.743902502608692E-043
 -2.030000000000000E-002    1.150065465046246E-042
 -2.020000000000000E-002    2.192777639255287E-042
 -2.010000000000000E-002    3.471939223528137E-042
 -2.000000000000000E-002    4.893032109237141E-042
 -1.990000000000000E-002    6.278162924260998E-042
 -1.980000000000000E-002    7.350729922710416E-042
 -1.970000000000000E-002    7.725875049576669E-042
 -1.960000000000000E-002    6.923472159580898E-042
 -1.950000000000000E-002    4.398217835395669E-042
 -1.940000000000000E-002   -3.978077291805036E-043
 -1.930000000000000E-002   -7.917304826076753E-042
 -1.920000000000000E-002   -1.837890775006899E-041
 -1.910000000000000E-002   -3.159843651874586E-041
 -1.900000000000000E-002   -4.679245148653620E-041
 -1.890000000000000E-002   -6.238937782362199E-041
 -1.880000000000000E-002   -7.587143211243665E-041
 -1.870000000000000E-002   -8.370348252111904E-041
 -1.860000000000000E-002   -8.140461627545843E-041
 -1.850000000000000E-002   -6.382815288126452E-041
 -1.840000000000000E-002   -2.570133012851099E-041
 -1.830000000000000E-002    3.751054250965654E-041
 -1.820000000000000E-002    1.284247909020427E-040
 -1.810000000000000E-002    2.462715447264193E-040
 -1.800000000000000E-002    3.852508271813022E-040
 -1.790000000000000E-002    5.329057697979516E-040
 -1.780000000000000E-002    6.688156036440932E-040
 -1.770000000000000E-002    7.639912519153694E-040
 -1.760000000000000E-002    7.814464005901484E-040
 -1.750000000000000E-002    6.784195719642335E-040
 -1.740000000000000E-002    4.107179861942349E-040
 -1.730000000000000E-002   -6.052191337346270E-041
 -1.720000000000000E-002   -7.596110686348774E-040
 -1.710000000000000E-002   -1.684981593175649E-039
 -1.700000000000000E-002   -2.796665755462369E-039
 -1.690000000000000E-002   -4.004112219769252E-039
 -1.680000000000000E-002   -5.156590826928763E-039
 -1.670000000000000E-002   -6.039042850045902E-039
 -1.660000000000000E-002   -6.376710344357045E-039
 -1.650000000000000E-002   -5.851948647621158E-039
 -1.640000000000000E-002   -4.136203324396233E-039
 -1.630000000000000E-002   -9.389662050534579E-040
 -1.620000000000000E-002    3.926486188074088E-039
 -1.610000000000000E-002    1.046367001920590E-038
 -1.600000000000000E-002    1.840662136138823E-038
 -1.590000000000000E-002    2.713792253571487E-038
 -1.580000000000000E-002    3.562658954376665E-038
 -1.570000000000000E-002    4.240518404958564E-038
 -1.560000000000000E-002    4.560789034721852E-038
 -1.550000000000000E-002    4.309095021591287E-038
 -1.540000000000000E-002    3.265303266184234E-038
 -1.530000000000000E-002    1.236438265209621E-038
 -1.520000000000000E-002   -1.900021782958035E-038
 -1.510000000000000E-002   -6.144905983148936E-038
 -1.500000000000000E-002   -1.132297766676092E-037
 -1.490000000000000E-002   -1.703288049336117E-037
 -1.480000000000000E-002   -2.261142511488396E-037
 -1.470000000000000E-002   -2.712429357808949E-037
 -1.460000000000000E-002   -2.939619492546371E-037
 -1.450000000000000E-002   -2.809276094739248E-037
 -1.440000000000000E-002   -2.186342399868544E-037
 -1.430000000000000E-002   -9.548592656495524E-038
 -1.420000000000000E-002    9.554466223718621E-038
 -1.410000000000000E-002    3.538450029209894E-037
 -1.400000000000000E-002    6.679938923179189E-037
 -1.390000000000000E-002    1.012959282289736E-036
 -1.380000000000000E-002    1.348263274296007E-036
 -1.370000000000000E-002    1.617813451993838E-036
 -1.360000000000000E-002    1.752125716133846E-036
 -1.350000000000000E-002    1.673585159088749E-036
 -1.340000000000000E-002    1.305178722506109E-036
 -1.330000000000000E-002    5.827604519216738E-037
 -1.320000000000000E-002   -5.296218462432196E-037
 -1.310000000000000E-002   -2.022487212893786E-036
 -1.300000000000000E-002   -3.823687998400345E-036
 -1.290000000000000E-002   -5.783882176350877E-036
 -1.280000000000000E-002   -7.668076748138825E-036
 -1.270000000000000E-002   -9.157024405279772E-036
 -1.260000000000000E-002   -9.862225395987028E-036
 -1.250000000000000E-002   -9.357678258382872E-036
 -1.240000000000000E-002   -7.230171001312912E-036
 -1.230000000000000E-002   -3.147726571135785E-036
 -1.220000000000000E-002    3.057132898121139E-036
 -1.210000000000000E-002    1.129626343950828E-035
 -1.200000000000000E-002    2.113781033256059E-035
 -1.190000000000000E-002    3.173585547684040E-035
 -1.180000000000000E-002    4.179549961023668E-035
 -1.170000000000000E-002    4.959253047527922E-035
 -1.160000000000000E-002    5.306588410291783E-035
 -1.150000000000000E-002    4.999700378098409E-035
 -1.140000000000000E-002    3.828239251899944E-035
 -1.130000000000000E-002    1.629388632162590E-035
 -1.120000000000000E-002   -1.669422253219055E-035
 -1.110000000000000E-002   -6.005009340793451E-035
 -1.100000000000000E-002   -1.113590868407330E-034
 -1.090000000000000E-002   -1.661034848278065E-034
 -1.080000000000000E-002   -2.175345727278486E-034
 -1.070000000000000E-002   -2.568284064386889E-034
 -1.060000000000000E-002   -2.736079536497924E-034
 -1.050000000000000E-002   -2.568904393958158E-034
 -1.040000000000000E-002   -1.964764997665606E-034
 -1.030000000000000E-002   -8.473906281801637E-035
 -1.020000000000000E-002    8.130578740842486E-035
 -1.010000000000000E-002    2.978478518330255E-034
 -1.000000000000000E-002    5.523387969459205E-034
 -9.899999999999999E-003    8.221159352089757E-034
 -9.800000000000000E-003    1.073999957505792E-033
 -9.699999999999999E-003    1.265277491003829E-033
 -9.599999999999999E-003    1.346420357068308E-033
 -9.500000000000000E-003    1.265768187894752E-033
 -9.399999999999999E-003    9.761915925218400E-034
 -9.299999999999999E-003    4.434740448112193E-034
 -9.200000000000000E-003   -3.441944555670551E-034
 -9.099999999999999E-003   -1.366588718667611E-033
 -8.999999999999999E-003   -2.563023902831958E-033
 -8.900000000000000E-003   -3.826767101629340E-033
 -8.799999999999999E-003   -5.004066534980179E-033
 -8.699999999999999E-003   -5.899534922852535E-033
 -8.600000000000000E-003   -6.289306506136067E-033
 -8.499999999999999E-003   -5.942756089705028E-033
 -8.399999999999999E-003   -4.652615203458820E-033
 -8.300000000000000E-003   -2.272066102329133E-033
 -8.199999999999999E-003    1.244076102641071E-033
 -8.100000000000000E-003    5.798534003885642E-033
 -8.000000000000000E-003    1.111697106051721E-032
 -7.899999999999999E-003    1.672657486255210E-032
 -7.800000000000000E-003    2.195521258556602E-032
 -7.699999999999999E-003    2.595810752024465E-032
 -7.599999999999999E-003    2.777736049634370E-032
 -7.499999999999999E-003    2.643681839096343E-032
 -7.399999999999999E-003    2.107059413387383E-032
 -7.299999999999999E-003    1.107836355174262E-032
 -7.199999999999999E-003   -3.705510676692161E-033
 -7.100000000000000E-003   -2.284796184375112E-032
 -6.999999999999999E-003   -4.518267711783894E-032
 -6.899999999999999E-003   -6.873307342167924E-032
 -6.800000000000000E-003   -9.072174565106353E-032
 -6.699999999999999E-003   -1.076925625979485E-031
 -6.599999999999999E-003   -1.157642443875477E-031
 -6.499999999999999E-003   -1.110220303109589E-031
 -6.399999999999999E-003   -9.003707324359000E-032
 -6.299999999999999E-003   -5.048237842641078E-032
 -6.199999999999999E-003    8.208816412454434E-033
 -6.100000000000000E-003    8.421897178287621E-032
 -5.999999999999999E-003    1.728519081364175E-031
 -5.899999999999999E-003    2.662754327768359E-031
 -5.800000000000000E-003    3.536085151104245E-031
 -5.699999999999999E-003    4.214456457206704E-031
 -5.599999999999999E-003    4.548807809665243E-031
 -5.499999999999999E-003    4.390428404183773E-031
 -5.399999999999999E-003    3.610894388334790E-031
 -5.299999999999999E-003    2.125274240096758E-031
 -5.199999999999999E-003   -8.354879465895803E-033
 -5.099999999999999E-003   -2.942381612022907E-031
 -4.999999999999999E-003   -6.270613815029323E-031
 -4.899999999999999E-003   -9.772385982850129E-031
 -4.799999999999999E-003   -1.304181959140671E-030
 -4.699999999999999E-003   -1.558442193131753E-030
 -4.599999999999999E-003   -1.685652780007137E-030
 -4.499999999999999E-003   -1.632275373943402E-030
 -4.399999999999999E-003   -1.352900519111894E-030
 -4.299999999999999E-003   -8.185780610970921E-031
 -4.199999999999999E-003   -2.536380929567246E-032
 -4.099999999999999E-003    9.979941980997554E-031
 -3.999999999999999E-003    2.184498131000814E-030
 -3.899999999999999E-003    3.426816667769309E-030
 -3.799999999999999E-003    4.579936759763600E-030
 -3.699999999999999E-003    5.469536689782286E-030
 -3.599999999999999E-003    5.906584857269248E-030
 -3.499999999999999E-003    5.707974759270416E-030
 -3.399999999999999E-003    4.722157251014432E-030
 -3.299999999999999E-003    2.857768267085333E-030
 -3.199999999999999E-003    1.123082125708408E-031
 -3.099999999999999E-003   -3.402910088656840E-030
 -2.999999999999999E-003   -7.445864998549868E-030
 -2.899999999999999E-003   -1.163943441967046E-029
 -2.799999999999999E-003   -1.548352516351116E-029
 -2.699999999999999E-003   -1.838665027762337E-029
 -2.599999999999999E-003   -1.971812987929007E-029
 -2.499999999999999E-003   -1.887965573064167E-029
 -2.399999999999999E-003   -1.539208883041078E-029
 -2.299999999999999E-003   -8.990221008367930E-030
 -2.199999999999999E-003    2.848043811544826E-031
 -2.099999999999999E-003    1.200814393332243E-029
 -1.999999999999999E-003    2.532317960736630E-029
 -1.899999999999999E-003    3.893692706771455E-029
 -1.799999999999999E-003    5.117108161724529E-029
 -1.699999999999999E-003    6.007704016657351E-029
 -1.599999999999999E-003    6.361681039219775E-029
 -1.499999999999999E-003    5.990379584942107E-029
 -1.399999999999999E-003    4.748795141161149E-029
 -1.299999999999999E-003    2.565985141899253E-029
 -1.199999999999999E-003   -5.260846991466519E-030
 -1.099999999999999E-003   -4.369421549958008E-029
 -9.999999999999989E-004   -8.667131212902064E-029
 -8.999999999999990E-004   -1.298513309082630E-028
 -7.999999999999990E-004   -1.677208913253661E-028
 -6.999999999999989E-004   -1.939970130927027E-028
 -5.999999999999990E-004   -2.022350688189924E-028
 -4.999999999999989E-004   -1.866162982087294E-028
 -3.999999999999989E-004   -1.428601760264573E-028
 -2.999999999999989E-004   -6.917616436794220E-029
 -1.999999999999989E-004    3.285709944864708E-029
 -9.999999999999892E-005    1.576170919231472E-028
  1.084202172485504E-018    2.951059910032246E-028
  1.000000000000011E-004    4.310932374467279E-028
  2.000000000000011E-004    5.478351952075456E-028
  3.000000000000011E-004    6.254271413883081E-028
  4.000000000000011E-004    6.437763380328398E-028
  5.000000000000011E-004    5.851026224402679E-028
  6.000000000000011E-004    4.367831389729620E-028
  7.000000000000011E-004    1.942666733135547E-028
  8.000000000000011E-004   -1.362929643081784E-028
  9.000000000000012E-004   -5.360877047574758E-028
  1.000000000000001E-003   -9.728066648925592E-028
  1.100000000000001E-003   -1.401270413368370E-027
  1.200000000000001E-003   -1.765834676023655E-027
  1.300000000000001E-003   -2.004702140554879E-027
  1.400000000000001E-003   -2.056073695964776E-027
  1.500000000000001E-003   -1.865823983230684E-027
  1.600000000000001E-003   -1.396117717508914E-027
  1.700000000000001E-003   -6.341266769991096E-028
  1.800000000000001E-003    4.002083067622350E-028
  1.900000000000001E-003    1.648564342966752E-027
  2.000000000000001E-003    3.011982658293665E-027
  2.100000000000001E-003    4.353059377948718E-027
  2.200000000000001E-003    5.503375005963801E-027
  2.300000000000001E-003    6.276499472915448E-027
  2.400000000000001E-003    6.486305187669359E-027
  2.500000000000001E-003    5.969601413787433E-027
  2.600000000000001E-003    4.611348166152074E-027
  2.700000000000001E-003    2.369983843593671E-027
  2.800000000000001E-003   -7.001790812855726E-028
  2.900000000000001E-003   -4.432891642749051E-027
  3.000000000000001E-003   -8.543641846731080E-027
  3.100000000000001E-003   -1.263606457777685E-026
  3.200000000000001E-003   -1.622324040041806E-026
  3.300000000000001E-003   -1.876469321543361E-026
  3.400000000000001E-003   -1.971823444468520E-026
  3.500000000000001E-003   -1.860375262543509E-026
  3.600000000000001E-003   -1.507403664463704E-026
  3.700000000000001E-003   -8.985725617392229E-027
  3.800000000000001E-003   -4.619631130161565E-028
  3.900000000000001E-003    1.006252369917952E-026
  4.000000000000001E-003    2.182315054040898E-026
  4.100000000000001E-003    3.374203379240043E-026
  4.200000000000001E-003    4.448497759379109E-026
  4.300000000000001E-003    5.256096951362241E-026
  4.400000000000001E-003    5.646151255361225E-026
  4.500000000000001E-003    5.483198009874653E-026
  4.600000000000002E-003    4.666160236443155E-026
  4.700000000000001E-003    3.147371167425684E-026
  4.800000000000001E-003    9.494011943541110E-027
  4.900000000000002E-003   -1.822753855626859E-026
  5.000000000000001E-003   -4.976512383934491E-026
  5.100000000000001E-003   -8.235643038021841E-026
  5.200000000000001E-003   -1.125470247261660E-025
  5.300000000000002E-003   -1.364446345139294E-025
  5.400000000000001E-003   -1.500759762992175E-025
  5.500000000000001E-003   -1.498255155857049E-025
  5.600000000000002E-003   -1.329214593468344E-025
  5.700000000000001E-003   -9.792214943241530E-026
  5.800000000000001E-003   -4.514621273358615E-026
  5.900000000000002E-003    2.301468975632685E-026
  6.000000000000001E-003    1.019600198651080E-025
  6.100000000000001E-003    1.849721717635765E-025
  6.200000000000002E-003    2.635698609285295E-025
  6.300000000000002E-003    3.281333942625726E-025
  6.400000000000001E-003    3.687817702593393E-025
  6.500000000000001E-003    3.764490122235570E-025
  6.600000000000002E-003    3.440731575174498E-025
  6.700000000000001E-003    2.677816608133784E-025
  6.800000000000001E-003    1.479351915323207E-025
  6.900000000000002E-003   -1.011808780941407E-026
  7.000000000000001E-003   -1.957201290710495E-025
  7.100000000000001E-003   -3.931313783755063E-025
  7.200000000000002E-003   -5.823867488353531E-025
  7.300000000000002E-003   -7.407977458797618E-025
  7.400000000000001E-003   -8.450471138141020E-025
  7.500000000000001E-003   -8.737425366695012E-025
  7.600000000000002E-003   -8.102187261039686E-025
  7.700000000000001E-003   -6.453082148541420E-025
  7.800000000000001E-003   -3.797531543133950E-025
  7.900000000000001E-003   -2.591110845326676E-026
  8.000000000000002E-003    3.915716035938087E-025
  8.100000000000001E-003    8.363876151719973E-025
  8.200000000000001E-003    1.262661138985183E-024
  8.300000000000002E-003    1.618528524707558E-024
  8.400000000000001E-003    1.851061140103280E-024
  8.500000000000002E-003    1.912199497847901E-024
  8.600000000000002E-003    1.765189616663624E-024
  8.700000000000001E-003    1.390863577274255E-024
  8.800000000000002E-003    7.930009067335296E-025
  8.900000000000002E-003    1.980171869555558E-027
  9.000000000000001E-003   -9.240142909189965E-025
  9.100000000000002E-003   -1.900813429918606E-024
  9.200000000000002E-003   -2.823443599342439E-024
  9.300000000000001E-003   -3.574666113176026E-024
  9.400000000000002E-003   -4.036479792212625E-024
  9.500000000000001E-003   -4.103780267885284E-024
  9.600000000000001E-003   -3.698961001521282E-024
  9.700000000000002E-003   -2.785923035310971E-024
  9.800000000000001E-003   -1.381747770051816E-024
  9.900000000000001E-003    4.357476259614368E-025
  1.000000000000000E-002    2.526200000764942E-024
  1.010000000000000E-002    4.691866676544223E-024
  1.020000000000000E-002    6.690433323774933E-024
  1.030000000000000E-002    8.255322475502817E-024
  1.040000000000000E-002    9.122489877606855E-024
  1.050000000000000E-002    9.061756804617926E-024
  1.060000000000000E-002    7.909830361401061E-024
  1.070000000000000E-002    5.601494405115405E-024
  1.080000000000000E-002    2.195006249939126E-024
  1.090000000000000E-002   -2.112272088763176E-024
  1.100000000000000E-002   -6.981564306767953E-024
  1.110000000000000E-002   -1.194633844784366E-023
  1.120000000000000E-002   -1.644319288592307E-023
  1.130000000000000E-002   -1.985947147301718E-023
  1.140000000000000E-002   -2.159512515929386E-023
  1.150000000000000E-002   -2.113418332557944E-023
  1.160000000000000E-002   -1.811937234333428E-023
  1.170000000000000E-002   -1.242186980400476E-023
  1.180000000000000E-002   -4.197351636376181E-024
  1.190000000000000E-002    6.080478819595216E-024
  1.200000000000000E-002    1.761664536995730E-023
  1.210000000000000E-002    2.932765838071524E-023
  1.220000000000000E-002    3.991278421071483E-023
  1.230000000000000E-002    4.796254336970244E-023
  1.240000000000000E-002    5.209856282907031E-023
  1.250000000000000E-002    5.113446667223053E-023
  1.260000000000000E-002    4.424332525970927E-023
  1.270000000000000E-002    3.111391331697026E-023
  1.280000000000000E-002    1.207637962697470E-023
  1.290000000000000E-002   -1.182206884352380E-023
  1.300000000000000E-002   -3.880833817635712E-023
  1.310000000000000E-002   -6.645397143359721E-023
  1.320000000000000E-002   -9.183044830692435E-023
  1.330000000000000E-002   -1.117464377478445E-022
  1.340000000000000E-002   -1.230543956721215E-022
  1.350000000000000E-002   -1.230042055091911E-022
  1.360000000000000E-002   -1.096126295056326E-022
  1.370000000000000E-002   -8.201048886807593E-023
  1.380000000000000E-002   -4.072564982197379E-023
  1.390000000000000E-002    1.213977776930138E-023
  1.400000000000000E-002    7.287480436169909E-023
  1.410000000000000E-002    1.362945626122471E-022
  1.420000000000000E-002    1.960576500576308E-022
  1.430000000000000E-002    2.451608403259179E-022
  1.440000000000000E-002    2.765858613648229E-022
  1.450000000000000E-002    2.840520859679978E-022
  1.460000000000000E-002    2.628108251102723E-022
  1.470000000000000E-002    2.104014008321461E-022
  1.480000000000000E-002    1.272815855939332E-022
  1.490000000000000E-002    1.724467997062808E-023
  1.500000000000000E-002   -1.124559895534317E-022
  1.510000000000000E-002   -2.513321190527412E-022
  1.520000000000000E-002   -3.862678528958292E-022
  1.530000000000000E-002   -5.025005253495782E-022
  1.540000000000000E-002   -5.849288770046184E-022
  1.550000000000000E-002   -6.196585620244094E-022
  1.560000000000000E-002   -5.956554869836931E-022
  1.570000000000000E-002   -5.063474421000802E-022
  1.580000000000000E-002   -3.509953878865839E-022
  1.590000000000000E-002   -1.356545025932272E-022
  1.600000000000000E-002    1.264387161347386E-022
  1.610000000000000E-002    4.151799194912301E-022
  1.620000000000000E-002    7.046792894329062E-022
  1.630000000000000E-002    9.651154702731280E-022
  1.640000000000000E-002    1.165272531455405E-021
  1.650000000000000E-002    1.275596739507384E-021
  1.660000000000000E-002    1.271523588964011E-021
  1.670000000000000E-002    1.136763648934536E-021
  1.680000000000000E-002    8.661972951325265E-022
  1.690000000000000E-002    4.680148642038830E-022
  1.700000000000000E-002   -3.522485382631439E-023
  1.710000000000000E-002   -6.068890445254120E-022
  1.720000000000000E-002   -1.198071360721758E-021
  1.730000000000000E-002   -1.750928497348189E-021
  1.740000000000000E-002   -2.203411614349056E-021
  1.750000000000000E-002   -2.495100256651472E-021
  1.760000000000000E-002   -2.573676956756131E-021
  1.770000000000000E-002   -2.401458787551088E-021
  1.780000000000000E-002   -1.961311564740040E-021
  1.790000000000000E-002   -1.261246926845028E-021
  1.800000000000000E-002   -3.370452001978433E-022
  1.810000000000000E-002    7.476424932074354E-022
  1.820000000000000E-002    1.904054020324709E-021
  1.830000000000000E-002    3.024046932597615E-021
  1.840000000000000E-002    3.988607016371764E-021
  1.850000000000000E-002    4.678613212665292E-021
  1.860000000000000E-002    4.987054285555847E-021
  1.870000000000000E-002    4.831625794715589E-021