 -4.000000000000000E-002    0.000000000000000E+000
 -3.990000000000000E-002    0.000000000000000E+000
 -3.980000000000000E-002    0.000000000000000E+000
 -3.970000000000000E-002    0.000000000000000E+000
 -3.960000000000000E-002    0.000000000000000E+000
 -3.950000000000000E-002    0.000000000000000E+000
 -3.940000000000000E-002    0.000000000000000E+000
 -3.930000000000000E-002    0.000000000000000E+000
 -3.920000000000000E-002    0.000000000000000E+000
 -3.910000000000000E-002    0.000000000000000E+000
 -3.900000000000000E-002    0.000000000000000E+000
 -3.890000000000000E-002    0.000000000000000E+000
 -3.880000000000000E-002    0.000000000000000E+000
 -3.870000000000000E-002    0.000000000000000E+000
 -3.860000000000000E-002    0.000000000000000E+000
 -3.850000000000000E-002    0.000000000000000E+000
 -3.840000000000000E-002    0.000000000000000E+000
 -3.830000000000000E-002    0.000000000000000E+000
 -3.820000000000000E-002    0.000000000000000E+000
 -3.810000000000000E-002    0.000000000000000E+000
 -3.800000000000000E-002    0.000000000000000E+000
 -3.790000000000000E-002    0.000000000000000E+000
 -3.780000000000000E-002    0.000000000000000E+000
 -3.770000000000000E-002    0.000000000000000E+000
 -3.760000000000000E-002    0.000000000000000E+000
 -3.750000000000000E-002    0.000000000000000E+000
 -3.740000000000000E-002    0.000000000000000E+000
 -3.730000000000000E-002    0.000000000000000E+000
 -3.720000000000000E-002    0.000000000000000E+000
 -3.710000000000000E-002    0.000000000000000E+000
 -3.700000000000000E-002    0.000000000000000E+000
 -3.690000000000000E-002    0.000000000000000E+000
 -3.680000000000000E-002    3.868802447966698E-047
 -3.670000000000000E-002    8.635653838524374E-047
 -3.660000000000000E-002    1.224787087432222E-046
 -3.650000000000000E-002    2.244305845129364E-046
 -3.640000000000000E-002    6.254230269788930E-046
 -3.630000000000000E-002    2.232971272507909E-045
 -3.620000000000000E-002    5.729720777423228E-045
 -3.610000000000000E-002    1.494407689322934E-044
 -3.600000000000000E-002    3.432637528966492E-044
 -3.590000000000000E-002    7.709233405776143E-044
 -3.580000000000000E-002    1.662360655683965E-043
 -3.570000000000000E-002    3.390305040887647E-043
 -3.560000000000000E-002    6.527150086380780E-043
 -3.550000000000000E-002    1.179160016740243E-042
 -3.540000000000000E-002    1.969541427014818E-042
 -3.530000000000000E-002    2.954399239969412E-042
 -3.520000000000000E-002    3.689114233484223E-042
 -3.510000000000000E-002    2.826391725709577E-042
 -3.500000000000000E-002   -2.922708868335256E-042
 -3.490000000000000E-002   -2.063137882231218E-041
 -3.480000000000000E-002   -6.420603630636412E-041
 -3.470000000000000E-002   -1.589860494758567E-040
 -3.460000000000000E-002   -3.479634839996450E-040
 -3.450000000000000E-002   -6.988512237973776E-040
 -3.440000000000000E-002   -1.309419979115051E-039
 -3.430000000000000E-002   -2.305208085189244E-039
 -3.420000000000000E-002   -3.818115014299977E-039
 -3.410000000000000E-002   -5.926043704250017E-039
 -3.400000000000000E-002   -8.522446540665310E-039
 -3.390000000000000E-002   -1.107144749592078E-038
 -3.380000000000000E-002   -1.219245511882106E-038
 -3.370000000000000E-002   -9.014708125450305E-039
 -3.360000000000000E-002    3.740232210873774E-039
 -3.350000000000000E-002    3.493254483291800E-038
 -3.340000000000000E-002    9.829307246426690E-038
 -3.330000000000000E-002    2.134563202693983E-037
 -3.320000000000000E-002    4.060001193084930E-037
 -3.310000000000000E-002    7.052157798492053E-037
 -3.300000000000000E-002    1.137629594094370E-036
 -3.290000000000000E-002    1.713484236431255E-036
 -3.280000000000000E-002    2.402619442072920E-036
 -3.270000000000000E-002    3.095792385208221E-036
 -3.260000000000000E-002    3.547958592902674E-036
 -3.250000000000000E-002    3.302147559614098E-036
 -3.240000000000000E-002    1.597391440070090E-036
 -3.230000000000000E-002   -2.727135063179974E-036
 -3.220000000000000E-002   -1.130582953247812E-035
 -3.210000000000000E-002   -2.625236463477211E-035
 -3.200000000000000E-002   -5.002573717951572E-035
 -3.190000000000000E-002   -8.505482600104369E-035
 -3.180000000000000E-002   -1.329899704330571E-034
 -3.170000000000000E-002   -1.934291281868830E-034
 -3.160000000000000E-002   -2.619679297531066E-034
 -3.150000000000000E-002   -3.274674599171591E-034
 -3.140000000000000E-002   -3.685459551239832E-034
 -3.130000000000000E-002   -3.495132527688241E-034
 -3.120000000000000E-002   -2.163043962576766E-034
 -3.110000000000000E-002    1.065375768353324E-034
 -3.100000000000000E-002    7.161359681296616E-034
 -3.090000000000000E-002    1.726346399542593E-033
 -3.080000000000000E-002    3.254353248838365E-033
 -3.070000000000000E-002    5.394852502349126E-033
 -3.060000000000000E-002    8.177620753244415E-033
 -3.050000000000000E-002    1.150476994122613E-032
 -3.040000000000000E-002    1.506580668409612E-032
 -3.030000000000000E-002    1.823216733416345E-032
 -3.020000000000000E-002    1.993908170418140E-032
 -3.010000000000000E-002    1.857148883680227E-032
 -3.000000000000000E-002    1.188277578571432E-032
 -2.990000000000000E-002   -3.010315811454138E-033
 -2.980000000000000E-002   -2.949733813010814E-032
 -2.970000000000000E-002   -7.113438625859451E-032
 -2.960000000000000E-002   -1.310121882533045E-031
 -2.950000000000000E-002   -2.107508643073035E-031
 -2.940000000000000E-002   -3.090617372870240E-031
 -2.930000000000000E-002   -4.198654354122704E-031
 -2.920000000000000E-002   -5.300414635098688E-031
 -2.910000000000000E-002   -6.170101259792733E-031
 -2.900000000000000E-002   -6.465306937416932E-031
 -2.890000000000000E-002   -5.713058726611963E-031
 -2.880000000000000E-002   -3.312309745460683E-031
 -2.870000000000000E-002    1.436477873799210E-031
 -2.860000000000000E-002    9.262479087312053E-031
 -2.850000000000000E-002    2.080376405243781E-030
 -2.840000000000000E-002    3.642452794419916E-030
 -2.830000000000000E-002    5.596543003164218E-030
 -2.820000000000000E-002    7.843264667042173E-030
 -2.810000000000000E-002    1.016464648621090E-029
 -2.800000000000000E-002    1.218913042594680E-029
 -2.790000000000000E-002    1.336348938076757E-029
 -2.780000000000000E-002    1.294121754536368E-029
 -2.770000000000000E-002    9.999753585786761E-030
 -2.760000000000000E-002    3.500616059804822E-030
 -2.750000000000000E-002   -7.592895330309913E-030
 -2.740000000000000E-002   -2.412828081351838E-029
 -2.730000000000000E-002   -4.650032774687947E-029
 -2.720000000000000E-002   -7.431599523853410E-029
 -2.710000000000000E-002   -1.060075842033257E-028
 -2.700000000000000E-002   -1.384360058789179E-028
 -2.690000000000000E-002   -1.665506265773129E-028
 -2.680000000000000E-002   -1.831999714815389E-028
 -2.670000000000000E-002   -1.792113830475180E-028
 -2.660000000000000E-002   -1.438749250145673E-028
 -2.650000000000000E-002   -6.596535448385395E-029
 -2.640000000000000E-002    6.458665123475576E-029
 -2.630000000000000E-002    2.543252409726757E-028
 -2.620000000000000E-002    5.032493919577855E-028
 -2.610000000000000E-002    8.013371021304079E-028
 -2.600000000000000E-002    1.124990418887482E-027
 -2.590000000000000E-002    1.433995690808819E-027
 -2.580000000000000E-002    1.669810789433777E-027
 -2.570000000000000E-002    1.756167833938345E-027
 -2.560000000000000E-002    1.603089007751484E-027
 -2.550000000000000E-002    1.115367380121834E-027
 -2.540000000000000E-002    2.062903367538587E-028
 -2.530000000000000E-002   -1.183130158106585E-027
 -2.520000000000000E-002   -3.059995969872209E-027
 -2.510000000000000E-002   -5.352200228290734E-027
 -2.500000000000000E-002   -7.881103290564359E-027
 -2.490000000000000E-002   -1.033896172761317E-026
 -2.480000000000000E-002   -1.227741099634489E-026
 -2.470000000000000E-002   -1.311441743927698E-026
 -2.460000000000000E-002   -1.216759410861420E-026
 -2.450000000000000E-002   -8.721036183480527E-027
 -2.440000000000000E-002   -2.130586199482455E-027
 -2.430000000000000E-002    8.031925694704555E-027
 -2.420000000000000E-002    2.180102534438227E-026
 -2.410000000000000E-002    3.862060168188314E-026
 -2.400000000000000E-002    5.715148337406937E-026
 -2.390000000000000E-002    7.511793265497008E-026
 -2.380000000000000E-002    8.923665641060687E-026
 -2.370000000000000E-002    9.527905663756404E-026
 -2.360000000000000E-002    8.831786989472556E-026
 -2.350000000000000E-002    6.320317783928433E-026
 -2.340000000000000E-002    1.529531209697095E-026
 -2.330000000000000E-002   -5.854685925297849E-026
 -2.320000000000000E-002   -1.587657475623992E-025
 -2.310000000000000E-002   -2.817902640368740E-025
 -2.300000000000000E-002   -4.187635057805559E-025
 -2.290000000000000E-002   -5.545331654874290E-025
 -2.280000000000000E-002   -6.671787465781640E-025
 -2.270000000000000E-002   -7.283827631044167E-025
 -2.260000000000000E-002   -7.049533053763548E-025
 -2.250000000000000E-002   -5.617573299209947E-025
 -2.240000000000000E-002   -2.662140888869640E-025
 -2.230000000000000E-002    2.056744315414227E-025
 -2.220000000000000E-002    8.620311853013383E-025
 -2.210000000000000E-002    1.687117925509424E-024
 -2.200000000000000E-002    2.633569699978839E-024
 -2.190000000000000E-002    3.616092274320056E-024
 -2.180000000000000E-002    4.508150343731337E-024
 -2.170000000000000E-002    5.143328288118950E-024
 -2.160000000000000E-002    5.323027665428906E-024
 -2.150000000000000E-002    4.831880861609147E-024
 -2.140000000000000E-002    3.461649327858835E-024
 -2.130000000000000E-002    1.043487541044890E-024
 -2.120000000000000E-002   -2.512884615472281E-024
 -2.110000000000000E-002   -7.176011489198598E-024
 -2.100000000000000E-002   -1.275017671548136E-023
 -2.090000000000000E-002   -1.883976126012714E-023
 -2.080000000000000E-002   -2.482803521762665E-023
 -2.070000000000000E-002   -2.987865639237235E-023
 -2.060000000000000E-002   -3.296795060674117E-023
 -2.050000000000000E-002   -3.295455115163097E-023
 -2.040000000000000E-002   -2.869021144743909E-023
 -2.030000000000000E-002   -1.917106763320465E-023
 -2.020000000000000E-002   -3.722914746389709E-024
 -2.010000000000000E-002    1.779307405611451E-023
 -2.000000000000000E-002    4.477499298829046E-023
 -1.990000000000000E-002    7.570330217301081E-023
 -1.980000000000000E-002    1.080258351607848E-022
 -1.970000000000000E-002    1.381411401385435E-022
 -1.960000000000000E-002    1.615151977103080E-022
 -1.950000000000000E-002    1.729599697629564E-022
 -1.940000000000000E-002    1.670896353519823E-022
 -1.930000000000000E-002    1.389514780834834E-022
 -1.920000000000000E-002    8.480412036448325E-023
 -1.910000000000000E-002    2.986888068602952E-024
 -1.900000000000000E-002   -1.052060490438293E-022
 -1.890000000000000E-002   -2.347605080950434E-022
 -1.880000000000000E-002   -3.764210733354577E-022
 -1.870000000000000E-002   -5.165585759184139E-022
 -1.860000000000000E-002   -6.375635972325405E-022
 -1.850000000000000E-002   -7.188739363793425E-022
 -1.840000000000000E-002   -7.386969073973648E-022
 -1.830000000000000E-002   -6.764070028608825E-022
 -1.820000000000000E-002   -5.155107248354643E-022
 -1.810000000000000E-002   -2.469586454458461E-022
 -1.800000000000000E-002    1.275248593808685E-022
 -1.790000000000000E-002    5.925232022997245E-022
 -1.780000000000000E-002    1.116921142177282E-021
 -1.770000000000000E-002    1.653336314412926E-021
 -1.760000000000000E-002    2.139480144948512E-021
 -1.750000000000000E-002    2.501822147035312E-021
 -1.740000000000000E-002    2.661743665488833E-021
 -1.730000000000000E-002    2.544088334551618E-021
 -1.720000000000000E-002    2.087674060362606E-021
 -1.710000000000000E-002    1.256959286762306E-021
 -1.700000000000000E-002    5.367083322009995E-023
 -1.690000000000000E-002   -1.473125507108102E-021
 -1.680000000000000E-002   -3.220248617369779E-021
 -1.670000000000000E-002   -5.028710158127113E-021
 -1.660000000000000E-002   -6.688727395805614E-021
 -1.650000000000000E-002   -7.952633742486540E-021
 -1.640000000000000E-002   -8.556176561550359E-021
 -1.630000000000000E-002   -8.247743936731141E-021
 -1.620000000000000E-002   -6.823885073777496E-021
 -1.610000000000000E-002   -4.168264929894483E-021
 -1.600000000000000E-002   -2.899490164099729E-022
 -1.590000000000000E-002    4.644084820992773E-021
 -1.580000000000000E-002    1.028793336802485E-020
 -1.570000000000000E-002    1.611300272003412E-020
 -1.560000000000000E-002    2.142659061827233E-020
 -1.550000000000000E-002    2.541631512478687E-020
 -1.540000000000000E-002    2.722154792384682E-020
 -1.530000000000000E-002    2.602984195444790E-020
 -1.520000000000000E-002    2.119262155791849E-020
 -1.510000000000000E-002    1.235043840099864E-020
 -1.500000000000000E-002   -4.456012436982434E-022
 -1.490000000000000E-002   -1.663259849603316E-020
 -1.480000000000000E-002   -3.507280922117995E-020
 -1.470000000000000E-002   -5.404650730157821E-020
 -1.460000000000000E-002   -7.131601331317604E-020
 -1.450000000000000E-002   -8.427083279663564E-020
 -1.440000000000000E-002   -9.015642525966629E-020
 -1.430000000000000E-002   -8.637896269021317E-020
 -1.420000000000000E-002   -7.086732592965707E-020
 -1.410000000000000E-002   -4.246156281687940E-020
 -1.400000000000000E-002   -1.286270354046613E-021
 -1.390000000000000E-002    5.094096408444195E-020
 -1.380000000000000E-002    1.107200790305542E-019
 -1.370000000000000E-002    1.727502317955678E-019
 -1.360000000000000E-002    2.301267908908758E-019
 -1.350000000000000E-002    2.747812235826184E-019
 -1.340000000000000E-002    2.981689683306436E-019
 -1.330000000000000E-002    2.921804250141122E-019
 -1.320000000000000E-002    2.502177982893348E-019
 -1.310000000000000E-002    1.683465699512695E-019
 -1.300000000000000E-002    4.640013610428191E-020
 -1.290000000000000E-002   -1.111064720122843E-019
 -1.280000000000000E-002   -2.944076529254713E-019
 -1.270000000000000E-002   -4.884102631625913E-019
 -1.260000000000000E-002   -6.732311834087035E-019
 -1.250000000000000E-002   -8.254238958557857E-019
 -1.240000000000000E-002   -9.199042937420426E-019
 -1.230000000000000E-002   -9.325035350635941E-019
 -1.220000000000000E-002   -8.429860819001712E-019
 -1.210000000000000E-002   -6.382776778915194E-019
 -1.200000000000000E-002   -3.155701750232389E-019
 -1.190000000000000E-002    1.150901632487206E-019
 -1.180000000000000E-002    6.291468654909472E-019
 -1.170000000000000E-002    1.187204041519292E-018
 -1.160000000000000E-002    1.736347923560852E-018
 -1.150000000000000E-002    2.213313888672889E-018
 -1.140000000000000E-002    2.549520124764339E-018
 -1.130000000000000E-002    2.677771929345280E-018
 -1.120000000000000E-002    2.540207710074428E-018
 -1.110000000000000E-002    2.096816787600344E-018
 -1.100000000000000E-002    1.333660709811786E-018
 -1.090000000000000E-002    2.697871982830457E-019
 -1.080000000000000E-002   -1.038234416025253E-018
 -1.070000000000000E-002   -2.495155440715437E-018
 -1.060000000000000E-002   -3.970080524852307E-018
 -1.050000000000000E-002   -5.304179094608880E-018
 -1.040000000000000E-002   -6.323111391282548E-018
 -1.030000000000000E-002   -6.853665155533177E-018
 -1.020000000000000E-002   -6.743521276733748E-018
 -1.010000000000000E-002   -5.882480068691451E-018
 -1.000000000000000E-002   -4.222990209423904E-018
 -9.899999999999999E-003   -1.797497604356312E-018
 -9.800000000000000E-003    1.269994983028574E-018
 -9.699999999999999E-003    4.760583866142919E-018
 -9.599999999999999E-003    8.367279530452469E-018
 -9.500000000000000E-003    1.171312305942845E-017
 -9.399999999999999E-003    1.438065451653815E-017
 -9.299999999999999E-003    1.595148157218497E-017
 -9.200000000000000E-003    1.605332016589371E-017
 -9.099999999999999E-003    1.441050499880086E-017
 -8.999999999999999E-003    1.089284452603364E-017
 -8.900000000000000E-003    5.556932086244596E-018
 -8.799999999999999E-003   -1.326184608847200E-018
 -8.699999999999999E-003   -9.262629533490358E-018
 -8.600000000000000E-003   -1.755110363823747E-017
 -8.499999999999999E-003   -2.532462585944047E-017
 -8.399999999999999E-003   -3.161862969718264E-017
 -8.300000000000000E-003   -3.546243303835748E-017
 -8.199999999999999E-003   -3.598790118806087E-017
 -8.100000000000000E-003   -3.254601480447119E-017
 -8.000000000000000E-003   -2.481955961040230E-017
 -7.899999999999999E-003   -1.291844390757665E-017
 -7.800000000000000E-003    2.556240453466787E-018
 -7.699999999999999E-003    2.049219456551234E-017
 -7.599999999999999E-003    3.929999961496026E-017
 -7.499999999999999E-003    5.700704370866777E-017
 -7.399999999999999E-003    7.141118113736025E-017
 -7.299999999999999E-003    8.028736058340399E-017
 -7.199999999999999E-003    8.163326057291594E-017
 -7.100000000000000E-003    7.393319944605952E-017
 -6.999999999999999E-003    5.641394203553119E-017
 -6.899999999999999E-003    2.926242262347002E-017
 -6.800000000000000E-003   -6.225488529318069E-018
 -6.699999999999999E-003   -4.759359316727988E-017
 -6.599999999999999E-003   -9.129371825318024E-017
 -6.499999999999999E-003   -1.328867345910918E-016
 -6.399999999999999E-003   -1.673765305584393E-016
 -6.299999999999999E-003   -1.896627190648963E-016
 -6.199999999999999E-003   -1.950820084516977E-016
 -6.100000000000000E-003   -1.799939898338928E-016
 -5.999999999999999E-003   -1.423544327176292E-016
 -5.899999999999999E-003   -8.221120656986548E-017
 -5.800000000000000E-003   -2.056377060460689E-018
 -5.699999999999999E-003    9.302799443547479E-017
 -5.599999999999999E-003    1.954794431480422E-016
 -5.499999999999999E-003    2.956502139553939E-016
 -5.399999999999999E-003    3.824911538328242E-016
 -5.299999999999999E-003    4.444972980465258E-016
 -5.199999999999999E-003    4.708556976588516E-016
 -5.099999999999999E-003    4.527042159702686E-016
 -4.999999999999999E-003    3.843845939171086E-016
 -4.899999999999999E-003    2.645551672186669E-016
 -4.799999999999999E-003    9.702298767578434E-017
 -4.699999999999999E-003   -1.088362900849823E-016
 -4.599999999999999E-003   -3.381786946317865E-016
 -4.499999999999999E-003   -5.713814553090788E-016
 -4.399999999999999E-003   -7.853376340556897E-016
 -4.299999999999999E-003   -9.553118904304784E-016
 -4.199999999999999E-003   -1.057244757575235E-015
 -4.099999999999999E-003   -1.070332537838537E-015
 -3.999999999999999E-003   -9.796509226737033E-016
 -3.899999999999999E-003   -7.785569552286351E-016
 -3.799999999999999E-003   -4.705846513535038E-016
 -3.699999999999999E-003   -7.056553997963831E-017
 -3.599999999999999E-003    3.952548059887313E-016
 -3.499999999999999E-003    8.902577970715683E-016
 -3.399999999999999E-003    1.369706563490535E-015
 -3.299999999999999E-003    1.784150108497233E-015
 -3.199999999999999E-003    2.083784513728886E-015
 -3.099999999999999E-003    2.223452183852733E-015
 -2.999999999999999E-003    2.167849601018052E-015
 -2.899999999999999E-003    1.896432782778590E-015
 -2.799999999999999E-003    1.407475973830938E-015
 -2.699999999999999E-003    7.207457099537659E-016
 -2.599999999999999E-003   -1.216674411781986E-016
 -2.499999999999999E-003   -1.056692768594019E-015
 -2.399999999999999E-003   -2.003947514258506E-015
 -2.299999999999999E-003   -2.871657649056618E-015
 -2.199999999999999E-003   -3.564514811448886E-015
 -2.099999999999999E-003   -3.992913119237738E-015
 -1.999999999999999E-003   -4.082785999800175E-015
 -1.899999999999999E-003   -3.785110439916273E-015
 -1.799999999999999E-003   -3.084048910051535E-015
 -1.699999999999999E-003   -2.002711233877406E-015
 -1.599999999999999E-003   -6.056326350990104E-016
 -1.499999999999999E-003    1.002707525682436E-015
 -1.399999999999999E-003    2.683682211393422E-015
 -1.299999999999999E-003    4.274581167885064E-015
 -1.199999999999999E-003    5.602440890068257E-015
 -1.099999999999999E-003    6.500688208522048E-015
 -9.999999999999989E-004    6.827222820248405E-015
 -8.999999999999990E-004    6.482245014482557E-015
 -7.999999999999990E-004    5.423939149559531E-015
 -6.999999999999989E-004    3.680100975468358E-015
 -5.999999999999990E-004    1.353978840567906E-015
 -4.999999999999989E-004   -1.377025731999886E-015
 -3.999999999999989E-004   -4.270582768114824E-015
 -2.999999999999989E-004   -7.036645140338021E-015
 -1.999999999999989E-004   -9.361882780010699E-015
 -9.999999999999892E-005   -1.093972722652839E-014
  1.084202172485504E-018   -1.150362353123644E-014
  1.000000000000011E-004   -1.086043635217484E-014
  2.000000000000011E-004   -8.920545520782658E-015
  3.000000000000011E-004   -5.721064351230442E-015
  4.000000000000011E-004   -1.438855919676902E-015
  5.000000000000011E-004    3.609346596064705E-015
  6.000000000000011E-004    8.981425145550497E-015
  7.000000000000011E-004    1.413939936153361E-014
  8.000000000000011E-004    1.849291492706119E-014
  9.000000000000012E-004    2.145401694917187E-014
  1.000000000000001E-003    2.249906963156412E-014
  1.100000000000001E-003    2.123236269106924E-014
  1.200000000000001E-003    1.744505827353399E-014
  1.300000000000001E-003    1.116280880604344E-014
  1.400000000000001E-003    2.675644307781970E-015
  1.500000000000001E-003   -7.455277354315073E-015
  1.600000000000001E-003   -1.841782703312388E-014
  1.700000000000001E-003   -2.919743261633805E-014
  1.800000000000001E-003   -3.865282098977077E-014
  1.900000000000001E-003   -4.561481977742164E-014
  2.000000000000001E-003   -4.900120973508256E-014
  2.100000000000001E-003   -4.793813753953712E-014
  2.200000000000001E-003   -4.187662872033483E-014
  2.300000000000001E-003   -3.069186625841876E-014
  2.400000000000001E-003   -1.475296694060571E-014
  2.500000000000001E-003    5.047522518354380E-015
  2.600000000000001E-003    2.731253182057702E-014
  2.700000000000001E-003    5.021206106765160E-014
  2.800000000000001E-003    7.160698605360681E-014
  2.900000000000001E-003    8.921934038728267E-014
  3.000000000000001E-003    1.008379323668719E-013
  3.100000000000001E-003    1.045432494715329E-013
  3.200000000000001E-003    9.893182101788120E-014
  3.300000000000001E-003    8.331765442242825E-014
  3.400000000000001E-003    5.788806222623350E-014
  3.500000000000001E-003    2.379294963543592E-014
  3.600000000000001E-003   -1.684919923386917E-014
  3.700000000000001E-003   -6.103923231336330E-014
  3.800000000000001E-003   -1.050815956258358E-013
  3.900000000000001E-003   -1.448580391860091E-013
  4.000000000000001E-003   -1.761743405770202E-013
  4.100000000000001E-003   -1.951543956981450E-013
  4.200000000000001E-003   -1.986482513227864E-013
  4.300000000000001E-003   -1.846156670366860E-013
  4.400000000000001E-003   -1.524446148033401E-013
  4.500000000000001E-003   -1.031661826325275E-013
  4.600000000000002E-003   -3.953322085314896E-014
  4.700000000000001E-003    3.406003583196966E-014
  4.800000000000001E-003    1.118268138124450E-013
  4.900000000000002E-003    1.869989081372435E-013
  5.000000000000001E-003    2.523767590402488E-013
  5.100000000000001E-003    3.009793281870322E-013
  5.200000000000001E-003    3.267397540181390E-013
  5.300000000000002E-003    3.251829098603491E-013
  5.400000000000001E-003    2.940156636574410E-013
  5.500000000000001E-003    2.335621509988334E-013
  5.600000000000002E-003    1.469845894780349E-013
  5.700000000000001E-003    4.024577777847383E-014
  5.800000000000001E-003   -7.820978793775992E-014
  5.900000000000002E-003   -1.980525788694718E-013
  6.000000000000001E-003   -3.079112172066768E-013
  6.100000000000001E-003   -3.964020038232287E-013
  6.200000000000002E-003   -4.532600500450697E-013
  6.300000000000002E-003   -4.704678788546147E-013
  6.400000000000001E-003   -4.432670923724996E-013
  6.500000000000001E-003   -3.709384069683242E-013
  6.600000000000002E-003   -2.572477064358271E-013
  6.700000000000001E-003   -1.104788051406796E-013
  6.800000000000001E-003    5.699189028213447E-014
  6.900000000000002E-003    2.295813147015759E-013
  7.000000000000001E-003    3.898019922768880E-013
  7.100000000000001E-003    5.198886595012269E-013
  7.200000000000002E-003    6.036144654188799E-013
  7.300000000000002E-003    6.281286763879053E-013
  7.400000000000001E-003    5.856280450765566E-013
  7.500000000000001E-003    4.746718491877427E-013
  7.600000000000002E-003    3.009672871795429E-013
  7.700000000000001E-003    7.748954925454899E-014
  7.800000000000001E-003   -1.761449269244500E-013
  7.900000000000001E-003   -4.350646440461526E-013
  8.000000000000002E-003   -6.712236218507638E-013
  8.100000000000001E-003   -8.560328904038152E-013
  8.200000000000001E-003   -9.633267005491775E-013
  8.300000000000002E-003   -9.723908880779957E-013
  8.400000000000001E-003   -8.707448758320960E-013
  8.500000000000002E-003   -6.563624717322055E-013
  8.600000000000002E-003   -3.390412935845351E-013
  8.700000000000001E-003    5.931135055809135E-014
  8.800000000000002E-003    5.056210178247016E-013
  8.900000000000002E-003    9.578501362402892E-013
  9.000000000000001E-003    1.368370404796730E-012
  9.100000000000002E-003    1.688280687380860E-012
  9.200000000000002E-003    1.872325082351447E-012
  9.300000000000001E-003    1.883971437097514E-012
  9.400000000000002E-003    1.700146711029510E-012
  9.500000000000001E-003    1.315106976884226E-012
  9.600000000000001E-003    7.429601227225589E-013
  9.700000000000002E-003    1.844023582768153E-014
  9.800000000000001E-003   -8.043243823859869E-013
  9.900000000000001E-003   -1.655133440488698E-012
  1.000000000000000E-002   -2.453004374121345E-012
  1.010000000000000E-002   -3.113098792436953E-012
  1.020000000000000E-002   -3.554752181929481E-012
  1.030000000000000E-002   -3.709911190844574E-012
  1.040000000000000E-002   -3.531176636449275E-012
  1.050000000000000E-002   -2.998602855525588E-012
  1.060000000000000E-002   -2.124458329594474E-012
  1.070000000000000E-002   -9.552720689125745E-013
  1.080000000000000E-002    4.292982456927719E-013
  1.090000000000000E-002    1.920967066941039E-012
  1.100000000000000E-002    3.390561158144999E-012
  1.110000000000000E-002    4.698533748179799E-012
  1.120000000000000E-002    5.707472926122181E-012
  1.130000000000000E-002    6.295548117946949E-012
  1.140000000000000E-002    6.369649416982588E-012
  1.150000000000000E-002    5.876906427053455E-012
  1.160000000000000E-002    4.813298364938332E-012
  1.170000000000000E-002    3.228263508520895E-012
  1.180000000000000E-002    1.224505314708060E-012
  1.190000000000000E-002   -1.047395953822550E-012
  1.200000000000000E-002   -3.399471716639272E-012
  1.210000000000000E-002   -5.621349160007983E-012
  1.220000000000000E-002   -7.498628740080455E-012
  1.230000000000000E-002   -8.833125867596253E-012
  1.240000000000000E-002   -9.463132894735602E-012
  1.250000000000000E-002   -9.281720484047026E-012
  1.260000000000000E-002   -8.251107547271312E-012
  1.270000000000000E-002   -6.411392568861542E-012
  1.280000000000000E-002   -3.882339344987486E-012
  1.290000000000000E-002   -8.575097456079592E-013
  1.300000000000000E-002    2.409256096290112E-012
  1.310000000000000E-002    5.624259898143486E-012
  1.320000000000000E-002    8.479757049910470E-012
  1.330000000000000E-002    1.068301205545538E-011
  1.340000000000000E-002    1.198594505211456E-011
  1.350000000000000E-002    1.221248878126625E-011
  1.360000000000000E-002    1.128074679891239E-011
  1.370000000000000E-002    9.217391449031368E-012
  1.380000000000000E-002    6.162278627900382E-012
  1.390000000000000E-002    2.362135915164259E-012
  1.400000000000000E-002   -1.846852697439119E-012
  1.410000000000000E-002   -6.066613544725075E-012
  1.420000000000000E-002   -9.872871897202250E-012
  1.430000000000000E-002   -1.285597681833656E-011
  1.440000000000000E-002   -1.466311500756567E-011
  1.450000000000000E-002   -1.503779368974998E-011
  1.460000000000000E-002   -1.385240597390883E-011
  1.470000000000000E-002   -1.113011302745291E-011
  1.480000000000000E-002   -7.053065674746063E-012
  1.490000000000000E-002   -1.955148619406561E-012
  1.500000000000000E-002    3.701143193574262E-012
  1.510000000000000E-002    9.362518259117490E-012
  1.520000000000000E-002    1.443463618732362E-011
  1.530000000000000E-002    1.833966455570125E-011
  1.540000000000000E-002    2.057638354404538E-011
  1.550000000000000E-002    2.077698605355674E-011
  1.560000000000000E-002    1.875460692308807E-011
  1.570000000000000E-002    1.453609999813235E-011
  1.580000000000000E-002    8.375695533694875E-012
  1.590000000000000E-002    7.467534590957457E-013
  1.600000000000000E-002   -7.689172545715948E-012
  1.610000000000000E-002   -1.613451848323409E-011
  1.620000000000000E-002   -2.372548977128885E-011
  1.630000000000000E-002   -2.961371917093644E-011
  1.640000000000000E-002   -3.305253579002114E-011
  1.650000000000000E-002   -3.347956178261080E-011
  1.660000000000000E-002   -3.058714264853749E-011
  1.670000000000000E-002   -2.437271031145770E-011
  1.680000000000000E-002   -1.516261698551591E-011
  1.690000000000000E-002   -3.605176575143105E-012
  1.700000000000000E-002    9.368638109022795E-012
  1.710000000000000E-002    2.261524924779986E-011
  1.720000000000000E-002    3.487456208801690E-011
  1.730000000000000E-002    4.488446976552904E-011
  1.740000000000000E-002    5.150375714233049E-011
  1.750000000000000E-002    5.383198877385166E-011
  1.760000000000000E-002    5.131430595815378E-011
  1.770000000000000E-002    4.381993577220586E-011
  1.780000000000000E-002    3.168484112832183E-011
  1.790000000000000E-002    1.571194220324082E-011
  1.800000000000000E-002   -2.873947467635452E-012
  1.810000000000000E-002   -2.251513122593472E-011
  1.820000000000000E-002   -4.144818896674172E-011
  1.830000000000000E-002   -5.785943567858385E-011
  1.840000000000000E-002   -7.005538932980009E-011
  1.850000000000000E-002   -7.663266308418648E-011
  1.860000000000000E-002   -7.663067365904043E-011
  1.870000000000000E-002   -6.965135116434983E-011