 -4.000000000000000E-002    0.000000000000000E+000
 -3.990000000000000E-002    0.000000000000000E+000
 -3.980000000000000E-002    0.000000000000000E+000
 -3.970000000000000E-002    0.000000000000000E+000
 -3.960000000000000E-002    0.000000000000000E+000
 -3.950000000000000E-002    0.000000000000000E+000
 -3.940000000000000E-002    0.000000000000000E+000
 -3.930000000000000E-002    0.000000000000000E+000
 -3.920000000000000E-002    0.000000000000000E+000
 -3.910000000000000E-002    0.000000000000000E+000
 -3.900000000000000E-002    0.000000000000000E+000
 -3.890000000000000E-002    0.000000000000000E+000
 -3.880000000000000E-002    0.000000000000000E+000
 -3.870000000000000E-002    0.000000000000000E+000
 -3.860000000000000E-002    0.000000000000000E+000
 -3.850000000000000E-002    0.000000000000000E+000
 -3.840000000000000E-002    0.000000000000000E+000
 -3.830000000000000E-002    0.000000000000000E+000
 -3.820000000000000E-002    0.000000000000000E+000
 -3.810000000000000E-002    0.000000000000000E+000
 -3.800000000000000E-002    0.000000000000000E+000
 -3.790000000000000E-002    0.000000000000000E+000
 -3.780000000000000E-002    0.000000000000000E+000
 -3.770000000000000E-002    0.000000000000000E+000
 -3.760000000000000E-002    0.000000000000000E+000
 -3.750000000000000E-002    0.000000000000000E+000
 -3.740000000000000E-002    0.000000000000000E+000
 -3.730000000000000E-002    0.000000000000000E+000
 -3.720000000000000E-002    0.000000000000000E+000
 -3.710000000000000E-002    0.000000000000000E+000
 -3.700000000000000E-002    0.000000000000000E+000
 -3.690000000000000E-002    0.000000000000000E+000
 -3.680000000000000E-002    0.000000000000000E+000
 -3.670000000000000E-002    0.000000000000000E+000
 -3.660000000000000E-002    0.000000000000000E+000
 -3.650000000000000E-002    0.000000000000000E+000
 -3.640000000000000E-002    0.000000000000000E+000
 -3.630000000000000E-002    6.414635304221270E-048
 -3.620000000000000E-002    6.977244119065092E-047
 -3.610000000000000E-002    1.793823588189202E-046
 -3.600000000000000E-002    4.812039058745521E-046
 -3.590000000000000E-002    1.137513747031877E-045
 -3.580000000000000E-002    2.574777566902758E-045
 -3.570000000000000E-002    5.592071015200402E-045
 -3.560000000000000E-002    1.157468576240381E-044
 -3.550000000000000E-002    2.251263928750976E-044
 -3.540000000000000E-002    4.311436898129248E-044
 -3.530000000000000E-002    7.512162003977568E-044
 -3.520000000000000E-002    1.200768177268800E-043
 -3.510000000000000E-002    1.667762484552951E-043
 -3.500000000000000E-002    1.727862324024795E-043
 -3.490000000000000E-002    2.274275663048127E-044
 -3.480000000000000E-002   -5.448855914025901E-043
 -3.470000000000000E-002   -2.066473538965647E-042
 -3.460000000000000E-002   -5.553722264495406E-042
 -3.450000000000000E-002   -1.277218329437896E-041
 -3.440000000000000E-002   -2.657337929293314E-041
 -3.430000000000000E-002   -5.116196472621346E-041
 -3.420000000000000E-002   -9.202679964418458E-041
 -3.410000000000000E-002   -1.549855049605199E-040
 -3.400000000000000E-002   -2.433666009751538E-040
 -3.390000000000000E-002   -3.517901066214475E-040
 -3.380000000000000E-002   -4.543285841323885E-040
 -3.370000000000000E-002   -4.843043608972683E-040
 -3.360000000000000E-002   -3.029599790313836E-040
 -3.350000000000000E-002    3.444606481636202E-040
 -3.340000000000000E-002    1.882885991982585E-039
 -3.330000000000000E-002    4.961561559835401E-039
 -3.320000000000000E-002    1.048383038667718E-038
 -3.310000000000000E-002    1.956611195606427E-038
 -3.300000000000000E-002    3.334873483947037E-038
 -3.290000000000000E-002    5.254313871626073E-038
 -3.280000000000000E-002    7.656119372887470E-038
 -3.270000000000000E-002    1.020473062787788E-037
 -3.260000000000000E-002    1.206482898592757E-037
 -3.250000000000000E-002    1.159489385167879E-037
 -3.240000000000000E-002    5.972753119589700E-038
 -3.230000000000000E-002   -9.189079297164595E-038
 -3.220000000000000E-002   -4.011187270935596E-037
 -3.210000000000000E-002   -9.477781213976286E-037
 -3.200000000000000E-002   -1.821639456337841E-036
 -3.190000000000000E-002   -3.102901341465402E-036
 -3.180000000000000E-002   -4.824652924512896E-036
 -3.170000000000000E-002   -6.910687961583481E-036
 -3.160000000000000E-002   -9.083215373389148E-036
 -3.150000000000000E-002   -1.073904494136086E-035
 -3.140000000000000E-002   -1.080120165972190E-035
 -3.130000000000000E-002   -7.567102757883423E-036
 -3.120000000000000E-002    1.404439018010338E-036
 -3.110000000000000E-002    1.929706232236747E-035
 -3.100000000000000E-002    4.982814617516417E-035
 -3.090000000000000E-002    9.669117466645849E-035
 -3.080000000000000E-002    1.624892708655808E-034
 -3.070000000000000E-002    2.470006571832955E-034
 -3.060000000000000E-002    3.446616464643182E-034
 -3.050000000000000E-002    4.412664594312683E-034
 -3.040000000000000E-002    5.100915642531174E-034
 -3.030000000000000E-002    5.079760350832307E-034
 -3.020000000000000E-002    3.723378643764166E-034
 -3.010000000000000E-002    2.065851652116990E-035
 -3.000000000000000E-002   -6.454325658303120E-034
 -2.990000000000000E-002   -1.728812802089418E-033
 -2.980000000000000E-002   -3.315326270296316E-033
 -2.970000000000000E-002   -5.439346812183701E-033
 -2.960000000000000E-002   -8.034815846650896E-033
 -2.950000000000000E-002   -1.087236316389264E-032
 -2.940000000000000E-002   -1.348685613885425E-032
 -2.930000000000000E-002   -1.510511919650475E-032
 -2.920000000000000E-002   -1.459054368056953E-032
 -2.910000000000000E-002   -1.042932612612159E-032
 -2.900000000000000E-002   -7.910576225893141E-034
 -2.890000000000000E-002    1.629753083343060E-032
 -2.880000000000000E-002    4.262532566971288E-032
 -2.870000000000000E-002    7.928201072288956E-032
 -2.860000000000000E-002    1.259395443647544E-031
 -2.850000000000000E-002    1.799468195845287E-031
 -2.840000000000000E-002    2.353053019175693E-031
 -2.830000000000000E-002    2.816622823257263E-031
 -2.820000000000000E-002    3.035420100256385E-031
 -2.810000000000000E-002    2.801247912856940E-031
 -2.800000000000000E-002    1.859653313883925E-031
 -2.790000000000000E-002   -6.908148350069792E-033
 -2.780000000000000E-002   -3.250812795465828E-031
 -2.770000000000000E-002   -7.876972337157791E-031
 -2.760000000000000E-002   -1.398154014083409E-030
 -2.750000000000000E-002   -2.133836064418359E-030
 -2.740000000000000E-002   -2.934708046050069E-030
 -2.730000000000000E-002   -3.692300701443600E-030
 -2.720000000000000E-002   -4.241417691356427E-030
 -2.710000000000000E-002   -4.357691097094690E-030
 -2.700000000000000E-002   -3.764760393213742E-030
 -2.690000000000000E-002   -2.155123081112691E-030
 -2.680000000000000E-002    7.716225340582936E-031
 -2.670000000000000E-002    5.250642677307831E-030
 -2.660000000000000E-002    1.137366738843033E-029
 -2.650000000000000E-002    1.899414699487670E-029
 -2.640000000000000E-002    2.762403604513289E-029
 -2.630000000000000E-002    3.633631179551604E-029
 -2.620000000000000E-002    4.369361268934056E-029
 -2.610000000000000E-002    4.772918238559126E-029
 -2.600000000000000E-002    4.601022723900615E-029
 -2.590000000000000E-002    3.581443731835283E-029
 -2.580000000000000E-002    1.444569517376816E-029
 -2.570000000000000E-002   -2.029641948284826E-029
 -2.560000000000000E-002   -6.949850874649583E-029
 -2.550000000000000E-002   -1.324000319497527E-028
 -2.540000000000000E-002   -2.056142133179946E-028
 -2.530000000000000E-002   -2.824135594327251E-028
 -2.520000000000000E-002   -3.522314875186137E-028
 -2.510000000000000E-002   -4.005658996716083E-028
 -2.500000000000000E-002   -4.094885692211033E-028
 -2.490000000000000E-002   -3.589562741074606E-028
 -2.480000000000000E-002   -2.290740849832378E-028
 -2.470000000000000E-002   -3.370434818301518E-030
 -2.460000000000000E-002    3.269980644944411E-028
 -2.450000000000000E-002    7.583854008739926E-028
 -2.440000000000000E-002    1.269640495739119E-027
 -2.430000000000000E-002    1.817684975174209E-027
 -2.420000000000000E-002    2.334661776815733E-027
 -2.410000000000000E-002    2.727795328904453E-027
 -2.400000000000000E-002    2.883154482013583E-027
 -2.390000000000000E-002    2.674381221918404E-027
 -2.380000000000000E-002    1.977098266580805E-027
 -2.370000000000000E-002    6.890880919803395E-028
 -2.360000000000000E-002   -1.244547286989249E-027
 -2.350000000000000E-002   -3.803160574969606E-027
 -2.340000000000000E-002   -6.862458902231040E-027
 -2.330000000000000E-002   -1.017100158555596E-026
 -2.320000000000000E-002   -1.333684186665797E-026
 -2.310000000000000E-002   -1.583050752591772E-026
 -2.300000000000000E-002   -1.701038168752770E-026
 -2.290000000000000E-002   -1.617546991449020E-026
 -2.280000000000000E-002   -1.264819937346083E-026
 -2.270000000000000E-002   -5.886245582120154E-027
 -2.260000000000000E-002    4.382513989064290E-027
 -2.250000000000000E-002    1.801369743959204E-026
 -2.240000000000000E-002    3.430680821663222E-026
 -2.230000000000000E-002    5.189622593033445E-026
 -2.220000000000000E-002    6.870106557926999E-026
 -2.210000000000000E-002    8.196379759479811E-026
 -2.200000000000000E-002    8.840514783977608E-026
 -2.190000000000000E-002    8.451528406333908E-026
 -2.180000000000000E-002    6.698815210574957E-026
 -2.170000000000000E-002    3.328637027358158E-026
 -2.160000000000000E-002   -1.769996589637883E-026
 -2.150000000000000E-002   -8.496485077446491E-026
 -2.140000000000000E-002   -1.647602102049644E-025
 -2.130000000000000E-002   -2.501476304531546E-025
 -2.120000000000000E-002   -3.308582584437798E-025
 -2.110000000000000E-002   -3.935915432386472E-025
 -2.100000000000000E-002   -4.228645014219144E-025
 -2.090000000000000E-002   -4.024808065079247E-025
 -2.080000000000000E-002   -3.176214676715314E-025
 -2.070000000000000E-002   -1.574685765805513E-025
 -2.060000000000000E-002    8.183591611970806E-026
 -2.050000000000000E-002    3.942106336086337E-025
 -2.040000000000000E-002    7.610595650931265E-025
 -2.030000000000000E-002    1.149610538833164E-024
 -2.020000000000000E-002    1.512716439477654E-024
 -2.010000000000000E-002    1.790640876462494E-024
 -2.000000000000000E-002    1.915236224591904E-024
 -1.990000000000000E-002    1.816715077871757E-024
 -1.980000000000000E-002    1.432908030603134E-024
 -1.970000000000000E-002    7.205136304643499E-025
 -1.960000000000000E-002   -3.326008530574846E-025
 -1.950000000000000E-002   -1.695440853067734E-024
 -1.940000000000000E-002   -3.284059269525032E-024
 -1.930000000000000E-002   -4.955929431799554E-024
 -1.920000000000000E-002   -6.510639634018718E-024
 -1.910000000000000E-002   -7.698821182543237E-024
 -1.900000000000000E-002   -8.240662409507867E-024
 -1.890000000000000E-002   -7.854451084561223E-024
 -1.880000000000000E-002   -6.294323579016093E-024
 -1.870000000000000E-002   -3.394873720422206E-024
 -1.860000000000000E-002    8.813945769762158E-025
 -1.850000000000000E-002    6.399395191279938E-024
 -1.840000000000000E-002    1.281652121918488E-023
 -1.830000000000000E-002    1.956511314002133E-023
 -1.820000000000000E-002    2.585996284990994E-023
 -1.810000000000000E-002    3.073727204582558E-023
 -1.800000000000000E-002    3.312913537008687E-023
 -1.790000000000000E-002    3.197396699897935E-023
 -1.780000000000000E-002    2.635857363064886E-023
 -1.770000000000000E-002    1.568199685408063E-023
 -1.760000000000000E-002   -1.744256970863887E-025
 -1.750000000000000E-002   -2.069168686026579E-023
 -1.740000000000000E-002   -4.459727432676028E-023
 -1.730000000000000E-002   -6.981540297677457E-023
 -1.720000000000000E-002   -9.350851583640872E-023
 -1.710000000000000E-002   -1.122301720171736E-022
 -1.700000000000000E-002   -1.222000408146131E-022
 -1.690000000000000E-002   -1.196987683327325E-022
 -1.680000000000000E-002   -1.015637989702825E-022
 -1.670000000000000E-002   -6.574888213446208E-023
 -1.660000000000000E-002   -1.189159130551643E-023
 -1.650000000000000E-002    5.818301750731021E-023
 -1.640000000000000E-002    1.401050953874310E-022
 -1.630000000000000E-002    2.268343565525386E-022
 -1.620000000000000E-002    3.088438874822174E-022
 -1.610000000000000E-002    3.746710237155943E-022
 -1.600000000000000E-002    4.118604911253493E-022
 -1.590000000000000E-002    4.082804814030878E-022
 -1.580000000000000E-002    3.537393880225032E-022
 -1.570000000000000E-002    2.417729742153807E-022
 -1.560000000000000E-002    7.141726038764318E-023
 -1.550000000000000E-002   -1.512631794299736E-022
 -1.540000000000000E-002   -4.121481123720915E-022
 -1.530000000000000E-002   -6.887925060357886E-022
 -1.520000000000000E-002   -9.511397052407122E-022
 -1.510000000000000E-002   -1.163370288100773E-021
 -1.500000000000000E-002   -1.286934713673130E-021
 -1.490000000000000E-002   -1.284677170531986E-021
 -1.480000000000000E-002   -1.125798438885282E-021
 -1.470000000000000E-002   -7.912376859268567E-022
 -1.460000000000000E-002   -2.788975978065433E-022
 -1.450000000000000E-002    3.919792939890462E-022
 -1.440000000000000E-002    1.178035314131869E-021
 -1.430000000000000E-002    2.011351509164011E-021
 -1.420000000000000E-002    2.801937778815603E-021
 -1.410000000000000E-002    3.443545587021115E-021
 -1.400000000000000E-002    3.822855479457188E-021
 -1.390000000000000E-002    3.831693423028886E-021
 -1.380000000000000E-002    3.381462575194963E-021
 -1.370000000000000E-002    2.418520626542393E-021
 -1.360000000000000E-002    9.388253356361860E-022
 -1.350000000000000E-002   -1.000123326063164E-021
 -1.340000000000000E-002   -3.272127555913325E-021
 -1.330000000000000E-002   -5.681874799471719E-021
 -1.320000000000000E-002   -7.972833454134595E-021
 -1.310000000000000E-002   -9.844352529409140E-021
 -1.300000000000000E-002   -1.097792417001307E-020
 -1.290000000000000E-002   -1.107144620423860E-020
 -1.280000000000000E-002   -9.879084583511190E-021
 -1.270000000000000E-002   -7.253126036376452E-021
 -1.260000000000000E-002   -3.183198200608823E-021
 -1.250000000000000E-002    2.172439876663240E-021
 -1.240000000000000E-002    8.469013066033155E-021
 -1.230000000000000E-002    1.517576926992565E-020
 -1.220000000000000E-002    2.159877117957005E-020
 -1.210000000000000E-002    2.692793927290092E-020
 -1.200000000000000E-002    3.030779832560402E-020
 -1.190000000000000E-002    3.092845042840728E-020
 -1.180000000000000E-002    2.813013535272057E-020
 -1.170000000000000E-002    2.151177972899765E-020
 -1.160000000000000E-002    1.103147710548559E-020
 -1.150000000000000E-002   -2.914632597138572E-021
 -1.140000000000000E-002   -1.944874334711249E-020
 -1.130000000000000E-002   -3.721533819158846E-020
 -1.120000000000000E-002   -5.444164134208825E-020
 -1.110000000000000E-002   -6.905884766782839E-020
 -1.100000000000000E-002   -7.888183019682950E-020
 -1.090000000000000E-002   -8.183784857245225E-020
 -1.080000000000000E-002   -7.622703771945897E-020
 -1.070000000000000E-002   -6.099057598901569E-020
 -1.060000000000000E-002   -3.595671992183286E-020
 -1.050000000000000E-002   -2.031906264582654E-021
 -1.040000000000000E-002    3.869579552693028E-020
 -1.030000000000000E-002    8.296935199948769E-020
 -1.020000000000000E-002    1.265120497839835E-019
 -1.010000000000000E-002    1.643217428898859E-019
 -1.000000000000000E-002    1.911030219066525E-019
 -9.899999999999999E-003    2.018132841356234E-019
 -9.800000000000000E-003    1.922806482360828E-019
 -9.699999999999999E-003    1.598361468837533E-019
 -9.599999999999999E-003    1.038902048420775E-019
 -9.500000000000000E-003    2.637730875069464E-020
 -9.399999999999999E-003   -6.800543668402132E-020
 -9.299999999999999E-003   -1.718302131822784E-019
 -9.200000000000000E-003   -2.752853263149588E-019
 -9.099999999999999E-003   -3.668530523389465E-019
 -8.999999999999999E-003   -4.343001581022965E-019
 -8.900000000000000E-003   -4.659228380547604E-019
 -8.799999999999999E-003   -4.519501616211648E-019
 -8.699999999999999E-003   -3.859742146048334E-019
 -8.600000000000000E-003   -2.662500679397437E-019
 -8.499999999999999E-003   -9.669667728290064E-020
 -8.399999999999999E-003    1.125650958195754E-019
 -8.300000000000000E-003    3.452760443808860E-019
 -8.199999999999999E-003    5.797996526125874E-019
 -8.100000000000000E-003    7.906103752719854E-019
 -8.000000000000000E-003    9.504672301700208E-019
 -7.899999999999999E-003    1.033141247735189E-018
 -7.800000000000000E-003    1.016486945263967E-018
 -7.699999999999999E-003    8.855706384010722E-019
 -7.599999999999999E-003    6.355186966854390E-019
 -7.499999999999999E-003    2.737242341689892E-019
 -7.399999999999999E-003   -1.789381578645693E-019
 -7.299999999999999E-003   -6.881815033895159E-019
 -7.199999999999999E-003   -1.207860879574646E-018
 -7.100000000000000E-003   -1.683079676803423E-018
 -6.999999999999999E-003   -2.054750895670974E-018
 -6.899999999999999E-003   -2.265351092945170E-018
 -6.800000000000000E-003   -2.265418308869971E-018
 -6.699999999999999E-003   -2.020208894658510E-018
 -6.599999999999999E-003   -1.515809214114019E-018
 -6.499999999999999E-003   -7.639562658299610E-019
 -6.399999999999999E-003    1.951564284994710E-019
 -6.299999999999999E-003    1.292694469130567E-018
 -6.199999999999999E-003    2.434048566835538E-018
 -6.100000000000000E-003    3.504901957815968E-018
 -5.999999999999999E-003    4.380323363074360E-018
 -5.899999999999999E-003    4.936389136803431E-018
 -5.800000000000000E-003    5.063444691372225E-018
 -5.699999999999999E-003    4.679860267500963E-018
 -5.599999999999999E-003    3.744881308047013E-018
 -5.499999999999999E-003    2.269085579970887E-018
 -5.399999999999999E-003    3.209960963974426E-019
 -5.299999999999999E-003   -1.971409601635738E-018
 -5.199999999999999E-003   -4.425172312627863E-018
 -5.099999999999999E-003   -6.813197530758732E-018
 -4.999999999999999E-003   -8.881246746288867E-018
 -4.899999999999999E-003   -1.037016773251261E-017
 -4.799999999999999E-003   -1.104178088724573E-017
 -4.699999999999999E-003   -1.070625287094133E-017
 -4.599999999999999E-003   -9.248329435197817E-018
 -4.499999999999999E-003   -6.649574238763457E-018
 -4.399999999999999E-003   -3.003778065941171E-018
 -4.299999999999999E-003    1.476959085472394E-018
 -4.199999999999999E-003    6.467343695170458E-018
 -4.099999999999999E-003    1.154614702661660E-017
 -3.999999999999999E-003    1.622547972221575E-017
 -3.899999999999999E-003    1.999065479330389E-017
 -3.799999999999999E-003    2.234797986859825E-017
 -3.699999999999999E-003    2.287666657822011E-017
 -3.599999999999999E-003    2.128013662931583E-017
 -3.499999999999999E-003    1.743148455344025E-017
 -3.399999999999999E-003    1.140779048352550E-017
 -3.299999999999999E-003    3.508432073500687E-018
 -3.199999999999999E-003   -5.746406654271105E-018
 -3.099999999999999E-003   -1.563936019216494E-017
 -2.999999999999999E-003   -2.530192973154776E-017
 -2.899999999999999E-003   -3.378118343742954E-017
 -2.799999999999999E-003   -4.012285942349539E-017
 -2.699999999999999E-003   -4.346465582529243E-017
 -2.599999999999999E-003   -4.313160794338508E-017
 -2.499999999999999E-003   -3.872433225586008E-017
 -2.399999999999999E-003   -3.019053942658772E-017
 -2.299999999999999E-003   -1.787074806433389E-017
 -2.199999999999999E-003   -2.510601536796933E-018
 -2.099999999999999E-003    1.476523458801509E-017
 -1.999999999999999E-003    3.251964896086451E-017
 -1.899999999999999E-003    4.910808794438369E-017
 -1.799999999999999E-003    6.281614494884731E-017
 -1.699999999999999E-003    7.201982012220920E-017
 -1.599999999999999E-003    7.535524413153973E-017
 -1.499999999999999E-003    7.188211234014681E-017
 -1.399999999999999E-003    6.122391115461369E-017
 -1.299999999999999E-003    4.366836447443266E-017
 -1.199999999999999E-003    2.021356616273550E-017
 -1.099999999999999E-003   -7.451158114680261E-018
 -9.999999999999989E-004   -3.703513342455447E-017
 -8.999999999999990E-004   -6.580655979648195E-017
 -7.999999999999990E-004   -9.081497740768222E-017
 -6.999999999999989E-004   -1.091615210292960E-016
 -5.999999999999990E-004   -1.182954110119689E-016
 -4.999999999999989E-004   -1.163104140147169E-016
 -3.999999999999989E-004   -1.022117617019367E-016
 -2.999999999999989E-004   -7.612338884968936E-017
 -1.999999999999989E-004   -3.940756420409696E-017
 -9.999999999999892E-005    5.324927626644031E-018
  1.084202172485504E-018    5.432929644865920E-017
  1.000000000000011E-004    1.029687336659609E-016
  2.000000000000011E-004    1.460761049835273E-016
  3.000000000000011E-004    1.784135044201370E-016
  4.000000000000011E-004    1.951965170530939E-016
  5.000000000000011E-004    1.926388745065788E-016
  6.000000000000011E-004    1.684657690951872E-016
  7.000000000000011E-004    1.223414713216246E-016
  8.000000000000011E-004    5.615728981787865E-017
  9.000000000000012E-004   -2.586576535573706E-017
  1.000000000000001E-003   -1.172935917452929E-016
  1.100000000000001E-003   -2.098315667779370E-016
  1.200000000000001E-003   -2.939082132107016E-016
  1.300000000000001E-003   -3.594626877080514E-016
  1.400000000000001E-003   -3.968848074189217E-016
  1.500000000000001E-003   -3.980352746052179E-016
  1.600000000000001E-003   -3.572568359455941E-016
  1.700000000000001E-003   -2.722762441300482E-016
  1.800000000000001E-003   -1.448959258253272E-016
  1.900000000000001E-003    1.861984074622586E-017
  2.000000000000001E-003    2.075398025850769E-016
  2.100000000000001E-003    4.070928680278556E-016
  2.200000000000001E-003    5.993402095074466E-016
  2.300000000000001E-003    7.644663840076667E-016
  2.400000000000001E-003    8.824202805140346E-016
  2.500000000000001E-003    9.347919887870790E-016
  2.600000000000001E-003    9.067784199445948E-016
  2.700000000000001E-003    7.890621180167318E-016
  2.800000000000001E-003    5.794153685671469E-016
  2.900000000000001E-003    2.838436809109671E-016
  3.000000000000001E-003   -8.289405402640928E-017
  3.100000000000001E-003   -4.975164366439929E-016
  3.200000000000001E-003   -9.292647533288033E-016
  3.300000000000001E-003   -1.341768769159325E-015
  3.400000000000001E-003   -1.695653522538614E-015
  3.500000000000001E-003   -1.951734234851613E-015
  3.600000000000001E-003   -2.074571987472808E-015
  3.700000000000001E-003   -2.036105653015222E-015
  3.800000000000001E-003   -1.819034129653088E-015
  3.900000000000001E-003   -1.419612617336401E-015
  4.000000000000001E-003   -8.495411328503246E-016
  4.100000000000001E-003   -1.366817295074567E-016
  4.200000000000001E-003    6.755972996956045E-016
  4.300000000000001E-003    1.530523922338596E-015
  4.400000000000001E-003    2.361439215033649E-015
  4.500000000000001E-003    3.096551400764091E-015
  4.600000000000002E-003    3.664624117264548E-015
  4.700000000000001E-003    4.001182108899745E-015
  4.800000000000001E-003    4.054723436395614E-015
  4.900000000000002E-003    3.792389772156987E-015
  5.000000000000001E-003    3.204527756568036E-015
  5.100000000000001E-003    2.307645262156428E-015
  5.200000000000001E-003    1.145348701036460E-015
  5.300000000000002E-003   -2.130025765437373E-016
  5.400000000000001E-003   -1.675987649498840E-015
  5.500000000000001E-003   -3.136036120915115E-015
  5.600000000000002E-003   -4.477225356899870E-015
  5.700000000000001E-003   -5.584403470985701E-015
  5.800000000000001E-003   -6.352949627951506E-015
  5.900000000000002E-003   -6.698339237009651E-015
  6.000000000000001E-003   -6.564664429296862E-015
  6.100000000000001E-003   -5.931267353829890E-015
  6.200000000000002E-003   -4.816771906809942E-015
  6.300000000000002E-003   -3.279970429024471E-015
  6.400000000000001E-003   -1.417272001498572E-015
  6.500000000000001E-003    6.432700617932097E-016
  6.600000000000002E-003    2.751048099233978E-015
  6.700000000000001E-003    4.744491859255302E-015
  6.800000000000001E-003    6.464268722236236E-015
  6.900000000000002E-003    7.766984991480029E-015
  7.000000000000001E-003    8.538235257378397E-015
  7.100000000000001E-003    8.703708783780283E-015
  7.200000000000002E-003    8.237300257161620E-015
  7.300000000000002E-003    7.165275025360101E-015
  7.400000000000001E-003    5.565899229150492E-015
  7.500000000000001E-003    3.564345036142909E-015
  7.600000000000002E-003    1.323055923543804E-015
  7.700000000000001E-003   -9.717808895514166E-016
  7.800000000000001E-003   -3.126602007121800E-015
  7.900000000000001E-003   -4.958293703555743E-015
  8.000000000000002E-003   -6.311887651667273E-015
  8.100000000000001E-003   -7.076469398335331E-015
  8.200000000000001E-003   -7.197612459715809E-015
  8.300000000000002E-003   -6.685022348338296E-015
  8.400000000000001E-003   -5.614273388558786E-015
  8.500000000000002E-003   -4.122125910016978E-015
  8.600000000000002E-003   -2.395427926215841E-015
  8.700000000000001E-003   -6.541839119587558E-016
  8.800000000000002E-003    8.699749798698775E-016
  8.900000000000002E-003    1.958203171780584E-015
  9.000000000000001E-003    2.429618330244553E-015
  9.100000000000002E-003    2.164839896784631E-015
  9.200000000000002E-003    1.125451318082534E-015
  9.300000000000001E-003   -6.328611637213302E-016
  9.400000000000002E-003   -2.955392102472234E-015
  9.500000000000001E-003   -5.593046349008497E-015
  9.600000000000001E-003   -8.217122968372194E-015
  9.700000000000002E-003   -1.044388924799086E-014
  9.800000000000001E-003   -1.186781118217030E-014
  9.900000000000001E-003   -1.210130579324486E-014
  1.000000000000000E-002   -1.081810963623559E-014
  1.010000000000000E-002   -7.796630746697681E-015
  1.020000000000000E-002   -2.959297801373187E-015
  1.030000000000000E-002    3.596148823491373E-015
  1.040000000000000E-002    1.157741654507017E-014
  1.050000000000000E-002    2.049383730708883E-014
  1.060000000000000E-002    2.967040588513621E-014
  1.070000000000000E-002    3.828087144332212E-014
  1.080000000000000E-002    4.539971821695586E-014
  1.090000000000000E-002    5.007102029010629E-014
  1.100000000000000E-002    5.139064044821462E-014
  1.110000000000000E-002    4.859632742245953E-014
  1.120000000000000E-002    4.115912679252040E-014
  1.130000000000000E-002    2.886822906676759E-014
  1.140000000000000E-002    1.190089325401721E-014
  1.150000000000000E-002   -9.130977235136088E-015
  1.160000000000000E-002   -3.316494959141209E-014
  1.170000000000000E-002   -5.870903028141037E-014
  1.180000000000000E-002   -8.390305754488054E-014
  1.190000000000000E-002   -1.066212411128809E-013
  1.200000000000000E-002   -1.246132424809051E-013
  1.210000000000000E-002   -1.356769451751910E-013
  1.220000000000000E-002   -1.378529437679474E-013
  1.230000000000000E-002   -1.296268064151369E-013
  1.240000000000000E-002   -1.101224511041789E-013
  1.250000000000000E-002   -7.926900808236887E-014
  1.260000000000000E-002   -3.792187795649698E-014
  1.270000000000000E-002    1.207842031797746E-014
  1.280000000000000E-002    6.792411751835731E-014
  1.290000000000000E-002    1.259440943718773E-013
  1.300000000000000E-002    1.817967489035814E-013
  1.310000000000000E-002    2.307468145003119E-013
  1.320000000000000E-002    2.680142158607833E-013
  1.330000000000000E-002    2.891723219299859E-013
  1.340000000000000E-002    2.905688211010757E-013
  1.350000000000000E-002    2.697329028369638E-013
  1.360000000000000E-002    2.257321562848578E-013
  1.370000000000000E-002    1.594400562491020E-013
  1.380000000000000E-002    7.367851127062134E-014
  1.390000000000000E-002   -2.679285950110977E-014
  1.400000000000000E-002   -1.354590361237687E-013
  1.410000000000000E-002   -2.444082300985958E-013
  1.420000000000000E-002   -3.448560789713108E-013
  1.430000000000000E-002   -4.278071149194084E-013
  1.440000000000000E-002   -4.848109326536971E-013
  1.450000000000000E-002   -5.087536138270302E-013
  1.460000000000000E-002   -4.946178091043078E-013
  1.470000000000000E-002   -4.401365109665574E-013
  1.480000000000000E-002   -3.462699246794464E-013
  1.490000000000000E-002   -2.174410900106075E-013
  1.500000000000000E-002   -6.148234991271457E-014
  1.510000000000000E-002    1.107339613366716E-013
  1.520000000000000E-002    2.859786847965876E-013
  1.530000000000000E-002    4.496343262513991E-013
  1.540000000000000E-002    5.868843413392293E-013
  1.550000000000000E-002    6.840375796534987E-013
  1.560000000000000E-002    7.298739124154109E-013
  1.570000000000000E-002    7.168861870647508E-013
  1.580000000000000E-002    6.422906313506906E-013
  1.590000000000000E-002    5.086855639852319E-013
  1.600000000000000E-002    3.242616353612815E-013
  1.610000000000000E-002    1.024988853519135E-013
  1.620000000000000E-002   -1.386692991778890E-013
  1.630000000000000E-002   -3.781931294560250E-013
  1.640000000000000E-002   -5.936650886900348E-013
  1.650000000000000E-002   -7.633654643305881E-013
  1.660000000000000E-002   -8.684204730726463E-013
  1.670000000000000E-002   -8.948734516721850E-013
  1.680000000000000E-002   -8.354532541930463E-013
  1.690000000000000E-002   -6.908371516154208E-013
  1.700000000000000E-002   -4.702348613692196E-013
  1.710000000000000E-002   -1.911719495804221E-013
  1.720000000000000E-002    1.215805563512477E-013
  1.730000000000000E-002    4.379018569878177E-013
  1.740000000000000E-002    7.249286397760632E-013
  1.750000000000000E-002    9.501774448635275E-013
  1.760000000000000E-002    1.084910184620725E-012
  1.770000000000000E-002    1.107428386542151E-012
  1.780000000000000E-002    1.005948730382494E-012
  1.790000000000000E-002    7.807296994461435E-013
  1.800000000000000E-002    4.451572368507518E-013
  1.810000000000000E-002    2.558121759862242E-014
  1.820000000000000E-002   -4.402019197101331E-013
  1.830000000000000E-002   -9.057945485877682E-013
  1.840000000000000E-002   -1.320206151799451E-012
  1.850000000000000E-002   -1.632730729691247E-012
  1.860000000000000E-002   -1.798266271403711E-012
  1.870000000000000E-002   -1.782583537966645E-012