 -4.000000000000000E-002    0.000000000000000E+000
 -3.990000000000000E-002    0.000000000000000E+000
 -3.980000000000000E-002    0.000000000000000E+000
 -3.970000000000000E-002    0.000000000000000E+000
 -3.960000000000000E-002    0.000000000000000E+000
 -3.950000000000000E-002    0.000000000000000E+000
 -3.940000000000000E-002    0.000000000000000E+000
 -3.930000000000000E-002    0.000000000000000E+000
 -3.920000000000000E-002    0.000000000000000E+000
 -3.910000000000000E-002    0.000000000000000E+000
 -3.900000000000000E-002    0.000000000000000E+000
 -3.890000000000000E-002    0.000000000000000E+000
 -3.880000000000000E-002    0.000000000000000E+000
 -3.870000000000000E-002    0.000000000000000E+000
 -3.860000000000000E-002    0.000000000000000E+000
 -3.850000000000000E-002    0.000000000000000E+000
 -3.840000000000000E-002    0.000000000000000E+000
 -3.830000000000000E-002    0.000000000000000E+000
 -3.820000000000000E-002    0.000000000000000E+000
 -3.810000000000000E-002    0.000000000000000E+000
 -3.800000000000000E-002    0.000000000000000E+000
 -3.790000000000000E-002    0.000000000000000E+000
 -3.780000000000000E-002    0.000000000000000E+000
 -3.770000000000000E-002    0.000000000000000E+000
 -3.760000000000000E-002    0.000000000000000E+000
 -3.750000000000000E-002    0.000000000000000E+000
 -3.740000000000000E-002    0.000000000000000E+000
 -3.730000000000000E-002    0.000000000000000E+000
 -3.720000000000000E-002    0.000000000000000E+000
 -3.710000000000000E-002    0.000000000000000E+000
 -3.700000000000000E-002    0.000000000000000E+000
 -3.690000000000000E-002    0.000000000000000E+000
 -3.680000000000000E-002    0.000000000000000E+000
 -3.670000000000000E-002    0.000000000000000E+000
 -3.660000000000000E-002    0.000000000000000E+000
 -3.650000000000000E-002    0.000000000000000E+000
 -3.640000000000000E-002    0.000000000000000E+000
 -3.630000000000000E-002    0.000000000000000E+000
 -3.620000000000000E-002    0.000000000000000E+000
 -3.610000000000000E-002    0.000000000000000E+000
 -3.600000000000000E-002    0.000000000000000E+000
 -3.590000000000000E-002    0.000000000000000E+000
 -3.580000000000000E-002    0.000000000000000E+000
 -3.570000000000000E-002    0.000000000000000E+000
 -3.560000000000000E-002    0.000000000000000E+000
 -3.550000000000000E-002    0.000000000000000E+000
 -3.540000000000000E-002    0.000000000000000E+000
 -3.530000000000000E-002    0.000000000000000E+000
 -3.520000000000000E-002    0.000000000000000E+000
 -3.510000000000000E-002    0.000000000000000E+000
 -3.500000000000000E-002    0.000000000000000E+000
 -3.490000000000000E-002    0.000000000000000E+000
 -3.480000000000000E-002    0.000000000000000E+000
 -3.470000000000000E-002    0.000000000000000E+000
 -3.460000000000000E-002    0.000000000000000E+000
 -3.450000000000000E-002    0.000000000000000E+000
 -3.440000000000000E-002    0.000000000000000E+000
 -3.430000000000000E-002    0.000000000000000E+000
 -3.420000000000000E-002    0.000000000000000E+000
 -3.410000000000000E-002    0.000000000000000E+000
 -3.400000000000000E-002    0.000000000000000E+000
 -3.390000000000000E-002    0.000000000000000E+000
 -3.380000000000000E-002    0.000000000000000E+000
 -3.370000000000000E-002    0.000000000000000E+000
 -3.360000000000000E-002    0.000000000000000E+000
 -3.350000000000000E-002    0.000000000000000E+000
 -3.340000000000000E-002    0.000000000000000E+000
 -3.330000000000000E-002    0.000000000000000E+000
 -3.320000000000000E-002    0.000000000000000E+000
 -3.310000000000000E-002    0.000000000000000E+000
 -3.300000000000000E-002    0.000000000000000E+000
 -3.290000000000000E-002    0.000000000000000E+000
 -3.280000000000000E-002   -2.565854121688508E-047
 -3.270000000000000E-002   -2.157319588761740E-046
 -3.260000000000000E-002   -5.445617117609818E-046
 -3.250000000000000E-002   -1.044220976392415E-045
 -3.240000000000000E-002   -1.753197564595800E-045
 -3.230000000000000E-002   -2.739686823250223E-045
 -3.220000000000000E-002   -3.871347052434387E-045
 -3.210000000000000E-002   -4.548811581573174E-045
 -3.200000000000000E-002   -3.106167377242831E-045
 -3.190000000000000E-002    1.450305218716005E-045
 -3.180000000000000E-002    1.164147362470048E-044
 -3.170000000000000E-002    3.147089311286860E-044
 -3.160000000000000E-002    6.671140624235850E-044
 -3.150000000000000E-002    1.235689361048787E-043
 -3.140000000000000E-002    2.095088281874012E-043
 -3.130000000000000E-002    3.266335490441909E-043
 -3.120000000000000E-002    4.721996484600460E-043
 -3.110000000000000E-002    6.231200002305147E-043
 -3.100000000000000E-002    7.249913813345419E-043
 -3.090000000000000E-002    6.738187949968594E-043
 -3.080000000000000E-002    2.913265671006994E-043
 -3.070000000000000E-002   -6.975236229778470E-043
 -3.060000000000000E-002   -2.679451599026670E-042
 -3.050000000000000E-002   -6.146652192225835E-042
 -3.040000000000000E-002   -1.164223064882937E-041
 -3.030000000000000E-002   -1.963157148393170E-041
 -3.020000000000000E-002   -3.025099391948449E-041
 -3.010000000000000E-002   -4.289155340701987E-041
 -3.000000000000000E-002   -5.558132630595435E-041
 -2.990000000000000E-002   -6.414641177402950E-041
 -2.980000000000000E-002   -6.120591010636735E-041
 -2.970000000000000E-002   -3.513452465221592E-041
 -2.960000000000000E-002    3.070573837072882E-041
 -2.950000000000000E-002    1.579558786418007E-040
 -2.940000000000000E-002    3.717080644784482E-040
 -2.930000000000000E-002    6.963764267229820E-040
 -2.920000000000000E-002    1.147729035585295E-039
 -2.910000000000000E-002    1.719777817507813E-039
 -2.900000000000000E-002    2.365489892187077E-039
 -2.890000000000000E-002    2.971118414131218E-039
 -2.880000000000000E-002    3.325571302461323E-039
 -2.870000000000000E-002    3.088898810347117E-039
 -2.860000000000000E-002    1.767821614691160E-039
 -2.850000000000000E-002   -1.288785401450096E-039
 -2.840000000000000E-002   -6.855785754345195E-039
 -2.830000000000000E-002   -1.573477831157403E-038
 -2.820000000000000E-002   -2.856612951441881E-038
 -2.810000000000000E-002   -4.552234593150091E-038
 -2.800000000000000E-002   -6.586300361278893E-038
 -2.790000000000000E-002   -8.735083668332979E-038
 -2.780000000000000E-002   -1.055634106373664E-037
 -2.770000000000000E-002   -1.131885830700051E-037
 -2.760000000000000E-002   -9.946555412232126E-038
 -2.750000000000000E-002   -5.002362514669575E-038
 -2.740000000000000E-002    5.253139922943984E-038
 -2.730000000000000E-002    2.268464891258952E-037
 -2.720000000000000E-002    4.893831989600264E-037
 -2.710000000000000E-002    8.488624453050668E-037
 -2.700000000000000E-002    1.298307657073227E-036
 -2.690000000000000E-002    1.804752266360474E-036
 -2.680000000000000E-002    2.297264505523635E-036
 -2.670000000000000E-002    2.654796374586467E-036
 -2.660000000000000E-002    2.696475757308018E-036
 -2.650000000000000E-002    2.178251987733621E-036
 -2.640000000000000E-002    8.011153821503209E-037
 -2.630000000000000E-002   -1.762849755620824E-036
 -2.620000000000000E-002   -5.819959334796429E-036
 -2.610000000000000E-002   -1.157419131201972E-035
 -2.600000000000000E-002   -1.901311110874334E-035
 -2.590000000000000E-002   -2.776243134680121E-035
 -2.580000000000000E-002   -3.691915885947705E-035
 -2.570000000000000E-002   -4.488430410372701E-035
 -2.560000000000000E-002   -4.922974101130613E-035
 -2.550000000000000E-002   -4.664881377574589E-035
 -2.540000000000000E-002   -3.305441823120046E-035
 -2.530000000000000E-002   -3.897978759024136E-036
 -2.520000000000000E-002    4.521663664262645E-035
 -2.510000000000000E-002    1.175643290007733E-034
 -2.500000000000000E-002    2.139500294775669E-034
 -2.490000000000000E-002    3.310156700193263E-034
 -2.480000000000000E-002    4.593284758192067E-034
 -2.470000000000000E-002    5.814942230358793E-034
 -2.460000000000000E-002    6.706775654898715E-034
 -2.450000000000000E-002    6.900565724237075E-034
 -2.440000000000000E-002    5.938620466710381E-034
 -2.430000000000000E-002    3.307216344925212E-034
 -2.420000000000000E-002   -1.500029447505952E-034
 -2.410000000000000E-002   -8.883784499978374E-034
 -2.400000000000000E-002   -1.900435169792463E-033
 -2.390000000000000E-002   -3.161559961872997E-033
 -2.380000000000000E-002   -4.588089639913224E-033
 -2.370000000000000E-002   -6.019521257503919E-033
 -2.360000000000000E-002   -7.204947221289181E-033
 -2.350000000000000E-002   -7.798491709781056E-033
 -2.340000000000000E-002   -7.369423278489742E-033
 -2.330000000000000E-002   -5.432935638569744E-033
 -2.320000000000000E-002   -1.506986090917573E-033
 -2.310000000000000E-002    4.801327700866877E-033
 -2.300000000000000E-002    1.367990832216101E-032
 -2.290000000000000E-002    2.497167934309553E-032
 -2.280000000000000E-002    3.802291776854530E-032
 -2.270000000000000E-002    5.154068903354531E-032
 -2.260000000000000E-002    6.348903793977758E-032
 -2.250000000000000E-002    7.106153391356483E-032
 -2.240000000000000E-002    7.077298391400523E-032
 -2.230000000000000E-002    5.871330267641892E-032
 -2.220000000000000E-002    3.099928632522296E-032
 -2.210000000000000E-002   -1.555707324398637E-032
 -2.200000000000000E-002   -8.257361028191497E-032
 -2.190000000000000E-002   -1.690665342979324E-031
 -2.180000000000000E-002   -2.703636018083844E-031
 -2.170000000000000E-002   -3.771200026988800E-031
 -2.160000000000000E-002   -4.746518350804689E-031
 -2.150000000000000E-002   -5.428480617222221E-031
 -2.140000000000000E-002   -5.569443024110647E-031
 -2.130000000000000E-002   -4.894266939271544E-031
 -2.120000000000000E-002   -3.132658627294197E-031
 -2.110000000000000E-002   -6.548642315025657E-033
 -2.100000000000000E-002    4.416284119767485E-031
 -2.090000000000000E-002    1.024411265709178E-030
 -2.080000000000000E-002    1.710317922465911E-030
 -2.070000000000000E-002    2.437321089140442E-030
 -2.060000000000000E-002    3.109275236630971E-030
 -2.050000000000000E-002    3.596301771814132E-030
 -2.040000000000000E-002    3.740797489012914E-030
 -2.030000000000000E-002    3.370526806156101E-030
 -2.020000000000000E-002    2.319729054526890E-030
 -2.010000000000000E-002    4.582613830068554E-031
 -2.000000000000000E-002   -2.272502096649836E-030
 -1.990000000000000E-002   -5.819931219682122E-030
 -1.980000000000000E-002   -9.981327652885160E-030
 -1.970000000000000E-002   -1.437264527051966E-029
 -1.960000000000000E-002   -1.841289327008118E-029
 -1.950000000000000E-002   -2.133320689044826E-029
 -1.940000000000000E-002   -2.221933912852230E-029
 -1.930000000000000E-002   -2.009453321048431E-029
 -1.920000000000000E-002   -1.404616859332018E-029
 -1.910000000000000E-002   -3.393948397042298E-030
 -1.900000000000000E-002    1.211008132740549E-029
 -1.890000000000000E-002    3.206831464392259E-029
 -1.880000000000000E-002    5.523934265487321E-029
 -1.870000000000000E-002    7.939167039427795E-029
 -1.860000000000000E-002    1.012528131503934E-028
 -1.850000000000000E-002    1.165993164218086E-028
 -1.840000000000000E-002    1.205289916001489E-028
 -1.830000000000000E-002    1.079443543558924E-028
 -1.820000000000000E-002    7.425452968584461E-029
 -1.810000000000000E-002    1.627182596838384E-029
 -1.800000000000000E-002   -6.676009916123042E-029
 -1.790000000000000E-002   -1.721139499465666E-028
 -1.780000000000000E-002   -2.926543488320437E-028
 -1.770000000000000E-002   -4.162310360985209E-028
 -1.760000000000000E-002   -5.256019978933960E-028
 -1.750000000000000E-002   -5.990973771680238E-028
 -1.740000000000000E-002   -6.122002367548425E-028
 -1.730000000000000E-002   -5.401463820314312E-028
 -1.720000000000000E-002   -3.615275456335649E-028
 -1.710000000000000E-002   -6.272569772944566E-029
 -1.700000000000000E-002    3.571832040448391E-028
 -1.690000000000000E-002    8.816195272813211E-028
 -1.680000000000000E-002    1.472537050298852E-027
 -1.670000000000000E-002    2.068204248747340E-027
 -1.660000000000000E-002    2.583686846142630E-027
 -1.650000000000000E-002    2.914926314885264E-027
 -1.640000000000000E-002    2.947092611457430E-027
 -1.630000000000000E-002    2.567491867638109E-027
 -1.620000000000000E-002    1.682735537306803E-027
 -1.610000000000000E-002    2.391428695497735E-028
 -1.600000000000000E-002   -1.755483589518809E-027
 -1.590000000000000E-002   -4.211414765015306E-027
 -1.580000000000000E-002   -6.941330767381266E-027
 -1.570000000000000E-002   -9.653355251691051E-027
 -1.560000000000000E-002   -1.195678333452232E-026
 -1.550000000000000E-002   -1.338399564575432E-026
 -1.540000000000000E-002   -1.343088541570269E-026
 -1.530000000000000E-002   -1.161621980922775E-026
 -1.520000000000000E-002   -7.557751173700014E-027
 -1.510000000000000E-002   -1.059763480516617E-027
 -1.500000000000000E-002    7.796681881488535E-027
 -1.490000000000000E-002    1.857279886655155E-026
 -1.480000000000000E-002    3.041502622686391E-026
 -1.470000000000000E-002    4.203781520844860E-026
 -1.460000000000000E-002    5.176169401747320E-026
 -1.450000000000000E-002    5.761916056983183E-026
 -1.440000000000000E-002    5.753535240780737E-026
 -1.430000000000000E-002    4.958205077838869E-026
 -1.420000000000000E-002    3.229273436814377E-026
 -1.410000000000000E-002    5.013909021693777E-027
 -1.400000000000000E-002   -3.174504621760555E-026
 -1.390000000000000E-002   -7.601288464290220E-026
 -1.380000000000000E-002   -1.241660192524311E-025
 -1.370000000000000E-002   -1.709070091974378E-025
 -1.360000000000000E-002   -2.094674929489456E-025
 -1.350000000000000E-002   -2.320768604255314E-025
 -1.340000000000000E-002   -2.307135406905156E-025
 -1.330000000000000E-002   -1.981218789197170E-025
 -1.320000000000000E-002   -1.290350822886421E-025
 -1.310000000000000E-002   -2.149875006485114E-026
 -1.300000000000000E-002    1.218566529311553E-025
 -1.290000000000000E-002    2.927841712814227E-025
 -1.280000000000000E-002    4.768428623271018E-025
 -1.270000000000000E-002    6.534888005666371E-025
 -1.260000000000000E-002    7.970202582645393E-025
 -1.250000000000000E-002    8.785009033818141E-025
 -1.240000000000000E-002    8.686869098323106E-025
 -1.230000000000000E-002    7.418548033415008E-025
 -1.220000000000000E-002    4.802740964936859E-025
 -1.210000000000000E-002    7.890704275862389E-026
 -1.200000000000000E-002   -4.502329930685868E-025
 -1.190000000000000E-002   -1.074749932074007E-024
 -1.180000000000000E-002   -1.740301071730765E-024
 -1.170000000000000E-002   -2.371515699814027E-024
 -1.160000000000000E-002   -2.875975363089633E-024
 -1.150000000000000E-002   -3.151588204877538E-024
 -1.140000000000000E-002   -3.097327110532311E-024
 -1.130000000000000E-002   -2.626838401840814E-024
 -1.120000000000000E-002   -1.683913689476862E-024
 -1.110000000000000E-002   -2.582809265478355E-025
 -1.100000000000000E-002    1.600287656658281E-024
 -1.090000000000000E-002    3.771884154735967E-024
 -1.080000000000000E-002    6.062821122975435E-024
 -1.070000000000000E-002    8.210672445099797E-024
 -1.060000000000000E-002    9.899691447630075E-024
 -1.050000000000000E-002    1.078737271341611E-023
 -1.040000000000000E-002    1.054167282483343E-023
 -1.030000000000000E-002    8.886854152236611E-024
 -1.020000000000000E-002    5.654246861575897E-024
 -1.010000000000000E-002    8.326027086386810E-025
 -1.000000000000000E-002   -5.388637683754053E-024
 -9.899999999999999E-003   -1.259067055318017E-023
 -9.800000000000000E-003   -2.011878669961172E-023
 -9.699999999999999E-003   -2.710457899150902E-023
 -9.599999999999999E-003   -3.252147028254286E-023
 -9.500000000000000E-003   -3.527498396569305E-023
 -9.399999999999999E-003   -3.432499695101868E-023
 -9.299999999999999E-003   -2.883238653810948E-023
 -9.200000000000000E-003   -1.831737713082328E-023
 -9.099999999999999E-003   -2.812168975054764E-024
 -8.999999999999999E-003    1.701320882239893E-023
 -8.900000000000000E-003    3.977471076211629E-023
 -8.799999999999999E-003    6.336994671130650E-023
 -8.699999999999999E-003    8.506416669369459E-023
 -8.600000000000000E-003    1.016779723346172E-022
 -8.499999999999999E-003    1.098779242460319E-022
 -8.399999999999999E-003    1.065582947257204E-022
 -8.300000000000000E-003    8.928768894760725E-023
 -8.199999999999999E-003    5.677952795481003E-023
 -8.100000000000000E-003    9.332500418432883E-024
 -8.000000000000000E-003   -5.082223333466024E-023
 -7.899999999999999E-003   -1.193334269759789E-022
 -7.800000000000000E-003   -1.897638071813444E-022
 -7.699999999999999E-003   -2.538943167330393E-022
 -7.599999999999999E-003   -3.023245204739185E-022
 -7.499999999999999E-003   -3.253634290659054E-022
 -7.399999999999999E-003   -3.141671913401251E-022
 -7.299999999999999E-003   -2.620384287039214E-022
 -7.199999999999999E-003   -1.657617558250762E-022
 -7.100000000000000E-003   -2.681636742677737E-023
 -6.999999999999999E-003    1.477148952018847E-022
 -6.899999999999999E-003    3.447241160270315E-022
 -6.800000000000000E-003    5.453093320276011E-022
 -6.699999999999999E-003    7.257789497121013E-022
 -6.599999999999999E-003    8.594809773393172E-022
 -6.499999999999999E-003    9.194166217808445E-022
 -6.399999999999999E-003    8.814907960216365E-022
 -6.299999999999999E-003    7.281388016046391E-022
 -6.199999999999999E-003    4.519634896624281E-022
 -6.100000000000000E-003    5.893334691542667E-023
 -5.999999999999999E-003   -4.293529863348931E-022
 -5.899999999999999E-003   -9.748240218701088E-022
 -5.800000000000000E-003   -1.523934788467561E-021
 -5.699999999999999E-003   -2.010791992295366E-021
 -5.599999999999999E-003   -2.362486736373672E-021
 -5.499999999999999E-003   -2.506462925633216E-021
 -5.399999999999999E-003   -2.379459052426644E-021
 -5.299999999999999E-003   -1.937265518818834E-021
 -5.199999999999999E-003   -1.164276600429808E-021
 -5.099999999999999E-003   -8.162091199226610E-023
 -4.999999999999999E-003    1.247434122950588E-021
 -4.899999999999999E-003    2.716050319453671E-021
 -4.799999999999999E-003    4.177384362939251E-021
 -4.699999999999999E-003    5.453783829735151E-021
 -4.599999999999999E-003    6.351689258887962E-021
 -4.499999999999999E-003    6.681635354074188E-021
 -4.399999999999999E-003    6.281997671962479E-021
 -4.299999999999999E-003    5.044388202287249E-021
 -4.199999999999999E-003    2.937965887002513E-021
 -4.099999999999999E-003    2.949490247558488E-023
 -3.999999999999999E-003   -3.504163387876687E-021
 -3.899999999999999E-003   -7.374195113083840E-021
 -3.799999999999999E-003   -1.119103989324369E-020
 -3.699999999999999E-003   -1.448999013700325E-020
 -3.599999999999999E-003   -1.677105750890344E-020
 -3.499999999999999E-003   -1.755123464667686E-020
 -3.399999999999999E-003   -1.642540692605187E-020
 -3.299999999999999E-003   -1.313037908260474E-020
 -3.199999999999999E-003   -7.605002515404275E-021
 -3.099999999999999E-003   -3.844615722669421E-023
 -2.999999999999999E-003    9.101503132290940E-021
 -2.899999999999999E-003    1.906744454367544E-020
 -2.799999999999999E-003    2.886420303644731E-020
 -2.699999999999999E-003    3.731620505720068E-020
 -2.599999999999999E-003    4.316940603378873E-020
 -2.499999999999999E-003    4.522247839353404E-020
 -2.399999999999999E-003    4.247748384271066E-020
 -2.299999999999999E-003    3.429607721075447E-020
 -2.199999999999999E-003    2.054393923368630E-020
 -2.099999999999999E-003    1.704228415550465E-021
 -1.999999999999999E-003   -2.105915988710875E-020
 -1.899999999999999E-003   -4.590546528741607E-020
 -1.799999999999999E-003   -7.040032391094409E-020
 -1.699999999999999E-003   -9.168363438129039E-020
 -1.599999999999999E-003   -1.067183619366503E-019
 -1.499999999999999E-003   -1.126063778052492E-019
 -1.399999999999999E-003   -1.069471201938589E-019
 -1.299999999999999E-003   -8.820537926831081E-020
 -1.199999999999999E-003   -5.604724712761239E-020
 -1.099999999999999E-003   -1.159957541711311E-020
 -9.999999999999989E-004    4.241097133206973E-020
 -8.999999999999990E-004    1.016771051599565E-019
 -7.999999999999990E-004    1.605146029907613E-019
 -6.999999999999989E-004    2.122601825515197E-019
 -5.999999999999990E-004    2.498523352848146E-019
 -4.999999999999989E-004    2.665609159296576E-019
 -3.999999999999989E-004    2.568080344078046E-019
 -2.999999999999989E-004    2.170021733241520E-019
 -1.999999999999989E-004    1.462922955474436E-019
 -9.999999999999892E-005    4.714176419517869E-020
  1.084202172485504E-018   -7.437474633357875E-020
  1.000000000000011E-004   -2.086330561896623E-019
  2.000000000000011E-004   -3.429344617651181E-019
  3.000000000000011E-004   -4.624103383680894E-019
  4.000000000000011E-004   -5.513262708756300E-019
  5.000000000000011E-004   -5.947049673608005E-019
  6.000000000000011E-004   -5.801368251812825E-019
  7.000000000000011E-004   -4.996040625552720E-019
  8.000000000000011E-004   -3.511128963528732E-019
  9.000000000000012E-004   -1.399168846647969E-019
  1.000000000000001E-003    1.208754241801632E-019
  1.100000000000001E-003    4.104793193692383E-019
  1.200000000000001E-003    7.015081185864314E-019
  1.300000000000001E-003    9.619677090597159E-019
  1.400000000000001E-003    1.158096255559086E-018
  1.500000000000001E-003    1.257864643039041E-018
  1.600000000000001E-003    1.234848582211852E-018
  1.700000000000001E-003    1.072095026592998E-018
  1.800000000000001E-003    7.655442571815241E-019
  1.900000000000001E-003    3.265495438682766E-019
  2.000000000000001E-003   -2.169348577745367E-019
  2.100000000000001E-003   -8.208443736402571E-019
  2.200000000000001E-003   -1.427385531927507E-018
  2.300000000000001E-003   -1.969340271086748E-018
  2.400000000000001E-003   -2.376112650939536E-018
  2.500000000000001E-003   -2.581111776016812E-018
  2.600000000000001E-003   -2.529851220517339E-018
  2.700000000000001E-003   -2.187965811596975E-018
  2.800000000000001E-003   -1.548230454680452E-018
  2.900000000000001E-003   -6.356367851149276E-019
  3.000000000000001E-003    4.903470939262088E-019
  3.100000000000001E-003    1.737026814307369E-018
  3.200000000000001E-003    2.983649109404031E-018
  3.300000000000001E-003    4.090515137606518E-018
  3.400000000000001E-003    4.911633991378510E-018
  3.500000000000001E-003    5.310047189323315E-018
  3.600000000000001E-003    5.174527826487377E-018
  3.700000000000001E-003    4.436000414311185E-018
  3.800000000000001E-003    3.081809764664544E-018
  3.900000000000001E-003    1.165918480854896E-018
  4.000000000000001E-003   -1.186722873587148E-018
  4.100000000000001E-003   -3.783011717784162E-018
  4.200000000000001E-003   -6.372520950674299E-018
  4.300000000000001E-003   -8.666332901898376E-018
  4.400000000000001E-003   -1.036301659820017E-017
  4.500000000000001E-003   -1.117996133569455E-017
  4.600000000000002E-003   -1.088742120367342E-017
  4.700000000000001E-003   -9.341926475304657E-018
  4.800000000000001E-003   -6.515303672117739E-018
  4.900000000000002E-003   -2.515450224629585E-018
  5.000000000000001E-003    2.404638932367177E-018
  5.100000000000001E-003    7.852333543439802E-018
  5.200000000000001E-003    1.331688064917113E-017
  5.300000000000002E-003    1.820699521252019E-017
  5.400000000000001E-003    2.190281744995236E-017
  5.500000000000001E-003    2.381870698117502E-017
  5.600000000000002E-003    2.347165536144200E-017
  5.700000000000001E-003    2.054872528560584E-017
  5.800000000000001E-003    1.496609847445265E-017
  5.900000000000002E-003    6.912134363890455E-018
  6.000000000000001E-003   -3.132512720445668E-018
  6.100000000000001E-003   -1.440316750411634E-017
  6.200000000000002E-003   -2.589100816381510E-017
  6.300000000000002E-003   -3.641476893176539E-017
  6.400000000000001E-003   -4.472113283927886E-017
  6.500000000000001E-003   -4.960716888209537E-017
  6.600000000000002E-003   -5.005485223292873E-017
  6.700000000000001E-003   -4.536507456904810E-017
  6.800000000000001E-003   -3.527679421187038E-017
  6.900000000000002E-003   -2.005663464095379E-017
  7.000000000000001E-003   -5.453269855994771E-019
  7.100000000000001E-003    2.184987513319302E-017
  7.200000000000002E-003    4.522343767369981E-017
  7.300000000000002E-003    6.730154869029682E-017
  7.400000000000001E-003    8.562859993652842E-017
  7.500000000000001E-003    9.779815097630496E-017
  7.600000000000002E-003    1.017101197034179E-016
  7.700000000000001E-003    9.583072835743438E-017
  7.800000000000001E-003    7.942825585366007E-017
  7.900000000000001E-003    5.275665446162408E-017
  8.000000000000002E-003    1.716092809072079E-017
  8.100000000000001E-003   -2.491714730598262E-017
  8.200000000000001E-003   -7.004668128646537E-017
  8.300000000000002E-003   -1.140323002206620E-016
  8.400000000000001E-003   -1.522475997241266E-016
  8.500000000000002E-003   -1.800567694732303E-016
  8.600000000000002E-003   -1.932918950021622E-016
  8.700000000000001E-003   -1.887432935104540E-016
  8.800000000000002E-003   -1.646135447051958E-016
  8.900000000000002E-003   -1.208832832903285E-016
  9.000000000000001E-003   -5.953933313682907E-017
  9.100000000000002E-003    1.537607265763519E-017
  9.200000000000002E-003    9.792280855100077E-017
  9.300000000000001E-003    1.806369672114270E-016
  9.400000000000002E-003    2.551099066156185E-016
  9.500000000000001E-003    3.127379716471468E-016
  9.600000000000001E-003    3.455862105798078E-016
  9.700000000000002E-003    3.472906510560493E-016
  9.800000000000001E-003    3.139100678715027E-016
  9.900000000000001E-003    2.446324048743582E-016
  1.000000000000000E-002    1.422441416939842E-016
  1.010000000000000E-002    1.328443128084906E-017
  1.020000000000000E-002   -1.321712502445606E-016
  1.030000000000000E-002   -2.811213605744589E-016
  1.040000000000000E-002   -4.186276943180277E-016
  1.050000000000000E-002   -5.291279211630695E-016
  1.060000000000000E-002   -5.979743301769793E-016
  1.070000000000000E-002   -6.130666702351544E-016
  1.080000000000000E-002   -5.664204519932332E-016
  1.090000000000000E-002   -4.554995223287709E-016
  1.100000000000000E-002   -2.841447943442124E-016
  1.110000000000000E-002   -6.295279255666066E-017
  1.120000000000000E-002    1.910032184962958E-016
  1.130000000000000E-002    4.551613712021421E-016
  1.140000000000000E-002    7.031528766719897E-016
  1.150000000000000E-002    9.070869074906586E-016
  1.160000000000000E-002    1.040274776924007E-015
  1.170000000000000E-002    1.080163066711503E-015
  1.180000000000000E-002    1.011195351672315E-015
  1.190000000000000E-002    8.272955857173464E-016
  1.200000000000000E-002    5.336667293320664E-016
  1.210000000000000E-002    1.476336014483381E-016
  1.220000000000000E-002   -3.016759133110237E-016
  1.230000000000000E-002   -7.749206473966676E-016
  1.240000000000000E-002   -1.225397131050039E-015
  1.250000000000000E-002   -1.603009662486254E-015
  1.260000000000000E-002   -1.859082026403630E-015
  1.270000000000000E-002   -1.951613026467729E-015
  1.280000000000000E-002   -1.850483006636225E-015
  1.290000000000000E-002   -1.542060658192128E-015
  1.300000000000000E-002   -1.032658402262408E-015
  1.310000000000000E-002   -3.503347332665305E-016
  1.320000000000000E-002    4.553463508700326E-016
  1.330000000000000E-002    1.315824358282314E-015
  1.340000000000000E-002    2.148334360789088E-015
  1.350000000000000E-002    2.862762376560839E-015
  1.360000000000000E-002    3.370103705173983E-015
  1.370000000000000E-002    3.591837326163224E-015
  1.380000000000000E-002    3.469356005673173E-015
  1.390000000000000E-002    2.972477425114272E-015
  1.400000000000000E-002    2.106040914437851E-015
  1.410000000000000E-002    9.136742308682360E-016
  1.420000000000000E-002   -5.220015898346743E-016
  1.430000000000000E-002   -2.083181524513421E-015
  1.440000000000000E-002   -3.624784627931290E-015
  1.450000000000000E-002   -4.986135296734922E-015
  1.460000000000000E-002   -6.005656905957552E-015
  1.470000000000000E-002   -6.537415485949308E-015
  1.480000000000000E-002   -6.468020846295171E-015
  1.490000000000000E-002   -5.732179361735085E-015
  1.500000000000000E-002   -4.325124723459188E-015
  1.510000000000000E-002   -2.310279184320410E-015
  1.520000000000000E-002    1.792165312390186E-016
  1.530000000000000E-002    2.945977296298749E-015
  1.540000000000000E-002    5.741107676063981E-015
  1.550000000000000E-002    8.283728952116786E-015
  1.560000000000000E-002    1.028606843529705E-014
  1.570000000000000E-002    1.148217148703302E-014
  1.580000000000000E-002    1.165767761407410E-014
  1.590000000000000E-002    1.067772327315010E-014
  1.600000000000000E-002    8.509861948621220E-015
  1.610000000000000E-002    5.239075129927833E-015
  1.620000000000000E-002    1.072413115223089E-015
  1.630000000000000E-002   -3.668387678256420E-015
  1.640000000000000E-002   -8.566915052209756E-015
  1.650000000000000E-002   -1.314408118218243E-014
  1.660000000000000E-002   -1.690015742056801E-014
  1.670000000000000E-002   -1.936364089169760E-014
  1.680000000000000E-002   -2.014266159832441E-014
  1.690000000000000E-002   -1.897392203271462E-014
  1.700000000000000E-002   -1.576383250542422E-014
  1.710000000000000E-002   -1.061674220976329E-014
  1.720000000000000E-002   -3.845921645462399E-015
  1.730000000000000E-002    4.035736894020557E-015
  1.740000000000000E-002    1.234655852483126E-014
  1.750000000000000E-002    2.028764113041845E-014
  1.760000000000000E-002    2.701206915349554E-014
  1.770000000000000E-002    3.170654365952093E-014
  1.780000000000000E-002    3.367835996051821E-014
  1.790000000000000E-002    3.243932344480794E-014
  1.800000000000000E-002    2.777761064343248E-014
  1.810000000000000E-002    1.980886806849781E-014
  1.820000000000000E-002    8.999042767015791E-015
  1.830000000000000E-002   -3.846412084982055E-015
  1.840000000000000E-002   -1.762942101434631E-014
  1.850000000000000E-002   -3.104123945305867E-014
  1.860000000000000E-002   -4.267470381095030E-014
  1.870000000000000E-002   -5.115838270173602E-014