 -4.000000000000000E-002    0.000000000000000E+000
 -3.990000000000000E-002    0.000000000000000E+000
 -3.980000000000000E-002    4.890509284233834E-013
 -3.970000000000000E-002    2.684305773801121E-012
 -3.960000000000000E-002    8.955747892962307E-012
 -3.950000000000000E-002    2.336497338113821E-011
 -3.940000000000000E-002    5.220279905021422E-011
 -3.930000000000000E-002    1.043813502731510E-010
 -3.920000000000000E-002    1.915291154038254E-010
 -3.910000000000000E-002    3.276568976426377E-010
 -3.900000000000000E-002    5.283092648710193E-010
 -3.890000000000000E-002    8.091860037604844E-010
 -3.880000000000000E-002    1.184302329829670E-009
 -3.870000000000000E-002    1.663843540338393E-009
 -3.860000000000000E-002    2.251944051621123E-009
 -3.850000000000000E-002    2.944668534079047E-009
 -3.840000000000000E-002    3.728485844384702E-009
 -3.830000000000000E-002    4.579491524631814E-009
 -3.820000000000000E-002    5.463562576264314E-009
 -3.810000000000000E-002    6.337516641109809E-009
 -3.800000000000000E-002    7.151219124472129E-009
 -3.790000000000000E-002    7.850445298129401E-009
 -3.780000000000000E-002    8.380206834434724E-009
 -3.770000000000000E-002    8.688164917609311E-009
 -3.760000000000000E-002    8.727744946525571E-009
 -3.750000000000000E-002    8.460618794727860E-009
 -3.740000000000000E-002    7.858308170758187E-009
 -3.730000000000000E-002    6.902822650905195E-009
 -3.720000000000000E-002    5.586405765051128E-009
 -3.710000000000000E-002    3.910630152721478E-009
 -3.700000000000000E-002    1.885195465312431E-009
 -3.690000000000000E-002   -4.731478205414925E-010
 -3.680000000000000E-002   -3.141147351695472E-009
 -3.670000000000000E-002   -6.088770084642113E-009
 -3.660000000000000E-002   -9.277974737032627E-009
 -3.650000000000000E-002   -1.266063717867164E-008
 -3.640000000000000E-002   -1.617596058643306E-008
 -3.630000000000000E-002   -1.974791826896238E-008
 -3.620000000000000E-002   -2.328339896908401E-008
 -3.610000000000000E-002   -2.667175566839169E-008
 -3.600000000000000E-002   -2.978636128806639E-008
 -3.590000000000000E-002   -3.248853242069170E-008
 -3.580000000000000E-002   -3.463386195833554E-008
 -3.570000000000000E-002   -3.608060838503378E-008
 -3.560000000000000E-002   -3.669937712391767E-008
 -3.550000000000000E-002   -3.638302646442405E-008
 -3.540000000000000E-002   -3.505546991459112E-008
 -3.530000000000000E-002   -3.267809173609466E-008
 -3.520000000000000E-002   -2.925261361093578E-008
 -3.510000000000000E-002   -2.481965325319900E-008
 -3.500000000000000E-002   -1.945275698791940E-008
 -3.490000000000000E-002   -1.324837195678733E-008
 -3.480000000000000E-002   -6.312822823976827E-009
 -3.470000000000000E-002    1.251996991573901E-009
 -3.460000000000000E-002    9.362193058606531E-009
 -3.450000000000000E-002    1.796250117862489E-008
 -3.440000000000000E-002    2.703204530272362E-008
 -3.430000000000000E-002    3.658372014581737E-008
 -3.420000000000000E-002    4.665659449579522E-008
 -3.410000000000000E-002    5.730161696735370E-008
 -3.400000000000000E-002    6.856194491069155E-008
 -3.390000000000000E-002    8.045016032464767E-008
 -3.380000000000000E-002    9.292536431756201E-008
 -3.370000000000000E-002    1.058733438066373E-007
 -3.360000000000000E-002    1.190929936097188E-007
 -3.350000000000000E-002    1.322915778219066E-007
 -3.340000000000000E-002    1.450903257011944E-007
 -3.330000000000000E-002    1.570406979491860E-007
 -3.320000000000000E-002    1.676500650253741E-007
 -3.310000000000000E-002    1.764143014927644E-007
 -3.300000000000000E-002    1.828535775418561E-007
 -3.290000000000000E-002    1.865471022663483E-007
 -3.280000000000000E-002    1.871623836442069E-007
 -3.270000000000000E-002    1.844752403528189E-007
 -3.260000000000000E-002    1.783778215745351E-007
 -3.250000000000000E-002    1.688736363392496E-007
 -3.240000000000000E-002    1.560603356171477E-007
 -3.230000000000000E-002    1.401029296100163E-007
 -3.220000000000000E-002    1.212016549077034E-007
 -3.210000000000000E-002    9.955970375894073E-008
 -3.200000000000000E-002    7.535645518662394E-008
 -3.190000000000000E-002    4.873110917035648E-008
 -3.180000000000000E-002    1.978054720627019E-008
 -3.170000000000000E-002   -1.142692095773054E-008
 -3.160000000000000E-002   -4.482244738786835E-008
 -3.150000000000000E-002   -8.029563987932722E-008
 -3.140000000000000E-002   -1.176466028669483E-007
 -3.130000000000000E-002   -1.565382158934925E-007
 -3.120000000000000E-002   -1.964559500938988E-007
 -3.110000000000000E-002   -2.366826178953031E-007
 -3.100000000000000E-002   -2.762932842527806E-007
 -3.090000000000000E-002   -3.141738089371364E-007
 -3.080000000000000E-002   -3.490627893318167E-007
 -3.070000000000000E-002   -3.796135742242978E-007
 -3.060000000000000E-002   -4.044699490068807E-007
 -3.050000000000000E-002   -4.223463539492117E-007
 -3.040000000000000E-002   -4.321027452197866E-007
 -3.030000000000000E-002   -4.328035410245305E-007
 -3.020000000000000E-002   -4.237522921848123E-007
 -3.010000000000000E-002   -4.044964021037617E-007
 -3.000000000000000E-002   -3.747997281444365E-007
 -2.990000000000000E-002   -3.345861738870084E-007
 -2.980000000000000E-002   -2.838611036328412E-007
 -2.970000000000000E-002   -2.226211807158998E-007
 -2.960000000000000E-002   -1.507656289091461E-007
 -2.950000000000000E-002   -6.802322005441364E-008
 -2.940000000000000E-002    2.609364965055242E-008
 -2.930000000000000E-002    1.322972033155032E-007
 -2.920000000000000E-002    2.514918397052628E-007
 -2.910000000000000E-002    3.847007808490689E-007
 -2.900000000000000E-002    5.329603412315321E-007
 -2.890000000000000E-002    6.971932393856587E-007
 -2.880000000000000E-002    8.780787889860740E-007
 -2.870000000000000E-002    1.075937916958679E-006
 -2.860000000000000E-002    1.290651314143122E-006
 -2.850000000000000E-002    1.521625974938447E-006
 -2.840000000000000E-002    1.767819767260540E-006
 -2.830000000000000E-002    2.027826478305397E-006
 -2.820000000000000E-002    2.300016810402118E-006
 -2.810000000000000E-002    2.582721123389300E-006
 -2.800000000000000E-002    2.874435182523146E-006
 -2.790000000000000E-002    3.174023802789308E-006
 -2.780000000000000E-002    3.480899647929364E-006
 -2.770000000000000E-002    3.795149797174121E-006
 -2.760000000000000E-002    4.117595582536057E-006
 -2.750000000000000E-002    4.449774268036946E-006
 -2.740000000000000E-002    4.793839823959628E-006
 -2.730000000000000E-002    5.152396585133298E-006
 -2.720000000000000E-002    5.528282807959263E-006
 -2.710000000000000E-002    5.924327749698369E-006
 -2.700000000000000E-002    6.343123173629606E-006
 -2.690000000000000E-002    6.786828499399974E-006
 -2.680000000000000E-002    7.257046958536772E-006
 -2.670000000000000E-002    7.754788285322982E-006
 -2.660000000000000E-002    8.280531003364960E-006
 -2.650000000000000E-002    8.834374523523789E-006
 -2.640000000000000E-002    9.416276521648225E-006
 -2.630000000000000E-002    1.002633790839297E-005
 -2.620000000000000E-002    1.066510997005714E-005
 -2.610000000000000E-002    1.133387759780926E-005
 -2.600000000000000E-002    1.203488732099441E-005
 -2.590000000000000E-002    1.277148608113698E-005
 -2.580000000000000E-002    1.354814687542977E-005
 -2.570000000000000E-002    1.437037839694225E-005
 -2.560000000000000E-002    1.524452727319048E-005
 -2.550000000000000E-002    1.617748656188366E-005
 -2.540000000000000E-002    1.717635914493989E-005
 -2.530000000000000E-002    1.824810152086667E-005
 -2.520000000000000E-002    1.939921819464957E-005
 -2.510000000000000E-002    2.063551930491864E-005
 -2.500000000000000E-002    2.196200193003953E-005
 -2.490000000000000E-002    2.338286638642255E-005
 -2.480000000000000E-002    2.490166884794891E-005
 -2.470000000000000E-002    2.652160743563104E-005
 -2.460000000000000E-002    2.824589655332440E-005
 -2.450000000000000E-002    3.007820183202804E-005
 -2.440000000000000E-002    3.202307449308621E-005
 -2.430000000000000E-002    3.408634593265773E-005
 -2.420000000000000E-002    3.627540955180823E-005
 -2.410000000000000E-002    3.859938311927308E-005
 -2.400000000000000E-002    4.106910964934030E-005
 -2.390000000000000E-002    4.369700120012982E-005
 -2.380000000000000E-002    4.649675419794930E-005
 -2.370000000000000E-002    4.948295775710752E-005
 -2.360000000000000E-002    5.267065184947516E-005
 -2.350000000000000E-002    5.607490016941168E-005
 -2.340000000000000E-002    5.971040180096057E-005
 -2.330000000000000E-002    6.359123823970784E-005
 -2.320000000000000E-002    6.773076247700327E-005
 -2.310000000000000E-002    7.214164671686451E-005
 -2.300000000000000E-002    7.683610367122894E-005
 -2.290000000000000E-002    8.182620337726486E-005
 -2.280000000000000E-002    8.712433234564050E-005
 -2.270000000000000E-002    9.274366913607500E-005
 -2.260000000000000E-002    9.869862243448275E-005
 -2.250000000000000E-002    1.050051988901995E-004
 -2.240000000000000E-002    1.116812431027025E-004
 -2.230000000000000E-002    1.187465352153952E-004
 -2.220000000000000E-002    1.262226605431779E-004
 -2.210000000000000E-002    1.341328177546333E-004
 -2.200000000000000E-002    1.425014235969112E-004
 -2.190000000000000E-002    1.513536812489924E-004
 -2.180000000000000E-002    1.607151205492942E-004
 -2.170000000000000E-002    1.706112642262346E-004
 -2.160000000000000E-002    1.810672657076722E-004
 -2.150000000000000E-002    1.921078615662294E-004
 -2.140000000000000E-002    2.037573846685599E-004
 -2.130000000000000E-002    2.160400169035891E-004
 -2.120000000000000E-002    2.289801592396567E-004
 -2.110000000000000E-002    2.426029400712442E-004
 -2.100000000000000E-002    2.569347801180255E-004
 -2.090000000000000E-002    2.720039192949808E-004
 -2.080000000000000E-002    2.878408518441630E-004
 -2.070000000000000E-002    3.044786371690770E-004
 -2.060000000000000E-002    3.219531332158455E-004
 -2.050000000000000E-002    3.403028358956307E-004
 -2.040000000000000E-002    3.595687647372566E-004
 -2.030000000000000E-002    3.797941269130364E-004
 -2.020000000000000E-002    4.010238358552902E-004
 -2.010000000000000E-002    4.233040753464832E-004
 -2.000000000000000E-002    4.466819752216724E-004
 -1.990000000000000E-002    4.712053181338858E-004
 -1.980000000000000E-002    4.969224835706677E-004
 -1.970000000000000E-002    5.238825482657619E-004
 -1.960000000000000E-002    5.521355622058585E-004
 -1.950000000000000E-002    5.817331474675931E-004
 -1.940000000000000E-002    6.127290229598984E-004
 -1.930000000000000E-002    6.451796920640615E-004
 -1.920000000000000E-002    6.791450968783535E-004
 -1.910000000000000E-002    7.146892363734797E-004
 -1.900000000000000E-002    7.518804436034978E-004
 -1.890000000000000E-002    7.907916685177833E-004
 -1.880000000000000E-002    8.315003004162921E-004
 -1.870000000000000E-002    8.740881320668923E-004
 -1.860000000000000E-002    9.186406970596994E-004
 -1.850000000000000E-002    9.652469303120974E-004
 -1.840000000000000E-002    1.013998402634956E-003
 -1.830000000000000E-002    1.064989106063302E-003
 -1.820000000000000E-002    1.118314802552294E-003
 -1.810000000000000E-002    1.174073183963586E-003
 -1.800000000000000E-002    1.232363685468324E-003
 -1.790000000000000E-002    1.293288069468077E-003
 -1.780000000000000E-002    1.356950788789302E-003
 -1.770000000000000E-002    1.423459896617211E-003
 -1.760000000000000E-002    1.492927796837301E-003
 -1.750000000000000E-002    1.565472114254885E-003
 -1.740000000000000E-002    1.641216403527765E-003
 -1.730000000000000E-002    1.720290733193037E-003
 -1.720000000000000E-002    1.802832116279184E-003
 -1.710000000000000E-002    1.888984262118260E-003
 -1.700000000000000E-002    1.978897590039289E-003
 -1.690000000000000E-002    2.072728583253441E-003
 -1.680000000000000E-002    2.170639459048917E-003
 -1.670000000000000E-002    2.272797049861621E-003
 -1.660000000000000E-002    2.379372239362556E-003
 -1.650000000000000E-002    2.490539605390273E-003
 -1.640000000000000E-002    2.606476809904291E-003
 -1.630000000000000E-002    2.727364814685323E-003
 -1.620000000000000E-002    2.853388158527231E-003
 -1.610000000000000E-002    2.984734738465201E-003
 -1.600000000000000E-002    3.121598072051441E-003
 -1.590000000000000E-002    3.264176641925394E-003
 -1.580000000000000E-002    3.412676338638255E-003
 -1.570000000000000E-002    3.567310300053124E-003
 -1.560000000000000E-002    3.728300777058617E-003
 -1.550000000000000E-002    3.895878574787791E-003
 -1.540000000000000E-002    4.070284296161237E-003
 -1.530000000000000E-002    4.251767966764488E-003
 -1.520000000000000E-002    4.440587988201329E-003
 -1.510000000000000E-002    4.637011347339794E-003
 -1.500000000000000E-002    4.841311907410686E-003
 -1.490000000000000E-002    5.053770715849996E-003
 -1.480000000000000E-002    5.274673648093595E-003
 -1.470000000000000E-002    5.504312473767689E-003
 -1.460000000000000E-002    5.742982523930645E-003
 -1.450000000000000E-002    5.990984142483752E-003
 -1.440000000000000E-002    6.248622180562643E-003
 -1.430000000000000E-002    6.516206237546005E-003
 -1.420000000000000E-002    6.794052928060040E-003
 -1.410000000000000E-002    7.082484695507858E-003
 -1.400000000000000E-002    7.381832999578378E-003
 -1.390000000000000E-002    7.692437351884580E-003
 -1.380000000000000E-002    8.014647673160520E-003
 -1.370000000000000E-002    8.348824085268207E-003
 -1.360000000000000E-002    8.695336390929908E-003
 -1.350000000000000E-002    9.054564840057785E-003
 -1.340000000000000E-002    9.426899235743301E-003
 -1.330000000000000E-002    9.812738240919411E-003
 -1.320000000000000E-002    1.021248821209304E-002
 -1.310000000000000E-002    1.062656160115133E-002
 -1.300000000000000E-002    1.105537859934538E-002
 -1.290000000000000E-002    1.149936158461967E-002
 -1.280000000000000E-002    1.195893945098860E-002
 -1.270000000000000E-002    1.243454441840547E-002
 -1.260000000000000E-002    1.292661285223151E-002
 -1.250000000000000E-002    1.343558590754737E-002
 -1.240000000000000E-002    1.396190990380794E-002
 -1.230000000000000E-002    1.450603938481196E-002
 -1.220000000000000E-002    1.506843314151999E-002
 -1.210000000000000E-002    1.564955985255815E-002
 -1.200000000000000E-002    1.624989516481693E-002
 -1.190000000000000E-002    1.686992454792001E-002
 -1.180000000000000E-002    1.751014121276675E-002
 -1.170000000000000E-002    1.817104690126871E-002
 -1.160000000000000E-002    1.885314927485149E-002
 -1.150000000000000E-002    1.955696618626701E-002
 -1.140000000000000E-002    2.028301635574036E-002
 -1.130000000000000E-002    2.103182438310155E-002
 -1.120000000000000E-002    2.180391631937716E-002
 -1.110000000000000E-002    2.259982117535993E-002
 -1.100000000000000E-002    2.342006773525564E-002
 -1.090000000000000E-002    2.426518611448020E-002
 -1.080000000000000E-002    2.513570170963639E-002
 -1.070000000000000E-002    2.603214302821960E-002
 -1.060000000000000E-002    2.695503763247509E-002
 -1.050000000000000E-002    2.790491254886962E-002
 -1.040000000000000E-002    2.888229324195474E-002
 -1.030000000000000E-002    2.988770881242985E-002
 -1.020000000000000E-002    3.092168347247172E-002
 -1.010000000000000E-002    3.198474533971302E-002
 -1.000000000000000E-002    3.307741966161870E-002
 -9.899999999999999E-003    3.420023011149589E-002
 -9.800000000000000E-003    3.535370094952438E-002
 -9.699999999999999E-003    3.653834661643190E-002
 -9.599999999999999E-003    3.775468202850858E-002
 -9.500000000000000E-003    3.900320870560560E-002
 -9.399999999999999E-003    4.028441898986457E-002
 -9.299999999999999E-003    4.159879962475720E-002
 -9.200000000000000E-003    4.294681822099967E-002
 -9.099999999999999E-003    4.432893152274292E-002
 -8.999999999999999E-003    4.574557932988608E-002
 -8.900000000000000E-003    4.719719305085888E-002
 -8.799999999999999E-003    4.868417830482884E-002
 -8.699999999999999E-003    5.020692622951356E-002
 -8.600000000000000E-003    5.176580799616932E-002
 -8.499999999999999E-003    5.336118315838616E-002
 -8.399999999999999E-003    5.499338304724064E-002
 -8.300000000000000E-003    5.666272872934414E-002
 -8.199999999999999E-003    5.836951475189218E-002
 -8.100000000000000E-003    6.011401026572304E-002
 -8.000000000000000E-003    6.189646280629243E-002
 -7.899999999999999E-003    6.371709277692073E-002
 -7.800000000000000E-003    6.557609727494941E-002
 -7.699999999999999E-003    6.747363338138437E-002
 -7.599999999999999E-003    6.940983231687946E-002
 -7.499999999999999E-003    7.138478687891782E-002
 -7.399999999999999E-003    7.339855696654381E-002
 -7.299999999999999E-003    7.545115148902334E-002
 -7.199999999999999E-003    7.754253607491313E-002
 -7.100000000000000E-003    7.967265285651920E-002
 -6.999999999999999E-003    8.184137442413741E-002
 -6.899999999999999E-003    8.404853854044397E-002
 -6.800000000000000E-003    8.629393421106768E-002
 -6.699999999999999E-003    8.857729134645802E-002
 -6.599999999999999E-003    9.089829421113005E-002
 -6.499999999999999E-003    9.325656482889974E-002
 -6.399999999999999E-003    9.565168504971004E-002
 -6.299999999999999E-003    9.808316779295270E-002
 -6.199999999999999E-003    0.100550469264220     
 -6.100000000000000E-003    0.103052983702956     
 -5.999999999999999E-003    0.105590040749021     
 -5.899999999999999E-003    0.108160910303276     
 -5.800000000000000E-003    0.110764776963221     
 -5.699999999999999E-003    0.113400772379081     
 -5.599999999999999E-003    0.116067934962668     
 -5.499999999999999E-003    0.118765227444322     
 -5.399999999999999E-003    0.121491541041256     
 -5.299999999999999E-003    0.124245666186607     
 -5.199999999999999E-003    0.127026322775719     
 -5.099999999999999E-003    0.129832136507747     
 -4.999999999999999E-003    0.132661632510632     
 -4.899999999999999E-003    0.135513255782965     
 -4.799999999999999E-003    0.138385352208778     
 -4.699999999999999E-003    0.141276165570433     
 -4.599999999999999E-003    0.144183850794729     
 -4.499999999999999E-003    0.147106457205654     
 -4.399999999999999E-003    0.150041923842988     
 -4.299999999999999E-003    0.152988108479339     
 -4.199999999999999E-003    0.155942735427179     
 -4.099999999999999E-003    0.158903439818721     
 -3.999999999999999E-003    0.161867745926346     
 -3.899999999999999E-003    0.164833050186095     
 -3.799999999999999E-003    0.167796645621765     
 -3.699999999999999E-003    0.170755702845019     
 -3.599999999999999E-003    0.173707265879767     
 -3.499999999999999E-003    0.176648267095474     
 -3.399999999999999E-003    0.179575502200467     
 -3.299999999999999E-003    0.182485640846983     
 -3.199999999999999E-003    0.185375217664017     
 -3.099999999999999E-003    0.188240651457124     
 -2.999999999999999E-003    0.191078216459822     
 -2.899999999999999E-003    0.193884050528781     
 -2.799999999999999E-003    0.196654170662330     
 -2.699999999999999E-003    0.199384458783012     
 -2.599999999999999E-003    0.202070664793309     
 -2.499999999999999E-003    0.204708387500933     
 -2.399999999999999E-003    0.207293102018123     
 -2.299999999999999E-003    0.209820158300714     
 -2.199999999999999E-003    0.212284751402615     
 -2.099999999999999E-003    0.214681956502242     
 -1.999999999999999E-003    0.217006697479221     
 -1.899999999999999E-003    0.219253772773315     
 -1.799999999999999E-003    0.221417837418138     
 -1.699999999999999E-003    0.223493401815560     
 -1.599999999999999E-003    0.225474843049357     
 -1.499999999999999E-003    0.227356392876403     
 -1.399999999999999E-003    0.229132150127697     
 -1.299999999999999E-003    0.230796086817582     
 -1.199999999999999E-003    0.232342029190375     
 -1.099999999999999E-003    0.233763660614728     
 -9.999999999999989E-004    0.235054548508990     
 -8.999999999999990E-004    0.236208131824460     
 -7.999999999999990E-004    0.237217721555482     
 -6.999999999999989E-004    0.238076502602777     
 -5.999999999999990E-004    0.238777552462033     
 -4.999999999999989E-004    0.239313834919634     
 -3.999999999999989E-004    0.239678201440097     
 -2.999999999999989E-004    0.239863388109427     
 -1.999999999999989E-004    0.239862049327895     
 -9.999999999999892E-005    0.239666701451912     
  1.084202172485504E-018    0.239269806157790     
  1.000000000000011E-004    0.238663718051202     
  2.000000000000011E-004    0.237840672017221     
  3.000000000000011E-004    0.236792860145918     
  4.000000000000011E-004    0.235512381149930     
  5.000000000000011E-004    0.233991259914041     
  6.000000000000011E-004    0.232221438993278     
  7.000000000000011E-004    0.230194827103473     
  8.000000000000011E-004    0.227903273791427     
  9.000000000000012E-004    0.225338576264856     
  1.000000000000001E-003    0.222492505916548     
  1.100000000000001E-003    0.219356805644840     
  1.200000000000001E-003    0.215923198640132     
  1.300000000000001E-003    0.212183406896811     
  1.400000000000001E-003    0.208129141373790     
  1.500000000000001E-003    0.203752131252611     
  1.600000000000001E-003    0.199044120652051     
  1.700000000000001E-003    0.193996889708023     
  1.800000000000001E-003    0.188602248749968     
  1.900000000000001E-003    0.182852041347108     
  2.000000000000001E-003    0.176738171037696     
  2.100000000000001E-003    0.170252625790223     
  2.200000000000001E-003    0.163387439634619     
  2.300000000000001E-003    0.156134755676919     
  2.400000000000001E-003    0.148486797914697     
  2.500000000000001E-003    0.140435910400367     
  2.600000000000001E-003    0.131974557232330     
  2.700000000000001E-003    0.123095340592340     
  2.800000000000001E-003    0.113791024285835     
  2.900000000000001E-003    0.104054522726275     
  3.000000000000001E-003    9.387892123346815E-002
  3.100000000000001E-003    8.325754989619825E-002
  3.200000000000001E-003    7.218388098822427E-002
  3.300000000000001E-003    6.065165161117416E-002
  3.400000000000001E-003    4.865481824379673E-002
  3.500000000000001E-003    3.618758689215853E-002
  3.600000000000001E-003    2.324443150923516E-002
  3.700000000000001E-003    9.820087624899915E-003
  3.800000000000001E-003   -4.090410232145795E-003
  3.900000000000001E-003   -1.849171946958765E-002
  4.000000000000001E-003   -3.338820337724169E-002
  4.100000000000001E-003   -4.878389046741040E-002
  4.200000000000001E-003   -6.468247113079477E-002
  4.300000000000001E-003   -8.108724404614193E-002
  4.400000000000001E-003   -9.800115953208524E-002
  4.500000000000001E-003   -0.115426772250765     
  4.600000000000002E-003   -0.133366237773990     
  4.700000000000001E-003   -0.151821301102621     
  4.800000000000001E-003   -0.170793217964504     
  4.900000000000002E-003   -0.190282820488903     
  5.000000000000001E-003   -0.210290490697999     
  5.100000000000001E-003   -0.230816112801562     
  5.200000000000001E-003   -0.251859046877451     
  5.300000000000002E-003   -0.273418198471697     
  5.400000000000001E-003   -0.295491908133635     
  5.500000000000001E-003   -0.318078010029607     
  5.600000000000002E-003   -0.341173767872348     
  5.700000000000001E-003   -0.364775913569012     
  5.800000000000001E-003   -0.388880633206191     
  5.900000000000002E-003   -0.413483483386117     
  6.000000000000001E-003   -0.438579448337160     
  6.100000000000001E-003   -0.464162901746993     
  6.200000000000002E-003   -0.490227626289214     
  6.300000000000002E-003   -0.516766816382357     
  6.400000000000001E-003   -0.543772936839833     
  6.500000000000001E-003   -0.571237894871056     
  6.600000000000002E-003   -0.599152910776868     
  6.700000000000001E-003   -0.627508494923448     
  6.800000000000001E-003   -0.656294587470868     
  6.900000000000002E-003   -0.685500352470614     
  7.000000000000001E-003   -0.715114291200919     
  7.100000000000001E-003   -0.745124291877712     
  7.200000000000002E-003   -0.775517489855212     
  7.300000000000002E-003   -0.806280342786238     
  7.400000000000001E-003   -0.837398585583210     
  7.500000000000001E-003   -0.868857233690807     
  7.600000000000002E-003   -0.900640668931550     
  7.700000000000001E-003   -0.932732530466866     
  7.800000000000001E-003   -0.965115800815524     
  7.900000000000001E-003   -0.997772703610540     
  8.000000000000002E-003    -1.03068489549736     
  8.100000000000001E-003    -1.06383316449133     
  8.200000000000001E-003    -1.09719771799288     
  8.300000000000002E-003    -1.13075808868103     
  8.400000000000001E-003    -1.16449308138552     
  8.500000000000002E-003    -1.19838088237575     
  8.600000000000002E-003    -1.23239903070729     
  8.700000000000001E-003    -1.26652421846395     
  8.800000000000002E-003    -1.30073266427109     
  8.900000000000002E-003    -1.33499995819572     
  9.000000000000001E-003    -1.36930088660954     
  9.100000000000002E-003    -1.40360977970899     
  9.200000000000002E-003    -1.43790046826201     
  9.300000000000001E-003    -1.47214598339303     
  9.400000000000002E-003    -1.50631885637932     
  9.500000000000001E-003    -1.54039113139966     
  9.600000000000001E-003    -1.57433433909044     
  9.700000000000002E-003    -1.60811947417354     
  9.800000000000001E-003    -1.64171697956789     
  9.900000000000001E-003    -1.67509689989530     
  1.000000000000000E-002    -1.70822878361806     
  1.010000000000000E-002    -1.74108197079756     
  1.020000000000000E-002    -1.77362519149342     
  1.030000000000000E-002    -1.80582689063083     
  1.040000000000000E-002    -1.83765512779033     
  1.050000000000000E-002    -1.86907765708018     
  1.060000000000000E-002    -1.90006198333980     
  1.070000000000000E-002    -1.93057533291547     
  1.080000000000000E-002    -1.96058479191507     
  1.090000000000000E-002    -1.99005700191853     
  1.100000000000000E-002    -2.01895866526298     
  1.110000000000000E-002    -2.04725626704265     
  1.120000000000000E-002    -2.07491621819756     
  1.130000000000000E-002    -2.10190487500633     
  1.140000000000000E-002    -2.12818873812544     
  1.150000000000000E-002    -2.15373403511342     
  1.160000000000000E-002    -2.17850714028883     
  1.170000000000000E-002    -2.20247464289177     
  1.180000000000000E-002    -2.22560310470587     
  1.190000000000000E-002    -2.24785929812733     
  1.200000000000000E-002    -2.26921037916342     
  1.210000000000000E-002    -2.28962344060511     
  1.220000000000000E-002    -2.30906610140007     
  1.230000000000000E-002    -2.32750617130611     
  1.240000000000000E-002    -2.34491186127180     
  1.250000000000000E-002    -2.36125195890990     
  1.260000000000000E-002    -2.37649549387116     
  1.270000000000000E-002    -2.39061184333154     
  1.280000000000000E-002    -2.40357118025871     
  1.290000000000000E-002    -2.41534426593150     
  1.300000000000000E-002    -2.42590209272408     
  1.310000000000000E-002    -2.43521682643595     
  1.320000000000000E-002    -2.44326105275678     
  1.330000000000000E-002    -2.45000801093959     
  1.340000000000000E-002    -2.45543195688322     
  1.350000000000000E-002    -2.45950773402794     
  1.360000000000000E-002    -2.46221110345649     
  1.370000000000000E-002    -2.46351888498639     
  1.380000000000000E-002    -2.46340858931280     
  1.390000000000000E-002    -2.46185902903722     
  1.400000000000000E-002    -2.45884971480768     
  1.410000000000000E-002    -2.45436128686005     
  1.420000000000000E-002    -2.44837553620204     
  1.430000000000000E-002    -2.44087540091499     
  1.440000000000000E-002    -2.43184497351423     
  1.450000000000000E-002    -2.42126924217188     
  1.460000000000000E-002    -2.40913485067885     
  1.470000000000000E-002    -2.39542932770738     
  1.480000000000000E-002    -2.38014151739549     
  1.490000000000000E-002    -2.36326185087223     
  1.500000000000000E-002    -2.34478180265607     
  1.510000000000000E-002    -2.32469448405268     
  1.520000000000000E-002    -2.30299413068211     
  1.530000000000000E-002    -2.27967646254691     
  1.540000000000000E-002    -2.25473859105330     
  1.550000000000000E-002    -2.22817940294808     
  1.560000000000000E-002    -2.19999892714000     
  1.570000000000000E-002    -2.17019855166016     
  1.580000000000000E-002    -2.13878163313654     
  1.590000000000000E-002    -2.10575292995201     
  1.600000000000000E-002    -2.07111845768673     
  1.610000000000000E-002    -2.03488590874075     
  1.620000000000000E-002    -1.99706466941154     
  1.630000000000000E-002    -1.95766544548179     
  1.640000000000000E-002    -1.91670070744943     
  1.650000000000000E-002    -1.87418451499545     
  1.660000000000000E-002    -1.83013220679190     
  1.670000000000000E-002    -1.78456092615515     
  1.680000000000000E-002    -1.73748928587938     
  1.690000000000000E-002    -1.68893749743774     
  1.700000000000000E-002    -1.63892723197054     
  1.710000000000000E-002    -1.58748182202403     
  1.720000000000000E-002    -1.53462605436938     
  1.730000000000000E-002    -1.48038629588956     
  1.740000000000000E-002    -1.42479035763796     
  1.750000000000000E-002    -1.36786763578964     
  1.760000000000000E-002    -1.30964886491517     
  1.770000000000000E-002    -1.25016634331082     
  1.780000000000000E-002    -1.18945380681020     
  1.790000000000000E-002    -1.12754633691966     
  1.800000000000000E-002    -1.06448043450384     
  1.810000000000000E-002    -1.00029383514434     
  1.820000000000000E-002   -0.935025667693891     
  1.830000000000000E-002   -0.868716463658678     
  1.840000000000000E-002   -0.801407708577734     
  1.850000000000000E-002   -0.733142271458864     
  1.860000000000000E-002   -0.663964215828172     
  1.870000000000000E-002   -0.593918625670260     