 -4.000000000000000E-002    0.000000000000000E+000
 -3.990000000000000E-002    0.000000000000000E+000
 -3.980000000000000E-002    0.000000000000000E+000
 -3.970000000000000E-002    8.455243287535457E-015
 -3.960000000000000E-002    5.564604627465677E-014
 -3.950000000000000E-002    2.052448982628203E-013
 -3.940000000000000E-002    5.560642346732902E-013
 -3.930000000000000E-002    1.227081617348579E-012
 -3.920000000000000E-002    2.322318392499036E-012
 -3.910000000000000E-002    3.877352376965398E-012
 -3.900000000000000E-002    5.795050494323576E-012
 -3.890000000000000E-002    7.783151673478394E-012
 -3.880000000000000E-002    9.309278774484102E-012
 -3.870000000000000E-002    9.588850495167947E-012
 -3.860000000000000E-002    7.617787758818950E-012
 -3.850000000000000E-002    2.255234637293950E-012
 -3.840000000000000E-002   -7.647292517924175E-012
 -3.830000000000000E-002   -2.308319326264158E-011
 -3.820000000000000E-002   -4.471539923167482E-011
 -3.810000000000000E-002   -7.271415512211361E-011
 -3.800000000000000E-002   -1.066345426520291E-010
 -3.790000000000000E-002   -1.453561760541865E-010
 -3.780000000000000E-002   -1.870991031065091E-010
 -3.770000000000000E-002   -2.295182542890731E-010
 -3.760000000000000E-002   -2.698663486045359E-010
 -3.750000000000000E-002   -3.052034205940846E-010
 -3.740000000000000E-002   -3.326233493502347E-010
 -3.730000000000000E-002   -3.494650574696321E-010
 -3.720000000000000E-002   -3.534791131354957E-010
 -3.710000000000000E-002   -3.429292170208565E-010
 -3.700000000000000E-002   -3.166215179426739E-010
 -3.690000000000000E-002   -2.738690578187005E-010
 -3.680000000000000E-002   -2.144125600571924E-010
 -3.670000000000000E-002   -1.383284667770403E-010
 -3.660000000000000E-002   -4.595857517391695E-011
 -3.650000000000000E-002    6.210910477973350E-011
 -3.640000000000000E-002    1.849888220884638E-010
 -3.630000000000000E-002    3.213740850365899E-010
 -3.620000000000000E-002    4.693605769181041E-010
 -3.610000000000000E-002    6.262512255371967E-010
 -3.600000000000000E-002    7.883922079306391E-010
 -3.590000000000000E-002    9.510932239129648E-010
 -3.580000000000000E-002    1.108678480195925E-009
 -3.570000000000000E-002    1.254697685927051E-009
 -3.560000000000000E-002    1.382299940931313E-009
 -3.550000000000000E-002    1.484741720739177E-009
 -3.540000000000000E-002    1.555969562876119E-009
 -3.530000000000000E-002    1.591192174301001E-009
 -3.520000000000000E-002    1.587344319846528E-009
 -3.510000000000000E-002    1.543346987593559E-009
 -3.500000000000000E-002    1.460087338732122E-009
 -3.490000000000000E-002    1.340080246762057E-009
 -3.480000000000000E-002    1.186818991343528E-009
 -3.470000000000000E-002    1.003878569966763E-009
 -3.460000000000000E-002    7.938850451570293E-010
 -3.450000000000000E-002    5.575025795164578E-010
 -3.440000000000000E-002    2.926100325738358E-010
 -3.430000000000000E-002   -6.165946464470356E-012
 -3.420000000000000E-002   -3.474280961683970E-010
 -3.410000000000000E-002   -7.424174904442311E-010
 -3.400000000000000E-002   -1.203849166152458E-009
 -3.390000000000000E-002   -1.744251215763700E-009
 -3.380000000000000E-002   -2.373964063946843E-009
 -3.370000000000000E-002   -3.099012429618359E-009
 -3.360000000000000E-002   -3.919102912610673E-009
 -3.350000000000000E-002   -4.825999367063027E-009
 -3.340000000000000E-002   -5.802493949490429E-009
 -3.330000000000000E-002   -6.822128995816343E-009
 -3.320000000000000E-002   -7.849731335666509E-009
 -3.310000000000000E-002   -8.842730026637117E-009
 -3.300000000000000E-002   -9.753119900090813E-009
 -3.290000000000000E-002   -1.052987492244941E-008
 -3.280000000000000E-002   -1.112155138423638E-008
 -3.270000000000000E-002   -1.147883237257752E-008
 -3.260000000000000E-002   -1.155678222578836E-008
 -3.250000000000000E-002   -1.131666261015043E-008
 -3.240000000000000E-002   -1.072723856476750E-008
 -3.230000000000000E-002   -9.765610070794950E-009
 -3.220000000000000E-002   -8.417678761610013E-009
 -3.210000000000000E-002   -6.678440354779482E-009
 -3.200000000000000E-002   -4.552266956333889E-009
 -3.190000000000000E-002   -2.053372902922848E-009
 -3.180000000000000E-002    7.934787637025215E-010
 -3.170000000000000E-002    3.952020898993709E-009
 -3.160000000000000E-002    7.373439272719082E-009
 -3.150000000000000E-002    1.099547263614144E-008
 -3.140000000000000E-002    1.474200814648387E-008
 -3.130000000000000E-002    1.852350638366858E-008
 -3.120000000000000E-002    2.223858949891529E-008
 -3.110000000000000E-002    2.577698865105585E-008
 -3.100000000000000E-002    2.902387508093611E-008
 -3.090000000000000E-002    3.186540558277029E-008
 -3.080000000000000E-002    3.419505502400271E-008
 -3.070000000000000E-002    3.592014601275179E-008
 -3.060000000000000E-002    3.696780597652438E-008
 -3.050000000000000E-002    3.728958158512091E-008
 -3.040000000000000E-002    3.686398096278668E-008
 -3.030000000000000E-002    3.569641849635791E-008
 -3.020000000000000E-002    3.381629918287476E-008
 -3.010000000000000E-002    3.127141522743766E-008
 -3.000000000000000E-002    2.812012752961439E-008
 -2.990000000000000E-002    2.442225173788558E-008
 -2.980000000000000E-002    2.022981483547954E-008
 -2.970000000000000E-002    1.557897276751695E-008
 -2.960000000000000E-002    1.048441038318166E-008
 -2.950000000000000E-002    4.937292915030936E-009
 -2.940000000000000E-002   -1.092511901124822E-009
 -2.930000000000000E-002   -7.649795214058103E-009
 -2.920000000000000E-002   -1.478327507665409E-008
 -2.910000000000000E-002   -2.253182681187291E-008
 -2.900000000000000E-002   -3.090914612210098E-008
 -2.890000000000000E-002   -3.988865661733910E-008
 -2.880000000000000E-002   -4.939070858044488E-008
 -2.870000000000000E-002   -5.927383254944958E-008
 -2.860000000000000E-002   -6.933160432618555E-008
 -2.850000000000000E-002   -7.929600734865103E-008
 -2.840000000000000E-002   -8.884743275440653E-008
 -2.830000000000000E-002   -9.763072339509128E-008
 -2.820000000000000E-002   -1.052758637752801E-007
 -2.810000000000000E-002   -1.114213380261139E-007
 -2.800000000000000E-002   -1.157377909389944E-007
 -2.790000000000000E-002   -1.179495369619294E-007
 -2.780000000000000E-002   -1.178516941863271E-007
 -2.770000000000000E-002   -1.153212223334675E-007
 -2.760000000000000E-002   -1.103208079031339E-007
 -2.750000000000000E-002   -1.028955403550201E-007
 -2.740000000000000E-002   -9.316301088625037E-008
 -2.730000000000000E-002   -8.129835861890481E-008
 -2.720000000000000E-002   -6.751621502135564E-008
 -2.710000000000000E-002   -5.205195605107851E-008
 -2.700000000000000E-002   -3.514426197109044E-008
 -2.690000000000000E-002   -1.702103971031776E-008
 -2.680000000000000E-002    2.110322182835761E-009
 -2.670000000000000E-002    2.206779831782793E-008
 -2.660000000000000E-002    4.269520966129314E-008
 -2.650000000000000E-002    6.385937396909481E-008
 -2.640000000000000E-002    8.544571474339799E-008
 -2.630000000000000E-002    1.073540473412046E-007
 -2.620000000000000E-002    1.294963026364457E-007
 -2.610000000000000E-002    1.517975454180531E-007
 -2.600000000000000E-002    1.742007623539258E-007
 -2.590000000000000E-002    1.966752496254531E-007
 -2.580000000000000E-002    2.192274951023896E-007
 -2.570000000000000E-002    2.419127574925168E-007
 -2.560000000000000E-002    2.648454673249609E-007
 -2.550000000000000E-002    2.882062182080380E-007
 -2.540000000000000E-002    3.122435855124800E-007
 -2.530000000000000E-002    3.372703424237077E-007
 -2.520000000000000E-002    3.636538780781399E-007
 -2.510000000000000E-002    3.918021404344577E-007
 -2.500000000000000E-002    4.221483309029921E-007
 -2.490000000000000E-002    4.551365365058409E-007
 -2.480000000000000E-002    4.912124433426659E-007
 -2.470000000000000E-002    5.308226972809565E-007
 -2.460000000000000E-002    5.744247219715675E-007
 -2.450000000000000E-002    6.225081667856299E-007
 -2.440000000000000E-002    6.756282246574808E-007
 -2.430000000000000E-002    7.344456373035319E-007
 -2.420000000000000E-002    7.997719019594307E-007
 -2.410000000000000E-002    8.726113576343938E-007
 -2.400000000000000E-002    9.541941846666839E-007
 -2.390000000000000E-002    1.045993695821352E-006
 -2.380000000000000E-002    1.149723391284854E-006
 -2.370000000000000E-002    1.267308923610806E-006
 -2.360000000000000E-002    1.400836856957283E-006
 -2.350000000000000E-002    1.552479180388184E-006
 -2.340000000000000E-002    1.724405213513535E-006
 -2.330000000000000E-002    1.918684033477055E-006
 -2.320000000000000E-002    2.137192449304156E-006
 -2.310000000000000E-002    2.381538397258555E-006
 -2.300000000000000E-002    2.653009607306635E-006
 -2.290000000000000E-002    2.952558780599163E-006
 -2.280000000000000E-002    3.280827845035528E-006
 -2.270000000000000E-002    3.638214227224040E-006
 -2.260000000000000E-002    4.024971448298922E-006
 -2.250000000000000E-002    4.441340407353146E-006
 -2.240000000000000E-002    4.887692052899397E-006
 -2.230000000000000E-002    5.364669919117908E-006
 -2.220000000000000E-002    5.873316426562600E-006
 -2.210000000000000E-002    6.415161971990452E-006
 -2.200000000000000E-002    6.992269895067524E-006
 -2.190000000000000E-002    7.607231789216681E-006
 -2.180000000000000E-002    8.263101143677747E-006
 -2.170000000000000E-002    8.963285349126223E-006
 -2.160000000000000E-002    9.711396628027763E-006
 -2.150000000000000E-002    1.051108184119323E-005
 -2.140000000000000E-002    1.136585797481761E-005
 -2.130000000000000E-002    1.227896101425313E-005
 -2.120000000000000E-002    1.325324386197111E-005
 -2.110000000000000E-002    1.429112592401743E-005
 -2.100000000000000E-002    1.539460663329218E-005
 -2.090000000000000E-002    1.656535518337593E-005
 -2.080000000000000E-002    1.780485523291301E-005
 -2.070000000000000E-002    1.911459222585858E-005
 -2.060000000000000E-002    2.049627902136042E-005
 -2.050000000000000E-002    2.195206931019407E-005
 -2.040000000000000E-002    2.348476088293408E-005
 -2.030000000000000E-002    2.509794052846661E-005
 -2.020000000000000E-002    2.679607382422675E-005
 -2.010000000000000E-002    2.858451290701426E-005
 -2.000000000000000E-002    3.046942770029937E-005
 -1.990000000000000E-002    3.245767211809458E-005
 -1.980000000000000E-002    3.455659830529760E-005
 -1.970000000000000E-002    3.677382558209540E-005
 -1.960000000000000E-002    3.911703602374437E-005
 -1.950000000000000E-002    4.159376248104298E-005
 -1.940000000000000E-002    4.421125448034027E-005
 -1.930000000000000E-002    4.697640803675134E-005
 -1.920000000000000E-002    4.989576174780152E-005
 -1.910000000000000E-002    5.297559706708779E-005
 -1.900000000000000E-002    5.622209535263479E-005
 -1.890000000000000E-002    5.964156482583906E-005
 -1.880000000000000E-002    6.324067342615600E-005
 -1.870000000000000E-002    6.702671577217301E-005
 -1.860000000000000E-002    7.100782435354282E-005
 -1.850000000000000E-002    7.519313501620221E-005
 -1.840000000000000E-002    7.959290479387022E-005
 -1.830000000000000E-002    8.421851352509332E-005
 -1.820000000000000E-002    8.908241645376406E-005
 -1.810000000000000E-002    9.419800331291313E-005
 -1.800000000000000E-002    9.957946778185649E-005
 -1.790000000000000E-002    1.052415898273892E-004
 -1.780000000000000E-002    1.111995669813401E-004
 -1.770000000000000E-002    1.174689051901651E-004
 -1.760000000000000E-002    1.240653233531624E-004
 -1.750000000000000E-002    1.310047663418761E-004
 -1.740000000000000E-002    1.383035018707204E-004
 -1.730000000000000E-002    1.459782495029526E-004
 -1.720000000000000E-002    1.540464538904144E-004
 -1.710000000000000E-002    1.625264901422185E-004
 -1.700000000000000E-002    1.714379382178803E-004
 -1.690000000000000E-002    1.808018336208567E-004
 -1.680000000000000E-002    1.906408423122674E-004
 -1.670000000000000E-002    2.009793649004560E-004
 -1.660000000000000E-002    2.118435709715495E-004
 -1.650000000000000E-002    2.232613712565262E-004
 -1.640000000000000E-002    2.352622973303127E-004
 -1.630000000000000E-002    2.478773186774887E-004
 -1.620000000000000E-002    2.611386888606706E-004
 -1.610000000000000E-002    2.750798065260030E-004
 -1.600000000000000E-002    2.897350375833973E-004
 -1.590000000000000E-002    3.051396741129691E-004
 -1.580000000000000E-002    3.213299488328827E-004
 -1.570000000000000E-002    3.383431234452089E-004
 -1.560000000000000E-002    3.562175993745231E-004
 -1.550000000000000E-002    3.749932110690888E-004
 -1.540000000000000E-002    3.947113731243948E-004
 -1.530000000000000E-002    4.154153208330200E-004
 -1.520000000000000E-002    4.371503486817933E-004
 -1.510000000000000E-002    4.599638428926180E-004
 -1.500000000000000E-002    4.839053608338839E-004
 -1.490000000000000E-002    5.090266162939634E-004
 -1.480000000000000E-002    5.353813515597027E-004
 -1.470000000000000E-002    5.630250787981238E-004
 -1.460000000000000E-002    5.920151013897241E-004
 -1.450000000000000E-002    6.224100003770698E-004
 -1.440000000000000E-002    6.542698800552664E-004
 -1.430000000000000E-002    6.876558809873227E-004
 -1.420000000000000E-002    7.226305528217304E-004
 -1.410000000000000E-002    7.592578537881398E-004
 -1.400000000000000E-002    7.976033959848790E-004
 -1.390000000000000E-002    8.377347186525436E-004
 -1.380000000000000E-002    8.797218397971621E-004
 -1.370000000000000E-002    9.236376390916657E-004
 -1.360000000000000E-002    9.695580447893268E-004
 -1.350000000000000E-002    1.017562479195898E-003
 -1.340000000000000E-002    1.067734042563972E-003
 -1.330000000000000E-002    1.120159553734422E-003
 -1.320000000000000E-002    1.174929435609982E-003
 -1.310000000000000E-002    1.232137454729187E-003
 -1.300000000000000E-002    1.291880788337980E-003
 -1.290000000000000E-002    1.354259146994641E-003
 -1.280000000000000E-002    1.419374896308275E-003
 -1.270000000000000E-002    1.487332522143847E-003
 -1.260000000000000E-002    1.558238402131663E-003
 -1.250000000000000E-002    1.632200891727493E-003
 -1.240000000000000E-002    1.709330390263542E-003
 -1.230000000000000E-002    1.789739596665813E-003
 -1.220000000000000E-002    1.873543944095151E-003
 -1.210000000000000E-002    1.960862059895877E-003
 -1.200000000000000E-002    2.051816218222403E-003
 -1.190000000000000E-002    2.146532968460612E-003
 -1.180000000000000E-002    2.245143924913377E-003
 -1.170000000000000E-002    2.347785283791733E-003
 -1.160000000000000E-002    2.454598860203537E-003
 -1.150000000000000E-002    2.565731439122461E-003
 -1.140000000000000E-002    2.681335041318757E-003
 -1.130000000000000E-002    2.801566170149621E-003
 -1.120000000000000E-002    2.926585635790217E-003
 -1.110000000000000E-002    3.056558021200171E-003
 -1.100000000000000E-002    3.191651474289244E-003
 -1.090000000000000E-002    3.332036676997846E-003
 -1.080000000000000E-002    3.477887844147239E-003
 -1.070000000000000E-002    3.629381151632223E-003
 -1.060000000000000E-002    3.786695982258038E-003
 -1.050000000000000E-002    3.950015252078474E-003
 -1.040000000000000E-002    4.119525663624961E-003
 -1.030000000000000E-002    4.295418585042482E-003
 -1.020000000000000E-002    4.477890829337962E-003
 -1.010000000000000E-002    4.667144386307972E-003
 -1.000000000000000E-002    4.863388821322268E-003
 -9.899999999999999E-003    5.066838995638169E-003
 -9.800000000000000E-003    5.277717017277282E-003
 -9.699999999999999E-003    5.496251846035407E-003
 -9.599999999999999E-003    5.722678575297190E-003
 -9.500000000000000E-003    5.957238311254501E-003
 -9.399999999999999E-003    6.200176897113676E-003
 -9.299999999999999E-003    6.451745353714370E-003
 -9.200000000000000E-003    6.712198546933381E-003
 -9.099999999999999E-003    6.981794631224469E-003
 -8.999999999999999E-003    7.260795829871060E-003
 -8.900000000000000E-003    7.549466518090261E-003
 -8.799999999999999E-003    7.848076178806260E-003
 -8.699999999999999E-003    8.156897117891346E-003
 -8.600000000000000E-003    8.476206548925797E-003
 -8.499999999999999E-003    8.806287096110130E-003
 -8.399999999999999E-003    9.147426282680182E-003
 -8.300000000000000E-003    9.499919824784297E-003
 -8.199999999999999E-003    9.864068225772127E-003
 -8.100000000000000E-003    1.024017974370050E-002
 -8.000000000000000E-003    1.062856920613895E-002
 -7.899999999999999E-003    1.102955919411656E-002
 -7.800000000000000E-003    1.144347567859462E-002
 -7.699999999999999E-003    1.187065180429208E-002
 -7.599999999999999E-003    1.231142442239865E-002
 -7.499999999999999E-003    1.276613319909598E-002
 -7.399999999999999E-003    1.323512049890200E-002
 -7.299999999999999E-003    1.371873107888619E-002
 -7.199999999999999E-003    1.421731231593919E-002
 -7.100000000000000E-003    1.473121276263715E-002
 -6.999999999999999E-003    1.526078163035860E-002
 -6.899999999999999E-003    1.580637033283371E-002
 -6.800000000000000E-003    1.636833331660607E-002
 -6.699999999999999E-003    1.694702777491297E-002
 -6.599999999999999E-003    1.754281369555869E-002
 -6.499999999999999E-003    1.815605501099546E-002
 -6.399999999999999E-003    1.878711913807314E-002
 -6.299999999999999E-003    1.943637829711336E-002
 -6.199999999999999E-003    2.010420770106661E-002
 -6.100000000000000E-003    2.079098436241349E-002
 -5.999999999999999E-003    2.149708917340293E-002
 -5.899999999999999E-003    2.222290252984647E-002
 -5.800000000000000E-003    2.296880754109405E-002
 -5.699999999999999E-003    2.373518317259404E-002
 -5.599999999999999E-003    2.452240864210289E-002
 -5.499999999999999E-003    2.533086041013902E-002
 -5.399999999999999E-003    2.616090985172246E-002
 -5.299999999999999E-003    2.701293005914034E-002
 -5.199999999999999E-003    2.788728783292100E-002
 -5.099999999999999E-003    2.878434844500529E-002
 -4.999999999999999E-003    2.970447166570894E-002
 -4.899999999999999E-003    3.064801753564238E-002
 -4.799999999999999E-003    3.161534376675373E-002
 -4.699999999999999E-003    3.260680331971207E-002
 -4.599999999999999E-003    3.362275267762173E-002
 -4.499999999999999E-003    3.466353945589946E-002
 -4.399999999999999E-003    3.572951228378659E-002
 -4.299999999999999E-003    3.682101666864383E-002
 -4.199999999999999E-003    3.793839074669241E-002
 -4.099999999999999E-003    3.908196816144761E-002
 -3.999999999999999E-003    4.025207389701918E-002
 -3.899999999999999E-003    4.144902645801965E-002
 -3.799999999999999E-003    4.267313475008295E-002
 -3.699999999999999E-003    4.392469238458956E-002
 -3.599999999999999E-003    4.520398691562641E-002
 -3.499999999999999E-003    4.651129460234379E-002
 -3.399999999999999E-003    4.784687431315796E-002
 -3.299999999999999E-003    4.921097928252187E-002
 -3.199999999999999E-003    5.060384875705137E-002
 -3.099999999999999E-003    5.202570619087572E-002
 -2.999999999999999E-003    5.347676773352662E-002
 -2.899999999999999E-003    5.495723588764193E-002
 -2.799999999999999E-003    5.646730117503374E-002
 -2.699999999999999E-003    5.800713987449152E-002
 -2.599999999999999E-003    5.957691472207632E-002
 -2.499999999999999E-003    6.117677582193367E-002
 -2.399999999999999E-003    6.280685322587710E-002
 -2.299999999999999E-003    6.446726031356724E-002
 -2.199999999999999E-003    6.615809190699409E-002
 -2.099999999999999E-003    6.787942096942039E-002
 -1.999999999999999E-003    6.963130858436711E-002
 -1.899999999999999E-003    7.141378277927055E-002
 -1.799999999999999E-003    7.322685390555178E-002
 -1.699999999999999E-003    7.507050749358968E-002
 -1.599999999999999E-003    7.694471168667337E-002
 -1.499999999999999E-003    7.884940010716351E-002
 -1.399999999999999E-003    8.078449295612740E-002
 -1.299999999999999E-003    8.274987670043192E-002
 -1.199999999999999E-003    8.474541193404610E-002
 -1.099999999999999E-003    8.677094122401778E-002
 -9.999999999999989E-004    8.882628005650051E-002
 -8.999999999999990E-004    9.091121086248734E-002
 -7.999999999999990E-004    9.302549589706660E-002
 -6.999999999999989E-004    9.516885869688639E-002
 -5.999999999999990E-004    9.734100293620557E-002
 -4.999999999999989E-004    9.954159279111117E-002
 -3.999999999999989E-004    0.101770262273180     
 -2.999999999999989E-004    0.104026621005677     
 -1.999999999999989E-004    0.106310227728102     
 -9.999999999999892E-005    0.108620612822876     
  1.084202172485504E-018    0.110957277419301     
  1.000000000000011E-004    0.113319672911886     
  2.000000000000011E-004    0.115707216662240     
  3.000000000000011E-004    0.118119282244438     
  4.000000000000011E-004    0.120555215601148     
  5.000000000000011E-004    0.123014310887792     
  6.000000000000011E-004    0.125495827229765     
  7.000000000000011E-004    0.127998983477442     
  8.000000000000011E-004    0.130522956513819     
  9.000000000000012E-004    0.133066876597115     
  1.000000000000001E-003    0.135629824426354     
  1.100000000000001E-003    0.138210853764932     
  1.200000000000001E-003    0.140808955304066     
  1.300000000000001E-003    0.143423082177122     
  1.400000000000001E-003    0.146052147812568     
  1.500000000000001E-003    0.148694997073029     
  1.600000000000001E-003    0.151350426635250     
  1.700000000000001E-003    0.154017196592951     
  1.800000000000001E-003    0.156694010401420     
  1.900000000000001E-003    0.159379520782126     
  2.000000000000001E-003    0.162072327167772     
  2.100000000000001E-003    0.164770966763021     
  2.200000000000001E-003    0.167473923511420     
  2.300000000000001E-003    0.170179645251673     
  2.400000000000001E-003    0.172886498442750     
  2.500000000000001E-003    0.175592814515445     
  2.600000000000001E-003    0.178296856311578     
  2.700000000000001E-003    0.180996839293889     
  2.800000000000001E-003    0.183690901144593     
  2.900000000000001E-003    0.186377151304303     
  3.000000000000001E-003    0.189053624553861     
  3.100000000000001E-003    0.191718286322895     
  3.200000000000001E-003    0.194369047482908     
  3.300000000000001E-003    0.197003769616077     
  3.400000000000001E-003    0.199620233477895     
  3.500000000000001E-003    0.202216188594214     
  3.600000000000001E-003    0.204789282707557     
  3.700000000000001E-003    0.207337129589554     
  3.800000000000001E-003    0.209857256254517     
  3.900000000000001E-003    0.212347143662529     
  4.000000000000001E-003    0.214804203907904     
  4.100000000000001E-003    0.217225774389733     
  4.200000000000001E-003    0.219609136230989     
  4.300000000000001E-003    0.221951509326036     
  4.400000000000001E-003    0.224250024693498     
  4.500000000000001E-003    0.226501764554819     
  4.600000000000002E-003    0.228703739327972     
  4.700000000000001E-003    0.230852897266157     
  4.800000000000001E-003    0.232946105898734     
  4.900000000000002E-003    0.234980174762513     
  5.000000000000001E-003    0.236951857367287     
  5.100000000000001E-003    0.238857822880439     
  5.200000000000001E-003    0.240694682115238     
  5.300000000000002E-003    0.242458978006781     
  5.400000000000001E-003    0.244147175634811     
  5.500000000000001E-003    0.245755677168877     
  5.600000000000002E-003    0.247280822564050     
  5.700000000000001E-003    0.248718890157651     
  5.800000000000001E-003    0.250066080512383     
  5.900000000000002E-003    0.251318515552601     
  6.000000000000001E-003    0.252472262163767     
  6.100000000000001E-003    0.253523316896412     
  6.200000000000002E-003    0.254467628544123     
  6.300000000000002E-003    0.255301056663628     
  6.400000000000001E-003    0.256019399208778     
  6.500000000000001E-003    0.256618398387540     
  6.600000000000002E-003    0.257093735257014     
  6.700000000000001E-003    0.257441021596507     
  6.800000000000001E-003    0.257655819754192     
  6.900000000000002E-003    0.257733628022926     
  7.000000000000001E-003    0.257669889506368     
  7.100000000000001E-003    0.257459973192487     
  7.200000000000002E-003    0.257099212671055     
  7.300000000000002E-003    0.256582887918656     
  7.400000000000001E-003    0.255906202103176     
  7.500000000000001E-003    0.255064322816892     
  7.600000000000002E-003    0.254052376599472     
  7.700000000000001E-003    0.252865419958905     
  7.800000000000001E-003    0.251498468860378     
  7.900000000000001E-003    0.249946491791999     
  8.000000000000002E-003    0.248204418474162     
  8.100000000000001E-003    0.246267144423714     
  8.200000000000001E-003    0.244129518899745     
  8.300000000000002E-003    0.241786353575250     
  8.400000000000001E-003    0.239232435693527     
  8.500000000000002E-003    0.236462515506021     
  8.600000000000002E-003    0.233471335056546     
  8.700000000000001E-003    0.230253594210104     
  8.800000000000002E-003    0.226803987319507     
  8.900000000000002E-003    0.223117209192846     
  9.000000000000001E-003    0.219187909807752     
  9.100000000000002E-003    0.215010752428045     
  9.200000000000002E-003    0.210580397993668     
  9.300000000000001E-003    0.205891492301570     
  9.400000000000002E-003    0.200938693356225     
  9.500000000000001E-003    0.195716652351976     
  9.600000000000001E-003    0.190220050579150     
  9.700000000000002E-003    0.184443576600266     
  9.800000000000001E-003    0.178381937494092     
  9.900000000000001E-003    0.172029870042968     
  1.000000000000000E-002    0.165382142567147     
  1.010000000000000E-002    0.158433568661524     
  1.020000000000000E-002    0.151179020659051     
  1.030000000000000E-002    0.143613390394889     
  1.040000000000000E-002    0.135731651948220     
  1.050000000000000E-002    0.127528858635652     
  1.060000000000000E-002    0.119000118138283     
  1.070000000000000E-002    0.110140624229174     
  1.080000000000000E-002    0.100945655648929     
  1.090000000000000E-002    9.141058312724672E-002
  1.100000000000000E-002    8.153087455109745E-002
  1.110000000000000E-002    7.130211628715198E-002
  1.120000000000000E-002    6.072000718661402E-002
  1.130000000000000E-002    4.978034000339097E-002
  1.140000000000000E-002    3.847906544824395E-002
  1.150000000000000E-002    2.681226130461810E-002
  1.160000000000000E-002    1.477615338415802E-002
  1.170000000000000E-002    2.367105309117046E-003
  1.180000000000000E-002   -1.041831694114121E-002
  1.190000000000000E-002   -2.358340557844443E-002
  1.200000000000000E-002   -3.713125225060052E-002
  1.210000000000000E-002   -5.106475034457994E-002
  1.220000000000000E-002   -6.538661387408476E-002
  1.230000000000000E-002   -8.009931657958189E-002
  1.240000000000000E-002   -9.520510690408412E-002
  1.250000000000000E-002   -0.110706011696568     
  1.260000000000000E-002   -0.126603817463330     
  1.270000000000000E-002   -0.142900037910868     
  1.280000000000000E-002   -0.159595938617878     
  1.290000000000000E-002   -0.176692519832074     
  1.300000000000000E-002   -0.194190478295279     
  1.310000000000000E-002   -0.212090260141827     
  1.320000000000000E-002   -0.230391991030235     
  1.330000000000000E-002   -0.249095467118054     
  1.340000000000000E-002   -0.268200223021542     
  1.350000000000000E-002   -0.287705385850717     
  1.360000000000000E-002   -0.307609786588209     
  1.370000000000000E-002   -0.327911898974348     
  1.380000000000000E-002   -0.348609820297218     
  1.390000000000000E-002   -0.369701278324807     
  1.400000000000000E-002   -0.391183618900295     
  1.410000000000000E-002   -0.413053765071608     
  1.420000000000000E-002   -0.435308268586174     
  1.430000000000000E-002   -0.457943229617292     
  1.440000000000000E-002   -0.480954306315863     
  1.450000000000000E-002   -0.504336824699654     
  1.460000000000000E-002   -0.528085575719759     
  1.470000000000000E-002   -0.552194884774775     
  1.480000000000000E-002   -0.576658690476576     
  1.490000000000000E-002   -0.601470460911641     
  1.500000000000000E-002   -0.626623119329601     
  1.510000000000000E-002   -0.652109181268672     
  1.520000000000000E-002   -0.677920659762152     
  1.530000000000000E-002   -0.704049068933349     
  1.540000000000000E-002   -0.730485379560180     
  1.550000000000000E-002   -0.757220097651626     
  1.560000000000000E-002   -0.784243233805938     
  1.570000000000000E-002   -0.811544190431374     
  1.580000000000000E-002   -0.839111938555026     
  1.590000000000000E-002   -0.866934840924045     
  1.600000000000000E-002   -0.895000747544137     
  1.610000000000000E-002   -0.923296943545944     
  1.620000000000000E-002   -0.951810225962360     
  1.630000000000000E-002   -0.980526814429842     
  1.640000000000000E-002    -1.00943238987309     
  1.650000000000000E-002    -1.03851207406328     
  1.660000000000000E-002    -1.06775048000138     
  1.670000000000000E-002    -1.09713163207213     
  1.680000000000000E-002    -1.12663902256111     
  1.690000000000000E-002    -1.15625563841189     
  1.700000000000000E-002    -1.18596388952315     
  1.710000000000000E-002    -1.21574568975733     
  1.720000000000000E-002    -1.24558242969643     
  1.730000000000000E-002    -1.27545490274369     
  1.740000000000000E-002    -1.30534344471238     
  1.750000000000000E-002    -1.33522778107411     
  1.760000000000000E-002    -1.36508727789376     
  1.770000000000000E-002    -1.39490076098295     
  1.780000000000000E-002    -1.42464642980307     
  1.790000000000000E-002    -1.45430213956844     
  1.800000000000000E-002    -1.48384527903836     
  1.810000000000000E-002    -1.51325259666893     
  1.820000000000000E-002    -1.54250058823865     
  1.830000000000000E-002    -1.57156526242724     
  1.840000000000000E-002    -1.60042223377008     
  1.850000000000000E-002    -1.62904663036322     
  1.860000000000000E-002    -1.65741322607248     
  1.870000000000000E-002    -1.68549644473640     