 -4.000000000000000E-002    0.000000000000000E+000
 -3.990000000000000E-002    0.000000000000000E+000
 -3.980000000000000E-002    0.000000000000000E+000
 -3.970000000000000E-002    0.000000000000000E+000
 -3.960000000000000E-002    0.000000000000000E+000
 -3.950000000000000E-002    0.000000000000000E+000
 -3.940000000000000E-002   -1.450332159503927E-022
 -3.930000000000000E-002   -1.804332288336030E-021
 -3.920000000000000E-002   -1.198102856140189E-020
 -3.910000000000000E-002   -5.628326032177848E-020
 -3.900000000000000E-002   -2.093102984774049E-019
 -3.890000000000000E-002   -6.540075976767489E-019
 -3.880000000000000E-002   -1.779956511402419E-018
 -3.870000000000000E-002   -4.319822529860296E-018
 -3.860000000000000E-002   -9.497969787216837E-018
 -3.850000000000000E-002   -1.912198325943022E-017
 -3.840000000000000E-002   -3.548783076926577E-017
 -3.830000000000000E-002   -6.090256048593691E-017
 -3.820000000000000E-002   -9.657607209391934E-017
 -3.810000000000000E-002   -1.406290513661294E-016
 -3.800000000000000E-002   -1.850500715291954E-016
 -3.790000000000000E-002   -2.116533422767852E-016
 -3.780000000000000E-002   -1.874692064935683E-016
 -3.770000000000000E-002   -6.053828241215655E-017
 -3.760000000000000E-002    2.422742628867881E-016
 -3.750000000000000E-002    8.131955239850620E-016
 -3.740000000000000E-002    1.754508780637775E-015
 -3.730000000000000E-002    3.159882403254561E-015
 -3.720000000000000E-002    5.084079591874107E-015
 -3.710000000000000E-002    7.500673579976834E-015
 -3.700000000000000E-002    1.025002274946119E-014
 -3.690000000000000E-002    1.298330612379409E-014
 -3.680000000000000E-002    1.511255608443172E-014
 -3.670000000000000E-002    1.578065297804927E-014
 -3.660000000000000E-002    1.386828939237545E-014
 -3.650000000000000E-002    8.055798574831823E-015
 -3.640000000000000E-002   -3.044638905377328E-015
 -3.630000000000000E-002   -2.067747151393713E-014
 -3.620000000000000E-002   -4.565523515565180E-014
 -3.610000000000000E-002   -7.801076719580772E-014
 -3.600000000000000E-002   -1.166264382849678E-013
 -3.590000000000000E-002   -1.588956435247718E-013
 -3.580000000000000E-002   -2.004880601578410E-013
 -3.570000000000000E-002   -2.352993766682339E-013
 -3.560000000000000E-002   -2.556646807302244E-013
 -3.550000000000000E-002   -2.528984002439449E-013
 -3.540000000000000E-002   -2.181911499025789E-013
 -3.530000000000000E-002   -1.438450623873745E-013
 -3.520000000000000E-002   -2.476731244877004E-014
 -3.510000000000000E-002    1.399257170478193E-013
 -3.500000000000000E-002    3.454067031735919E-013
 -3.490000000000000E-002    5.799996376582369E-013
 -3.480000000000000E-002    8.246900044936080E-013
 -3.470000000000000E-002    1.053549301192345E-012
 -3.460000000000000E-002    1.235275405006843E-012
 -3.450000000000000E-002    1.335936717665841E-012
 -3.440000000000000E-002    1.322848482486249E-012
 -3.430000000000000E-002    1.169321242200512E-012
 -3.420000000000000E-002    8.598208500488952E-013
 -3.410000000000000E-002    3.949023775434536E-013
 -3.400000000000000E-002   -2.048498147879241E-013
 -3.390000000000000E-002   -8.966843124391758E-013
 -3.380000000000000E-002   -1.616091537245889E-012
 -3.370000000000000E-002   -2.280310851143922E-012
 -3.360000000000000E-002   -2.795169965981520E-012
 -3.350000000000000E-002   -3.065072298112280E-012
 -3.340000000000000E-002   -3.005456297575667E-012
 -3.330000000000000E-002   -2.556558896870200E-012
 -3.320000000000000E-002   -1.696879429083359E-012
 -3.310000000000000E-002   -4.544461787835932E-013
 -3.300000000000000E-002    1.086102791273945E-012
 -3.290000000000000E-002    2.782439443813207E-012
 -3.280000000000000E-002    4.440825188247603E-012
 -3.270000000000000E-002    5.830375576721306E-012
 -3.260000000000000E-002    6.704983261800266E-012
 -3.250000000000000E-002    6.831483585109291E-012
 -3.240000000000000E-002    6.021567061781185E-012
 -3.230000000000000E-002    4.163991398495563E-012
 -3.220000000000000E-002    1.253020393882929E-012
 -3.210000000000000E-002   -2.591201902764211E-012
 -3.200000000000000E-002   -7.114294260124254E-012
 -3.190000000000000E-002   -1.193434361891142E-011
 -3.180000000000000E-002   -1.656528512803624E-011
 -3.170000000000000E-002   -2.045667307357260E-011
 -3.160000000000000E-002   -2.304745302275786E-011
 -3.150000000000000E-002   -2.382920497306202E-011
 -3.140000000000000E-002   -2.241249694577544E-011
 -3.130000000000000E-002   -1.858868950190038E-011
 -3.120000000000000E-002   -1.237904314895417E-011
 -3.110000000000000E-002   -4.063446890104742E-012
 -3.100000000000000E-002    5.817383786749413E-012
 -3.090000000000000E-002    1.648996257701905E-011
 -3.080000000000000E-002    2.700677630443930E-011
 -3.070000000000000E-002    3.633256158672411E-011
 -3.060000000000000E-002    4.345110844370330E-011
 -3.050000000000000E-002    4.748247752617800E-011
 -3.040000000000000E-002    4.779791815152041E-011
 -3.030000000000000E-002    4.411885754354488E-011
 -3.020000000000000E-002    3.658653547323844E-011
 -3.010000000000000E-002    2.579107802865924E-011
 -3.000000000000000E-002    1.275229907664459E-011
 -2.990000000000000E-002   -1.150639143552243E-012
 -2.980000000000000E-002   -1.429795535201088E-011
 -2.970000000000000E-002   -2.498786684872776E-011
 -2.960000000000000E-002   -3.162137467433463E-011
 -2.950000000000000E-002   -3.289534975995196E-011
 -2.940000000000000E-002   -2.798372335894220E-011
 -2.930000000000000E-002   -1.668630480560861E-011
 -2.920000000000000E-002    4.733463969108420E-013
 -2.910000000000000E-002    2.221541468366448E-011
 -2.900000000000000E-002    4.654526668928306E-011
 -2.890000000000000E-002    7.087042240881712E-011
 -2.880000000000000E-002    9.218710608980702E-011
 -2.870000000000000E-002    1.073233840600802E-010
 -2.860000000000000E-002    1.132197578103263E-010
 -2.850000000000000E-002    1.072240565298737E-010
 -2.840000000000000E-002    8.737520240382717E-011
 -2.830000000000000E-002    5.265087720823046E-011
 -2.820000000000000E-002    3.156737285434912E-012
 -2.810000000000000E-002   -5.976086915291771E-011
 -2.800000000000000E-002   -1.334906521955561E-010
 -2.790000000000000E-002   -2.142260315175954E-010
 -2.780000000000000E-002   -2.971274719858276E-010
 -2.770000000000000E-002   -3.765698882808190E-010
 -2.760000000000000E-002   -4.464624326472095E-010
 -2.750000000000000E-002   -5.006234225031301E-010
 -2.740000000000000E-002   -5.331904166268867E-010
 -2.730000000000000E-002   -5.390430009121175E-010
 -2.720000000000000E-002   -5.142144857234843E-010
 -2.710000000000000E-002   -4.562679547508842E-010
 -2.700000000000000E-002   -3.646114908568715E-010
 -2.690000000000000E-002   -2.407274517270686E-010
 -2.680000000000000E-002   -8.829116426469465E-011
 -2.670000000000000E-002    8.684326836321282E-011
 -2.660000000000000E-002    2.768086612716582E-010
 -2.650000000000000E-002    4.720534785479754E-010
 -2.640000000000000E-002    6.618367819474151E-010
 -2.630000000000000E-002    8.348774383713981E-010
 -2.620000000000000E-002    9.801329900273955E-010
 -2.610000000000000E-002    1.087662531018915E-009
 -2.600000000000000E-002    1.149512879279944E-009
 -2.590000000000000E-002    1.160550685644425E-009
 -2.580000000000000E-002    1.119152004829934E-009
 -2.570000000000000E-002    1.027657660100718E-009
 -2.560000000000000E-002    8.925096375614925E-010
 -2.550000000000000E-002    7.240014299077979E-010
 -2.540000000000000E-002    5.356041519633216E-010
 -2.530000000000000E-002    3.428724626027651E-010
 -2.520000000000000E-002    1.619799821250375E-010
 -2.510000000000000E-002    7.988249707682231E-012
 -2.500000000000000E-002   -1.070004590015077E-010
 -2.490000000000000E-002   -1.756147793421373E-010
 -2.480000000000000E-002   -1.966952685651401E-010
 -2.470000000000000E-002   -1.762677820918647E-010
 -2.460000000000000E-002   -1.278149749847583E-010
 -2.450000000000000E-002   -7.170368599296141E-011
 -2.440000000000000E-002   -3.370169276066192E-011
 -2.430000000000000E-002   -4.261320042441935E-011
 -2.420000000000000E-002   -1.271717170670950E-010
 -2.410000000000000E-002   -3.124363430836930E-010
 -2.400000000000000E-002   -6.160315097391100E-010
 -2.390000000000000E-002   -1.044640539264066E-009
 -2.380000000000000E-002   -1.591191940916672E-009
 -2.370000000000000E-002   -2.233158777570132E-009
 -2.360000000000000E-002   -2.932324398284604E-009
 -2.350000000000000E-002   -3.636242804239205E-009
 -2.340000000000000E-002   -4.281464211418366E-009
 -2.330000000000000E-002   -4.798400480751379E-009
 -2.320000000000000E-002   -5.117504691009168E-009
 -2.310000000000000E-002   -5.176252577025486E-009
 -2.300000000000000E-002   -4.926258825847327E-009
 -2.290000000000000E-002   -4.339770750244698E-009
 -2.280000000000000E-002   -3.414767612139995E-009
 -2.270000000000000E-002   -2.177959338183098E-009
 -2.260000000000000E-002   -6.851434509317039E-010
 -2.250000000000000E-002    9.813881678248901E-010
 -2.240000000000000E-002    2.718400443765041E-009
 -2.230000000000000E-002    4.409907800171793E-009
 -2.220000000000000E-002    5.937365099491376E-009
 -2.210000000000000E-002    7.190934346615528E-009
 -2.200000000000000E-002    8.080700126227459E-009
 -2.190000000000000E-002    8.546615099531730E-009
 -2.180000000000000E-002    8.565986359662540E-009
 -2.170000000000000E-002    8.157499998508361E-009
 -2.160000000000000E-002    7.381069752640895E-009
 -2.150000000000000E-002    6.333208053589272E-009
 -2.140000000000000E-002    5.138099788497447E-009
 -2.130000000000000E-002    3.935045988604904E-009
 -2.120000000000000E-002    2.863403033981583E-009
 -2.110000000000000E-002    2.046511435245829E-009
 -2.100000000000000E-002    1.576334549399814E-009
 -2.090000000000000E-002    1.500570048243230E-009
 -2.080000000000000E-002    1.813859355595683E-009
 -2.070000000000000E-002    2.454374690837681E-009
 -2.060000000000000E-002    3.306557676438902E-009
 -2.050000000000000E-002    4.210157063096726E-009
 -2.040000000000000E-002    4.975020111933758E-009
 -2.030000000000000E-002    5.400424391060463E-009
 -2.020000000000000E-002    5.297144804606783E-009
 -2.010000000000000E-002    4.510043817717126E-009
 -2.000000000000000E-002    2.938758695594999E-009
 -1.990000000000000E-002    5.541223666150704E-010
 -1.980000000000000E-002   -2.591727487229179E-009
 -1.970000000000000E-002   -6.363037888760400E-009
 -1.960000000000000E-002   -1.054665767920856E-008
 -1.950000000000000E-002   -1.486663232486328E-008
 -1.940000000000000E-002   -1.900612704356853E-008
 -1.930000000000000E-002   -2.263478161975512E-008
 -1.920000000000000E-002   -2.543894586300275E-008
 -1.910000000000000E-002   -2.715179399486768E-008
 -1.900000000000000E-002   -2.758022190045781E-008
 -1.890000000000000E-002   -2.662562418129081E-008
 -1.880000000000000E-002   -2.429618712955115E-008
 -1.870000000000000E-002   -2.070913664409577E-008
 -1.860000000000000E-002   -1.608238323485127E-008
 -1.850000000000000E-002   -1.071610864547654E-008
 -1.840000000000000E-002   -4.965915814170446E-009
 -1.830000000000000E-002    7.899040437945108E-010
 -1.820000000000000E-002    6.185749413664909E-009
 -1.810000000000000E-002    1.090310643170218E-008
 -1.800000000000000E-002    1.470041346608908E-008
 -1.790000000000000E-002    1.743517457658266E-008
 -1.780000000000000E-002    1.907592000710444E-008
 -1.770000000000000E-002    1.970259877104475E-008
 -1.760000000000000E-002    1.949523793756551E-008
 -1.750000000000000E-002    1.871189998268232E-008
 -1.740000000000000E-002    1.765817916316178E-008
 -1.730000000000000E-002    1.665139962537504E-008
 -1.720000000000000E-002    1.598331266709097E-008
 -1.710000000000000E-002    1.588530044782587E-008
 -1.700000000000000E-002    1.649995964087492E-008
 -1.690000000000000E-002    1.786227766204915E-008
 -1.680000000000000E-002    1.989271679803797E-008
 -1.670000000000000E-002    2.240330753258489E-008
 -1.660000000000000E-002    2.511654676133235E-008
 -1.650000000000000E-002    2.769557218076078E-008
 -1.640000000000000E-002    2.978293942360491E-008
 -1.630000000000000E-002    3.104443483613551E-008
 -1.620000000000000E-002    3.121381966560555E-008
 -1.610000000000000E-002    3.013429121713252E-008
 -1.600000000000000E-002    2.779274499096058E-008
 -1.590000000000000E-002    2.434361322722128E-008
 -1.580000000000000E-002    2.012005908793217E-008
 -1.570000000000000E-002    1.563149292849614E-008
 -1.560000000000000E-002    1.154769248253051E-008
 -1.550000000000000E-002    8.671006586502777E-009
 -1.540000000000000E-002    7.899215581892480E-009
 -1.530000000000000E-002    1.018242695109432E-008
 -1.520000000000000E-002    1.647778947839608E-008
 -1.510000000000000E-002    2.770601082715420E-008
 -1.500000000000000E-002    4.471321551459276E-008
 -1.490000000000000E-002    6.824124107243452E-008
 -1.480000000000000E-002    9.890868450986347E-008
 -1.470000000000000E-002    1.372037012030607E-007
 -1.460000000000000E-002    1.834888476796772E-007
 -1.450000000000000E-002    2.380170654706605E-007
 -1.440000000000000E-002    3.009571028976491E-007
 -1.430000000000000E-002    3.724257657143554E-007
 -1.420000000000000E-002    4.525243816037375E-007
 -1.410000000000000E-002    5.413760016573559E-007
 -1.400000000000000E-002    6.391610347096264E-007
 -1.390000000000000E-002    7.461475767474255E-007
 -1.380000000000000E-002    8.627151720136871E-007
 -1.370000000000000E-002    9.893698632771293E-007
 -1.360000000000000E-002    1.126750341325476E-006
 -1.350000000000000E-002    1.275623436823439E-006
 -1.340000000000000E-002    1.436871881867741E-006
 -1.330000000000000E-002    1.611473557137209E-006
 -1.320000000000000E-002    1.800474947682206E-006
 -1.310000000000000E-002    2.004961270874568E-006
 -1.300000000000000E-002    2.226025279832132E-006
 -1.290000000000000E-002    2.464737788091709E-006
 -1.280000000000000E-002    2.722122508222475E-006
 -1.270000000000000E-002    2.999138811944526E-006
 -1.260000000000000E-002    3.296671205792189E-006
 -1.250000000000000E-002    3.615532352444679E-006
 -1.240000000000000E-002    3.956475541394995E-006
 -1.230000000000000E-002    4.320219212102246E-006
 -1.220000000000000E-002    4.707481901397472E-006
 -1.210000000000000E-002    5.119025198346609E-006
 -1.200000000000000E-002    5.555703195289778E-006
 -1.190000000000000E-002    6.018511355412684E-006
 -1.180000000000000E-002    6.508636230991919E-006
 -1.170000000000000E-002    7.027496397928764E-006
 -1.160000000000000E-002    7.576775172935271E-006
 -1.150000000000000E-002    8.158435980852583E-006
 -1.140000000000000E-002    8.774723169753631E-006
 -1.130000000000000E-002    9.428147248269291E-006
 -1.120000000000000E-002    1.012144999536171E-005
 -1.110000000000000E-002    1.085755804304604E-005
 -1.100000000000000E-002    1.163952386635856E-005
 -1.090000000000000E-002    1.247046670988677E-005
 -1.080000000000000E-002    1.335350560200549E-005
 -1.070000000000000E-002    1.429171289025586E-005
 -1.060000000000000E-002    1.528807399029200E-005
 -1.050000000000000E-002    1.634546702652536E-005
 -1.040000000000000E-002    1.746667176992146E-005
 -1.030000000000000E-002    1.865439836259179E-005
 -1.020000000000000E-002    1.991134424792026E-005
 -1.010000000000000E-002    2.124026666380137E-005
 -1.000000000000000E-002    2.264407778539193E-005
 -9.899999999999999E-003    2.412593803367599E-005
 -9.800000000000000E-003    2.568935835773402E-005
 -9.699999999999999E-003    2.733827896761269E-005
 -9.599999999999999E-003    2.907714243157819E-005
 -9.500000000000000E-003    3.091092410516716E-005
 -9.399999999999999E-003    3.284515595173301E-005
 -9.299999999999999E-003    3.488589245984320E-005
 -9.200000000000000E-003    3.703967789879344E-005
 -9.099999999999999E-003    3.931345536762591E-005
 -8.999999999999999E-003    4.171449369897627E-005
 -8.900000000000000E-003    4.425029278512087E-005
 -8.799999999999999E-003    4.692849143102961E-005
 -8.699999999999999E-003    4.975681803581221E-005
 -8.600000000000000E-003    5.274302668564420E-005
 -8.499999999999999E-003    5.589491970196729E-005
 -8.399999999999999E-003    5.922035652537685E-005
 -8.300000000000000E-003    6.272734097803190E-005
 -8.199999999999999E-003    6.642410578388178E-005
 -8.100000000000000E-003    7.031926289950496E-005
 -8.000000000000000E-003    7.442192407701155E-005
 -7.899999999999999E-003    7.874184000229701E-005
 -7.800000000000000E-003    8.328952405632947E-005
 -7.699999999999999E-003    8.807636566561769E-005
 -7.599999999999999E-003    9.311466883070506E-005
 -7.499999999999999E-003    9.841769529053000E-005
 -7.399999999999999E-003    1.039996369819080E-004
 -7.299999999999999E-003    1.098755642366658E-004
 -7.199999999999999E-003    1.160613195087077E-004
 -7.100000000000000E-003    1.225734071288363E-004
 -6.999999999999999E-003    1.294289083865383E-004
 -6.899999999999999E-003    1.366453299349367E-004
 -6.800000000000000E-003    1.442405478858527E-004
 -6.699999999999999E-003    1.522327494656909E-004
 -6.599999999999999E-003    1.606404257926313E-004
 -6.499999999999999E-003    1.694824253802490E-004
 -6.399999999999999E-003    1.787780297307413E-004
 -6.299999999999999E-003    1.885470723910519E-004
 -6.199999999999999E-003    1.988101247949457E-004
 -6.100000000000000E-003    2.095886422230698E-004
 -5.999999999999999E-003    2.209051354502693E-004
 -5.899999999999999E-003    2.327833222738927E-004
 -5.800000000000000E-003    2.452483019843602E-004
 -5.699999999999999E-003    2.583265973509286E-004
 -5.599999999999999E-003    2.720461909305220E-004
 -5.499999999999999E-003    2.864365697336139E-004
 -5.399999999999999E-003    3.015286549834521E-004
 -5.299999999999999E-003    3.173546841612645E-004
 -5.199999999999999E-003    3.339482143093384E-004
 -5.099999999999999E-003    3.513438720992441E-004
 -4.999999999999999E-003    3.695773807058086E-004
 -4.899999999999999E-003    3.886854245234591E-004
 -4.799999999999999E-003    4.087056096141114E-004
 -4.699999999999999E-003    4.296764702255204E-004
 -4.599999999999999E-003    4.516375471863587E-004
 -4.499999999999999E-003    4.746293721371368E-004
 -4.399999999999999E-003    4.986937555216754E-004
 -4.299999999999999E-003    5.238737943028843E-004
 -4.199999999999999E-003    5.502141663995890E-004
 -4.099999999999999E-003    5.777612215409051E-004
 -3.999999999999999E-003    6.065631959139891E-004
 -3.899999999999999E-003    6.366703418318298E-004
 -3.799999999999999E-003    6.681351120861030E-004
 -3.699999999999999E-003    7.010121300515242E-004
 -3.599999999999999E-003    7.353583553664074E-004
 -3.499999999999999E-003    7.712329406486800E-004
 -3.399999999999999E-003    8.086972985235799E-004
 -3.299999999999999E-003    8.478151752022461E-004
 -3.199999999999999E-003    8.886524012121852E-004
 -3.099999999999999E-003    9.312769218363053E-004
 -2.999999999999999E-003    9.757588206513389E-004
 -2.899999999999999E-003    1.022170196792715E-003
 -2.799999999999999E-003    1.070585242895816E-003
 -2.699999999999999E-003    1.121080129133432E-003
 -2.599999999999999E-003    1.173733166681451E-003
 -2.499999999999999E-003    1.228624881331785E-003
 -2.399999999999999E-003    1.285837859931920E-003
 -2.299999999999999E-003    1.345457257724381E-003
 -2.199999999999999E-003    1.407570396091587E-003
 -2.099999999999999E-003    1.472267096545859E-003
 -1.999999999999999E-003    1.539639774872369E-003
 -1.899999999999999E-003    1.609783575552083E-003
 -1.799999999999999E-003    1.682796469555960E-003
 -1.699999999999999E-003    1.758778957936892E-003
 -1.599999999999999E-003    1.837834347945494E-003
 -1.499999999999999E-003    1.920068947594939E-003
 -1.399999999999999E-003    2.005591796358774E-003
 -1.299999999999999E-003    2.094515191758230E-003
 -1.199999999999999E-003    2.186954102724150E-003
 -1.099999999999999E-003    2.283026424198870E-003
 -9.999999999999989E-004    2.382853239094204E-003
 -8.999999999999990E-004    2.486558419536988E-003
 -7.999999999999990E-004    2.594269048547084E-003
 -6.999999999999989E-004    2.706114819663819E-003
 -5.999999999999990E-004    2.822228583521669E-003
 -4.999999999999989E-004    2.942746380307424E-003
 -3.999999999999989E-004    3.067806768520613E-003
 -2.999999999999989E-004    3.197551303549723E-003
 -1.999999999999989E-004    3.332124678351057E-003
 -9.999999999999892E-005    3.471674528698494E-003
  1.084202172485504E-018    3.616350847479150E-003
  1.000000000000011E-004    3.766307137880537E-003
  2.000000000000011E-004    3.921699781644159E-003
  3.000000000000011E-004    4.082688357112592E-003
  4.000000000000011E-004    4.249434908025724E-003
  5.000000000000011E-004    4.422104679772266E-003
  6.000000000000011E-004    4.600866257616167E-003
  7.000000000000011E-004    4.785891530105042E-003
  8.000000000000011E-004    4.977354828674091E-003
  9.000000000000012E-004    5.175433117338363E-003
  1.000000000000001E-003    5.380307139513810E-003
  1.100000000000001E-003    5.592160064987806E-003
  1.200000000000001E-003    5.811177636387586E-003
  1.300000000000001E-003    6.037548201166982E-003
  1.400000000000001E-003    6.271462365037982E-003
  1.500000000000001E-003    6.513112895011931E-003
  1.600000000000001E-003    6.762694961377595E-003
  1.700000000000001E-003    7.020405650440167E-003
  1.800000000000001E-003    7.286444023857554E-003
  1.900000000000001E-003    7.561010761727050E-003
  2.000000000000001E-003    7.844308918693628E-003
  2.100000000000001E-003    8.136542975307914E-003
  2.200000000000001E-003    8.437919533872559E-003
  2.300000000000001E-003    8.748645730806888E-003
  2.400000000000001E-003    9.068931844141048E-003
  2.500000000000001E-003    9.398988808174602E-003
  2.600000000000001E-003    9.739030046280264E-003
  2.700000000000001E-003    1.008926905923160E-002
  2.800000000000001E-003    1.044992054716055E-002
  2.900000000000001E-003    1.082120079661157E-002
  3.000000000000001E-003    1.120332529305448E-002
  3.100000000000001E-003    1.159651104302576E-002
  3.200000000000001E-003    1.200097416450620E-002
  3.300000000000001E-003    1.241692959378983E-002
  3.400000000000001E-003    1.284459285462564E-002
  3.500000000000001E-003    1.328417683716510E-002
  3.600000000000001E-003    1.373589479098460E-002
  3.700000000000001E-003    1.419995839525569E-002
  3.800000000000001E-003    1.467657613876572E-002
  3.900000000000001E-003    1.516595659641390E-002
  4.000000000000001E-003    1.566830447248875E-002
  4.100000000000001E-003    1.618382564152207E-002
  4.200000000000001E-003    1.671272120447897E-002
  4.300000000000001E-003    1.725519094638383E-002
  4.400000000000001E-003    1.781143286726441E-002
  4.500000000000001E-003    1.838164036394953E-002
  4.600000000000002E-003    1.896600419549377E-002
  4.700000000000001E-003    1.956471119804339E-002
  4.800000000000001E-003    2.017794461462236E-002
  4.900000000000002E-003    2.080588274160216E-002
  5.000000000000001E-003    2.144869747206134E-002
  5.100000000000001E-003    2.210655567774258E-002
  5.200000000000001E-003    2.277961834154385E-002
  5.300000000000002E-003    2.346803890967705E-002
  5.400000000000001E-003    2.417196323463978E-002
  5.500000000000001E-003    2.489153018905152E-002
  5.600000000000002E-003    2.562687064653415E-002
  5.700000000000001E-003    2.637810689001267E-002
  5.800000000000001E-003    2.714535378459787E-002
  5.900000000000002E-003    2.792871593796238E-002
  6.000000000000001E-003    2.872829020219576E-002
  6.100000000000001E-003    2.954416138661203E-002
  6.200000000000002E-003    3.037640708886627E-002
  6.300000000000002E-003    3.122508770564392E-002
  6.400000000000001E-003    3.209026241176456E-002
  6.500000000000001E-003    3.297197237815389E-002
  6.600000000000002E-003    3.387024600910288E-002
  6.700000000000001E-003    3.478510199284451E-002
  6.800000000000001E-003    3.571654073552244E-002
  6.900000000000002E-003    3.666455287629707E-002
  7.000000000000001E-003    3.762911100159870E-002
  7.100000000000001E-003    3.861017639138205E-002
  7.200000000000002E-003    3.960768877721495E-002
  7.300000000000002E-003    4.062157422748615E-002
  7.400000000000001E-003    4.165174487521766E-002
  7.500000000000001E-003    4.269809475805679E-002
  7.600000000000002E-003    4.376049325696008E-002
  7.700000000000001E-003    4.483880412483273E-002
  7.800000000000001E-003    4.593286407711394E-002
  7.900000000000001E-003    4.704249156428211E-002
  8.000000000000002E-003    4.816749342640241E-002
  8.100000000000001E-003    4.930764848709480E-002
  8.200000000000001E-003    5.046272060374086E-002
  8.300000000000002E-003    5.163244934202352E-002
  8.400000000000001E-003    5.281655300819027E-002
  8.500000000000002E-003    5.401473135578451E-002
  8.600000000000002E-003    5.522665683506109E-002
  8.700000000000001E-003    5.645198677378721E-002
  8.800000000000002E-003    5.769034237927916E-002
  8.900000000000002E-003    5.894132927872881E-002
  9.000000000000001E-003    6.020452470497362E-002
  9.100000000000002E-003    6.147949414455799E-002
  9.200000000000002E-003    6.276575988165446E-002
  9.300000000000001E-003    6.406283157570336E-002
  9.400000000000002E-003    6.537019281921309E-002
  9.500000000000001E-003    6.668730432816047E-002
  9.600000000000001E-003    6.801359602200333E-002
  9.700000000000002E-003    6.934847383738925E-002
  9.800000000000001E-003    7.069132185667948E-002
  9.900000000000001E-003    7.204149315128210E-002
  1.000000000000000E-002    7.339832240585198E-002
  1.010000000000000E-002    7.476111360508722E-002
  1.020000000000000E-002    7.612913976301390E-002
  1.030000000000000E-002    7.750164548698971E-002
  1.040000000000000E-002    7.887786509472416E-002
  1.050000000000000E-002    8.025698804304988E-002
  1.060000000000000E-002    8.163818770460582E-002
  1.070000000000000E-002    8.302060563239788E-002
  1.080000000000000E-002    8.440335715958075E-002
  1.090000000000000E-002    8.578553336373074E-002
  1.100000000000000E-002    8.716620231573059E-002
  1.110000000000000E-002    8.854440251049403E-002
  1.120000000000000E-002    8.991914127033514E-002
  1.130000000000000E-002    9.128941922653613E-002
  1.140000000000000E-002    9.265419730569802E-002
  1.150000000000000E-002    9.401241967373598E-002
  1.160000000000000E-002    9.536300376180266E-002
  1.170000000000000E-002    9.670484622254560E-002
  1.180000000000000E-002    9.803681721787297E-002
  1.190000000000000E-002    9.935776889626165E-002
  1.200000000000000E-002    0.100666533232210     
  1.210000000000000E-002    0.101961913895010     
  1.220000000000000E-002    0.103242694230753     
  1.230000000000000E-002    0.104507645593104     
  1.240000000000000E-002    0.105755513327163     
  1.250000000000000E-002    0.106985022537000     
  1.260000000000000E-002    0.108194894430681     
  1.270000000000000E-002    0.109383816559639     
  1.280000000000000E-002    0.110550482613599     
  1.290000000000000E-002    0.111693553416673     
  1.300000000000000E-002    0.112811692094263     
  1.310000000000000E-002    0.113903547166917     
  1.320000000000000E-002    0.114967753159939     
  1.330000000000000E-002    0.116002938989388     
  1.340000000000000E-002    0.117007726327297     
  1.350000000000000E-002    0.117980729060160     
  1.360000000000000E-002    0.118920555735413     
  1.370000000000000E-002    0.119825806554913     
  1.380000000000000E-002    0.120695081511854     
  1.390000000000000E-002    0.121526986714241     
  1.400000000000000E-002    0.122320109008527     
  1.410000000000000E-002    0.123073055553448     
  1.420000000000000E-002    0.123784426047590     
  1.430000000000000E-002    0.124452831275000     
  1.440000000000000E-002    0.125076876522566     
  1.450000000000000E-002    0.125655191921028     
  1.460000000000000E-002    0.126186412624008     
  1.470000000000000E-002    0.126669177604892     
  1.480000000000000E-002    0.127102157642529     
  1.490000000000000E-002    0.127484026477338     
  1.500000000000000E-002    0.127813487669065     
  1.510000000000000E-002    0.128089246494777     
  1.520000000000000E-002    0.128310060717406     
  1.530000000000000E-002    0.128474679619090     
  1.540000000000000E-002    0.128581880831721     
  1.550000000000000E-002    0.128630488706703     
  1.560000000000000E-002    0.128619338285595     
  1.570000000000000E-002    0.128547303751893     
  1.580000000000000E-002    0.128413288368228     
  1.590000000000000E-002    0.128216226637610     
  1.600000000000000E-002    0.127955093643031     
  1.610000000000000E-002    0.127628899735639     
  1.620000000000000E-002    0.127236695900745     
  1.630000000000000E-002    0.126777588421194     
  1.640000000000000E-002    0.126250713124583     
  1.650000000000000E-002    0.125655273064132     
  1.660000000000000E-002    0.124990510989269     
  1.670000000000000E-002    0.124255725443298     
  1.680000000000000E-002    0.123450267247135     
  1.690000000000000E-002    0.122573545634496     
  1.700000000000000E-002    0.121625019133201     
  1.710000000000000E-002    0.120604228844862     
  1.720000000000000E-002    0.119510749851399     
  1.730000000000000E-002    0.118344230521541     
  1.740000000000000E-002    0.117104384595766     
  1.750000000000000E-002    0.115790995970972     
  1.760000000000000E-002    0.114403897785661     
  1.770000000000000E-002    0.112943013085192     
  1.780000000000000E-002    0.111408321094335     
  1.790000000000000E-002    0.109799881950780     
  1.800000000000000E-002    0.108117828802411     
  1.810000000000000E-002    0.106362365595556     
  1.820000000000000E-002    0.104533791650847     
  1.830000000000000E-002    0.102632467355910     
  1.840000000000000E-002    0.100658846240781     
  1.850000000000000E-002    9.861345768998414E-002
  1.860000000000000E-002    9.649691305124872E-002
  1.870000000000000E-002    9.430992157414560E-002