 -4.000000000000000E-002    0.000000000000000E+000
 -3.990000000000000E-002   -3.357304260204708E-009
 -3.980000000000000E-002   -1.000368431341345E-008
 -3.970000000000000E-002   -1.961009405595603E-008
 -3.960000000000000E-002   -3.164511980772350E-008
 -3.950000000000000E-002   -4.546037465613362E-008
 -3.940000000000000E-002   -6.038877231731039E-008
 -3.930000000000000E-002   -7.583952366178588E-008
 -3.920000000000000E-002   -9.137404126521571E-008
 -3.910000000000000E-002   -1.067499768038652E-007
 -3.900000000000000E-002   -1.219255099935515E-007
 -3.890000000000000E-002   -1.370223234575961E-007
 -3.880000000000000E-002   -1.522524591328602E-007
 -3.870000000000000E-002   -1.678202589926592E-007
 -3.860000000000000E-002   -1.838149969861246E-007
 -3.850000000000000E-002   -2.001120064594051E-007
 -3.840000000000000E-002   -2.162995592934284E-007
 -3.830000000000000E-002   -2.316454804694467E-007
 -3.820000000000000E-002   -2.451118046900091E-007
 -3.810000000000000E-002   -2.554190121283949E-007
 -3.800000000000000E-002   -2.611539070521151E-007
 -3.790000000000000E-002   -2.609078010798250E-007
 -3.780000000000000E-002   -2.534272063859051E-007
 -3.770000000000000E-002   -2.377565148647428E-007
 -3.760000000000000E-002   -2.133517301325937E-007
 -3.750000000000000E-002   -1.801491909706107E-007
 -3.740000000000000E-002   -1.385778630996817E-007
 -3.730000000000000E-002   -8.951293347339548E-008
 -3.720000000000000E-002   -3.417626380259888E-008
 -3.710000000000000E-002    2.600240024809127E-008
 -3.700000000000000E-002    8.954307729867791E-008
 -3.690000000000000E-002    1.550687291087725E-007
 -3.680000000000000E-002    2.214298464602344E-007
 -3.670000000000000E-002    2.877807877247410E-007
 -3.660000000000000E-002    3.535942382387802E-007
 -3.650000000000000E-002    4.186094139416288E-007
 -3.640000000000000E-002    4.827198812491862E-007
 -3.630000000000000E-002    5.458164804746008E-007
 -3.620000000000000E-002    6.076088044196708E-007
 -3.610000000000000E-002    6.674530454647548E-007
 -3.600000000000000E-002    7.242159008023494E-007
 -3.590000000000000E-002    7.761989368867812E-007
 -3.580000000000000E-002    8.211421075101791E-007
 -3.570000000000000E-002    8.563139016497404E-007
 -3.560000000000000E-002    8.786829795734188E-007
 -3.550000000000000E-002    8.851545025300431E-007
 -3.540000000000000E-002    8.728438332161842E-007
 -3.530000000000000E-002    8.393529366358815E-007
 -3.520000000000000E-002    7.830130340543670E-007
 -3.510000000000000E-002    7.030584733607447E-007
 -3.500000000000000E-002    5.997061442627596E-007
 -3.490000000000000E-002    4.741253354594813E-007
 -3.480000000000000E-002    3.282981307023733E-007
 -3.470000000000000E-002    1.647857197305481E-007
 -3.460000000000000E-002   -1.357023435199390E-008
 -3.450000000000000E-002   -2.039709104952394E-007
 -3.440000000000000E-002   -4.039641326938273E-007
 -3.430000000000000E-002   -6.116829464127951E-007
 -3.420000000000000E-002   -8.259824038256521E-007
 -3.410000000000000E-002   -1.046449030353266E-006
 -3.400000000000000E-002   -1.273275627261607E-006
 -3.390000000000000E-002   -1.507011301424619E-006
 -3.380000000000000E-002   -1.748216595817884E-006
 -3.370000000000000E-002   -1.997067059836952E-006
 -3.360000000000000E-002   -2.252959762336898E-006
 -3.350000000000000E-002   -2.514178937949185E-006
 -3.340000000000000E-002   -2.777673267038618E-006
 -3.330000000000000E-002   -3.038983681260573E-006
 -3.320000000000000E-002   -3.292342976448977E-006
 -3.310000000000000E-002   -3.530945777532246E-006
 -3.300000000000000E-002   -3.747364915851988E-006
 -3.290000000000000E-002   -3.934067879995617E-006
 -3.280000000000000E-002   -4.083972581048548E-006
 -3.270000000000000E-002   -4.190969615898709E-006
 -3.260000000000000E-002   -4.250345543959649E-006
 -3.250000000000000E-002   -4.259041724592419E-006
 -3.240000000000000E-002   -4.215711231729763E-006
 -3.230000000000000E-002   -4.120554789663566E-006
 -3.220000000000000E-002   -3.974947419604318E-006
 -3.210000000000000E-002   -3.780892569636297E-006
 -3.200000000000000E-002   -3.540369564386076E-006
 -3.190000000000000E-002   -3.254652219172346E-006
 -3.180000000000000E-002   -2.923684998195067E-006
 -3.170000000000000E-002   -2.545600902122403E-006
 -3.160000000000000E-002   -2.116447426567813E-006
 -3.150000000000000E-002   -1.630162706617351E-006
 -3.140000000000000E-002   -1.078820190596780E-006
 -3.130000000000000E-002   -4.531137998094811E-007
 -3.120000000000000E-002    2.569629287085367E-007
 -3.110000000000000E-002    1.061328943178127E-006
 -3.100000000000000E-002    1.969012005633061E-006
 -3.090000000000000E-002    2.987426978951131E-006
 -3.080000000000000E-002    4.121840755607309E-006
 -3.070000000000000E-002    5.375082591054506E-006
 -3.060000000000000E-002    6.747559505740178E-006
 -3.050000000000000E-002    8.237566036380290E-006
 -3.040000000000000E-002    9.841881133016896E-006
 -3.030000000000000E-002    1.155655643065773E-005
 -3.020000000000000E-002    1.337783203861321E-005
 -3.010000000000000E-002    1.530304236244550E-005
 -3.000000000000000E-002    1.733142686452671E-005
 -2.990000000000000E-002    1.946471410504549E-005
 -2.980000000000000E-002    2.170743078737225E-005
 -2.970000000000000E-002    2.406687170904725E-005
 -2.960000000000000E-002    2.655275580036739E-005
 -2.950000000000000E-002    2.917657582032234E-005
 -2.940000000000000E-002    3.195076418277548E-005
 -2.930000000000000E-002    3.488773487161339E-005
 -2.920000000000000E-002    3.799896539910443E-005
 -2.910000000000000E-002    4.129421809565300E-005
 -2.900000000000000E-002    4.478099901107798E-005
 -2.890000000000000E-002    4.846435467582884E-005
 -2.880000000000000E-002    5.234700612967135E-005
 -2.870000000000000E-002    5.642984676327678E-005
 -2.860000000000000E-002    6.071273130926901E-005
 -2.850000000000000E-002    6.519546024624112E-005
 -2.840000000000000E-002    6.987884440777880E-005
 -2.830000000000000E-002    7.476572416009080E-005
 -2.820000000000000E-002    7.986182212252532E-005
 -2.810000000000000E-002    8.517629698675558E-005
 -2.800000000000000E-002    9.072197252303553E-005
 -2.790000000000000E-002    9.651514795956740E-005
 -2.780000000000000E-002    1.025751277921678E-004
 -2.770000000000000E-002    1.089233953402311E-004
 -2.760000000000000E-002    1.155826531937593E-004
 -2.750000000000000E-002    1.225757731089565E-004
 -2.740000000000000E-002    1.299248838699280E-004
 -2.730000000000000E-002    1.376506445723641E-004
 -2.720000000000000E-002    1.457718344407434E-004
 -2.710000000000000E-002    1.543053532768995E-004
 -2.700000000000000E-002    1.632665744026589E-004
 -2.690000000000000E-002    1.726701113529519E-004
 -2.680000000000000E-002    1.825307973001675E-004
 -2.670000000000000E-002    1.928648840554241E-004
 -2.660000000000000E-002    2.036912393998524E-004
 -2.650000000000000E-002    2.150323855657626E-004
 -2.640000000000000E-002    2.269153625130788E-004
 -2.630000000000000E-002    2.393721516541016E-004
 -2.620000000000000E-002    2.524397286550115E-004
 -2.610000000000000E-002    2.661597690833139E-004
 -2.600000000000000E-002    2.805778612375753E-004
 -2.590000000000000E-002    2.957426507645044E-004
 -2.580000000000000E-002    3.117045798055653E-004
 -2.570000000000000E-002    3.285149347606860E-004
 -2.560000000000000E-002    3.462248206508814E-004
 -2.550000000000000E-002    3.648845471988603E-004
 -2.540000000000000E-002    3.845433271340897E-004
 -2.530000000000000E-002    4.052494100491575E-004
 -2.520000000000000E-002    4.270506832368862E-004
 -2.510000000000000E-002    4.499955283346569E-004
 -2.500000000000000E-002    4.741339897455105E-004
 -2.490000000000000E-002    4.995189891531953E-004
 -2.480000000000000E-002    5.262075663226761E-004
 -2.470000000000000E-002    5.542619071611295E-004
 -2.460000000000000E-002    5.837499721590284E-004
 -2.450000000000000E-002    6.147458072943159E-004
 -2.440000000000000E-002    6.473294038954756E-004
 -2.430000000000000E-002    6.815862267759394E-004
 -2.420000000000000E-002    7.176061880202315E-004
 -2.410000000000000E-002    7.554825482756526E-004
 -2.400000000000000E-002    7.953108443946109E-004
 -2.390000000000000E-002    8.371877215469869E-004
 -2.380000000000000E-002    8.812100465515334E-004
 -2.370000000000000E-002    9.274743775264441E-004
 -2.360000000000000E-002    9.760769246935591E-004
 -2.350000000000000E-002    1.027113854636211E-003
 -2.340000000000000E-002    1.080682101742219E-003
 -2.330000000000000E-002    1.136880350784136E-003
 -2.320000000000000E-002    1.195810508901283E-003
 -2.310000000000000E-002    1.257579273981533E-003
 -2.300000000000000E-002    1.322299059742573E-003
 -2.290000000000000E-002    1.390089189305888E-003
 -2.280000000000000E-002    1.461076779668228E-003
 -2.270000000000000E-002    1.535396524324341E-003
 -2.260000000000000E-002    1.613191243436643E-003
 -2.250000000000000E-002    1.694610573354102E-003
 -2.240000000000000E-002    1.779810396907166E-003
 -2.230000000000000E-002    1.868951442048405E-003
 -2.220000000000000E-002    1.962198130398194E-003
 -2.210000000000000E-002    2.059717509051583E-003
 -2.200000000000000E-002    2.161678336402094E-003
 -2.190000000000000E-002    2.268250262917985E-003
 -2.180000000000000E-002    2.379604170953150E-003
 -2.170000000000000E-002    2.495912207012816E-003
 -2.160000000000000E-002    2.617348156642608E-003
 -2.150000000000000E-002    2.744089398123727E-003
 -2.140000000000000E-002    2.876317377103323E-003
 -2.130000000000000E-002    3.014219158382934E-003
 -2.120000000000000E-002    3.157988590495693E-003
 -2.110000000000000E-002    3.307827592814871E-003
 -2.100000000000000E-002    3.463946774300559E-003
 -2.090000000000000E-002    3.626564900522880E-003
 -2.080000000000000E-002    3.795909649285525E-003
 -2.070000000000000E-002    3.972216198572126E-003
 -2.060000000000000E-002    4.155726692597938E-003
 -2.050000000000000E-002    4.346688977012883E-003
 -2.040000000000000E-002    4.545355265217179E-003
 -2.030000000000000E-002    4.751980589383730E-003
 -2.020000000000000E-002    4.966821906308009E-003
 -2.010000000000000E-002    5.190137308887029E-003
 -2.000000000000000E-002    5.422186103947130E-003
 -1.990000000000000E-002    5.663228103125506E-003
 -1.980000000000000E-002    5.913524264200493E-003
 -1.970000000000000E-002    6.173336968511937E-003
 -1.960000000000000E-002    6.442932331576290E-003
 -1.950000000000000E-002    6.722579060195854E-003
 -1.940000000000000E-002    7.012551675448682E-003
 -1.930000000000000E-002    7.313129833059696E-003
 -1.920000000000000E-002    7.624599595204864E-003
 -1.910000000000000E-002    7.947252655728581E-003
 -1.900000000000000E-002    8.281387545759378E-003
 -1.890000000000000E-002    8.627308154521438E-003
 -1.880000000000000E-002    8.985322664594649E-003
 -1.870000000000000E-002    9.355742410419841E-003
 -1.860000000000000E-002    9.738881222331779E-003
 -1.850000000000000E-002    1.013505187621305E-002
 -1.840000000000000E-002    1.054456715390421E-002
 -1.830000000000000E-002    1.096773636156095E-002
 -1.820000000000000E-002    1.140486434338854E-002
 -1.810000000000000E-002    1.185625298419571E-002
 -1.800000000000000E-002    1.232219859282425E-002
 -1.790000000000000E-002    1.280299137562177E-002
 -1.780000000000000E-002    1.329891674316561E-002
 -1.770000000000000E-002    1.381025627495970E-002
 -1.760000000000000E-002    1.433728597278135E-002
 -1.750000000000000E-002    1.488027751049738E-002
 -1.740000000000000E-002    1.543949793891143E-002
 -1.730000000000000E-002    1.601521204326976E-002
 -1.720000000000000E-002    1.660767712203584E-002
 -1.710000000000000E-002    1.721714710142266E-002
 -1.700000000000000E-002    1.784386831158517E-002
 -1.690000000000000E-002    1.848807841390295E-002
 -1.680000000000000E-002    1.915000510373738E-002
 -1.670000000000000E-002    1.982986447828483E-002
 -1.660000000000000E-002    2.052785571853825E-002
 -1.650000000000000E-002    2.124416446229594E-002
 -1.640000000000000E-002    2.197895424900760E-002
 -1.630000000000000E-002    2.273236981827734E-002
 -1.620000000000000E-002    2.350453379979519E-002
 -1.610000000000000E-002    2.429554284753458E-002
 -1.600000000000000E-002    2.510546902664179E-002
 -1.590000000000000E-002    2.593436029982048E-002
 -1.580000000000000E-002    2.678223502389331E-002
 -1.570000000000000E-002    2.764908816731274E-002
 -1.560000000000000E-002    2.853488545062496E-002
 -1.550000000000000E-002    2.943956258068135E-002
 -1.540000000000000E-002    3.036303036528921E-002
 -1.530000000000000E-002    3.130516850026208E-002
 -1.520000000000000E-002    3.226582595751572E-002
 -1.510000000000000E-002    3.324481586590953E-002
 -1.500000000000000E-002    3.424192044454025E-002
 -1.490000000000000E-002    3.525688061860809E-002
 -1.480000000000000E-002    3.628939910693136E-002
 -1.470000000000000E-002    3.733912928781695E-002
 -1.460000000000000E-002    3.840568254549980E-002
 -1.450000000000000E-002    3.948861313783655E-002
 -1.440000000000000E-002    4.058742928099644E-002
 -1.430000000000000E-002    4.170157491924241E-002
 -1.420000000000000E-002    4.283044190193622E-002
 -1.410000000000000E-002    4.397335547643186E-002
 -1.400000000000000E-002    4.512958313661697E-002
 -1.390000000000000E-002    4.629832640006225E-002
 -1.380000000000000E-002    4.747871985047002E-002
 -1.370000000000000E-002    4.866983502813695E-002
 -1.360000000000000E-002    4.987067773089142E-002
 -1.350000000000000E-002    5.108018313827170E-002
 -1.340000000000000E-002    5.229721924454121E-002
 -1.330000000000000E-002    5.352058446180592E-002
 -1.320000000000000E-002    5.474899802616379E-002
 -1.310000000000000E-002    5.598110499710646E-002
 -1.300000000000000E-002    5.721547289328600E-002
 -1.290000000000000E-002    5.845058333148210E-002
 -1.280000000000000E-002    5.968482779311218E-002
 -1.270000000000000E-002    6.091650499053378E-002
 -1.260000000000000E-002    6.214381869747131E-002
 -1.250000000000000E-002    6.336487226043497E-002
 -1.240000000000000E-002    6.457766831269282E-002
 -1.230000000000000E-002    6.578009881341768E-002
 -1.220000000000000E-002    6.696995624503460E-002
 -1.210000000000000E-002    6.814491486684206E-002
 -1.200000000000000E-002    6.930254372127503E-002
 -1.190000000000000E-002    7.044030960565548E-002
 -1.180000000000000E-002    7.155554973660563E-002
 -1.170000000000000E-002    7.264551315726855E-002
 -1.160000000000000E-002    7.370731983457138E-002
 -1.150000000000000E-002    7.473798591981334E-002
 -1.140000000000000E-002    7.573441304985996E-002
 -1.130000000000000E-002    7.669338681649165E-002
 -1.120000000000000E-002    7.761156990616680E-002
 -1.110000000000000E-002    7.848551284353321E-002
 -1.100000000000000E-002    7.931163237587849E-002
 -1.090000000000000E-002    8.008621926568939E-002
 -1.080000000000000E-002    8.080544033031967E-002
 -1.070000000000000E-002    8.146531664503991E-002
 -1.060000000000000E-002    8.206174395319199E-002
 -1.050000000000000E-002    8.259047033081464E-002
 -1.040000000000000E-002    8.304711061023949E-002
 -1.030000000000000E-002    8.342713499216285E-002
 -1.020000000000000E-002    8.372588735105672E-002
 -1.010000000000000E-002    8.393857793799238E-002
 -1.000000000000000E-002    8.406026832747049E-002
 -9.899999999999999E-003    8.408589489440026E-002
 -9.800000000000000E-003    8.401026966371403E-002
 -9.699999999999999E-003    8.382806965355083E-002
 -9.599999999999999E-003    8.353386086980572E-002
 -9.500000000000000E-003    8.312206326459151E-002
 -9.399999999999999E-003    8.258699432085581E-002
 -9.299999999999999E-003    8.192283066463076E-002
 -9.200000000000000E-003    8.112363679583051E-002
 -9.099999999999999E-003    8.018334996045498E-002
 -8.999999999999999E-003    7.909578722140079E-002
 -8.900000000000000E-003    7.785463022898521E-002
 -8.799999999999999E-003    7.645344306485959E-002
 -8.699999999999999E-003    7.488567887829238E-002
 -8.600000000000000E-003    7.314467062050009E-002
 -8.499999999999999E-003    7.122362473535289E-002
 -8.399999999999999E-003    6.911563806504635E-002
 -8.300000000000000E-003    6.681373083060646E-002
 -8.199999999999999E-003    6.431080640312226E-002
 -8.100000000000000E-003    6.159967345991837E-002
 -8.000000000000000E-003    5.867307980321888E-002
 -7.899999999999999E-003    5.552367488667952E-002
 -7.800000000000000E-003    5.214406466079485E-002
 -7.699999999999999E-003    4.852678219619100E-002
 -7.599999999999999E-003    4.466429810276900E-002
 -7.499999999999999E-003    4.054905957413916E-002
 -7.399999999999999E-003    3.617346180381385E-002
 -7.299999999999999E-003    3.152984061952006E-002
 -7.199999999999999E-003    2.661053942418299E-002
 -7.100000000000000E-003    2.140783980038699E-002
 -6.999999999999999E-003    1.591403339681306E-002
 -6.899999999999999E-003    1.012137474227560E-002
 -6.800000000000000E-003    4.022143758495721E-003
 -6.699999999999999E-003   -2.391398963004877E-003
 -6.599999999999999E-003   -9.126947917613135E-003
 -6.499999999999999E-003   -1.619218037816490E-002
 -6.399999999999999E-003   -2.359473213861615E-002
 -6.299999999999999E-003   -3.134219068681991E-002
 -6.199999999999999E-003   -3.944205434661593E-002
 -6.100000000000000E-003   -4.790175864577892E-002
 -5.999999999999999E-003   -5.672864438286190E-002
 -5.899999999999999E-003   -6.592991684904016E-002
 -5.800000000000000E-003   -7.551269196789950E-002
 -5.699999999999999E-003   -8.548392022054585E-002
 -5.599999999999999E-003   -9.585044224646908E-002
 -5.499999999999999E-003   -0.106618888147163     
 -5.399999999999999E-003   -0.117795765296958     
 -5.299999999999999E-003   -0.129387382869924     
 -5.199999999999999E-003   -0.141399863009775     
 -5.099999999999999E-003   -0.153839092213783     
 -4.999999999999999E-003   -0.166710739992030     
 -4.899999999999999E-003   -0.180020282401535     
 -4.799999999999999E-003   -0.193772911445664     
 -4.699999999999999E-003   -0.207973569987649     
 -4.599999999999999E-003   -0.222626914262839     
 -4.499999999999999E-003   -0.237737289262923     
 -4.399999999999999E-003   -0.253308729862512     
 -4.299999999999999E-003   -0.269344973871069     
 -4.199999999999999E-003   -0.285849361071439     
 -4.099999999999999E-003   -0.302824847223876     
 -3.999999999999999E-003   -0.320274069778914     
 -3.899999999999999E-003   -0.338199189759464     
 -3.799999999999999E-003   -0.356602025139301     
 -3.699999999999999E-003   -0.375483916552932     
 -3.599999999999999E-003   -0.394845773840174     
 -3.499999999999999E-003   -0.414688022663942     
 -3.399999999999999E-003   -0.435010660150814     
 -3.299999999999999E-003   -0.455813192933825     
 -3.199999999999999E-003   -0.477094630113925     
 -3.099999999999999E-003   -0.498853381791142     
 -2.999999999999999E-003   -0.521087458360148     
 -2.899999999999999E-003   -0.543794259506422     
 -2.799999999999999E-003   -0.566970647883351     
 -2.699999999999999E-003   -0.590612911016827     
 -2.599999999999999E-003   -0.614716739175504     
 -2.499999999999999E-003   -0.639277247551443     
 -2.399999999999999E-003   -0.664288943669125     
 -2.299999999999999E-003   -0.689745684624447     
 -2.199999999999999E-003   -0.715640764486295     
 -2.099999999999999E-003   -0.741966655555740     
 -1.999999999999999E-003   -0.768715359884678     
 -1.899999999999999E-003   -0.795878138220240     
 -1.799999999999999E-003   -0.823445506076427     
 -1.699999999999999E-003   -0.851407372264699     
 -1.599999999999999E-003   -0.879752931120390     
 -1.499999999999999E-003   -0.908470673660047     
 -1.399999999999999E-003   -0.937548382635035     
 -1.299999999999999E-003   -0.966973194613740     
 -1.199999999999999E-003   -0.996731433498404     
 -1.099999999999999E-003    -1.02680880447034     
 -9.999999999999989E-004    -1.05719025386140     
 -8.999999999999990E-004    -1.08785996930539     
 -7.999999999999990E-004    -1.11880156153749     
 -6.999999999999989E-004    -1.14999774061447     
 -5.999999999999990E-004    -1.18143060487771     
 -4.999999999999989E-004    -1.21308150823943     
 -3.999999999999989E-004    -1.24493103305332     
 -2.999999999999989E-004    -1.27695911409779     
 -1.999999999999989E-004    -1.30914502634221     
 -9.999999999999892E-005    -1.34146707125254     
  1.084202172485504E-018    -1.37390318329206     
  1.000000000000011E-004    -1.40643044438852     
  2.000000000000011E-004    -1.43902525714098     
  3.000000000000011E-004    -1.47166321122927     
  4.000000000000011E-004    -1.50431951745522     
  5.000000000000011E-004    -1.53696860702942     
  6.000000000000011E-004    -1.56958416943858     
  7.000000000000011E-004    -1.60213940365888     
  8.000000000000011E-004    -1.63460695434852     
  9.000000000000012E-004    -1.66695870098233     
  1.000000000000001E-003    -1.69916625174546     
  1.100000000000001E-003    -1.73120044644681     
  1.200000000000001E-003    -1.76303156752257     
  1.300000000000001E-003    -1.79462954627580     
  1.400000000000001E-003    -1.82596373150472     
  1.500000000000001E-003    -1.85700315198100     
  1.600000000000001E-003    -1.88771623874677     
  1.700000000000001E-003    -1.91807095905720     
  1.800000000000001E-003    -1.94803505681441     
  1.900000000000001E-003    -1.97757594710493     
  2.000000000000001E-003    -2.00666058570858     
  2.100000000000001E-003    -2.03525571274932     
  2.200000000000001E-003    -2.06332778608459     
  2.300000000000001E-003    -2.09084297661203     
  2.400000000000001E-003    -2.11776745823566     
  2.500000000000001E-003    -2.14406705388949     
  2.600000000000001E-003    -2.16970747349950     
  2.700000000000001E-003    -2.19465451665979     
  2.800000000000001E-003    -2.21887374985373     
  2.900000000000001E-003    -2.24233076658610     
  3.000000000000001E-003    -2.26499145519307     
  3.100000000000001E-003    -2.28682148238009     
  3.200000000000001E-003    -2.30778654591754     
  3.300000000000001E-003    -2.32785282308017     
  3.400000000000001E-003    -2.34698639948599     
  3.500000000000001E-003    -2.36515384102908     
  3.600000000000001E-003    -2.38232172169857     
  3.700000000000001E-003    -2.39845710851466     
  3.800000000000001E-003    -2.41352736533042     
  3.900000000000001E-003    -2.42750033007619     
  4.000000000000001E-003    -2.44034422982704     
  4.100000000000001E-003    -2.45202775210452     
  4.200000000000001E-003    -2.46252015749298     
  4.300000000000001E-003    -2.47179108710678     
  4.400000000000001E-003    -2.47981133980613     
  4.500000000000001E-003    -2.48655190126518     
  4.600000000000002E-003    -2.49198449038073     
  4.700000000000001E-003    -2.49608172182921     
  4.800000000000001E-003    -2.49881724048074     
  4.900000000000002E-003    -2.50016500351594     
  5.000000000000001E-003    -2.50010028863252     
  5.100000000000001E-003    -2.49859919016917     
  5.200000000000001E-003    -2.49563874562217     
  5.300000000000002E-003    -2.49119704359141     
  5.400000000000001E-003    -2.48525308587337     
  5.500000000000001E-003    -2.47778715319455     
  5.600000000000002E-003    -2.46878044528829     
  5.700000000000001E-003    -2.45821550044056     
  5.800000000000001E-003    -2.44607604534739     
  5.900000000000002E-003    -2.43234708483692     
  6.000000000000001E-003    -2.41701475248037     
  6.100000000000001E-003    -2.40006632046132     
  6.200000000000002E-003    -2.38149067785505     
  6.300000000000002E-003    -2.36127812828806     
  6.400000000000001E-003    -2.33942016080792     
  6.500000000000001E-003    -2.31590986374627     
  6.600000000000002E-003    -2.29074168917241     
  6.700000000000001E-003    -2.26391159109910     
  6.800000000000001E-003    -2.23541697581456     
  6.900000000000002E-003    -2.20525693435686     
  7.000000000000001E-003    -2.17343192386379     
  7.100000000000001E-003    -2.13994423608016     
  7.200000000000002E-003    -2.10479753896510     
  7.300000000000002E-003    -2.06799710876600     
  7.400000000000001E-003    -2.02954990839791     
  7.500000000000001E-003    -1.98946430305518     
  7.600000000000002E-003    -1.94775054584143     
  7.700000000000001E-003    -1.90442047910312     
  7.800000000000001E-003    -1.85948762363912     
  7.900000000000001E-003    -1.81296676009080     
  8.000000000000002E-003    -1.76487458715303     
  8.100000000000001E-003    -1.71522959399943     
  8.200000000000001E-003    -1.66405171629510     
  8.300000000000002E-003    -1.61136257373352     
  8.400000000000001E-003    -1.55718548608442     
  8.500000000000002E-003    -1.50154525912839     
  8.600000000000002E-003    -1.44446837398835     
  8.700000000000001E-003    -1.38598297745340     
  8.800000000000002E-003    -1.32611872644166     
  8.900000000000002E-003    -1.26490691499261     
  9.000000000000001E-003    -1.20238018788817     
  9.100000000000002E-003    -1.13857295882716     
  9.200000000000002E-003    -1.07352097042732     
  9.300000000000001E-003    -1.00726154279647     
  9.400000000000002E-003   -0.939833272189603     
  9.500000000000001E-003   -0.871276341752456     
  9.600000000000001E-003   -0.801632024599670     
  9.700000000000002E-003   -0.730943214886210     
  9.800000000000001E-003   -0.659253912540435     
  9.900000000000001E-003   -0.586609427610110     
  1.000000000000000E-002   -0.513056286600582     
  1.010000000000000E-002   -0.438642242968450     
  1.020000000000000E-002   -0.363416090463626     
  1.030000000000000E-002   -0.287427806860792     
  1.040000000000000E-002   -0.210728333468786     
  1.050000000000000E-002   -0.133369622815827     
  1.060000000000000E-002   -5.540459204050377E-002
  1.070000000000000E-002    2.311298113987824E-002
  1.080000000000000E-002    0.102128360584598     
  1.090000000000000E-002    0.181586195495680     
  1.100000000000000E-002    0.261430336766313     
  1.110000000000000E-002    0.341604046553880     
  1.120000000000000E-002    0.422049881537190     
  1.130000000000000E-002    0.502709930095955     
  1.140000000000000E-002    0.583525801082998     
  1.150000000000000E-002    0.664438699951846     
  1.160000000000000E-002    0.745389431484724     
  1.170000000000000E-002    0.826318592905640     
  1.180000000000000E-002    0.907166468502934     
  1.190000000000000E-002    0.987873294790935     
  1.200000000000000E-002     1.06837909880205     
  1.210000000000000E-002     1.14862398269734     
  1.220000000000000E-002     1.22854793227320     
  1.230000000000000E-002     1.30809118401807     
  1.240000000000000E-002     1.38719401906788     
  1.250000000000000E-002     1.46579703118733     
  1.260000000000000E-002     1.54384105751685     
  1.270000000000000E-002     1.62126726277467     
  1.280000000000000E-002     1.69801719480791     
  1.290000000000000E-002     1.77403291294118     
  1.300000000000000E-002     1.84925712127417     
  1.310000000000000E-002     1.92363321264638     
  1.320000000000000E-002     1.99710506079333     
  1.330000000000000E-002     2.06961731655518     
  1.340000000000000E-002     2.14111552435504     
  1.350000000000000E-002     2.21154625594623     
  1.360000000000000E-002     2.28085668942800     
  1.370000000000000E-002     2.34899532259189     
  1.380000000000000E-002     2.41591137028172     
  1.390000000000000E-002     2.48155538996811     
  1.400000000000000E-002     2.54587901179433     
  1.410000000000000E-002     2.60883501512537     
  1.420000000000000E-002     2.67037742996825     
  1.430000000000000E-002     2.73046154900825     
  1.440000000000000E-002     2.78904432335742     
  1.450000000000000E-002     2.84608364181696     
  1.460000000000000E-002     2.90153914776025     
  1.470000000000000E-002     2.95537177702759     
  1.480000000000000E-002     3.00754410447725     
  1.490000000000000E-002     3.05802036525823     
  1.500000000000000E-002     3.10676607485371     
  1.510000000000000E-002     3.15374868778756     
  1.520000000000000E-002     3.19893717488631     
  1.530000000000000E-002     3.24230243341976     
  1.540000000000000E-002     3.28381673951039     
  1.550000000000000E-002     3.32345447036035     
  1.560000000000000E-002     3.36119171818996     
  1.570000000000000E-002     3.39700614634790     
  1.580000000000000E-002     3.43087758441720     
  1.590000000000000E-002     3.46278723187153     
  1.600000000000000E-002     3.49271874384855     
  1.610000000000000E-002     3.52065696546744     
  1.620000000000000E-002     3.54658915113516     
  1.630000000000000E-002     3.57050400036488     
  1.640000000000000E-002     3.59239265554786     
  1.650000000000000E-002     3.61224738521238     
  1.660000000000000E-002     3.63006279210381     
  1.670000000000000E-002     3.64583533892701     
  1.680000000000000E-002     3.65956313690893     
  1.690000000000000E-002     3.67124666857522     
  1.700000000000000E-002     3.68088783019321     
  1.710000000000000E-002     3.68849028278698     
  1.720000000000000E-002     3.69405999269036     
  1.730000000000000E-002     3.69760425794505     
  1.740000000000000E-002     3.69913263035236     
  1.750000000000000E-002     3.69865612702788     
  1.760000000000000E-002     3.69618780555430     
  1.770000000000000E-002     3.69174229197072     
  1.780000000000000E-002     3.68533575394895     
  1.790000000000000E-002     3.67698622276002     
  1.800000000000000E-002     3.66671334985621     
  1.810000000000000E-002     3.65453843817955     
  1.820000000000000E-002     3.64048426397179     
  1.830000000000000E-002     3.62457507252326     
  1.840000000000000E-002     3.60683667062917     
  1.850000000000000E-002     3.58729639852560     
  1.860000000000000E-002     3.56598307652084     
  1.870000000000000E-002     3.54292659843866     