 -4.000000000000000E-002    0.000000000000000E+000
 -3.990000000000000E-002    0.000000000000000E+000
 -3.980000000000000E-002    0.000000000000000E+000
 -3.970000000000000E-002    0.000000000000000E+000
 -3.960000000000000E-002    0.000000000000000E+000
 -3.950000000000000E-002    0.000000000000000E+000
 -3.940000000000000E-002    0.000000000000000E+000
 -3.930000000000000E-002    0.000000000000000E+000
 -3.920000000000000E-002    0.000000000000000E+000
 -3.910000000000000E-002    0.000000000000000E+000
 -3.900000000000000E-002    0.000000000000000E+000
 -3.890000000000000E-002    0.000000000000000E+000
 -3.880000000000000E-002   -4.382668331381448E-039
 -3.870000000000000E-002   -9.983712126158286E-038
 -3.860000000000000E-002   -1.171473221149501E-036
 -3.850000000000000E-002   -9.420495883027866E-036
 -3.840000000000000E-002   -5.828160478024069E-035
 -3.830000000000000E-002   -2.952307479473588E-034
 -3.820000000000000E-002   -1.272492100149212E-033
 -3.810000000000000E-002   -4.787438273966552E-033
 -3.800000000000000E-002   -1.600118240768697E-032
 -3.790000000000000E-002   -4.809218644513485E-032
 -3.780000000000000E-002   -1.310052393639770E-031
 -3.770000000000000E-002   -3.247161591988899E-031
 -3.760000000000000E-002   -7.319426619543791E-031
 -3.750000000000000E-002   -1.489705672178190E-030
 -3.740000000000000E-002   -2.684196877694718E-030
 -3.730000000000000E-002   -4.066244823791411E-030
 -3.720000000000000E-002   -4.332383906193297E-030
 -3.710000000000000E-002    4.248405444238283E-031
 -3.700000000000000E-002    1.968174009196275E-029
 -3.690000000000000E-002    7.358559898508685E-029
 -3.680000000000000E-002    2.008350668572325E-028
 -3.670000000000000E-002    4.693825245143742E-028
 -3.660000000000000E-002    9.884424301780733E-028
 -3.650000000000000E-002    1.917201418100051E-027
 -3.640000000000000E-002    3.460449583973475E-027
 -3.630000000000000E-002    5.833797480101901E-027
 -3.620000000000000E-002    9.171638110772189E-027
 -3.610000000000000E-002    1.334135105379359E-026
 -3.600000000000000E-002    1.762130974228818E-026
 -3.590000000000000E-002    2.020474893186693E-026
 -3.580000000000000E-002    1.751620912792300E-026
 -3.570000000000000E-002    3.384446389033769E-027
 -3.560000000000000E-002   -3.178200873451728E-026
 -3.550000000000000E-002   -1.015136507207167E-025
 -3.540000000000000E-002   -2.229800332619478E-025
 -3.530000000000000E-002   -4.151136625347473E-025
 -3.520000000000000E-002   -6.941704301973170E-025
 -3.510000000000000E-002   -1.065609372096189E-024
 -3.500000000000000E-002   -1.511272808237851E-024
 -3.490000000000000E-002   -1.971339637687304E-024
 -3.480000000000000E-002   -2.321594984544474E-024
 -3.470000000000000E-002   -2.348367941813330E-024
 -3.460000000000000E-002   -1.726126754816036E-024
 -3.450000000000000E-002   -6.085064357176659E-027
 -3.440000000000000E-002    3.372058017404182E-024
 -3.430000000000000E-002    9.029673601835575E-024
 -3.420000000000000E-002    1.754244567271279E-023
 -3.410000000000000E-002    2.926062357478625E-023
 -3.400000000000000E-002    4.404527898535240E-023
 -3.390000000000000E-002    6.092190828917731E-023
 -3.380000000000000E-002    7.767313602889391E-023
 -3.370000000000000E-002    9.042130554984043E-023
 -3.360000000000000E-002    9.328814027135766E-023
 -3.350000000000000E-002    7.825874782212609E-023
 -3.340000000000000E-002    3.541444904982915E-023
 -3.330000000000000E-002   -4.627712934232597E-023
 -3.320000000000000E-002   -1.774279815875641E-022
 -3.310000000000000E-002   -3.658076319598017E-022
 -3.300000000000000E-002   -6.129864728817521E-022
 -3.290000000000000E-002   -9.101610672103537E-022
 -3.280000000000000E-002   -1.233509167791497E-021
 -3.270000000000000E-002   -1.539710850595765E-021
 -3.260000000000000E-002   -1.762592620618376E-021
 -3.250000000000000E-002   -1.812153597298269E-021
 -3.240000000000000E-002   -1.577452036998117E-021
 -3.230000000000000E-002   -9.348785512269291E-022
 -3.220000000000000E-002    2.368735594941229E-022
 -3.210000000000000E-002    2.034398594054331E-021
 -3.200000000000000E-002    4.499971644999883E-021
 -3.190000000000000E-002    7.586402974081246E-021
 -3.180000000000000E-002    1.111980169225163E-020
 -3.170000000000000E-002    1.476569518496997E-020
 -3.160000000000000E-002    1.800592024051259E-020
 -3.150000000000000E-002    2.013523230623611E-020
 -3.140000000000000E-002    2.028725382065075E-020
 -3.130000000000000E-002    1.749866836818523E-020
 -3.120000000000000E-002    1.081802917717367E-020
 -3.110000000000000E-002   -5.391758893350048E-022
 -3.100000000000000E-002   -1.699452136680989E-020
 -3.090000000000000E-002   -3.838405188977296E-020
 -3.080000000000000E-002   -6.373366836256507E-020
 -3.070000000000000E-002   -9.106750607285988E-020
 -3.060000000000000E-002   -1.172930034940246E-019
 -3.050000000000000E-002   -1.382114870909989E-019
 -3.040000000000000E-002   -1.487022470681874E-019
 -3.030000000000000E-002   -1.431190628130728E-019
 -3.020000000000000E-002   -1.159197711004660E-019
 -3.010000000000000E-002   -6.252069117704283E-020
 -3.000000000000000E-002    1.967023106925235E-020
 -2.990000000000000E-002    1.301322062280578E-019
 -2.980000000000000E-002    2.641592360807810E-019
 -2.970000000000000E-002    4.120153255110512E-019
 -2.960000000000000E-002    5.585240393676959E-019
 -2.950000000000000E-002    6.833064794595381E-019
 -2.940000000000000E-002    7.618571596920372E-019
 -2.930000000000000E-002    7.675870460035732E-019
 -2.920000000000000E-002    6.748625364256914E-019
 -2.910000000000000E-002    4.629303504009803E-019
 -2.900000000000000E-002    1.204523584189791E-019
 -2.890000000000000E-002   -3.498064841547661E-019
 -2.880000000000000E-002   -9.267620341905680E-019
 -2.870000000000000E-002   -1.568023345357103E-018
 -2.860000000000000E-002   -2.208949835731595E-018
 -2.850000000000000E-002   -2.764527461642069E-018
 -2.840000000000000E-002   -3.134677492150712E-018
 -2.830000000000000E-002   -3.213294809344777E-018
 -2.820000000000000E-002   -2.900886542115602E-018
 -2.810000000000000E-002   -2.120115280614922E-018
 -2.800000000000000E-002   -8.329472373161353E-019
 -2.790000000000000E-002    9.425137020094077E-019
 -2.780000000000000E-002    3.117926034684423E-018
 -2.770000000000000E-002    5.526094586018934E-018
 -2.760000000000000E-002    7.920584046407609E-018
 -2.750000000000000E-002    9.985968738050759E-018
 -2.740000000000000E-002    1.136030055325535E-017
 -2.730000000000000E-002    1.167014608264316E-017
 -2.720000000000000E-002    1.057691128672027E-017
 -2.710000000000000E-002    7.831279794501239E-018
 -2.700000000000000E-002    3.330627225033641E-018
 -2.690000000000000E-002   -2.827484166691150E-018
 -2.680000000000000E-002   -1.030395180067818E-017
 -2.670000000000000E-002   -1.849761625348427E-017
 -2.660000000000000E-002   -2.655378893223981E-017
 -2.650000000000000E-002   -3.340821564830747E-017
 -2.640000000000000E-002   -3.786983983198207E-017
 -2.630000000000000E-002   -3.874136569997830E-017
 -2.620000000000000E-002   -3.497146893556815E-017
 -2.610000000000000E-002   -2.582676806579649E-017
 -2.600000000000000E-002   -1.106617975753491E-017
 -2.590000000000000E-002    8.904244943231357E-018
 -2.580000000000000E-002    3.292065523541194E-017
 -2.570000000000000E-002    5.901970218171804E-017
 -2.560000000000000E-002    8.448768638203425E-017
 -2.550000000000000E-002    1.060158158142878E-016
 -2.540000000000000E-002    1.199668988796480E-016
 -2.530000000000000E-002    1.227460006048673E-016
 -2.520000000000000E-002    1.112525502122099E-016
 -2.510000000000000E-002    8.337636103380484E-017
 -2.500000000000000E-002    3.848606901454430E-017
 -2.490000000000000E-002   -2.215189523114042E-017
 -2.480000000000000E-002   -9.509036972165099E-017
 -2.470000000000000E-002   -1.746187189581843E-016
 -2.460000000000000E-002   -2.529337850081916E-016
 -2.450000000000000E-002   -3.205977374632671E-016
 -2.440000000000000E-002   -3.672885190537740E-016
 -2.430000000000000E-002   -3.828141527700995E-016
 -2.420000000000000E-002   -3.583247214399126E-016
 -2.410000000000000E-002   -2.876189010635105E-016
 -2.400000000000000E-002   -1.684101849155439E-016
 -2.390000000000000E-002   -3.396556907377607E-018
 -2.380000000000000E-002    1.990293338241665E-016
 -2.370000000000000E-002    4.245815094986949E-016
 -2.360000000000000E-002    6.535137393254110E-016
 -2.350000000000000E-002    8.617526575078179E-016
 -2.340000000000000E-002    1.022732148530271E-015
 -2.330000000000000E-002    1.109847149961936E-015
 -2.320000000000000E-002    1.099360630195793E-015
 -2.310000000000000E-002    9.735161676972614E-016
 -2.300000000000000E-002    7.235424321703625E-016
 -2.290000000000000E-002    3.521944298414589E-016
 -2.280000000000000E-002   -1.245299489299073E-016
 -2.270000000000000E-002   -6.768264608057609E-016
 -2.260000000000000E-002   -1.261927033639425E-015
 -2.250000000000000E-002   -1.826481133232512E-015
 -2.240000000000000E-002   -2.310463472306887E-015
 -2.230000000000000E-002   -2.652418209791922E-015
 -2.220000000000000E-002   -2.795673539216849E-015
 -2.210000000000000E-002   -2.695003866675237E-015
 -2.200000000000000E-002   -2.323078621935212E-015
 -2.190000000000000E-002   -1.675973039813611E-015
 -2.180000000000000E-002   -7.770091266411113E-016
 -2.170000000000000E-002    3.217289745242096E-016
 -2.160000000000000E-002    1.540694051367283E-015
 -2.150000000000000E-002    2.777247914949460E-015
 -2.140000000000000E-002    3.913065492401604E-015
 -2.130000000000000E-002    4.824196274925020E-015
 -2.120000000000000E-002    5.393070638930258E-015
 -2.110000000000000E-002    5.521448596845091E-015
 -2.100000000000000E-002    5.143056236003002E-015
 -2.090000000000000E-002    4.234550348464985E-015
 -2.080000000000000E-002    2.823435728978014E-015
 -2.070000000000000E-002    9.917208594512416E-016
 -2.060000000000000E-002   -1.125608763293591E-015
 -2.050000000000000E-002   -3.347793930174031E-015
 -2.040000000000000E-002   -5.461134036390235E-015
 -2.030000000000000E-002   -7.236828954181689E-015
 -2.020000000000000E-002   -8.452594537901874E-015
 -2.010000000000000E-002   -8.916303058323320E-015
 -2.000000000000000E-002   -8.489477240203292E-015
 -1.990000000000000E-002   -7.108228329635801E-015
 -1.980000000000000E-002   -4.799220333588611E-015
 -1.970000000000000E-002   -1.688462769834883E-015
 -1.960000000000000E-002    1.998812357989708E-015
 -1.950000000000000E-002    5.948214196584723E-015
 -1.940000000000000E-002    9.776356836997283E-015
 -1.930000000000000E-002    1.306037430269748E-014
 -1.920000000000000E-002    1.537493141360570E-014
 -1.910000000000000E-002    1.633406115148673E-014
 -1.900000000000000E-002    1.563432731368372E-014
 -1.890000000000000E-002    1.309536398733142E-014
 -1.880000000000000E-002    8.693619699394032E-015
 -1.870000000000000E-002    2.585353383777488E-015
 -1.860000000000000E-002   -4.884488651310763E-015
 -1.850000000000000E-002   -1.319000501742214E-014
 -1.840000000000000E-002   -2.164981789143363E-014
 -1.830000000000000E-002   -2.947006621642090E-014
 -1.820000000000000E-002   -3.580300997289033E-014
 -1.810000000000000E-002   -3.981775684805154E-014
 -1.800000000000000E-002   -4.077819782139563E-014
 -1.790000000000000E-002   -3.812205416078069E-014
 -1.780000000000000E-002   -3.153419972762532E-014
 -1.770000000000000E-002   -2.100714253287220E-014
 -1.760000000000000E-002   -6.881867461321569E-015
 -1.750000000000000E-002    1.013678880324061E-014
 -1.740000000000000E-002    2.899464804758196E-014
 -1.730000000000000E-002    4.833485058924328E-014
 -1.720000000000000E-002    6.657650948210272E-014
 -1.710000000000000E-002    8.202253508101060E-014
 -1.700000000000000E-002    9.299086328404260E-014
 -1.690000000000000E-002    9.796082897618611E-014
 -1.680000000000000E-002    9.572383690706520E-014
 -1.670000000000000E-002    8.552613893966015E-014
 -1.660000000000000E-002    6.719029962221268E-014
 -1.650000000000000E-002    4.120231606921302E-014
 -1.640000000000000E-002    8.752515369992775E-015
 -1.630000000000000E-002   -2.827938189379375E-014
 -1.620000000000000E-002   -6.740055222915104E-014
 -1.610000000000000E-002   -1.056443198029770E-013
 -1.600000000000000E-002   -1.397680072233853E-013
 -1.590000000000000E-002   -1.664996376505190E-013
 -1.580000000000000E-002   -1.828181437270862E-013
 -1.570000000000000E-002   -1.862462807758295E-013
 -1.560000000000000E-002   -1.751319104790897E-013
 -1.550000000000000E-002   -1.488907930454998E-013
 -1.540000000000000E-002   -1.081842121771850E-013
 -1.530000000000000E-002   -5.500649592308534E-014
 -1.520000000000000E-002    7.336727699050504E-015
 -1.510000000000000E-002    7.437165295121511E-014
 -1.500000000000000E-002    1.407234358093809E-013
 -1.490000000000000E-002    2.004980908901358E-013
 -1.480000000000000E-002    2.477582731616613E-013
 -1.470000000000000E-002    2.770605249799502E-013
 -1.460000000000000E-002    2.840113718370325E-013
 -1.450000000000000E-002    2.657918782881127E-013
 -1.440000000000000E-002    2.215982394902383E-013
 -1.430000000000000E-002    1.529451567721541E-013
 -1.420000000000000E-002    6.378725570879594E-014
 -1.410000000000000E-002   -3.957526374733122E-014
 -1.400000000000000E-002   -1.488235299203649E-013
 -1.390000000000000E-002   -2.541764103704631E-013
 -1.380000000000000E-002   -3.451496384713192E-013
 -1.370000000000000E-002   -4.114689535319332E-013
 -1.360000000000000E-002   -4.440670122793438E-013
 -1.350000000000000E-002   -4.360782269388024E-013
 -1.340000000000000E-002   -3.837354750353330E-013
 -1.330000000000000E-002   -2.870701484960558E-013
 -1.320000000000000E-002   -1.503277721703177E-013
 -1.310000000000000E-002    1.797296515287129E-014
 -1.300000000000000E-002    2.053828907190380E-013
 -1.290000000000000E-002    3.962770039376951E-013
 -1.280000000000000E-002    5.729917386623728E-013
 -1.270000000000000E-002    7.172770737827640E-013
 -1.260000000000000E-002    8.119559182386474E-013
 -1.250000000000000E-002    8.426542538330255E-013
 -1.240000000000000E-002    7.994427083762024E-013
 -1.230000000000000E-002    6.782247856737811E-013
 -1.220000000000000E-002    4.817142010340060E-013
 -1.210000000000000E-002    2.198677723730411E-013
 -1.200000000000000E-002   -9.031867748097740E-014
 -1.190000000000000E-002   -4.256938422967057E-013
 -1.180000000000000E-002   -7.584925992216169E-013
 -1.170000000000000E-002   -1.058453676540759E-012
 -1.160000000000000E-002   -1.295366958518878E-012
 -1.150000000000000E-002   -1.441851779527667E-012
 -1.140000000000000E-002   -1.476127759399555E-012
 -1.130000000000000E-002   -1.384524026225533E-012
 -1.120000000000000E-002   -1.163469081020324E-012
 -1.110000000000000E-002   -8.207431464643722E-013
 -1.100000000000000E-002   -3.758051818112966E-013
 -1.090000000000000E-002    1.408987718305412E-013
 -1.080000000000000E-002    6.896726275000920E-013
 -1.070000000000000E-002    1.224283616080646E-012
 -1.060000000000000E-002    1.695481248499308E-012
 -1.050000000000000E-002    2.055079188305872E-012
 -1.040000000000000E-002    2.260285289594033E-012
 -1.030000000000000E-002    2.277919788132785E-012
 -1.020000000000000E-002    2.088152337827834E-012
 -1.010000000000000E-002    1.687397203191857E-012
 -1.000000000000000E-002    1.090069703906849E-012
 -9.899999999999999E-003    3.289539843156871E-013
 -9.800000000000000E-003   -5.459267372531040E-013
 -9.699999999999999E-003   -1.469973402928921E-012
 -9.599999999999999E-003   -2.368089476459164E-012
 -9.500000000000000E-003   -3.159950700626534E-012
 -9.399999999999999E-003   -3.766128320915492E-012
 -9.299999999999999E-003   -4.114642260108928E-012
 -9.200000000000000E-003   -4.147462495526732E-012
 -9.099999999999999E-003   -3.826440757913740E-012
 -8.999999999999999E-003   -3.138178221552973E-012
 -8.900000000000000E-003   -2.097376207231607E-012
 -8.799999999999999E-003   -7.482901227132963E-013
 -8.699999999999999E-003    8.359668258053951E-013
 -8.600000000000000E-003    2.556393615102187E-012
 -8.499999999999999E-003    4.293308696842572E-012
 -8.399999999999999E-003    5.913601314521136E-012
 -8.300000000000000E-003    7.279655533280401E-012
 -8.199999999999999E-003    8.259453098524824E-012
 -8.100000000000000E-003    8.737187908002702E-012
 -8.000000000000000E-003    8.623665883572828E-012
 -7.899999999999999E-003    7.865689318001574E-012
 -7.800000000000000E-003    6.453615779790798E-012
 -7.699999999999999E-003    4.426331906781277E-012
 -7.599999999999999E-003    1.872999767411977E-012
 -7.499999999999999E-003   -1.068912102738809E-012
 -7.399999999999999E-003   -4.219559423307289E-012
 -7.299999999999999E-003   -7.366584550326831E-012
 -7.199999999999999E-003   -1.027857534795167E-011
 -7.100000000000000E-003   -1.272146188148958E-011
 -6.999999999999999E-003   -1.447682151238992E-011
 -6.899999999999999E-003   -1.536083229742436E-011
 -6.800000000000000E-003   -1.524238399403416E-011
 -6.699999999999999E-003   -1.405870142838861E-011
 -6.599999999999999E-003   -1.182684936489359E-011
 -6.499999999999999E-003   -8.649661283961926E-012
 -6.399999999999999E-003   -4.714888796631727E-012
 -6.299999999999999E-003   -2.868468483142450E-013
 -6.199999999999999E-003    4.309574600771620E-012
 -6.100000000000000E-003    8.712008307242316E-012
 -5.999999999999999E-003    1.254955154100735E-011
 -5.899999999999999E-003    1.547552223194552E-011
 -5.800000000000000E-003    1.720149908925329E-011
 -5.699999999999999E-003    1.752947039331311E-011
 -5.599999999999999E-003    1.637888788964209E-011
 -5.499999999999999E-003    1.380533812782918E-011
 -5.399999999999999E-003    1.000802720573653E-011
 -5.299999999999999E-003    5.323972657905189E-012
 -5.199999999999999E-003    2.078688462227776E-013
 -5.099999999999999E-003   -4.802102439100651E-012
 -4.999999999999999E-003   -9.130882948169248E-012
 -4.899999999999999E-003   -1.222232397127193E-011
 -4.799999999999999E-003   -1.359975349200590E-011
 -4.699999999999999E-003   -1.292555544315191E-011
 -4.599999999999999E-003   -1.005384393612394E-011
 -4.499999999999999E-003   -5.069700190025271E-012
 -4.399999999999999E-003    1.690614822371477E-012
 -4.299999999999999E-003    9.643016638813791E-012
 -4.199999999999999E-003    1.798515937921569E-011
 -4.099999999999999E-003    2.575256614672308E-011
 -3.999999999999999E-003    3.189895417640879E-011
 -3.899999999999999E-003    3.539556522712376E-011
 -3.799999999999999E-003    3.534187283110523E-011
 -3.699999999999999E-003    3.107767776820424E-011
 -3.599999999999999E-003    2.228549136742900E-011
 -3.499999999999999E-003    9.071414426355044E-012
 -3.399999999999999E-003   -7.986280295175086E-012
 -3.299999999999999E-003   -2.782983735995273E-011
 -3.199999999999999E-003   -4.896184872241499E-011
 -3.099999999999999E-003   -6.953398980081855E-011
 -2.999999999999999E-003   -8.748186756724540E-011
 -2.899999999999999E-003   -1.006979417609635E-010
 -2.799999999999999E-003   -1.072301213638519E-010
 -2.699999999999999E-003   -1.054892157200301E-010
 -2.599999999999999E-003   -9.444620208350753E-011
 -2.499999999999999E-003   -7.379845931893308E-011
 -2.399999999999999E-003   -4.408550644728029E-011
 -2.299999999999999E-003   -6.737395424810387E-012
 -2.199999999999999E-003    3.595627564773267E-011
 -2.099999999999999E-003    8.096224341311523E-011
 -1.999999999999999E-003    1.247019281329158E-010
 -1.899999999999999E-003    1.633215715477457E-010
 -1.799999999999999E-003    1.930158958122403E-010
 -1.699999999999999E-003    2.103790639392913E-010
 -1.599999999999999E-003    2.127523719458209E-010
 -1.499999999999999E-003    1.985352907647256E-010
 -1.399999999999999E-003    1.674265685164949E-010
 -1.299999999999999E-003    1.205665827556123E-010
 -1.199999999999999E-003    6.055838533153829E-011
 -1.099999999999999E-003   -8.644870724097561E-012
 -9.999999999999989E-004   -8.198662246808829E-011
 -8.999999999999990E-004   -1.536756139350654E-010
 -7.999999999999990E-004   -2.176510610839404E-010
 -6.999999999999989E-004   -2.681082993101943E-010
 -5.999999999999990E-004   -3.000389957715171E-010
 -4.999999999999989E-004   -3.097361485448546E-010
 -3.999999999999989E-004   -2.952130502714505E-010
 -2.999999999999989E-004   -2.564902673223429E-010
 -1.999999999999989E-004   -1.957139662780806E-010
 -9.999999999999892E-005   -1.170826862077163E-010
  1.084202172485504E-018   -2.657708094085906E-011
  1.000000000000011E-004    6.849447003352865E-011
  2.000000000000011E-004    1.601022608063482E-010
  3.000000000000011E-004    2.402042185456243E-010
  4.000000000000011E-004    3.014955139982615E-010
  5.000000000000011E-004    3.381272098657462E-010
  6.000000000000011E-004    3.463226216903983E-010
  7.000000000000011E-004    3.248242314379811E-010
  8.000000000000011E-004    2.751171902489944E-010
  9.000000000000012E-004    2.013945926580339E-010
  1.000000000000001E-003    1.102527339210438E-010
  1.100000000000001E-003    1.013173700023121E-011
  1.200000000000001E-003   -8.945653372486344E-011
  1.300000000000001E-003   -1.788475504236503E-010
  1.400000000000001E-003   -2.492048114761782E-010
  1.500000000000001E-003   -2.934651327942979E-010
  1.600000000000001E-003   -3.071490615220997E-010
  1.700000000000001E-003   -2.889449268742031E-010
  1.800000000000001E-003   -2.409908613815788E-010
  1.900000000000001E-003   -1.688071771259353E-010
  2.000000000000001E-003   -8.086312519706651E-011
  2.100000000000001E-003    1.220068448195019E-011
  2.200000000000001E-003    9.863530425175977E-011
  2.300000000000001E-003    1.668394884725673E-010
  2.400000000000001E-003    2.066906793647682E-010
  2.500000000000001E-003    2.108146602341112E-010
  2.600000000000001E-003    1.756547975133382E-010
  2.700000000000001E-003    1.022138228916221E-010
  2.800000000000001E-003   -3.637791135581337E-012
  2.900000000000001E-003   -1.313529881874525E-010
  3.000000000000001E-003   -2.664208071456443E-010
  3.100000000000001E-003   -3.915697994996314E-010
  3.200000000000001E-003   -4.883791528181220E-010
  3.300000000000001E-003   -5.391661600637843E-010
  3.400000000000001E-003   -5.289817668337673E-010
  3.500000000000001E-003   -4.475200330321826E-010
  3.600000000000001E-003   -2.907419309554189E-010
  3.700000000000001E-003   -6.202686743534342E-011
  3.800000000000001E-003    2.273029922635906E-010
  3.900000000000001E-003    5.581905122648865E-010
  4.000000000000001E-003    9.048250719845492E-010
  4.100000000000001E-003    1.236366584670895E-009
  4.200000000000001E-003    1.519309161701777E-009
  4.300000000000001E-003    1.720310048819185E-009
  4.400000000000001E-003    1.809256419361077E-009
  4.500000000000001E-003    1.762300978478676E-009
  4.600000000000002E-003    1.564587616911476E-009
  4.700000000000001E-003    1.212392238067874E-009
  4.800000000000001E-003    7.144497032577232E-010
  4.900000000000002E-003    9.229216719914406E-011
  5.000000000000001E-003   -6.204894880557095E-010
  5.100000000000001E-003   -1.380059060307817E-009
  5.200000000000001E-003   -2.135119790072824E-009
  5.300000000000002E-003   -2.830475520253249E-009
  5.400000000000001E-003   -3.411092198682860E-009
  5.500000000000001E-003   -3.826325170891008E-009
  5.600000000000002E-003   -4.033953583159572E-009
  5.700000000000001E-003   -4.003656974516058E-009
  5.800000000000001E-003   -3.719619940847442E-009
  5.900000000000002E-003   -3.182008984457814E-009
  6.000000000000001E-003   -2.407168016051827E-009
  6.100000000000001E-003   -1.426488821893210E-009
  6.200000000000002E-003   -2.840400069599400E-010
  6.300000000000002E-003    9.668495088236327E-010
  6.400000000000001E-003    2.267748612270550E-009
  6.500000000000001E-003    3.559643563688233E-009
  6.600000000000002E-003    4.787392474944451E-009
  6.700000000000001E-003    5.903691482509270E-009
  6.800000000000001E-003    6.872155675762680E-009
  6.900000000000002E-003    7.669210482469563E-009
  7.000000000000001E-003    8.284584575106975E-009
  7.100000000000001E-003    8.720345925309689E-009
  7.200000000000002E-003    8.988557957185097E-009
  7.300000000000002E-003    9.107791483511239E-009
  7.400000000000001E-003    9.098843972069288E-009
  7.500000000000001E-003    8.980125491670469E-009
  7.600000000000002E-003    8.763232402505811E-009
  7.700000000000001E-003    8.449230162756291E-009
  7.800000000000001E-003    8.026136555314028E-009
  7.900000000000001E-003    7.467996179602346E-009
  8.000000000000002E-003    6.735818251495068E-009
  8.100000000000001E-003    5.780462415325375E-009
  8.200000000000001E-003    4.547390996810699E-009
  8.300000000000002E-003    2.983020427777984E-009
  8.400000000000001E-003    1.042233841856111E-009
  8.500000000000002E-003   -1.303530640005361E-009
  8.600000000000002E-003   -4.058237600585156E-009
  8.700000000000001E-003   -7.193989798154050E-009
  8.800000000000002E-003   -1.064511724908995E-008
  8.900000000000002E-003   -1.430424746901789E-008
  9.000000000000001E-003   -1.802067681671815E-008
  9.100000000000002E-003   -2.160125814186399E-008
  9.200000000000002E-003   -2.481381097623471E-008
  9.300000000000001E-003   -2.739271957807528E-008
  9.400000000000002E-003   -2.904631003091118E-008
  9.500000000000001E-003   -2.946530898352421E-008
  9.600000000000001E-003   -2.833164475909919E-008
  9.700000000000002E-003   -2.532669610552088E-008
  9.800000000000001E-003   -2.013828553141376E-008
  9.900000000000001E-003   -1.246556801017188E-008
  1.000000000000000E-002   -2.021470942808719E-009
  1.010000000000000E-002    1.146786734581913E-008
  1.020000000000000E-002    2.826648709490497E-008
  1.030000000000000E-002    4.863464401013992E-008
  1.040000000000000E-002    7.283719148880525E-008
  1.050000000000000E-002    1.011532138450413E-007
  1.060000000000000E-002    1.338862874545318E-007
  1.070000000000000E-002    1.713744392929166E-007
  1.080000000000000E-002    2.139983713666463E-007
  1.090000000000000E-002    2.621877870798919E-007
  1.100000000000000E-002    3.164244238328747E-007
  1.110000000000000E-002    3.772418763922491E-007
  1.120000000000000E-002    4.452216639323500E-007
  1.130000000000000E-002    5.209861378633542E-007
  1.140000000000000E-002    6.051887524830328E-007
  1.150000000000000E-002    6.985021132375378E-007
  1.160000000000000E-002    8.016056149699887E-007
  1.170000000000000E-002    9.151729892176193E-007
  1.180000000000000E-002    1.039861911990353E-006
  1.190000000000000E-002    1.176306042466665E-006
  1.200000000000000E-002    1.325111532760814E-006
  1.210000000000000E-002    1.486856797143619E-006
  1.220000000000000E-002    1.662097550552391E-006
  1.230000000000000E-002    1.851376983181924E-006
  1.240000000000000E-002    2.055238725185246E-006
  1.250000000000000E-002    2.274243864952579E-006
  1.260000000000000E-002    2.508989597682454E-006
  1.270000000000000E-002    2.760128022878873E-006
  1.280000000000000E-002    3.028384404317548E-006
  1.290000000000000E-002    3.314572005073989E-006
  1.300000000000000E-002    3.619605181170742E-006
  1.310000000000000E-002    3.944505397210340E-006
  1.320000000000000E-002    4.290403959928572E-006
  1.330000000000000E-002    4.658538897841905E-006
  1.340000000000000E-002    5.050247300117897E-006
  1.350000000000000E-002    5.466955123048453E-006
  1.360000000000000E-002    5.910163638099522E-006
  1.370000000000000E-002    6.381435207684710E-006
  1.380000000000000E-002    6.882380315570188E-006
  1.390000000000000E-002    7.414649974642963E-006
  1.400000000000000E-002    7.979927938360448E-006
  1.410000000000000E-002    8.579933610764742E-006
  1.420000000000000E-002    9.216427323235693E-006
  1.430000000000000E-002    9.891223144878647E-006
  1.440000000000000E-002    1.060620890946849E-005
  1.450000000000000E-002    1.136337339288124E-005
  1.460000000000000E-002    1.216482795525656E-005
  1.470000000000000E-002    1.301283984329976E-005
  1.480000000000000E-002    1.390985975706973E-005
  1.490000000000000E-002    1.485854736568400E-005
  1.500000000000000E-002    1.586179090063457E-005
  1.510000000000000E-002    1.692272503620729E-005
  1.520000000000000E-002    1.804473599187130E-005
  1.530000000000000E-002    1.923146126251599E-005
  1.540000000000000E-002    2.048678250621511E-005
  1.550000000000000E-002    2.181481440912303E-005
  1.560000000000000E-002    2.321988502932389E-005
  1.570000000000000E-002    2.470651830976926E-005
  1.580000000000000E-002    2.627940586555460E-005
  1.590000000000000E-002    2.794340365410207E-005
  1.600000000000000E-002    2.970351185292948E-005
  1.610000000000000E-002    3.156486820376004E-005
  1.620000000000000E-002    3.353275851857772E-005
  1.630000000000000E-002    3.561263129809269E-005
  1.640000000000000E-002    3.781011138741018E-005
  1.650000000000000E-002    4.013104293629368E-005
  1.660000000000000E-002    4.258151938517192E-005
  1.670000000000000E-002    4.516792439161789E-005
  1.680000000000000E-002    4.789698922595928E-005
  1.690000000000000E-002    5.077581833551230E-005
  1.700000000000000E-002    5.381193618714576E-005
  1.710000000000000E-002    5.701331873445148E-005
  1.720000000000000E-002    6.038842668125230E-005
  1.730000000000000E-002    6.394620203685719E-005
  1.740000000000000E-002    6.769609488684714E-005
  1.750000000000000E-002    7.164805461972519E-005
  1.760000000000000E-002    7.581250484886451E-005
  1.770000000000000E-002    8.020035874599398E-005
  1.780000000000000E-002    8.482298866292722E-005
  1.790000000000000E-002    8.969223311816597E-005
  1.800000000000000E-002    9.482035624426605E-005
  1.810000000000000E-002    1.002200757112038E-004
  1.820000000000000E-002    1.059045728600797E-004
  1.830000000000000E-002    1.118875101090863E-004
  1.840000000000000E-002    1.181830618256142E-004
  1.850000000000000E-002    1.248059670435656E-004
  1.860000000000000E-002    1.317715663265201E-004
  1.870000000000000E-002    1.390958807148282E-004