 -4.000000000000000E-002    0.000000000000000E+000
 -3.990000000000000E-002    0.000000000000000E+000
 -3.980000000000000E-002    0.000000000000000E+000
 -3.970000000000000E-002    0.000000000000000E+000
 -3.960000000000000E-002    0.000000000000000E+000
 -3.950000000000000E-002    0.000000000000000E+000
 -3.940000000000000E-002    0.000000000000000E+000
 -3.930000000000000E-002    0.000000000000000E+000
 -3.920000000000000E-002    0.000000000000000E+000
 -3.910000000000000E-002    0.000000000000000E+000
 -3.900000000000000E-002    0.000000000000000E+000
 -3.890000000000000E-002    0.000000000000000E+000
 -3.880000000000000E-002    0.000000000000000E+000
 -3.870000000000000E-002   -1.355433931010556E-041
 -3.860000000000000E-002   -3.581714958349669E-040
 -3.850000000000000E-002   -4.877203318504201E-039
 -3.840000000000000E-002   -4.554892835331809E-038
 -3.830000000000000E-002   -3.276626289660124E-037
 -3.820000000000000E-002   -1.933485764868857E-036
 -3.810000000000000E-002   -9.733514642323819E-036
 -3.800000000000000E-002   -4.293235672709630E-035
 -3.790000000000000E-002   -1.691163577462560E-034
 -3.780000000000000E-002   -6.034663668059219E-034
 -3.770000000000000E-002   -1.972004016448103E-033
 -3.760000000000000E-002   -5.951269009237799E-033
 -3.750000000000000E-002   -1.669580149920170E-032
 -3.740000000000000E-002   -4.376182938584058E-032
 -3.730000000000000E-002   -1.075737882655872E-031
 -3.720000000000000E-002   -2.486271869440664E-031
 -3.710000000000000E-002   -5.409927174275656E-031
 -3.700000000000000E-002   -1.108101664562480E-030
 -3.690000000000000E-002   -2.132228955353943E-030
 -3.680000000000000E-002   -3.835573995830813E-030
 -3.670000000000000E-002   -6.386813464281805E-030
 -3.660000000000000E-002   -9.649586267571020E-030
 -3.650000000000000E-002   -1.263923385938382E-029
 -3.640000000000000E-002   -1.250031681037478E-029
 -3.630000000000000E-002   -2.784803683618587E-030
 -3.620000000000000E-002    2.915131826688755E-029
 -3.610000000000000E-002    1.056248477154559E-028
 -3.600000000000000E-002    2.625072527276051E-028
 -3.590000000000000E-002    5.521717508092555E-028
 -3.580000000000000E-002    1.042750620408795E-027
 -3.570000000000000E-002    1.808935742497342E-027
 -3.560000000000000E-002    2.907086081310043E-027
 -3.550000000000000E-002    4.324956194418260E-027
 -3.540000000000000E-002    5.894951125037211E-027
 -3.530000000000000E-002    7.161121281979367E-027
 -3.520000000000000E-002    7.196599407646821E-027
 -3.510000000000000E-002    4.382879200075088E-027
 -3.500000000000000E-002   -3.811610471978636E-027
 -3.490000000000000E-002   -2.097649994605649E-026
 -3.480000000000000E-002   -5.169783059688622E-026
 -3.470000000000000E-002   -1.010978926516607E-025
 -3.460000000000000E-002   -1.737262744721423E-025
 -3.450000000000000E-002   -2.715181966109173E-025
 -3.440000000000000E-002   -3.905588798137309E-025
 -3.430000000000000E-002   -5.165143312807719E-025
 -3.420000000000000E-002   -6.188556086235523E-025
 -3.410000000000000E-002   -6.444594545352517E-025
 -3.400000000000000E-002   -5.118362408932361E-025
 -3.390000000000000E-002   -1.080994724767199E-025
 -3.380000000000000E-002    7.082341258026341E-025
 -3.370000000000000E-002    2.094611500922420E-024
 -3.360000000000000E-002    4.197411657005627E-024
 -3.350000000000000E-002    7.106128057151587E-024
 -3.340000000000000E-002    1.078579608282459E-023
 -3.330000000000000E-002    1.498784680268795E-023
 -3.320000000000000E-002    1.914490664566440E-023
 -3.310000000000000E-002    2.226274385122984E-023
 -3.300000000000000E-002    2.283233350416930E-023
 -3.290000000000000E-002    1.879600176944007E-023
 -3.280000000000000E-002    7.611921886922841E-024
 -3.270000000000000E-002   -1.353164438753853E-023
 -3.260000000000000E-002   -4.730094956627609E-023
 -3.250000000000000E-002   -9.555982204248051E-023
 -3.240000000000000E-002   -1.584573796247369E-022
 -3.230000000000000E-002   -2.332920060543368E-022
 -3.220000000000000E-002   -3.132486295657299E-022
 -3.210000000000000E-002   -3.861896781681976E-022
 -3.200000000000000E-002   -4.337736583195768E-022
 -3.190000000000000E-002   -4.312657801430238E-022
 -3.180000000000000E-002   -3.484727317446761E-022
 -3.170000000000000E-002   -1.522513783960019E-022
 -3.160000000000000E-002    1.890190428964252E-022
 -3.150000000000000E-002    6.987803170029919E-022
 -3.140000000000000E-002    1.383531931471084E-021
 -3.130000000000000E-002    2.222475697715961E-021
 -3.120000000000000E-002    3.156643221279947E-021
 -3.110000000000000E-002    4.079219491220807E-021
 -3.100000000000000E-002    4.829409513932393E-021
 -3.090000000000000E-002    5.192701049374863E-021
 -3.080000000000000E-002    4.910608766676626E-021
 -3.070000000000000E-002    3.702763768311512E-021
 -3.060000000000000E-002    1.303369752527219E-021
 -3.050000000000000E-002   -2.487528838902779E-021
 -3.040000000000000E-002   -7.739908474554425E-021
 -3.030000000000000E-002   -1.432180314626407E-020
 -3.020000000000000E-002   -2.182814735464521E-020
 -3.010000000000000E-002   -2.952273950264756E-020
 -3.000000000000000E-002   -3.630874866398545E-020
 -2.990000000000000E-002   -4.074503071958110E-020
 -2.980000000000000E-002   -4.112515319003250E-020
 -2.970000000000000E-002   -3.563270088467356E-020
 -2.960000000000000E-002   -2.257944517066982E-020
 -2.950000000000000E-002   -7.219867198982957E-022
 -2.940000000000000E-002    3.036202242686090E-020
 -2.930000000000000E-002    6.987434779513398E-020
 -2.920000000000000E-002    1.154275735905716E-019
 -2.910000000000000E-002    1.627780400206318E-019
 -2.900000000000000E-002    2.057418414138654E-019
 -2.890000000000000E-002    2.363775671194309E-019
 -2.880000000000000E-002    2.455087675324361E-019
 -2.870000000000000E-002    2.236327996259546E-019
 -2.860000000000000E-002    1.622195808903390E-019
 -2.850000000000000E-002    5.534369985790959E-020
 -2.840000000000000E-002   -9.847876662894639E-020
 -2.830000000000000E-002   -2.944553749048956E-019
 -2.820000000000000E-002   -5.199646060114244E-019
 -2.810000000000000E-002   -7.536202807680056E-019
 -2.800000000000000E-002   -9.653113919722080E-019
 -2.790000000000000E-002   -1.117549772448786E-018
 -2.780000000000000E-002   -1.168373950607544E-018
 -2.770000000000000E-002   -1.075905755640032E-018
 -2.760000000000000E-002   -8.044400947512856E-019
 -2.750000000000000E-002   -3.316773752990399E-019
 -2.740000000000000E-002    3.435917934385627E-019
 -2.730000000000000E-002    1.194332454366991E-018
 -2.720000000000000E-002    2.159867389437450E-018
 -2.710000000000000E-002    3.143592089928441E-018
 -2.700000000000000E-002    4.015136388122956E-018
 -2.690000000000000E-002    4.618070681690523E-018
 -2.680000000000000E-002    4.783792949563490E-018
 -2.670000000000000E-002    4.351519540801260E-018
 -2.660000000000000E-002    3.193398098818706E-018
 -2.650000000000000E-002    1.242712730497801E-018
 -2.640000000000000E-002   -1.477908741158469E-018
 -2.630000000000000E-002   -4.832312727782815E-018
 -2.620000000000000E-002   -8.555310817779273E-018
 -2.610000000000000E-002   -1.225063292468478E-017
 -2.600000000000000E-002   -1.540662458266135E-017
 -2.590000000000000E-002   -1.743269394569467E-017
 -2.580000000000000E-002   -1.771745039421086E-017
 -2.570000000000000E-002   -1.570669542761282E-017
 -2.560000000000000E-002   -1.099609043416032E-017
 -2.550000000000000E-002   -3.429825333710339E-018
 -2.540000000000000E-002    6.806671968250863E-018
 -2.530000000000000E-002    1.911444744970082E-017
 -2.520000000000000E-002    3.244478288897250E-017
 -2.510000000000000E-002    4.531395239393490E-017
 -2.500000000000000E-002    5.588095214001725E-017
 -2.490000000000000E-002    6.209480219294222E-017
 -2.480000000000000E-002    6.191026641599275E-017
 -2.470000000000000E-002    5.356123551461462E-017
 -2.460000000000000E-002    3.587033244042247E-017
 -2.450000000000000E-002    8.562886352259338E-018
 -2.440000000000000E-002   -2.745553709990760E-017
 -2.430000000000000E-002   -6.990434345969676E-017
 -2.420000000000000E-002   -1.150629696327955E-016
 -2.410000000000000E-002   -1.578774759778702E-016
 -2.400000000000000E-002   -1.922680319274662E-016
 -2.390000000000000E-002   -2.116474734410489E-016
 -2.380000000000000E-002   -2.096356738054401E-016
 -2.370000000000000E-002   -1.809251804551984E-016
 -2.360000000000000E-002   -1.222229797824283E-016
 -2.350000000000000E-002   -3.316531058155682E-017
 -2.340000000000000E-002    8.291852831185444E-017
 -2.330000000000000E-002    2.185270967915733E-016
 -2.320000000000000E-002    3.619205587517987E-016
 -2.310000000000000E-002    4.975719151935482E-016
 -2.300000000000000E-002    6.071981153116468E-016
 -2.290000000000000E-002    6.713733031633130E-016
 -2.280000000000000E-002    6.716530471449317E-016
 -2.270000000000000E-002    5.930573775664864E-016
 -2.260000000000000E-002    4.266817314890336E-016
 -2.250000000000000E-002    1.721381110454580E-016
 -2.240000000000000E-002   -1.605145855607609E-016
 -2.230000000000000E-002   -5.497005575554573E-016
 -2.220000000000000E-002   -9.624342924934055E-016
 -2.210000000000000E-002   -1.355841078440257E-015
 -2.200000000000000E-002   -1.680200543218411E-015
 -2.190000000000000E-002   -1.883455517675296E-015
 -2.180000000000000E-002   -1.916936579071575E-015
 -2.170000000000000E-002   -1.741849920461393E-015
 -2.160000000000000E-002   -1.335891429600179E-015
 -2.150000000000000E-002   -6.992073728077730E-016
 -2.140000000000000E-002    1.411530987454602E-016
 -2.130000000000000E-002    1.129129740982460E-015
 -2.120000000000000E-002    2.180601225455094E-015
 -2.110000000000000E-002    3.187870323155253E-015
 -2.100000000000000E-002    4.027821573795251E-015
 -2.090000000000000E-002    4.573470190885506E-015
 -2.080000000000000E-002    4.708152409083188E-015
 -2.070000000000000E-002    4.341152646231827E-015
 -2.060000000000000E-002    3.423159770285849E-015
 -2.050000000000000E-002    1.959673918946878E-015
 -2.040000000000000E-002    2.038779225984069E-017
 -2.030000000000000E-002   -2.257307531943162E-015
 -2.020000000000000E-002   -4.672170724124907E-015
 -2.010000000000000E-002   -6.971172558419540E-015
 -2.000000000000000E-002   -8.869804900956631E-015
 -1.990000000000000E-002   -1.007968880721408E-014
 -1.980000000000000E-002   -1.034150376312753E-014
 -1.970000000000000E-002   -9.460278247313181E-015
 -1.960000000000000E-002   -7.339305995325523E-015
 -1.950000000000000E-002   -4.008460519922317E-015
 -1.940000000000000E-002    3.573648418085929E-016
 -1.930000000000000E-002    5.433519508795287E-015
 -1.920000000000000E-002    1.075742942094888E-014
 -1.910000000000000E-002    1.575839852646791E-014
 -1.900000000000000E-002    1.980490315872803E-014
 -1.890000000000000E-002    2.226679776338497E-014
 -1.880000000000000E-002    2.258769015945131E-014
 -1.870000000000000E-002    2.036080802674670E-014
 -1.860000000000000E-002    1.540020503533385E-014
 -1.850000000000000E-002    7.798405431707840E-015
 -1.840000000000000E-002   -2.038255437847107E-015
 -1.830000000000000E-002   -1.338415407428582E-014
 -1.820000000000000E-002   -2.522406497686326E-014
 -1.810000000000000E-002   -3.632013266041578E-014
 -1.800000000000000E-002   -4.531432893210767E-014
 -1.790000000000000E-002   -5.086031230470884E-014
 -1.780000000000000E-002   -5.177438665882427E-014
 -1.770000000000000E-002   -4.719154748510741E-014
 -1.760000000000000E-002   -3.671002394467832E-014
 -1.750000000000000E-002   -2.050654328215821E-014
 -1.740000000000000E-002    5.947171541948500E-016
 -1.730000000000000E-002    2.511385254718875E-014
 -1.720000000000000E-002    5.097726718364121E-014
 -1.710000000000000E-002    7.565329308320803E-014
 -1.700000000000000E-002    9.635702066376855E-014
 -1.690000000000000E-002    1.103116983856083E-013
 -1.680000000000000E-002    1.150462832816300E-013
 -1.670000000000000E-002    1.087018637580583E-013
 -1.660000000000000E-002    9.031519830089635E-014
 -1.650000000000000E-002    6.004571577215329E-014
 -1.640000000000000E-002    1.931415569435823E-014
 -1.630000000000000E-002   -2.917379553772762E-014
 -1.620000000000000E-002   -8.153646039379631E-014
 -1.610000000000000E-002   -1.329635369803174E-013
 -1.600000000000000E-002   -1.780935245816377E-013
 -1.590000000000000E-002   -2.114981574592703E-013
 -1.580000000000000E-002   -2.282364072178837E-013
 -1.570000000000000E-002   -2.244287648551472E-013
 -1.560000000000000E-002   -1.977941567230204E-013
 -1.550000000000000E-002   -1.480888307207307E-013
 -1.540000000000000E-002   -7.738952068120181E-014
 -1.530000000000000E-002    9.827773366626543E-015
 -1.520000000000000E-002    1.068463033209439E-013
 -1.510000000000000E-002    2.051168477576323E-013
 -1.500000000000000E-002    2.949037291727071E-013
 -1.490000000000000E-002    3.661306786707401E-013
 -1.480000000000000E-002    4.093637123929518E-013
 -1.470000000000000E-002    4.168467900986333E-013
 -1.460000000000000E-002    3.834910068581553E-013
 -1.450000000000000E-002    3.077111044153427E-013
 -1.440000000000000E-002    1.920067114527511E-013
 -1.430000000000000E-002    4.319967120088605E-014
 -1.420000000000000E-002   -1.277367183138197E-013
 -1.410000000000000E-002   -3.062866345411980E-013
 -1.400000000000000E-002   -4.754284899462145E-013
 -1.390000000000000E-002   -6.170451892398932E-013
 -1.380000000000000E-002   -7.136099782650857E-013
 -1.370000000000000E-002   -7.500114400242702E-013
 -1.360000000000000E-002   -7.153515050463826E-013
 -1.350000000000000E-002   -6.045347905395426E-013
 -1.340000000000000E-002   -4.194668354647918E-013
 -1.330000000000000E-002   -1.696972145115346E-013
 -1.320000000000000E-002    1.276212422139246E-013
 -1.310000000000000E-002    4.485322458292495E-013
 -1.300000000000000E-002    7.638451830280866E-013
 -1.290000000000000E-002    1.041408881325749E-012
 -1.280000000000000E-002    1.248948541134756E-012
 -1.270000000000000E-002    1.357253347590850E-012
 -1.260000000000000E-002    1.343442186573115E-012
 -1.250000000000000E-002    1.193995957792371E-012
 -1.240000000000000E-002    9.072303675953660E-013
 -1.230000000000000E-002    4.948988662615100E-013
 -1.220000000000000E-002   -1.733642219631560E-014
 -1.210000000000000E-002   -5.907493118690994E-013
 -1.200000000000000E-002   -1.175786406697701E-012
 -1.190000000000000E-002   -1.715646248521640E-012
 -1.180000000000000E-002   -2.151014410350846E-012
 -1.170000000000000E-002   -2.425629676306928E-012
 -1.160000000000000E-002   -2.492237510921944E-012
 -1.150000000000000E-002   -2.318391801862242E-012
 -1.140000000000000E-002   -1.891514720914459E-012
 -1.130000000000000E-002   -1.222621516692174E-012
 -1.120000000000000E-002   -3.481767624809469E-013
 -1.110000000000000E-002    6.703373466087321E-013
 -1.100000000000000E-002    1.749387916548925E-012
 -1.090000000000000E-002    2.788916751526304E-012
 -1.080000000000000E-002    3.680202740604114E-012
 -1.070000000000000E-002    4.315577835599710E-012
 -1.060000000000000E-002    4.599261869917126E-012
 -1.050000000000000E-002    4.458384135525417E-012
 -1.040000000000000E-002    3.853115824963731E-012
 -1.030000000000000E-002    2.784788160856006E-012
 -1.020000000000000E-002    1.300930848177583E-012
 -1.010000000000000E-002   -5.036633836117288E-013
 -1.000000000000000E-002   -2.490459114542847E-012
 -9.899999999999999E-003   -4.485508612438108E-012
 -9.800000000000000E-003   -6.292362244771209E-012
 -9.699999999999999E-003   -7.708836193983358E-012
 -9.599999999999999E-003   -8.546434902656462E-012
 -9.500000000000000E-003   -8.650799514344268E-012
 -9.399999999999999E-003   -7.921250635085778E-012
 -9.299999999999999E-003   -6.327335141286254E-012
 -9.200000000000000E-003   -3.920337661789486E-012
 -9.099999999999999E-003   -8.379732376950051E-013
 -8.999999999999999E-003    2.699045663574913E-012
 -8.900000000000000E-003    6.399203417553071E-012
 -8.799999999999999E-003    9.920954444388025E-012
 -8.699999999999999E-003    1.290098702788233E-011
 -8.600000000000000E-003    1.498798859188891E-011
 -8.499999999999999E-003    1.587912086057407E-011
 -8.399999999999999E-003    1.535579626148053E-011
 -8.300000000000000E-003    1.331501373656911E-011
 -8.199999999999999E-003    9.792533094558290E-012
 -8.100000000000000E-003    4.974570734252494E-012
 -8.000000000000000E-003   -8.044880267249979E-013
 -7.899999999999999E-003   -7.079717728155700E-012
 -7.800000000000000E-003   -1.328852565161178E-011
 -7.699999999999999E-003   -1.881708439499326E-011
 -7.599999999999999E-003   -2.305703509820425E-011
 -7.499999999999999E-003   -2.546772193152386E-011
 -7.399999999999999E-003   -2.563812646376760E-011
 -7.299999999999999E-003   -2.334203689220338E-011
 -7.199999999999999E-003   -1.857999038490666E-011
 -7.100000000000000E-003   -1.160221884434204E-011
 -6.999999999999999E-003   -2.908158312961935E-012
 -6.899999999999999E-003    6.779892136681051E-012
 -6.800000000000000E-003    1.656895588686058E-011
 -6.699999999999999E-003    2.547064549985363E-011
 -6.599999999999999E-003    3.249405955356910E-011
 -6.499999999999999E-003    3.674839097452492E-011
 -6.399999999999999E-003    3.754547957592115E-011
 -6.299999999999999E-003    3.449155981255937E-011
 -6.199999999999999E-003    2.755741595712337E-011
 -6.100000000000000E-003    1.711738122443090E-011
 -5.999999999999999E-003    3.949910031939498E-012
 -5.899999999999999E-003   -1.080423523979426E-011
 -5.800000000000000E-003   -2.572604329482263E-011
 -5.699999999999999E-003   -3.923995937392455E-011
 -5.599999999999999E-003   -4.976415751218771E-011
 -5.499999999999999E-003   -5.587639739895729E-011
 -5.399999999999999E-003   -5.647955975659615E-011
 -5.299999999999999E-003   -5.094935077972504E-011
 -5.199999999999999E-003   -3.924691141642706E-011
 -5.099999999999999E-003   -2.198105424023019E-011
 -4.999999999999999E-003   -4.086564020482579E-013
 -4.899999999999999E-003    2.363279267400715E-011
 -4.799999999999999E-003    4.785996749794068E-011
 -4.699999999999999E-003    6.973809101822787E-011
 -4.599999999999999E-003    8.672029302019733E-011
 -4.499999999999999E-003    9.651108331673859E-011
 -4.399999999999999E-003    9.732881553749853E-011
 -4.299999999999999E-003    8.813956618269835E-011
 -4.199999999999999E-003    6.883552632166798E-011
 -4.099999999999999E-003    4.033427911306986E-011
 -3.999999999999999E-003    4.581465559997350E-012
 -3.899999999999999E-003   -3.555207351133007E-011
 -3.799999999999999E-003   -7.647744761177908E-011
 -3.699999999999999E-003   -1.141869223530566E-010
 -3.599999999999999E-003   -1.446223636371915E-010
 -3.499999999999999E-003   -1.640809519480888E-010
 -3.399999999999999E-003   -1.696196319368910E-010
 -3.299999999999999E-003   -1.594167732757572E-010
 -3.199999999999999E-003   -1.330502944587757E-010
 -3.099999999999999E-003   -9.165713224885291E-011
 -2.999999999999999E-003   -3.794803790641771E-011
 -2.899999999999999E-003    2.393524387904257E-011
 -2.799999999999999E-003    8.871831917519652E-011
 -2.699999999999999E-003    1.504296673169513E-010
 -2.599999999999999E-003    2.029395947977726E-010
 -2.499999999999999E-003    2.405555120890722E-010
 -2.399999999999999E-003    2.586175218902879E-010
 -2.299999999999999E-003    2.540337073871475E-010
 -2.199999999999999E-003    2.256965531469906E-010
 -2.099999999999999E-003    1.747299121475854E-010
 -1.999999999999999E-003    1.045295402987544E-010
 -1.899999999999999E-003    2.057883550598904E-011
 -1.799999999999999E-003   -6.995686596219239E-011
 -1.699999999999999E-003   -1.588313005923881E-010
 -1.599999999999999E-003   -2.374655931683634E-010
 -1.499999999999999E-003   -2.977778893997945E-010
 -1.399999999999999E-003   -3.330154497835322E-010
 -1.299999999999999E-003   -3.385050137511180E-010
 -1.199999999999999E-003   -3.122402238273569E-010
 -1.099999999999999E-003   -2.552364974753544E-010
 -9.999999999999989E-004   -1.716027419823786E-010
 -8.999999999999990E-004   -6.830543385008208E-011
 -7.999999999999990E-004    4.536974563624054E-011
 -6.999999999999989E-004    1.586222426940369E-010
 -5.999999999999990E-004    2.601409855901680E-010
 -4.999999999999989E-004    3.392186962309534E-010
 -3.999999999999989E-004    3.868689589535482E-010
 -2.999999999999989E-004    3.968326740111041E-010
 -1.999999999999989E-004    3.663649387004946E-010
 -9.999999999999892E-005    2.967091959587920E-010
  1.084202172485504E-018    1.931920489589837E-010
  1.000000000000011E-004    6.490732473377954E-011
  2.000000000000011E-004   -7.600255423200466E-011
  3.000000000000011E-004   -2.154178523228533E-010
  4.000000000000011E-004   -3.385766629743066E-010
  5.000000000000011E-004   -4.315533329390078E-010
  6.000000000000011E-004   -4.827376799079671E-010
  7.000000000000011E-004   -4.841646519861296E-010
  8.000000000000011E-004   -4.325505340369636E-010
  9.000000000000012E-004   -3.299130770450914E-010
  1.000000000000001E-003   -1.836886989326722E-010
  1.100000000000001E-003   -6.305536101826318E-012
  1.200000000000001E-003    1.857761005144380E-010
  1.300000000000001E-003    3.734899239466891E-010
  1.400000000000001E-003    5.369395858860381E-010
  1.500000000000001E-003    6.573658756877070E-010
  1.600000000000001E-003    7.191181597657288E-010
  1.700000000000001E-003    7.114328764187386E-010
  1.800000000000001E-003    6.298294557319597E-010
  1.900000000000001E-003    4.769621177868441E-010
  2.000000000000001E-003    2.628113427253441E-010
  2.100000000000001E-003    4.157995075472128E-012
  2.200000000000001E-003   -2.766488941961341E-010
  2.300000000000001E-003   -5.535489820652507E-010
  2.400000000000001E-003   -7.991041785057331E-010
  2.500000000000001E-003   -9.871059844730704E-010
  2.600000000000001E-003   -1.095216145903689E-009
  2.700000000000001E-003   -1.107383825233047E-009
  2.800000000000001E-003   -1.015790724113727E-009
  2.900000000000001E-003   -8.221085148574873E-010
  3.000000000000001E-003   -5.379097426317371E-010
  3.100000000000001E-003   -1.841458107566185E-010
  3.200000000000001E-003    2.103067028901956E-010
  3.300000000000001E-003    6.109409359069618E-010
  3.400000000000001E-003    9.805790763585950E-010
  3.500000000000001E-003    1.282747065570786E-009
  3.600000000000001E-003    1.485162479400735E-009
  3.700000000000001E-003    1.563009256126607E-009
  3.800000000000001E-003    1.501676263078304E-009
  3.900000000000001E-003    1.298673371598037E-009
  4.000000000000001E-003    9.645034039798707E-010
  4.100000000000001E-003    5.223583756537791E-010
  4.200000000000001E-003    6.611966897085479E-012
  4.300000000000001E-003   -5.398038994362819E-010
  4.400000000000001E-003   -1.068943221122740E-009
  4.500000000000001E-003   -1.532018830705794E-009
  4.600000000000002E-003   -1.883840168428197E-009
  4.700000000000001E-003   -2.087111415561839E-009
  4.800000000000001E-003   -2.116182994753479E-009
  4.900000000000002E-003   -1.959881562852149E-009
  5.000000000000001E-003   -1.623117720703520E-009
  5.100000000000001E-003   -1.127073920466104E-009
  5.200000000000001E-003   -5.078989098990622E-010
  5.300000000000002E-003    1.860242537121271E-010
  5.400000000000001E-003    8.980342581089468E-010
  5.500000000000001E-003    1.568044513163467E-009
  5.600000000000002E-003    2.137870047440999E-009
  5.700000000000001E-003    2.556544725441135E-009
  5.800000000000001E-003    2.785126668490813E-009
  5.900000000000002E-003    2.800523486700222E-009
  6.000000000000001E-003    2.597943556306539E-009
  6.100000000000001E-003    2.191694409547108E-009
  6.200000000000002E-003    1.614203066864079E-009
  6.300000000000002E-003    9.132947691688764E-010
  6.400000000000001E-003    1.479372730943428E-010
  6.500000000000001E-003   -6.171868251586880E-010
  6.600000000000002E-003   -1.317788987354318E-009
  6.700000000000001E-003   -1.896191981074358E-009
  6.800000000000001E-003   -2.307047992032443E-009
  6.900000000000002E-003   -2.521977126809221E-009
  7.000000000000001E-003   -2.532626130914232E-009
  7.100000000000001E-003   -2.351786632491039E-009
  7.200000000000002E-003   -2.012382746494188E-009
  7.300000000000002E-003   -1.564344496580008E-009
  7.400000000000001E-003   -1.069591392146646E-009
  7.500000000000001E-003   -5.955487879073928E-010
  7.600000000000002E-003   -2.077842569699093E-010
  7.700000000000001E-003    3.753216921306234E-011
  7.800000000000001E-003    1.005897686182812E-010
  7.900000000000001E-003   -3.641934915147602E-011
  8.000000000000002E-003   -3.656171227776510E-010
  8.100000000000001E-003   -8.522065975412493E-010
  8.200000000000001E-003   -1.435960399767471E-009
  8.300000000000002E-003   -2.035452916133325E-009
  8.400000000000001E-003   -2.554791942319693E-009
  8.500000000000002E-003   -2.892349220520813E-009
  8.600000000000002E-003   -2.950771786569871E-009
  8.700000000000001E-003   -2.647388076690905E-009
  8.800000000000002E-003   -1.924042626914144E-009
  8.900000000000002E-003   -7.553939722116176E-010
  9.000000000000001E-003    8.452003851890555E-010
  9.100000000000002E-003    2.822900756626819E-009
  9.200000000000002E-003    5.082140251310795E-009
  9.300000000000001E-003    7.491050904212054E-009
  9.400000000000002E-003    9.889357338183577E-009
  9.500000000000001E-003    1.209920976586024E-008
  9.600000000000001E-003    1.393813526164300E-008
  9.700000000000002E-003    1.523307482614876E-008
  9.800000000000001E-003    1.583431710034500E-008
  9.900000000000001E-003    1.562813897532106E-008
  1.000000000000000E-002    1.454702197494498E-008
  1.010000000000000E-002    1.257653643074224E-008
  1.020000000000000E-002    9.758248976525794E-009
  1.030000000000000E-002    6.188382015294164E-009
  1.040000000000000E-002    2.012353995182756E-009
  1.050000000000000E-002   -2.584293314325896E-009
  1.060000000000000E-002   -7.387683448597129E-009
  1.070000000000000E-002   -1.216895345922876E-008
  1.080000000000000E-002   -1.669780807803488E-008
  1.090000000000000E-002   -2.075487692888430E-008
  1.100000000000000E-002   -2.414154198095546E-008
  1.110000000000000E-002   -2.668612956508163E-008
  1.120000000000000E-002   -2.824567548346743E-008
  1.130000000000000E-002   -2.870288558714767E-008
  1.140000000000000E-002   -2.795841131113439E-008
  1.150000000000000E-002   -2.591900237505547E-008
  1.160000000000000E-002   -2.248254506778596E-008
  1.170000000000000E-002   -1.752136198590575E-008
  1.180000000000000E-002   -1.086535807297210E-008
  1.190000000000000E-002   -2.286734613812344E-009
  1.200000000000000E-002    8.512185943150494E-009
  1.210000000000000E-002    2.190659806136162E-008
  1.220000000000000E-002    3.835132986079846E-008
  1.230000000000000E-002    5.837697368470856E-008
  1.240000000000000E-002    8.258000369412272E-008
  1.250000000000000E-002    1.116076394045748E-007
  1.260000000000000E-002    1.461384480934024E-007
  1.270000000000000E-002    1.868604335670410E-007
  1.280000000000000E-002    2.344484975016835E-007
  1.290000000000000E-002    2.895432854746608E-007
  1.300000000000000E-002    3.527333721073019E-007
  1.310000000000000E-002    4.245427436996079E-007
  1.320000000000000E-002    5.054246689820445E-007
  1.330000000000000E-002    5.957628179972440E-007
  1.340000000000000E-002    6.958800720714447E-007
  1.350000000000000E-002    8.060538932407428E-007
  1.360000000000000E-002    9.265378217734902E-007
  1.370000000000000E-002    1.057586475954859E-006
  1.380000000000000E-002    1.199483346804328E-006
  1.390000000000000E-002    1.352567038317628E-006
  1.400000000000000E-002    1.517255783369609E-006
  1.410000000000000E-002    1.694067006560654E-006
  1.420000000000000E-002    1.883629555303307E-006
  1.430000000000000E-002    2.086689926498515E-006
  1.440000000000000E-002    2.304109200953886E-006
  1.450000000000000E-002    2.536853192212882E-006
  1.460000000000000E-002    2.785976500619362E-006
  1.470000000000000E-002    3.052601513770624E-006
  1.480000000000000E-002    3.337894280000628E-006
  1.490000000000000E-002    3.643042566337464E-006
  1.500000000000000E-002    3.969235443495484E-006
  1.510000000000000E-002    4.317647571187715E-006
  1.520000000000000E-002    4.689431555730827E-006
  1.530000000000000E-002    5.085718250810937E-006
  1.540000000000000E-002    5.507625522426560E-006
  1.550000000000000E-002    5.956277043591059E-006
  1.560000000000000E-002    6.432826612885282E-006
  1.570000000000000E-002    6.938490785907416E-006
  1.580000000000000E-002    7.474580136168732E-006
  1.590000000000000E-002    8.042536888940869E-006
  1.600000000000000E-002    8.643964601903290E-006
  1.610000000000000E-002    9.280657797005330E-006
  1.620000000000000E-002    9.954619782065828E-006
  1.630000000000000E-002    1.066807286223677E-005
  1.640000000000000E-002    1.142345917073393E-005
  1.650000000000000E-002    1.222343152544169E-005
  1.660000000000000E-002    1.307083861469732E-005
  1.670000000000000E-002    1.396869792779149E-005
  1.680000000000000E-002    1.492016703138477E-005
  1.690000000000000E-002    1.592851744005231E-005
  1.700000000000000E-002    1.699710803062143E-005
  1.710000000000000E-002    1.812936393770431E-005
  1.720000000000000E-002    1.932876524404609E-005
  1.730000000000000E-002    2.059884517414800E-005
  1.740000000000000E-002    2.194320121814415E-005
  1.750000000000000E-002    2.336551708167463E-005
  1.760000000000000E-002    2.486959398732597E-005
  1.770000000000000E-002    2.645939908657995E-005
  1.780000000000000E-002    2.813910597011856E-005
  1.790000000000000E-002    2.991314565215671E-005
  1.800000000000000E-002    3.178626717265340E-005
  1.810000000000000E-002    3.376356645980419E-005
  1.820000000000000E-002    3.585053805276142E-005
  1.830000000000000E-002    3.805308893536512E-005
  1.840000000000000E-002    4.037755928676941E-005
  1.850000000000000E-002    4.283072503431462E-005
  1.860000000000000E-002    4.541978446517906E-005
  1.870000000000000E-002    4.815233941391825E-005