 -4.000000000000000E-002    0.000000000000000E+000
 -3.990000000000000E-002    0.000000000000000E+000
 -3.980000000000000E-002    0.000000000000000E+000
 -3.970000000000000E-002    0.000000000000000E+000
 -3.960000000000000E-002    0.000000000000000E+000
 -3.950000000000000E-002    0.000000000000000E+000
 -3.940000000000000E-002    0.000000000000000E+000
 -3.930000000000000E-002    0.000000000000000E+000
 -3.920000000000000E-002    0.000000000000000E+000
 -3.910000000000000E-002    0.000000000000000E+000
 -3.900000000000000E-002    0.000000000000000E+000
 -3.890000000000000E-002    0.000000000000000E+000
 -3.880000000000000E-002    0.000000000000000E+000
 -3.870000000000000E-002    0.000000000000000E+000
 -3.860000000000000E-002    0.000000000000000E+000
 -3.850000000000000E-002    0.000000000000000E+000
 -3.840000000000000E-002    0.000000000000000E+000
 -3.830000000000000E-002    0.000000000000000E+000
 -3.820000000000000E-002   -6.414635304221270E-048
 -3.810000000000000E-002   -5.187819989027782E-047
 -3.800000000000000E-002   -1.760674780479590E-046
 -3.790000000000000E-002   -8.477010132595340E-046
 -3.780000000000000E-002   -4.777881147560195E-045
 -3.770000000000000E-002   -2.433985389922209E-044
 -3.760000000000000E-002   -1.081921139484212E-043
 -3.750000000000000E-002   -4.383003495358836E-043
 -3.740000000000000E-002   -1.622061232838022E-042
 -3.730000000000000E-002   -5.531696001603985E-042
 -3.720000000000000E-002   -1.751406316717853E-041
 -3.710000000000000E-002   -5.176608737205665E-041
 -3.700000000000000E-002   -1.434367175401820E-040
 -3.690000000000000E-002   -3.736907385888277E-040
 -3.680000000000000E-002   -9.170305554828117E-040
 -3.670000000000000E-002   -2.120794855978228E-039
 -3.660000000000000E-002   -4.617134553728910E-039
 -3.650000000000000E-002   -9.429824593961956E-039
 -3.640000000000000E-002   -1.793548054578423E-038
 -3.630000000000000E-002   -3.130578763904935E-038
 -3.620000000000000E-002   -4.858797575309916E-038
 -3.610000000000000E-002   -6.172772865018540E-038
 -3.600000000000000E-002   -4.442406858699178E-038
 -3.590000000000000E-002    7.040056595597784E-038
 -3.580000000000000E-002    4.324786588407374E-037
 -3.570000000000000E-002    1.346222976959174E-036
 -3.560000000000000E-002    3.385150473239645E-036
 -3.550000000000000E-002    7.557876543493705E-036
 -3.540000000000000E-002    1.552158155164948E-035
 -3.530000000000000E-002    2.980640360401748E-035
 -3.520000000000000E-002    5.394983783178901E-035
 -3.510000000000000E-002    9.232763383243231E-035
 -3.500000000000000E-002    1.492910767510515E-034
 -3.490000000000000E-002    2.269695216238732E-034
 -3.480000000000000E-002    3.207802831599779E-034
 -3.470000000000000E-002    4.113535198615806E-034
 -3.460000000000000E-002    4.513344381111997E-034
 -3.450000000000000E-002    3.455864438307423E-034
 -3.440000000000000E-002   -7.598665433313148E-035
 -3.430000000000000E-002   -1.091934820897123E-033
 -3.420000000000000E-002   -3.124387640900017E-033
 -3.410000000000000E-002   -6.764986808351798E-033
 -3.400000000000000E-002   -1.277146971811189E-032
 -3.390000000000000E-002   -2.200204499809897E-032
 -3.380000000000000E-002   -3.523877121877963E-032
 -3.370000000000000E-002   -5.283464566466837E-032
 -3.360000000000000E-002   -7.410554667549507E-032
 -3.350000000000000E-002   -9.638533405984819E-032
 -3.340000000000000E-002   -1.136817381695251E-031
 -3.330000000000000E-002   -1.149263511280796E-031
 -3.320000000000000E-002   -8.192472276291641E-032
 -3.310000000000000E-002    1.270070355925232E-032
 -3.300000000000000E-002    2.070008838591022E-031
 -3.290000000000000E-002    5.496736359414797E-031
 -3.280000000000000E-002    1.097109854987478E-030
 -3.270000000000000E-002    1.905608860148125E-030
 -3.260000000000000E-002    3.016441897529985E-030
 -3.250000000000000E-002    4.431249717745629E-030
 -3.240000000000000E-002    6.075561664468048E-030
 -3.230000000000000E-002    7.749280195416059E-030
 -3.220000000000000E-002    9.065268169343173E-030
 -3.210000000000000E-002    9.380887706931507E-030
 -3.200000000000000E-002    7.732995187976967E-030
 -3.190000000000000E-002    2.794339957918152E-030
 -3.180000000000000E-002   -7.121502553711632E-030
 -3.170000000000000E-002   -2.396991692170350E-029
 -3.160000000000000E-002   -4.975412226411979E-029
 -3.150000000000000E-002   -8.612271549044848E-029
 -3.140000000000000E-002   -1.337377619680272E-028
 -3.130000000000000E-002   -1.913807176317379E-028
 -3.120000000000000E-002   -2.547957573704785E-028
 -3.110000000000000E-002   -3.153257012860351E-028
 -3.100000000000000E-002   -3.584780795224696E-028
 -3.090000000000000E-002   -3.626684122476557E-028
 -3.080000000000000E-002   -2.985172524814661E-028
 -3.070000000000000E-002   -1.292223751469331E-028
 -3.060000000000000E-002    1.873521016070056E-028
 -3.050000000000000E-002    6.941420567647078E-028
 -3.040000000000000E-002    1.427197273971025E-027
 -3.030000000000000E-002    2.404310927235693E-027
 -3.020000000000000E-002    3.609792031959426E-027
 -3.010000000000000E-002    4.975881815508671E-027
 -3.000000000000000E-002    6.362232034639577E-027
 -2.990000000000000E-002    7.536124821517711E-027
 -2.980000000000000E-002    8.157539686196259E-027
 -2.970000000000000E-002    7.774772985404006E-027
 -2.960000000000000E-002    5.837589493667284E-027
 -2.950000000000000E-002    1.735776189701932E-027
 -2.940000000000000E-002   -5.129274624827524E-027
 -2.930000000000000E-002   -1.523398551002324E-026
 -2.920000000000000E-002   -2.878089558438926E-026
 -2.910000000000000E-002   -4.550996113783738E-026
 -2.900000000000000E-002   -6.448578855270245E-026
 -2.890000000000000E-002   -8.388537944434809E-026
 -2.880000000000000E-002   -1.008237643004048E-025
 -2.870000000000000E-002   -1.112681793948734E-025
 -2.860000000000000E-002   -1.101026408594682E-025
 -2.850000000000000E-002   -9.140986476672963E-026
 -2.840000000000000E-002   -4.903529417848812E-026
 -2.830000000000000E-002    2.252041220119616E-026
 -2.820000000000000E-002    1.268657012245358E-025
 -2.810000000000000E-002    2.641774441611605E-025
 -2.800000000000000E-002    4.294677107611004E-025
 -2.790000000000000E-002    6.108551472496052E-025
 -2.780000000000000E-002    7.881385205265564E-025
 -2.770000000000000E-002    9.320592334883559E-025
 -2.760000000000000E-002    1.004715730498752E-024
 -2.750000000000000E-002    9.616044617073559E-025
 -2.740000000000000E-002    7.557310837308957E-025
 -2.730000000000000E-002    3.440752828727524E-025
 -2.720000000000000E-002   -3.035650343239015E-025
 -2.710000000000000E-002   -1.193711321582536E-024
 -2.700000000000000E-002   -2.297200223221420E-024
 -2.690000000000000E-002   -3.537509030083624E-024
 -2.680000000000000E-002   -4.781495021583106E-024
 -2.670000000000000E-002   -5.835209288064279E-024
 -2.660000000000000E-002   -6.447746509194917E-024
 -2.650000000000000E-002   -6.326182214825121E-024
 -2.640000000000000E-002   -5.164101233516598E-024
 -2.630000000000000E-002   -2.685152363955927E-024
 -2.620000000000000E-002    1.298766121319527E-024
 -2.610000000000000E-002    6.817713113276444E-024
 -2.600000000000000E-002    1.366840265931149E-023
 -2.590000000000000E-002    2.134317892742009E-023
 -2.580000000000000E-002    2.897647573900591E-023
 -2.570000000000000E-002    3.532492875001320E-023
 -2.560000000000000E-002    3.879872356908832E-023
 -2.550000000000000E-002    3.756113017427864E-023
 -2.540000000000000E-002    2.970967887819611E-023
 -2.530000000000000E-002    1.354496809647177E-023
 -2.520000000000000E-002   -1.207783631012841E-023
 -2.510000000000000E-002   -4.733472434772557E-023
 -2.500000000000000E-002   -9.099339700798325E-023
 -2.490000000000000E-002   -1.400054192524391E-022
 -2.480000000000000E-002   -1.892046095538574E-022
 -2.470000000000000E-002   -2.311999770226553E-022
 -2.460000000000000E-002   -2.565573806731784E-022
 -2.450000000000000E-002   -2.543568073761220E-022
 -2.440000000000000E-002   -2.131917444199752E-022
 -2.430000000000000E-002   -1.226354705327203E-022
 -2.420000000000000E-002    2.485817744706796E-023
 -2.410000000000000E-002    2.317294441227530E-022
 -2.400000000000000E-002    4.929590874973043E-022
 -2.390000000000000E-002    7.938754644713526E-022
 -2.380000000000000E-002    1.108495255192341E-021
 -2.370000000000000E-002    1.398826732554761E-021
 -2.360000000000000E-002    1.615588810594706E-021
 -2.350000000000000E-002    1.700755635290423E-021
 -2.340000000000000E-002    1.592229282182947E-021
 -2.330000000000000E-002    1.230755219844624E-021
 -2.320000000000000E-002    5.689113220695630E-022
 -2.310000000000000E-002   -4.183241946173810E-022
 -2.300000000000000E-002   -1.722319613270329E-021
 -2.290000000000000E-002   -3.290140234636807E-021
 -2.280000000000000E-002   -5.016131239754958E-021
 -2.270000000000000E-002   -6.737607727902499E-021
 -2.260000000000000E-002   -8.236585956350293E-021
 -2.250000000000000E-002   -9.249297621884209E-021
 -2.240000000000000E-002   -9.484780823542591E-021
 -2.230000000000000E-002   -8.653001132467137E-021
 -2.220000000000000E-002   -6.501878574252900E-021
 -2.210000000000000E-002   -2.861203475262838E-021
 -2.200000000000000E-002    2.310091737601240E-021
 -2.190000000000000E-002    8.878391194261519E-021
 -2.180000000000000E-002    1.649792821825926E-020
 -2.170000000000000E-002    2.458866714090497E-020
 -2.160000000000000E-002    3.233694629123580E-020
 -2.150000000000000E-002    3.872556189812009E-020
 -2.140000000000000E-002    4.259812190475497E-020
 -2.130000000000000E-002    4.275948583917670E-020
 -2.120000000000000E-002    3.811007752874336E-020
 -2.110000000000000E-002    2.780680468589598E-020
 -2.100000000000000E-002    1.143792621147895E-020
 -2.090000000000000E-002   -1.080607200649258E-020
 -2.080000000000000E-002   -3.798814662201764E-020
 -2.070000000000000E-002   -6.833214177655192E-020
 -2.060000000000000E-002   -9.920779405094878E-020
 -2.050000000000000E-002   -1.272159707561654E-019
 -2.040000000000000E-002   -1.483907211954962E-019
 -2.030000000000000E-002   -1.585242597526447E-019
 -2.020000000000000E-002   -1.536069928990274E-019
 -2.010000000000000E-002   -1.303584318522224E-019
 -2.000000000000000E-002   -8.680745384933843E-020
 -1.990000000000000E-002   -2.286273887410065E-020
 -1.980000000000000E-002    5.919914604540599E-020
 -1.970000000000000E-002    1.544090724758377E-019
 -1.960000000000000E-002    2.550257715063829E-019
 -1.950000000000000E-002    3.507721286559175E-019
 -1.940000000000000E-002    4.294379009598554E-019
 -1.930000000000000E-002    4.778658472183480E-019
 -1.920000000000000E-002    4.832953779305504E-019
 -1.910000000000000E-002    4.349857897529801E-019
 -1.900000000000000E-002    3.259910190941200E-019
 -1.890000000000000E-002    1.549031744059145E-019
 -1.880000000000000E-002   -7.265418015655829E-020
 -1.870000000000000E-002   -3.430262883997389E-019
 -1.860000000000000E-002   -6.342607062503728E-019
 -1.850000000000000E-002   -9.167816947442029E-019
 -1.840000000000000E-002   -1.155147264339428E-018
 -1.830000000000000E-002   -1.310927382796882E-018
 -1.820000000000000E-002   -1.346621855857714E-018
 -1.810000000000000E-002   -1.230381948478191E-018
 -1.800000000000000E-002   -9.411514959152324E-019
 -1.790000000000000E-002   -4.737007162993104E-019
 -1.780000000000000E-002    1.570779356469168E-019
 -1.770000000000000E-002    9.133044379315162E-019
 -1.760000000000000E-002    1.733347261948551E-018
 -1.750000000000000E-002    2.533734298009131E-018
 -1.740000000000000E-002    3.214113563930999E-018
 -1.730000000000000E-002    3.665362785296317E-018
 -1.720000000000000E-002    3.780582005987025E-018
 -1.710000000000000E-002    3.468304212507306E-018
 -1.700000000000000E-002    2.666846086382629E-018
 -1.690000000000000E-002    1.358336145134171E-018
 -1.680000000000000E-002   -4.193067366011189E-019
 -1.670000000000000E-002   -2.564319150745117E-018
 -1.660000000000000E-002   -4.908774217497572E-018
 -1.650000000000000E-002   -7.223525037758790E-018
 -1.640000000000000E-002   -9.231394939901155E-018
 -1.630000000000000E-002   -1.062884858713547E-017
 -1.620000000000000E-002   -1.111544103224659E-017
 -1.610000000000000E-002   -1.042924919900499E-017
 -1.600000000000000E-002   -8.385450282186698E-018
 -1.590000000000000E-002   -4.914225798173044E-018
 -1.580000000000000E-002   -9.346929247975329E-020
 -1.570000000000000E-002    5.828566516789837E-018
 -1.560000000000000E-002    1.242536352972991E-017
 -1.550000000000000E-002    1.910289921723195E-017
 -1.540000000000000E-002    2.513172429422928E-017
 -1.530000000000000E-002    2.970093600515670E-017
 -1.520000000000000E-002    3.199241229731887E-017
 -1.510000000000000E-002    3.127089328036231E-017
 -1.500000000000000E-002    2.698291318733502E-017
 -1.490000000000000E-002    1.885513852579204E-017
 -1.480000000000000E-002    6.980940883153919E-018
 -1.470000000000000E-002   -8.116807152094849E-018
 -1.460000000000000E-002   -2.545837128649136E-017
 -1.450000000000000E-002   -4.362505435476792E-017
 -1.440000000000000E-002   -6.082912321292303E-017
 -1.430000000000000E-002   -7.503773994267939E-017
 -1.420000000000000E-002   -8.414748770188561E-017
 -1.410000000000000E-002   -8.619940649713641E-017
 -1.400000000000000E-002   -7.961868434377344E-017
 -1.390000000000000E-002   -6.345686870408469E-017
 -1.380000000000000E-002   -3.761056166014128E-017
 -1.370000000000000E-002   -2.988376128237812E-018
 -1.360000000000000E-002    3.840149438764147E-017
 -1.350000000000000E-002    8.346701682856353E-017
 -1.340000000000000E-002    1.281677918053846E-016
 -1.330000000000000E-002    1.677770066513489E-016
 -1.320000000000000E-002    1.972633124214979E-016
 -1.310000000000000E-002    2.117725468018291E-016
 -1.300000000000000E-002    2.071741056579229E-016
 -1.290000000000000E-002    1.806244054664165E-016
 -1.280000000000000E-002    1.310892672380806E-016
 -1.270000000000000E-002    5.976219638425477E-017
 -1.260000000000000E-002   -2.968416306478788E-017
 -1.250000000000000E-002   -1.310681945602438E-016
 -1.240000000000000E-002   -2.359314870149366E-016
 -1.230000000000000E-002   -3.340514777396769E-016
 -1.220000000000000E-002   -4.142260691052027E-016
 -1.210000000000000E-002   -4.652906674160289E-016
 -1.200000000000000E-002   -4.772973596703390E-016
 -1.190000000000000E-002   -4.427562396191348E-016
 -1.180000000000000E-002   -3.578173443866177E-016
 -1.170000000000000E-002   -2.232573711280009E-016
 -1.160000000000000E-002   -4.513536141638706E-017
 -1.150000000000000E-002    1.650048994530986E-016
 -1.140000000000000E-002    3.904792808800380E-016
 -1.130000000000000E-002    6.104034174113719E-016
 -1.120000000000000E-002    8.012227368057960E-016
 -1.110000000000000E-002    9.387638501208063E-016
 -1.100000000000000E-002    1.000668789186981E-015
 -1.090000000000000E-002    9.690174468933403E-016
 -1.080000000000000E-002    8.328877393775237E-016
 -1.070000000000000E-002    5.905766264989068E-016
 -1.060000000000000E-002    2.511940031836483E-016
 -1.050000000000000E-002   -1.646341928865126E-016
 -1.040000000000000E-002   -6.251614627137170E-016
 -1.030000000000000E-002   -1.089142622712576E-015
 -1.020000000000000E-002   -1.508697632465888E-015
 -1.010000000000000E-002   -1.833303696214974E-015
 -1.000000000000000E-002   -2.014669597800368E-015
 -9.899999999999999E-003   -2.012115345673369E-015
 -9.800000000000000E-003   -1.797969336235789E-015
 -9.699999999999999E-003   -1.362424634057833E-015
 -9.599999999999999E-003   -7.172670107971046E-016
 -9.500000000000000E-003    1.020812087488043E-016
 -9.399999999999999E-003    1.036666392202913E-015
 -9.299999999999999E-003    2.006562554275239E-015
 -9.200000000000000E-003    2.915986262126559E-015
 -9.099999999999999E-003    3.660813867956556E-015
 -8.999999999999999E-003    4.138080195829923E-015
 -8.900000000000000E-003    4.256770569886269E-015
 -8.799999999999999E-003    3.948984905822823E-015
 -8.699999999999999E-003    3.180381819254327E-015
 -8.600000000000000E-003    1.958726617015592E-015
 -8.499999999999999E-003    3.393910524979178E-016
 -8.399999999999999E-003   -1.573194068646657E-015
 -8.300000000000000E-003   -3.628879495586940E-015
 -8.199999999999999E-003   -5.640262310502918E-015
 -8.100000000000000E-003   -7.396171695578791E-015
 -8.000000000000000E-003   -8.679512296875824E-015
 -7.899999999999999E-003   -9.288283737411667E-015
 -7.800000000000000E-003   -9.058106680839089E-015
 -7.699999999999999E-003   -7.884189565620016E-015
 -7.599999999999999E-003   -5.740452153075169E-015
 -7.499999999999999E-003   -2.693479295852530E-015
 -7.399999999999999E-003    1.090814121364685E-015
 -7.299999999999999E-003    5.349486382757301E-015
 -7.199999999999999E-003    9.734858587413260E-015
 -7.100000000000000E-003    1.383693620842910E-014
 -6.999999999999999E-003    1.721510552575295E-014
 -6.899999999999999E-003    1.943723291006299E-014
 -6.800000000000000E-003    2.012325293658655E-014
 -6.699999999999999E-003    1.898956712697072E-014
 -6.599999999999999E-003    1.588992044652877E-014
 -6.499999999999999E-003    1.084825567406103E-014
 -6.399999999999999E-003    4.079206382758016E-015
 -6.299999999999999E-003   -4.007378979299768E-015
 -6.199999999999999E-003   -1.282050596539892E-014
 -6.100000000000000E-003   -2.162165569570874E-014
 -5.999999999999999E-003   -2.957720990802370E-014
 -5.899999999999999E-003   -3.582697482002766E-014
 -5.800000000000000E-003   -3.956405818531065E-014
 -5.699999999999999E-003   -4.011969305139336E-014
 -5.599999999999999E-003   -3.704531124942648E-014
 -5.499999999999999E-003   -3.018338168908966E-014
 -5.399999999999999E-003   -1.971867090770247E-014
 -5.299999999999999E-003   -6.202369095889562E-015
 -5.199999999999999E-003    9.456607177086327E-015
 -5.099999999999999E-003    2.603641850282239E-014
 -4.999999999999999E-003    4.208316198432711E-014
 -4.899999999999999E-003    5.602428359429079E-014
 -4.799999999999999E-003    6.630731756420336E-014
 -4.699999999999999E-003    7.155322926175078E-014
 -4.599999999999999E-003    7.071107938434861E-014
 -4.499999999999999E-003    6.319876044028860E-014
 -4.399999999999999E-003    4.901416259524598E-014
 -4.299999999999999E-003    2.880226135484424E-014
 -4.199999999999999E-003    3.866051816535911E-015
 -4.099999999999999E-003   -2.388631140524338E-014
 -3.999999999999999E-003   -5.206070927981116E-014
 -3.899999999999999E-003   -7.795841781910762E-014
 -3.799999999999999E-003   -9.880901475069405E-014
 -3.699999999999999E-003   -1.120376421394639E-013
 -3.599999999999999E-003   -1.155438767362847E-013
 -3.499999999999999E-003   -1.079657812314554E-013
 -3.399999999999999E-003   -8.890068949571934E-014
 -3.299999999999999E-003   -5.905552508711260E-014
 -3.199999999999999E-003   -2.030311023120433E-014
 -3.099999999999999E-003    2.437231053062773E-014
 -2.999999999999999E-003    7.104814013852122E-014
 -2.899999999999999E-003    1.151516552959333E-013
 -2.799999999999999E-003    1.518479842643630E-013
 -2.699999999999999E-003    1.765006988943943E-013
 -2.599999999999999E-003    1.851669794034488E-013
 -2.499999999999999E-003    1.750816353101861E-013
 -2.399999999999999E-003    1.450796439320577E-013
 -2.299999999999999E-003    9.590712293284626E-014
 -2.199999999999999E-003    3.037608389677856E-014
 -2.099999999999999E-003   -4.667136402774907E-014
 -1.999999999999999E-003   -1.286092491293817E-013
 -1.899999999999999E-003   -2.074832565452114E-013
 -1.799999999999999E-003   -2.746567660982196E-013
 -1.699999999999999E-003   -3.216035126080870E-013
 -1.599999999999999E-003   -3.407854571677921E-013
 -1.499999999999999E-003   -3.265377886232871E-013
 -1.399999999999999E-003   -2.758730143244694E-013
 -1.299999999999999E-003   -1.891137319380443E-013
 -1.199999999999999E-003   -7.027084245993857E-014
 -1.099999999999999E-003    7.290136968624214E-014
 -9.999999999999989E-004    2.292167355636373E-013
 -8.999999999999990E-004    3.847471989772594E-013
 -7.999999999999990E-004    5.238679753682896E-013
 -6.999999999999989E-004    6.305949840877478E-013
 -5.999999999999990E-004    6.901167365313220E-013
 -4.999999999999989E-004    6.903909616384934E-013
 -3.999999999999989E-004    6.236570885785102E-013
 -2.999999999999989E-004    4.877046026083243E-013
 -1.999999999999989E-004    2.867463050426585E-013
 -9.999999999999892E-005    3.176483803353939E-014
  1.084202172485504E-018   -2.597597203352833E-013
  1.000000000000011E-004   -5.647846567633909E-013
  2.000000000000011E-004   -8.562810972766482E-013
  3.000000000000011E-004   -1.105373088295696E-012
  4.000000000000011E-004   -1.283887623971685E-012
  5.000000000000011E-004   -1.367116079401391E-012
  6.000000000000011E-004   -1.336538858896446E-012
  7.000000000000011E-004   -1.182246922848570E-012
  8.000000000000011E-004   -9.047927904911503E-013
  9.000000000000012E-004   -5.162344021334053E-013
  1.000000000000001E-003   -4.018553396598524E-014
  1.100000000000001E-003    4.892312167448704E-013
  1.200000000000001E-003    1.029537789834555E-012
  1.300000000000001E-003    1.533065482030760E-012
  1.400000000000001E-003    1.950924974108581E-012
  1.500000000000001E-003    2.237474415419164E-012
  1.600000000000001E-003    2.354908162585343E-012
  1.700000000000001E-003    2.277530461715926E-012
  1.800000000000001E-003    1.995274941485386E-012
  1.900000000000001E-003    1.516057298778133E-012
  2.000000000000001E-003    8.666272668924235E-013
  2.100000000000001E-003    9.169769695029291E-014
  2.200000000000001E-003   -7.487211333707955E-013
  2.300000000000001E-003   -1.583688959128763E-012
  2.400000000000001E-003   -2.337128924866637E-012
  2.500000000000001E-003   -2.934617119494761E-012
  2.600000000000001E-003   -3.310593444813273E-012
  2.700000000000001E-003   -3.415327766780909E-012
  2.800000000000001E-003   -3.220941649908699E-012
  2.900000000000001E-003   -2.725815501731040E-012
  3.000000000000001E-003   -1.956807657605376E-012
  3.100000000000001E-003   -9.688806525367596E-013
  3.200000000000001E-003    1.580501749814315E-013
  3.300000000000001E-003    1.324979363851462E-012
  3.400000000000001E-003    2.422027423774533E-012
  3.500000000000001E-003    3.338410055806085E-012
  3.600000000000001E-003    3.973316872345558E-012
  3.700000000000001E-003    4.246693492390135E-012
  3.800000000000001E-003    4.108851568674965E-012
  3.900000000000001E-003    3.547842414955261E-012
  4.000000000000001E-003    2.593669448827904E-012
  4.100000000000001E-003    1.318639566995565E-012
  4.200000000000001E-003   -1.665114712772251E-013
  4.300000000000001E-003   -1.720706720417906E-012
  4.400000000000001E-003   -3.184369787066617E-012
  4.500000000000001E-003   -4.394179818423037E-012
  4.600000000000002E-003   -5.199493921515720E-012
  4.700000000000001E-003   -5.478938449968996E-012
  4.800000000000001E-003   -5.155514439955319E-012
  4.900000000000002E-003   -4.208555736622775E-012
  5.000000000000001E-003   -2.681049594372563E-012
  5.100000000000001E-003   -6.811734476803400E-013
  5.200000000000001E-003    1.622657943215387E-012
  5.300000000000002E-003    4.013296843894467E-012
  5.400000000000001E-003    6.242397002582148E-012
  5.500000000000001E-003    8.052751077479332E-012
  5.600000000000002E-003    9.203639436752929E-012
  5.700000000000001E-003    9.496941771592215E-012
  5.800000000000001E-003    8.801459898203416E-012
  5.900000000000002E-003    7.072870785614590E-012
  6.000000000000001E-003    4.366920047367941E-012
  6.100000000000001E-003    8.439199909202435E-013
  6.200000000000002E-003   -3.236700504651177E-012
  6.300000000000002E-003   -7.532155412589934E-012
  6.400000000000001E-003   -1.164177336384634E-011
  6.500000000000001E-003   -1.514056200545398E-011
  6.600000000000002E-003   -1.761831349008505E-011
  6.700000000000001E-003   -1.872091085749914E-011
  6.800000000000001E-003   -1.819002526201159E-011
  6.900000000000002E-003   -1.589718832232051E-011
  7.000000000000001E-003   -1.186843366313635E-011
  7.100000000000001E-003   -6.296306265697418E-012
  7.200000000000002E-003    4.630149333175762E-013
  7.300000000000002E-003    7.908510491639015E-012
  7.400000000000001E-003    1.542851688908585E-011
  7.500000000000001E-003    2.234841013537466E-011
  7.600000000000002E-003    2.798826935090790E-011
  7.700000000000001E-003    3.172587884384188E-011
  7.800000000000001E-003    3.305943772966132E-011
  7.900000000000001E-003    3.166402786884923E-011
  8.000000000000002E-003    2.743592793346839E-011
  8.100000000000001E-003    2.051962933633380E-011
  8.200000000000001E-003    1.131366384785840E-011
  8.300000000000002E-003    4.530652777784241E-013
  8.400000000000001E-003   -1.123162919517191E-011
  8.500000000000002E-003   -2.277666563418358E-011
  8.600000000000002E-003   -3.316431047798137E-011
  8.700000000000001E-003   -4.141273946533774E-011
  8.800000000000002E-003   -4.666880902169127E-011
  8.900000000000002E-003   -4.829512259130826E-011
  9.000000000000001E-003   -4.594270182216774E-011
  9.100000000000002E-003   -3.960140272018670E-011
  9.200000000000002E-003   -2.962176893196534E-011
  9.300000000000001E-003   -1.670430768781771E-011
  9.400000000000002E-003   -1.855138040190662E-012
  9.500000000000001E-003    1.369008051978396E-011
  9.600000000000001E-003    2.856862015547606E-011
  9.700000000000002E-003    4.141146809948739E-011
  9.800000000000001E-003    5.097203366409696E-011
  9.900000000000001E-003    5.625086930244249E-011
  1.000000000000000E-002    5.660418102912750E-011
  1.010000000000000E-002    5.182456990794435E-011
  1.020000000000000E-002    4.218456522325189E-011
  1.030000000000000E-002    2.843626894920392E-011
  1.040000000000000E-002    1.176453768046037E-011
  1.050000000000000E-002   -6.304751547716023E-012
  1.060000000000000E-002   -2.403518807251255E-011
  1.070000000000000E-002   -3.963874111843373E-011
  1.080000000000000E-002   -5.144937639878493E-011
  1.090000000000000E-002   -5.809527257686234E-011
  1.100000000000000E-002   -5.865269908913777E-011
  1.110000000000000E-002   -5.276521284400781E-011
  1.120000000000000E-002   -4.071429479921059E-011
  1.130000000000000E-002   -2.343127769628627E-011
  1.140000000000000E-002   -2.445678624007097E-012
  1.150000000000000E-002    2.022926878545517E-011
  1.160000000000000E-002    4.226659245616777E-011
  1.170000000000000E-002    6.123811581199788E-011
  1.180000000000000E-002    7.485136124089349E-011
  1.190000000000000E-002    8.118920272141717E-011
  1.200000000000000E-002    7.892892883113307E-011
  1.210000000000000E-002    6.751774935029243E-011
  1.220000000000000E-002    4.728473562392982E-011
  1.230000000000000E-002    1.947385949037856E-011
  1.240000000000000E-002   -1.381029827723208E-011
  1.250000000000000E-002   -4.974474985473486E-011
  1.260000000000000E-002   -8.501025542585558E-011
  1.270000000000000E-002   -1.160770910244167E-010
  1.280000000000000E-002   -1.395310098118634E-010
  1.290000000000000E-002   -1.524103253668866E-010
  1.300000000000000E-002   -1.525223516224091E-010
  1.310000000000000E-002   -1.387072929217538E-010
  1.320000000000000E-002   -1.110205783699962E-010
  1.330000000000000E-002   -7.081136868431471E-011
  1.340000000000000E-002   -2.068238941088279E-011
  1.350000000000000E-002    3.567170318734060E-011
  1.360000000000000E-002    9.374002340605988E-011
  1.370000000000000E-002    1.485653456458116E-010
  1.380000000000000E-002    1.951788005988429E-010
  1.390000000000000E-002    2.290612984662813E-010
  1.400000000000000E-002    2.465892354452409E-010
  1.410000000000000E-002    2.454208221457969E-010
  1.420000000000000E-002    2.247825404360345E-010
  1.430000000000000E-002    1.856224334119389E-010
  1.440000000000000E-002    1.306080139757110E-010
  1.450000000000000E-002    6.395995068527872E-011
  1.460000000000000E-002   -8.871527369753902E-012
  1.470000000000000E-002   -8.166533783814032E-011
  1.480000000000000E-002   -1.479868666679846E-010
  1.490000000000000E-002   -2.017953382016326E-010
  1.500000000000000E-002   -2.380455052403891E-010
  1.510000000000000E-002   -2.532249969615372E-010
  1.520000000000000E-002   -2.457713519336557E-010
  1.530000000000000E-002   -2.163215995805005E-010
  1.540000000000000E-002   -1.677598637241255E-010
  1.550000000000000E-002   -1.050470519800103E-010
  1.560000000000000E-002   -3.483540052229631E-011
  1.570000000000000E-002    3.510664744706685E-011
  1.580000000000000E-002    9.661602382868053E-011
  1.590000000000000E-002    1.419413822049521E-010
  1.600000000000000E-002    1.645617594688336E-010
  1.610000000000000E-002    1.599391552625852E-010
  1.620000000000000E-002    1.261284527793638E-010
  1.630000000000000E-002    6.417718099107144E-011
  1.640000000000000E-002   -2.173695000151718E-011
  1.650000000000000E-002   -1.244602458487861E-010
  1.660000000000000E-002   -2.343129664825216E-010
  1.670000000000000E-002   -3.398117819110500E-010
  1.680000000000000E-002   -4.286141018272413E-010
  1.690000000000000E-002   -4.886100328119142E-010
  1.700000000000000E-002   -5.090701503493734E-010
  1.710000000000000E-002   -4.817471203296116E-010
  1.720000000000000E-002   -4.018272366664846E-010
  1.730000000000000E-002   -2.686374350860866E-010
  1.740000000000000E-002   -8.603070308553814E-011
  1.750000000000000E-002    1.376024798802102E-010
  1.760000000000000E-002    3.897147458076756E-010
  1.770000000000000E-002    6.543611793940336E-010
  1.780000000000000E-002    9.132851770364152E-010
  1.790000000000000E-002    1.147249369313203E-009
  1.800000000000000E-002    1.337503370715424E-009
  1.810000000000000E-002    1.467263520782220E-009
  1.820000000000000E-002    1.523074716080489E-009
  1.830000000000000E-002    1.495930411555140E-009
  1.840000000000000E-002    1.382045840537740E-009
  1.850000000000000E-002    1.183207706659035E-009
  1.860000000000000E-002    9.066619279535609E-010
  1.870000000000000E-002    5.645423558281684E-010