 -4.000000000000000E-002    0.000000000000000E+000
 -3.990000000000000E-002    0.000000000000000E+000
 -3.980000000000000E-002    0.000000000000000E+000
 -3.970000000000000E-002    0.000000000000000E+000
 -3.960000000000000E-002    0.000000000000000E+000
 -3.950000000000000E-002    0.000000000000000E+000
 -3.940000000000000E-002    0.000000000000000E+000
 -3.930000000000000E-002    0.000000000000000E+000
 -3.920000000000000E-002    0.000000000000000E+000
 -3.910000000000000E-002    0.000000000000000E+000
 -3.900000000000000E-002    0.000000000000000E+000
 -3.890000000000000E-002    0.000000000000000E+000
 -3.880000000000000E-002    0.000000000000000E+000
 -3.870000000000000E-002    0.000000000000000E+000
 -3.860000000000000E-002    0.000000000000000E+000
 -3.850000000000000E-002    0.000000000000000E+000
 -3.840000000000000E-002    0.000000000000000E+000
 -3.830000000000000E-002    0.000000000000000E+000
 -3.820000000000000E-002    1.924390591266381E-047
 -3.810000000000000E-002    3.929761059270204E-046
 -3.800000000000000E-002    3.666961224451472E-045
 -3.790000000000000E-002    2.049052737019072E-044
 -3.780000000000000E-002    9.931488769947286E-044
 -3.770000000000000E-002    3.974187243934792E-043
 -3.760000000000000E-002    1.287043913039953E-042
 -3.750000000000000E-002    3.121267025615499E-042
 -3.740000000000000E-002    3.434836660305761E-042
 -3.730000000000000E-002   -1.745154188429391E-041
 -3.720000000000000E-002   -1.533064200728878E-040
 -3.710000000000000E-002   -7.635442516187217E-040
 -3.700000000000000E-002   -3.047054307042568E-039
 -3.690000000000000E-002   -1.060379893225884E-038
 -3.680000000000000E-002   -3.334225308994848E-038
 -3.670000000000000E-002   -9.653167818949025E-038
 -3.660000000000000E-002   -2.602829389568219E-037
 -3.650000000000000E-002   -6.584942807018298E-037
 -3.640000000000000E-002   -1.570899988907502E-036
 -3.630000000000000E-002   -3.545176791018112E-036
 -3.620000000000000E-002   -7.582351135799598E-036
 -3.610000000000000E-002   -1.537574862674138E-035
 -3.600000000000000E-002   -2.952903509615082E-035
 -3.590000000000000E-002   -5.353668458915839E-035
 -3.580000000000000E-002   -9.104103731898978E-035
 -3.570000000000000E-002   -1.434289910207880E-034
 -3.560000000000000E-002   -2.041622465350337E-034
 -3.550000000000000E-002   -2.473809722106018E-034
 -3.540000000000000E-002   -2.074737504624687E-034
 -3.530000000000000E-002    5.405103545020350E-035
 -3.520000000000000E-002    7.969867816778732E-034
 -3.510000000000000E-002    2.464673442761678E-033
 -3.500000000000000E-002    5.749265849951102E-033
 -3.490000000000000E-002    1.163178414275274E-032
 -3.480000000000000E-002    2.134031831401194E-032
 -3.470000000000000E-002    3.612886227058578E-032
 -3.460000000000000E-002    5.672779182960271E-032
 -3.450000000000000E-002    8.226385437032750E-032
 -3.440000000000000E-002    1.084126273569597E-031
 -3.430000000000000E-002    1.245658340214199E-031
 -3.420000000000000E-002    1.099250700862540E-031
 -3.410000000000000E-002    2.874662219577536E-032
 -3.400000000000000E-002   -1.744530208723486E-031
 -3.390000000000000E-002   -5.779868557458265E-031
 -3.380000000000000E-002   -1.281316339095989E-030
 -3.370000000000000E-002   -2.393887011128737E-030
 -3.360000000000000E-002   -4.008031951037974E-030
 -3.350000000000000E-002   -6.148159753016127E-030
 -3.340000000000000E-002   -8.688345896496028E-030
 -3.330000000000000E-002   -1.123279270211605E-029
 -3.320000000000000E-002   -1.295997617198703E-029
 -3.310000000000000E-002   -1.244334614246423E-029
 -3.300000000000000E-002   -7.480705401521337E-030
 -3.290000000000000E-002    5.008553309919476E-030
 -3.280000000000000E-002    2.892544019960791E-029
 -3.270000000000000E-002    6.864332247668160E-029
 -3.260000000000000E-002    1.282096942473397E-028
 -3.250000000000000E-002    2.099253293496516E-028
 -3.240000000000000E-002    3.121531076776232E-028
 -3.230000000000000E-002    4.262936177160222E-028
 -3.220000000000000E-002    5.330333704299455E-028
 -3.210000000000000E-002    5.982456617249422E-028
 -3.200000000000000E-002    5.693122249734352E-028
 -3.190000000000000E-002    3.731213823173310E-028
 -3.180000000000000E-002   -8.246087652450886E-029
 -3.170000000000000E-002   -9.013570603743526E-028
 -3.160000000000000E-002   -2.183694741155590E-027
 -3.150000000000000E-002   -3.999398661865520E-027
 -3.140000000000000E-002   -6.349261770397170E-027
 -3.130000000000000E-002   -9.113507140192621E-027
 -3.120000000000000E-002   -1.199073352401136E-026
 -3.110000000000000E-002   -1.443427921064289E-026
 -3.100000000000000E-002   -1.559836643120225E-026
 -3.090000000000000E-002   -1.431241201336056E-026
 -3.080000000000000E-002   -9.107771845612684E-027
 -3.070000000000000E-002    1.674491087500879E-027
 -3.060000000000000E-002    1.966535383205249E-026
 -3.050000000000000E-002    4.611450540194007E-026
 -3.040000000000000E-002    8.139036177976881E-026
 -3.030000000000000E-002    1.243451304532201E-025
 -3.020000000000000E-002    1.715912473476422E-025
 -3.010000000000000E-002    2.167810652565890E-025
 -3.000000000000000E-002    2.500346728457124E-025
 -2.990000000000000E-002    2.577153427674198E-025
 -2.980000000000000E-002    2.227970318010259E-025
 -2.970000000000000E-002    1.260908724601855E-025
 -2.960000000000000E-002   -5.142023304028768E-026
 -2.950000000000000E-002   -3.249659021882930E-025
 -2.940000000000000E-002   -7.010678114975485E-025
 -2.930000000000000E-002   -1.171525259086221E-024
 -2.920000000000000E-002   -1.706833245162343E-024
 -2.910000000000000E-002   -2.249941606595330E-024
 -2.900000000000000E-002   -2.711669435564570E-024
 -2.890000000000000E-002   -2.969459871967719E-024
 -2.880000000000000E-002   -2.871400724421983E-024
 -2.870000000000000E-002   -2.247452997526497E-024
 -2.860000000000000E-002   -9.294907467191882E-025
 -2.850000000000000E-002    1.219028922003941E-024
 -2.840000000000000E-002    4.264254225144739E-024
 -2.830000000000000E-002    8.156316938020760E-024
 -2.820000000000000E-002    1.268152737490656E-023
 -2.810000000000000E-002    1.741954878842764E-023
 -2.800000000000000E-002    2.171517513113601E-023
 -2.790000000000000E-002    2.467622742771905E-023
 -2.780000000000000E-002    2.520985463292046E-023
 -2.770000000000000E-002    2.210847953732545E-023
 -2.760000000000000E-002    1.419327109250704E-023
 -2.750000000000000E-002    5.167866683405269E-025
 -2.740000000000000E-002   -1.938275124963410E-023
 -2.730000000000000E-002   -4.519491828572755E-023
 -2.720000000000000E-002   -7.555129456025556E-023
 -2.710000000000000E-002   -1.077872580470540E-022
 -2.700000000000000E-002   -1.378099999465274E-022
 -2.690000000000000E-002   -1.601384583539173E-022
 -2.680000000000000E-002   -1.681797715286961E-022
 -2.670000000000000E-002   -1.547949953022106E-022
 -2.660000000000000E-002   -1.131814092381155E-022
 -2.650000000000000E-002   -3.805872760457259E-023
 -2.640000000000000E-002    7.290717219293799E-023
 -2.630000000000000E-002    2.175732922711075E-022
 -2.620000000000000E-002    3.878798376581838E-022
 -2.610000000000000E-002    5.687623864396492E-022
 -2.600000000000000E-002    7.377214509152249E-022
 -2.590000000000000E-002    8.653675917739210E-022
 -2.580000000000000E-002    9.172284682910213E-022
 -2.570000000000000E-002    8.570134762342786E-022
 -2.560000000000000E-002    6.513788781101073E-022
 -2.550000000000000E-002    2.760184343730837E-022
 -2.540000000000000E-002   -2.773635941717823E-022
 -2.530000000000000E-002   -9.939378732039620E-022
 -2.520000000000000E-002   -1.829523547549447E-021
 -2.510000000000000E-002   -2.706513173916136E-021
 -2.500000000000000E-002   -3.513332979772278E-021
 -2.490000000000000E-002   -4.108774151833486E-021
 -2.480000000000000E-002   -4.332262002589071E-021
 -2.470000000000000E-002   -4.020601023448209E-021
 -2.460000000000000E-002   -3.030948521421313E-021
 -2.450000000000000E-002   -1.268747781095900E-021
 -2.440000000000000E-002    1.281826350331867E-021
 -2.430000000000000E-002    4.528554140856389E-021
 -2.420000000000000E-002    8.247698885215581E-021
 -2.410000000000000E-002    1.207178818239526E-020
 -2.400000000000000E-002    1.549419454542922E-020
 -2.390000000000000E-002    1.789541884695439E-020
 -2.380000000000000E-002    1.859438766780307E-020
 -2.370000000000000E-002    1.692550361035788E-020
 -2.360000000000000E-002    1.233866039830596E-020
 -2.350000000000000E-002    4.515199887812762E-021
 -2.340000000000000E-002   -6.511759660453824E-021
 -2.330000000000000E-002   -2.024849315338070E-020
 -2.320000000000000E-002   -3.566252695045426E-020
 -2.310000000000000E-002   -5.115599017064261E-020
 -2.300000000000000E-002   -6.461031101612477E-020
 -2.290000000000000E-002   -7.351808931839088E-020
 -2.280000000000000E-002   -7.521038538722531E-020
 -2.270000000000000E-002   -6.717667125900845E-020
 -2.260000000000000E-002   -4.746075125186699E-020
 -2.250000000000000E-002   -1.510029471198723E-020
 -2.240000000000000E-002    2.943821286138489E-020
 -2.230000000000000E-002    8.389080657115289E-020
 -2.220000000000000E-002    1.439643102842246E-019
 -2.210000000000000E-002    2.033136991434229E-019
 -2.200000000000000E-002    2.537927074696353E-019
 -2.190000000000000E-002    2.860223731761525E-019
 -2.180000000000000E-002    2.902913744288437E-019
 -2.170000000000000E-002    2.577602599698457E-019
 -2.160000000000000E-002    1.818922717351328E-019
 -2.150000000000000E-002    5.998098629665901E-020
 -2.140000000000000E-002   -1.054042368505034E-019
 -2.130000000000000E-002   -3.052720396166335E-019
 -2.120000000000000E-002   -5.235981856465398E-019
 -2.110000000000000E-002   -7.374778318621990E-019
 -2.100000000000000E-002   -9.182274869868668E-019
 -2.090000000000000E-002   -1.033546257651422E-018
 -2.080000000000000E-002   -1.050732932490257E-018
 -2.070000000000000E-002   -9.408137256205641E-019
 -2.060000000000000E-002   -6.832772264289926E-019
 -2.050000000000000E-002   -2.709528449240476E-019
 -2.040000000000000E-002    2.855692078008044E-019
 -2.030000000000000E-002    9.546720865946432E-019
 -2.020000000000000E-002    1.682321318819109E-018
 -2.010000000000000E-002    2.393205165735974E-018
 -2.000000000000000E-002    2.994895760128103E-018
 -1.990000000000000E-002    3.385248275269186E-018
 -1.980000000000000E-002    3.462885692119134E-018
 -1.970000000000000E-002    3.140179061089210E-018
 -1.960000000000000E-002    2.357664706431277E-018
 -1.950000000000000E-002    1.098398669574006E-018
 -1.940000000000000E-002   -5.996063185691259E-019
 -1.930000000000000E-002   -2.634908686074409E-018
 -1.920000000000000E-002   -4.840154432727701E-018
 -1.910000000000000E-002   -6.987315777072811E-018
 -1.900000000000000E-002   -8.801796383373865E-018
 -1.890000000000000E-002   -9.985684118046251E-018
 -1.880000000000000E-002   -1.024932731256748E-017
 -1.870000000000000E-002   -9.349156063925334E-018
 -1.860000000000000E-002   -7.128411933458532E-018
 -1.850000000000000E-002   -3.556311500980884E-018
 -1.840000000000000E-002    1.239631329783470E-018
 -1.830000000000000E-002    6.953714212846979E-018
 -1.820000000000000E-002    1.309986050014944E-017
 -1.810000000000000E-002    1.903132449616254E-017
 -1.800000000000000E-002    2.398466353382498E-017
 -1.790000000000000E-002    2.714781062156757E-017
 -1.780000000000000E-002    2.774900788077869E-017
 -1.770000000000000E-002    2.516009556280962E-017
 -1.760000000000000E-002    1.900440249687397E-017
 -1.750000000000000E-002    9.256893840684800E-018
 -1.740000000000000E-002   -3.677477670852845E-018
 -1.730000000000000E-002   -1.892148118025821E-017
 -1.720000000000000E-002   -3.513217767196992E-017
 -1.710000000000000E-002   -5.056577608132329E-017
 -1.700000000000000E-002   -6.320491254890522E-017
 -1.690000000000000E-002   -7.094571484729583E-017
 -1.680000000000000E-002   -7.183404330994378E-017
 -1.670000000000000E-002   -6.433215095766744E-017
 -1.660000000000000E-002   -4.758948881304509E-017
 -1.650000000000000E-002   -2.168554955817161E-017
 -1.640000000000000E-002    1.219028363794906E-017
 -1.630000000000000E-002    5.165623115630654E-017
 -1.620000000000000E-002    9.318229964316939E-017
 -1.610000000000000E-002    1.322807398872970E-016
 -1.600000000000000E-002    1.638487041882649E-016
 -1.590000000000000E-002    1.826515048499312E-016
 -1.580000000000000E-002    1.839159810638976E-016
 -1.570000000000000E-002    1.639842238774727E-016
 -1.560000000000000E-002    1.209612970791522E-016
 -1.550000000000000E-002    5.527875379471890E-017
 -1.540000000000000E-002   -2.990879461515595E-017
 -1.530000000000000E-002   -1.285723910289130E-016
 -1.520000000000000E-002   -2.319663608436054E-016
 -1.510000000000000E-002   -3.291333529593207E-016
 -1.500000000000000E-002   -4.077614834283919E-016
 -1.490000000000000E-002   -4.553572118886938E-016
 -1.480000000000000E-002   -4.606538279789857E-016
 -1.470000000000000E-002   -4.151335333061341E-016
 -1.460000000000000E-002   -3.145059701830992E-016
 -1.450000000000000E-002   -1.599632324784709E-016
 -1.440000000000000E-002    4.097358027704832E-017
 -1.430000000000000E-002    2.741861700715278E-016
 -1.420000000000000E-002    5.194009147696847E-016
 -1.410000000000000E-002    7.514123337904233E-016
 -1.400000000000000E-002    9.420817351841728E-016
 -1.390000000000000E-002    1.063013170296470E-015
 -1.380000000000000E-002    1.088714540488365E-015
 -1.370000000000000E-002    9.999633389127548E-016
 -1.360000000000000E-002    7.870267703368736E-016
 -1.350000000000000E-002    4.523443723835806E-016
 -1.340000000000000E-002    1.227969701500189E-017
 -1.330000000000000E-002   -5.024107194696683E-016
 -1.320000000000000E-002   -1.047651999538377E-015
 -1.310000000000000E-002   -1.568797255001078E-015
 -1.300000000000000E-002   -2.005002001227892E-015
 -1.290000000000000E-002   -2.294992361984753E-015
 -1.280000000000000E-002   -2.383798203592021E-015
 -1.270000000000000E-002   -2.229843751569431E-015
 -1.260000000000000E-002   -1.811657227935514E-015
 -1.250000000000000E-002   -1.133386248231141E-015
 -1.240000000000000E-002   -2.283190562409117E-016
 -1.230000000000000E-002    8.402879384209237E-016
 -1.220000000000000E-002    1.981578004898783E-015
 -1.210000000000000E-002    3.082878159213592E-015
 -1.200000000000000E-002    4.018768282712861E-015
 -1.190000000000000E-002    4.662921169296485E-015
 -1.180000000000000E-002    4.901811494327855E-015
 -1.170000000000000E-002    4.649054580003918E-015
 -1.160000000000000E-002    3.858881561637004E-015
 -1.150000000000000E-002    2.537140035952244E-015
 -1.140000000000000E-002    7.482475683933819E-016
 -1.130000000000000E-002   -1.383250183621372E-015
 -1.120000000000000E-002   -3.677465308372667E-015
 -1.110000000000000E-002   -5.910681414481720E-015
 -1.100000000000000E-002   -7.833293074834275E-015
 -1.090000000000000E-002   -9.193127596968479E-015
 -1.080000000000000E-002   -9.762364755506444E-015
 -1.070000000000000E-002   -9.365627244402239E-015
 -1.060000000000000E-002   -7.906370001790444E-015
 -1.050000000000000E-002   -5.388457136962291E-015
 -1.040000000000000E-002   -1.929935953606730E-015
 -1.030000000000000E-002    2.233556208775404E-015
 -1.020000000000000E-002    6.757545881625625E-015
 -1.010000000000000E-002    1.121035377678927E-014
 -1.000000000000000E-002    1.510704056890561E-014
 -9.899999999999999E-003    1.795369969302155E-014
 -9.800000000000000E-003    1.929876438695592E-014
 -9.699999999999999E-003    1.878681366990172E-014
 -9.599999999999999E-003    1.620946509510539E-014
 -9.500000000000000E-003    1.154759846735385E-014
 -9.399999999999999E-003    4.999264571787331E-015
 -9.299999999999999E-003   -3.011552679148519E-015
 -9.200000000000000E-003   -1.184877018187797E-014
 -9.099999999999999E-003   -2.070214686997199E-014
 -8.999999999999999E-003   -2.864851048500540E-014
 -8.900000000000000E-003   -3.473288501091900E-014
 -8.799999999999999E-003   -3.806364557557045E-014
 -8.699999999999999E-003   -3.791360321166415E-014
 -8.600000000000000E-003   -3.381725130572388E-014
 -8.499999999999999E-003   -2.565363117908420E-014
 -8.399999999999999E-003   -1.370438446021082E-014
 -8.300000000000000E-003    1.322165032327324E-015
 -8.199999999999999E-003    1.830768595621322E-014
 -8.100000000000000E-003    3.578473132658565E-014
 -8.000000000000000E-003    5.204117351866919E-014
 -7.899999999999999E-003    6.526297049161154E-014
 -7.800000000000000E-003    7.370549338943065E-014
 -7.699999999999999E-003    7.587951207299749E-014
 -7.599999999999999E-003    7.073474192855271E-014
 -7.499999999999999E-003    5.782202240537634E-014
 -7.399999999999999E-003    3.741500972365958E-014
 -7.299999999999999E-003    1.057409901066319E-014
 -7.199999999999999E-003   -2.086100622101332E-014
 -7.100000000000000E-003   -5.435810230593359E-014
 -6.999999999999999E-003   -8.685961899847114E-014
 -6.899999999999999E-003   -1.150231045144689E-013
 -6.800000000000000E-003   -1.355197811559048E-013
 -6.699999999999999E-003   -1.453682876001773E-013
 -6.599999999999999E-003   -1.422743750197258E-013
 -6.499999999999999E-003   -1.249432426264502E-013
 -6.399999999999999E-003   -9.332989331976065E-014
 -6.299999999999999E-003   -4.879498924771402E-014
 -6.199999999999999E-003    5.860797833620565E-015
 -6.100000000000000E-003    6.650194430570455E-014
 -5.999999999999999E-003    1.279090162995696E-013
 -5.899999999999999E-003    1.841677458022051E-013
 -5.800000000000000E-003    2.291738803633521E-013
 -5.699999999999999E-003    2.572171269838869E-013
 -5.599999999999999E-003    2.635952161626233E-013
 -5.499999999999999E-003    2.452001781635366E-013
 -5.399999999999999E-003    2.010147730621896E-013
 -5.299999999999999E-003    1.324585204455718E-013
 -5.199999999999999E-003    4.353070642983570E-014
 -5.099999999999999E-003   -5.928830241150300E-014
 -4.999999999999999E-003   -1.673963357092494E-013
 -4.899999999999999E-003   -2.706842602491285E-013
 -4.799999999999999E-003   -3.583751391542781E-013
 -4.699999999999999E-003   -4.200295158528790E-013
 -4.599999999999999E-003   -4.466356032515081E-013
 -4.499999999999999E-003   -4.316838915091584E-013
 -4.399999999999999E-003   -3.721156523529252E-013
 -4.299999999999999E-003   -2.690339534216884E-013
 -4.199999999999999E-003   -1.280764455534018E-013
 -4.099999999999999E-003    4.062885938544375E-014
 -3.999999999999999E-003    2.229702092949365E-013
 -3.899999999999999E-003    4.018257175713863E-013
 -3.799999999999999E-003    5.584604128625664E-013
 -3.699999999999999E-003    6.742553901616287E-013
 -3.599999999999999E-003    7.326321433178024E-013
 -3.499999999999999E-003    7.209984239948045E-013
 -3.399999999999999E-003    6.325183479734783E-013
 -3.299999999999999E-003    4.675036876862645E-013
 -3.199999999999999E-003    2.342371693638298E-013
 -3.099999999999999E-003   -5.092624384602797E-014
 -2.999999999999999E-003   -3.642784671347772E-013
 -2.899999999999999E-003   -6.763236049809424E-013
 -2.799999999999999E-003   -9.541308975591603E-013
 -2.699999999999999E-003   -1.164328803913487E-012
 -2.599999999999999E-003   -1.276508535804805E-012
 -2.499999999999999E-003   -1.266735568848809E-012
 -2.399999999999999E-003   -1.120819510802031E-012
 -2.299999999999999E-003   -8.369744081528739E-013
 -2.199999999999999E-003   -4.275206106581013E-013
 -2.099999999999999E-003    8.066332400732708E-014
 -1.999999999999999E-003    6.471374449866367E-013
 -1.899999999999999E-003    1.220417276926503E-012
 -1.799999999999999E-003    1.741933988549081E-012
 -1.699999999999999E-003    2.151201283387908E-012
 -1.599999999999999E-003    2.391801292531178E-012
 -1.499999999999999E-003    2.417667224929205E-012
 -1.399999999999999E-003    2.199052590055676E-012
 -1.299999999999999E-003    1.727531746749270E-012
 -1.199999999999999E-003    1.019405706625860E-012
 -1.099999999999999E-003    1.169735879580611E-013
 -9.999999999999989E-004   -9.127076848894460E-013
 -8.999999999999990E-004   -1.981738257814985E-012
 -7.999999999999990E-004   -2.987870268801281E-012
 -6.999999999999989E-004   -3.823209701408285E-012
 -5.999999999999990E-004   -4.384482178052912E-012
 -4.999999999999989E-004   -4.583984583107385E-012
 -3.999999999999989E-004   -4.360178317044544E-012
 -2.999999999999989E-004   -3.686797151549043E-012
 -1.999999999999989E-004   -2.579374977744572E-012
 -9.999999999999892E-005   -1.098242546147174E-012
  1.084202172485504E-018    6.526933980666957E-013
  1.000000000000011E-004    2.531717762613878E-012
  2.000000000000011E-004    4.369512825140289E-012
  3.000000000000011E-004    5.983226995417535E-012
  4.000000000000011E-004    7.193372353602226E-012
  5.000000000000011E-004    7.842113606130967E-012
  6.000000000000011E-004    7.811222547137593E-012
  7.000000000000011E-004    7.037830359787077E-012
  8.000000000000011E-004    5.526140131569973E-012
  9.000000000000012E-004    3.353504761469847E-012
  1.000000000000001E-003    6.696868711662818E-013
  1.100000000000001E-003   -2.311290150704389E-012
  1.200000000000001E-003   -5.326583730060344E-012
  1.300000000000001E-003   -8.086385657149350E-012
  1.400000000000001E-003   -1.030056025829766E-011
  1.500000000000001E-003   -1.170778330873658E-011
  1.600000000000001E-003   -1.210442726207810E-011
  1.700000000000001E-003   -1.137019359469770E-011
  1.800000000000001E-003   -9.487562648388162E-012
  1.900000000000001E-003   -6.552480637744194E-012
  2.000000000000001E-003   -2.774390559773520E-012
  2.100000000000001E-003    1.535367555096299E-012
  2.200000000000001E-003    5.986632087844332E-012
  2.300000000000001E-003    1.014361533201355E-011
  2.400000000000001E-003    1.356568483944962E-011
  2.500000000000001E-003    1.585216670793460E-011
  2.600000000000001E-003    1.668689336442534E-011
  2.700000000000001E-003    1.587783243615172E-011
  2.800000000000001E-003    1.338724996682330E-011
  2.900000000000001E-003    9.348440317172426E-012
  3.000000000000001E-003    4.066108367179423E-012
  3.100000000000001E-003   -2.001054965428172E-012
  3.200000000000001E-003   -8.275336533244061E-012
  3.300000000000001E-003   -1.411037479530139E-011
  3.400000000000001E-003   -1.885300802464663E-011
  3.500000000000001E-003   -2.191113744084105E-011
  3.600000000000001E-003   -2.282102660907108E-011
  3.700000000000001E-003   -2.130695141164218E-011
  3.800000000000001E-003   -1.732631655092198E-011
  3.900000000000001E-003   -1.109425573982170E-011
  4.000000000000001E-003   -3.083389199821967E-012
  4.100000000000001E-003    6.003371261646358E-012
  4.200000000000001E-003    1.528645169052886E-011
  4.300000000000001E-003    2.378635301248231E-011
  4.400000000000001E-003    3.051747868932778E-011
  4.500000000000001E-003    3.459074282803317E-011
  4.600000000000002E-003    3.531504412337683E-011
  4.700000000000001E-003    3.228696733845708E-011
  4.800000000000001E-003    2.545840765620944E-011
  4.900000000000002E-003    1.517325325176136E-011
  5.000000000000001E-003    2.166715534217459E-012
  5.100000000000001E-003   -1.247574455490893E-011
  5.200000000000001E-003   -2.739905626628381E-011
  5.300000000000002E-003   -4.109373379779154E-011
  5.400000000000001E-003   -5.203666336638302E-011
  5.500000000000001E-003   -5.884514671917270E-011
  5.600000000000002E-003   -6.042956724753075E-011
  5.700000000000001E-003   -5.612895923151904E-011
  5.800000000000001E-003   -4.581432297644079E-011
  5.900000000000002E-003   -2.994660250889141E-011
  6.000000000000001E-003   -9.579880745287867E-012
  6.100000000000001E-003    1.369484834212773E-011
  6.200000000000002E-003    3.786424274427412E-011
  6.300000000000002E-003    6.065843842348145E-011
  6.400000000000001E-003    7.975535959245200E-011
  6.500000000000001E-003    9.300588587590904E-011
  6.600000000000002E-003    9.865882864116707E-011
  6.700000000000001E-003    9.556320551908260E-011
  6.800000000000001E-003    8.332593598797498E-011
  6.900000000000002E-003    6.240603878594832E-011
  7.000000000000001E-003    3.413141671534054E-011
  7.100000000000001E-003    6.312045706814316E-013
  7.200000000000002E-003   -3.531550089408044E-011
  7.300000000000002E-003   -7.050512598295778E-011
  7.400000000000001E-003   -1.015919826636501E-010
  7.500000000000001E-003   -1.254032601982441E-010
  7.600000000000002E-003   -1.392576355847627E-010
  7.700000000000001E-003   -1.412561178440266E-010
  7.800000000000001E-003   -1.305145873574469E-010
  7.900000000000001E-003   -1.073114050876274E-010
  8.000000000000002E-003   -7.313014144407272E-011
  8.100000000000001E-003   -3.058677387981378E-011
  8.200000000000001E-003    1.675848758742615E-011
  8.300000000000002E-003    6.469305431618297E-011
  8.400000000000001E-003    1.087248007453257E-010
  8.500000000000002E-003    1.445037732476794E-010
  8.600000000000002E-003    1.682538780434072E-010
  8.700000000000001E-003    1.771723294541783E-010
  8.800000000000002E-003    1.697555265834408E-010
  8.900000000000002E-003    1.460147778598645E-010
  9.000000000000001E-003    1.075542897362203E-010
  9.100000000000002E-003    5.749594856844846E-011
  9.200000000000002E-003    2.497812731146483E-013
  9.300000000000001E-003   -5.885565086024729E-011
  9.400000000000002E-003   -1.140539850165568E-010
  9.500000000000001E-003   -1.596911655619172E-010
  9.600000000000001E-003   -1.907940400276122E-010
  9.700000000000002E-003   -2.036016909748725E-010
  9.800000000000001E-003   -1.960046887531952E-010
  9.900000000000001E-003   -1.678432292435581E-010
  1.000000000000000E-002   -1.210266437623001E-010
  1.010000000000000E-002   -5.945253998709296E-011
  1.020000000000000E-002    1.127736974027843E-011
  1.030000000000000E-002    8.432780135393705E-011
  1.040000000000000E-002    1.522500250035568E-010
  1.050000000000000E-002    2.076981041775548E-010
  1.060000000000000E-002    2.441750844328356E-010
  1.070000000000000E-002    2.567363810380138E-010
  1.080000000000000E-002    2.425779262568052E-010
  1.090000000000000E-002    2.014438249188986E-010
  1.100000000000000E-002    1.358029532306178E-010
  1.110000000000000E-002    5.076371785153606E-011
  1.120000000000000E-002   -4.627924944867276E-011
  1.130000000000000E-002   -1.462466007202744E-010
  1.140000000000000E-002   -2.391783729811246E-010
  1.150000000000000E-002   -3.151724876549682E-010
  1.160000000000000E-002   -3.653724460762029E-010
  1.170000000000000E-002   -3.829093296868288E-010
  1.180000000000000E-002   -3.637025430439466E-010
  1.190000000000000E-002   -3.070324742766257E-010
  1.200000000000000E-002   -2.158156466262382E-010
  1.210000000000000E-002   -9.653864631677955E-011
  1.220000000000000E-002    4.116188728130279E-011
  1.230000000000000E-002    1.852518785108922E-010
  1.240000000000000E-002    3.223299774053355E-010
  1.250000000000000E-002    4.388499927575264E-010
  1.260000000000000E-002    5.224268045723912E-010
  1.270000000000000E-002    5.631030798685206E-010
  1.280000000000000E-002    5.544512688086962E-010
  1.290000000000000E-002    4.943943500361857E-010
  1.300000000000000E-002    3.856505552646203E-010
  1.310000000000000E-002    2.357380780591853E-010
  1.320000000000000E-002    5.651586702375046E-011
  1.330000000000000E-002   -1.367203223175223E-010
  1.340000000000000E-002   -3.265227104954880E-010
  1.350000000000000E-002   -4.948531484804394E-010
  1.360000000000000E-002   -6.247856270826375E-010
  1.370000000000000E-002   -7.021922171865586E-010
  1.380000000000000E-002   -7.172495084444462E-010
  1.390000000000000E-002   -6.656098356944418E-010
  1.400000000000000E-002   -5.491081015245838E-010
  1.410000000000000E-002   -3.759106993036180E-010
  1.420000000000000E-002   -1.600639703656356E-010
  1.430000000000000E-002    7.954573134090168E-011
  1.440000000000000E-002    3.207510284805747E-010
  1.450000000000000E-002    5.400585175857118E-010
  1.460000000000000E-002    7.148328567431703E-010
  1.470000000000000E-002    8.255123783556632E-010
  1.480000000000000E-002    8.576461465587728E-010
  1.490000000000000E-002    8.035491014930679E-010
  1.500000000000000E-002    6.633980088462077E-010
  1.510000000000000E-002    4.456364588804718E-010
  1.520000000000000E-002    1.666165259074340E-010
  1.530000000000000E-002   -1.505263535451038E-010
  1.540000000000000E-002   -4.776950027109915E-010
  1.550000000000000E-002   -7.842091423847966E-010
  1.560000000000000E-002   -1.039542528576497E-009
  1.570000000000000E-002   -1.216175536330714E-009
  1.580000000000000E-002   -1.292300026927286E-009
  1.590000000000000E-002   -1.254114230721107E-009
  1.600000000000000E-002   -1.097473616476891E-009
  1.610000000000000E-002   -8.287145052215188E-010
  1.620000000000000E-002   -4.645385901289374E-010
  1.630000000000000E-002   -3.093098323474521E-011
  1.640000000000000E-002    4.388250492055800E-010
  1.650000000000000E-002    9.068840030329569E-010
  1.660000000000000E-002    1.334095058114784E-009
  1.670000000000000E-002    1.683490908353409E-009
  1.680000000000000E-002    1.923686392257011E-009
  1.690000000000000E-002    2.031860915981195E-009
  1.700000000000000E-002    1.996026263414069E-009
  1.710000000000000E-002    1.816338655532635E-009
  1.720000000000000E-002    1.505298190328933E-009
  1.730000000000000E-002    1.086780360285237E-009
  1.740000000000000E-002    5.939552002444671E-010
  1.750000000000000E-002    6.626172947445224E-011
  1.760000000000000E-002   -4.542971064832872E-010
  1.770000000000000E-002   -9.271956411949125E-010
  1.780000000000000E-002   -1.317373509780504E-009
  1.790000000000000E-002   -1.598770482734328E-009
  1.800000000000000E-002   -1.757036079674240E-009
  1.810000000000000E-002   -1.791110072814054E-009
  1.820000000000000E-002   -1.713465544233241E-009
  1.830000000000000E-002   -1.548933770724224E-009
  1.840000000000000E-002   -1.332167176166277E-009
  1.850000000000000E-002   -1.103933167944757E-009
  1.860000000000000E-002   -9.065598943093566E-010
  1.870000000000000E-002   -7.789562824945115E-010