 -4.000000000000000E-002    0.000000000000000E+000
 -3.990000000000000E-002    0.000000000000000E+000
 -3.980000000000000E-002    2.441454059926514E-013
 -3.970000000000000E-002    3.241898370303819E-013
 -3.960000000000000E-002   -2.340241017558297E-012
 -3.950000000000000E-002   -1.447122531463886E-011
 -3.940000000000000E-002   -4.907132966171006E-011
 -3.930000000000000E-002   -1.273969452517939E-010
 -3.920000000000000E-002   -2.804417590687401E-010
 -3.910000000000000E-002   -5.496728520625847E-010
 -3.900000000000000E-002   -9.868661719311921E-010
 -3.890000000000000E-002   -1.653019704587593E-009
 -3.880000000000000E-002   -2.616431852431037E-009
 -3.870000000000000E-002   -3.950107238255849E-009
 -3.860000000000000E-002   -5.728697201704697E-009
 -3.850000000000000E-002   -8.025155697639629E-009
 -3.840000000000000E-002   -1.090722667821196E-008
 -3.830000000000000E-002   -1.443383118009745E-008
 -3.820000000000000E-002   -1.865131327223942E-008
 -3.810000000000000E-002   -2.358951879231404E-008
 -3.800000000000000E-002   -2.925764407781057E-008
 -3.790000000000000E-002   -3.563993709295441E-008
 -3.780000000000000E-002   -4.269139892123805E-008
 -3.770000000000000E-002   -5.033386637737652E-008
 -3.760000000000000E-002   -5.845292896237870E-008
 -3.750000000000000E-002   -6.689634703338383E-008
 -3.740000000000000E-002   -7.547455675416637E-008
 -3.730000000000000E-002   -8.396383504111894E-008
 -3.720000000000000E-002   -9.211246856312708E-008
 -3.710000000000000E-002   -9.964986466750142E-008
 -3.700000000000000E-002   -1.062982577789425E-007
 -3.690000000000000E-002   -1.117860768110292E-007
 -3.680000000000000E-002   -1.158618054784285E-007
 -3.670000000000000E-002   -1.183067050987209E-007
 -3.660000000000000E-002   -1.189448607919377E-007
 -3.650000000000000E-002   -1.176490038837560E-007
 -3.640000000000000E-002   -1.143410787336206E-007
 -3.630000000000000E-002   -1.089868957134813E-007
 -3.620000000000000E-002   -1.015852219400776E-007
 -3.610000000000000E-002   -9.215226779949757E-008
 -3.600000000000000E-002   -8.070335588392697E-008
 -3.590000000000000E-002   -6.723411668002387E-008
 -3.580000000000000E-002   -5.170403857852548E-008
 -3.570000000000000E-002   -3.402478912083017E-008
 -3.560000000000000E-002   -1.405582612365311E-008
 -3.550000000000000E-002    8.391374223633803E-009
 -3.540000000000000E-002    3.353991381707968E-008
 -3.530000000000000E-002    6.162558186914339E-008
 -3.520000000000000E-002    9.286863214769999E-008
 -3.510000000000000E-002    1.274419555445248E-007
 -3.500000000000000E-002    1.654392488469615E-007
 -3.490000000000000E-002    2.068476070708766E-007
 -3.480000000000000E-002    2.515281367944336E-007
 -3.470000000000000E-002    2.992071027440356E-007
 -3.460000000000000E-002    3.494810193605790E-007
 -3.450000000000000E-002    4.018348214691484E-007
 -3.440000000000000E-002    4.556729786861515E-007
 -3.430000000000000E-002    5.103612508225624E-007
 -3.420000000000000E-002    5.652752902288241E-007
 -3.410000000000000E-002    6.198525169434402E-007
 -3.400000000000000E-002    6.736414702728036E-007
 -3.390000000000000E-002    7.263461961062835E-007
 -3.380000000000000E-002    7.778612788490086E-007
 -3.370000000000000E-002    8.282961803624788E-007
 -3.360000000000000E-002    8.779874396790122E-007
 -3.350000000000000E-002    9.275001520819731E-007
 -3.340000000000000E-002    9.776197066539428E-007
 -3.330000000000000E-002    1.029336921613916E-006
 -3.320000000000000E-002    1.083828559901128E-006
 -3.310000000000000E-002    1.142435307603417E-006
 -3.300000000000000E-002    1.206639613431209E-006
 -3.290000000000000E-002    1.278043161689644E-006
 -3.280000000000000E-002    1.358343003354182E-006
 -3.270000000000000E-002    1.449304219764461E-006
 -3.260000000000000E-002    1.552729396358846E-006
 -3.250000000000000E-002    1.670418969210794E-006
 -3.240000000000000E-002    1.804123958877114E-006
 -3.230000000000000E-002    1.955490587756575E-006
 -3.220000000000000E-002    2.125995896081999E-006
 -3.210000000000000E-002    2.316883454794985E-006
 -3.200000000000000E-002    2.529098626781222E-006
 -3.190000000000000E-002    2.763236371063991E-006
 -3.180000000000000E-002    3.019507566445163E-006
 -3.170000000000000E-002    3.297730701981214E-006
 -3.160000000000000E-002    3.597357502367392E-006
 -3.150000000000000E-002    3.917533924790532E-006
 -3.140000000000000E-002    4.257198700666465E-006
 -3.130000000000000E-002    4.615214007238003E-006
 -3.120000000000000E-002    4.990519960680063E-006
 -3.110000000000000E-002    5.382299829939214E-006
 -3.100000000000000E-002    5.790140715726540E-006
 -3.090000000000000E-002    6.214173462076402E-006
 -3.080000000000000E-002    6.655173064965256E-006
 -3.070000000000000E-002    7.114610937168954E-006
 -3.060000000000000E-002    7.594640160272876E-006
 -3.050000000000000E-002    8.098016148534164E-006
 -3.040000000000000E-002    8.627954988232057E-006
 -3.030000000000000E-002    9.187941053103459E-006
 -3.020000000000000E-002    9.781492130481362E-006
 -3.010000000000000E-002    1.041190858938953E-005
 -3.000000000000000E-002    1.108202906366428E-005
 -2.990000000000000E-002    1.179402922609407E-005
 -2.980000000000000E-002    1.254925557578374E-005
 -2.970000000000000E-002    1.334814555925560E-005
 -2.960000000000000E-002    1.419022190054536E-005
 -2.950000000000000E-002    1.507417652375082E-005
 -2.940000000000000E-002    1.599802834151184E-005
 -2.930000000000000E-002    1.695933905669447E-005
 -2.920000000000000E-002    1.795548616092810E-005
 -2.910000000000000E-002    1.898393761801203E-005
 -2.900000000000000E-002    2.004252013446573E-005
 -2.890000000000000E-002    2.112964975994214E-005
 -2.880000000000000E-002    2.224451416482424E-005
 -2.870000000000000E-002    2.338715833964686E-005
 -2.860000000000000E-002    2.455851753978378E-005
 -2.850000000000000E-002    2.576035308954271E-005
 -2.840000000000000E-002    2.699513322253569E-005
 -2.830000000000000E-002    2.826586440212188E-005
 -2.820000000000000E-002    2.957588082447499E-005
 -2.810000000000000E-002    3.092865436308637E-005
 -2.800000000000000E-002    3.232760076356672E-005
 -2.790000000000000E-002    3.377594646917579E-005
 -2.780000000000000E-002    3.527663742632440E-005
 -2.770000000000000E-002    3.683230820863931E-005
 -2.760000000000000E-002    3.844531307848377E-005
 -2.750000000000000E-002    4.011780581940202E-005
 -2.740000000000000E-002    4.185184233191290E-005
 -2.730000000000000E-002    4.364951732837666E-005
 -2.720000000000000E-002    4.551309466293565E-005
 -2.710000000000000E-002    4.744509895624751E-005
 -2.700000000000000E-002    4.944838676964121E-005
 -2.690000000000000E-002    5.152618076663286E-005
 -2.680000000000000E-002    5.368205484666021E-005
 -2.670000000000000E-002    5.591984257732167E-005
 -2.660000000000000E-002    5.824356931125978E-005
 -2.650000000000000E-002    6.065736069746651E-005
 -2.640000000000000E-002    6.316529286621165E-005
 -2.630000000000000E-002    6.577130387357919E-005
 -2.620000000000000E-002    6.847912495625729E-005
 -2.610000000000000E-002    7.129222490251832E-005
 -2.600000000000000E-002    7.421381412102931E-005
 -2.590000000000000E-002    7.724684664413316E-005
 -2.580000000000000E-002    8.039402346079719E-005
 -2.570000000000000E-002    8.365791970440550E-005
 -2.560000000000000E-002    8.704097829662060E-005
 -2.550000000000000E-002    9.054552255321425E-005
 -2.540000000000000E-002    9.417385863931413E-005
 -2.530000000000000E-002    9.792817382828188E-005
 -2.520000000000000E-002    1.018105301870020E-004
 -2.510000000000000E-002    1.058228369974515E-004
 -2.500000000000000E-002    1.099667330296220E-004
 -2.490000000000000E-002    1.142435747681441E-004
 -2.480000000000000E-002    1.186543140508111E-004
 -2.470000000000000E-002    1.231995536277698E-004
 -2.460000000000000E-002    1.278795507444103E-004
 -2.450000000000000E-002    1.326942324971369E-004
 -2.440000000000000E-002    1.376432689407696E-004
 -2.430000000000000E-002    1.427262489581597E-004
 -2.420000000000000E-002    1.479427062668624E-004
 -2.410000000000000E-002    1.532923006018798E-004
 -2.400000000000000E-002    1.587747960965821E-004
 -2.390000000000000E-002    1.643900859861890E-004
 -2.380000000000000E-002    1.701381377575443E-004
 -2.370000000000000E-002    1.760188898956017E-004
 -2.360000000000000E-002    1.820320212057480E-004
 -2.350000000000000E-002    1.881767208526843E-004
 -2.340000000000000E-002    1.944514032349814E-004
 -2.330000000000000E-002    2.008533345125790E-004
 -2.320000000000000E-002    2.073786818063433E-004
 -2.310000000000000E-002    2.140218877170393E-004
 -2.300000000000000E-002    2.207756865340632E-004
 -2.290000000000000E-002    2.276311066510312E-004
 -2.280000000000000E-002    2.345774458918663E-004
 -2.270000000000000E-002    2.416025811323989E-004
 -2.260000000000000E-002    2.486927247385060E-004
 -2.250000000000000E-002    2.558330530415079E-004
 -2.240000000000000E-002    2.630076942369809E-004
 -2.230000000000000E-002    2.702000807265389E-004
 -2.220000000000000E-002    2.773929282691223E-004
 -2.210000000000000E-002    2.845683364637049E-004
 -2.200000000000000E-002    2.917077237646731E-004
 -2.190000000000000E-002    2.987915687063862E-004
 -2.180000000000000E-002    3.057990226037442E-004
 -2.170000000000000E-002    3.127078394294880E-004
 -2.160000000000000E-002    3.194934061810307E-004
 -2.150000000000000E-002    3.261286956198903E-004
 -2.140000000000000E-002    3.325839610900589E-004
 -2.130000000000000E-002    3.388259330743001E-004
 -2.120000000000000E-002    3.448178388340680E-004
 -2.110000000000000E-002    3.505193137572093E-004
 -2.100000000000000E-002    3.558864669751448E-004
 -2.090000000000000E-002    3.608715827775109E-004
 -2.080000000000000E-002    3.654239279230575E-004
 -2.070000000000000E-002    3.694897824144419E-004
 -2.060000000000000E-002    3.730123542878348E-004
 -2.050000000000000E-002    3.759323933142776E-004
 -2.040000000000000E-002    3.781877887984605E-004
 -2.030000000000000E-002    3.797139311793539E-004
 -2.020000000000000E-002    3.804436668271340E-004
 -2.010000000000000E-002    3.803062400450605E-004
 -2.000000000000000E-002    3.792276459011015E-004
 -1.990000000000000E-002    3.771293947463409E-004
 -1.980000000000000E-002    3.739277244374259E-004
 -1.970000000000000E-002    3.695344342181415E-004
 -1.960000000000000E-002    3.638542089140632E-004
 -1.950000000000000E-002    3.567855299180049E-004
 -1.940000000000000E-002    3.482199261209905E-004
 -1.930000000000000E-002    3.380418727590550E-004
 -1.920000000000000E-002    3.261283888865178E-004
 -1.910000000000000E-002    3.123497953765950E-004
 -1.900000000000000E-002    2.965685643399146E-004
 -1.890000000000000E-002    2.786420938896692E-004
 -1.880000000000000E-002    2.584186951648150E-004
 -1.870000000000000E-002    2.357417116156474E-004
 -1.860000000000000E-002    2.104472792685977E-004
 -1.850000000000000E-002    1.823658673251247E-004
 -1.840000000000000E-002    1.513197063396716E-004
 -1.830000000000000E-002    1.171231458834472E-004
 -1.820000000000000E-002    7.958334856052846E-005
 -1.810000000000000E-002    3.849827923872013E-005
 -1.800000000000000E-002   -6.343902175312446E-006
 -1.790000000000000E-002   -5.516585039368454E-005
 -1.780000000000000E-002   -1.082012482751916E-004
 -1.770000000000000E-002   -1.656962294866358E-004
 -1.760000000000000E-002   -2.279087873149393E-004
 -1.750000000000000E-002   -2.951098918222922E-004
 -1.740000000000000E-002   -3.675829596881063E-004
 -1.730000000000000E-002   -4.456244621681498E-004
 -1.720000000000000E-002   -5.295431522193499E-004
 -1.710000000000000E-002   -6.196615372564705E-004
 -1.700000000000000E-002   -7.163130701986051E-004
 -1.690000000000000E-002   -8.198449636116765E-004
 -1.680000000000000E-002   -9.306156710002398E-004
 -1.670000000000000E-002   -1.048997741950797E-003
 -1.660000000000000E-002   -1.175375350003076E-003
 -1.650000000000000E-002   -1.310148071248859E-003
 -1.640000000000000E-002   -1.453727811807705E-003
 -1.630000000000000E-002   -1.606544529726260E-003
 -1.620000000000000E-002   -1.769042334084867E-003
 -1.610000000000000E-002   -1.941683158958388E-003
 -1.600000000000000E-002   -2.124947408366252E-003
 -1.590000000000000E-002   -2.319334207566184E-003
 -1.580000000000000E-002   -2.525360792496394E-003
 -1.570000000000000E-002   -2.743565321310049E-003
 -1.560000000000000E-002   -2.974504449797925E-003
 -1.550000000000000E-002   -3.218756391930384E-003
 -1.540000000000000E-002   -3.476917505174364E-003
 -1.530000000000000E-002   -3.749604778325873E-003
 -1.520000000000000E-002   -4.037456241015864E-003
 -1.510000000000000E-002   -4.341125681597570E-003
 -1.500000000000000E-002   -4.661289978743976E-003
 -1.490000000000000E-002   -4.998641694249308E-003
 -1.480000000000000E-002   -5.353898539402916E-003
 -1.470000000000000E-002   -5.727797669458785E-003
 -1.460000000000000E-002   -6.121096031869859E-003
 -1.450000000000000E-002   -6.534575179956720E-003
 -1.440000000000000E-002   -6.969038175902784E-003
 -1.430000000000000E-002   -7.425310873881950E-003
 -1.420000000000000E-002   -7.904245149944535E-003
 -1.410000000000000E-002   -8.406719182353899E-003
 -1.400000000000000E-002   -8.933633222720266E-003
 -1.390000000000000E-002   -9.485911955191240E-003
 -1.380000000000000E-002   -1.006451334249774E-002
 -1.370000000000000E-002   -1.067041550490328E-002
 -1.360000000000000E-002   -1.130462284621513E-002
 -1.350000000000000E-002   -1.196816077140196E-002
 -1.340000000000000E-002   -1.266208641426267E-002
 -1.330000000000000E-002   -1.338747280366911E-002
 -1.320000000000000E-002   -1.414542508773806E-002
 -1.310000000000000E-002   -1.493706791467824E-002
 -1.300000000000000E-002   -1.576355096896000E-002
 -1.290000000000000E-002   -1.662604676627340E-002
 -1.280000000000000E-002   -1.752575544258911E-002
 -1.270000000000000E-002   -1.846389894007228E-002
 -1.260000000000000E-002   -1.944172508637012E-002
 -1.250000000000000E-002   -2.046051273084464E-002
 -1.240000000000000E-002   -2.152155561076780E-002
 -1.230000000000000E-002   -2.262618095278392E-002
 -1.220000000000000E-002   -2.377573155047180E-002
 -1.210000000000000E-002   -2.497158962763838E-002
 -1.200000000000000E-002   -2.621515234381156E-002
 -1.190000000000000E-002   -2.750784663379201E-002
 -1.180000000000000E-002   -2.885111571668760E-002
 -1.170000000000000E-002   -3.024642696992604E-002
 -1.160000000000000E-002   -3.169527087486537E-002
 -1.150000000000000E-002   -3.319915519900365E-002
 -1.140000000000000E-002   -3.475961326162307E-002
 -1.130000000000000E-002   -3.637819701984184E-002
 -1.120000000000000E-002   -3.805646699519051E-002
 -1.110000000000000E-002   -3.979601171500784E-002
 -1.100000000000000E-002   -4.159843661170304E-002
 -1.090000000000000E-002   -4.346535034249738E-002
 -1.080000000000000E-002   -4.539838715067841E-002
 -1.070000000000000E-002   -4.739920157525025E-002
 -1.060000000000000E-002   -4.946945966122336E-002
 -1.050000000000000E-002   -5.161083098483206E-002
 -1.040000000000000E-002   -5.382499974178488E-002
 -1.030000000000000E-002   -5.611366925788182E-002
 -1.020000000000000E-002   -5.847854940656345E-002
 -1.010000000000000E-002   -6.092134528065401E-002
 -1.000000000000000E-002   -6.344378342218321E-002
 -9.899999999999999E-003   -6.604759380593131E-002
 -9.800000000000000E-003   -6.873450841157366E-002
 -9.699999999999999E-003   -7.150623812219598E-002
 -9.599999999999999E-003   -7.436451675327019E-002
 -9.500000000000000E-003   -7.731106467633357E-002
 -9.399999999999999E-003   -8.034759231230984E-002
 -9.299999999999999E-003   -8.347582231345033E-002
 -9.200000000000000E-003   -8.669745112874558E-002
 -9.099999999999999E-003   -9.001416761938962E-002
 -8.999999999999999E-003   -9.342764775571849E-002
 -8.900000000000000E-003   -9.693955386257300E-002
 -8.799999999999999E-003   -0.100551529799584     
 -8.699999999999999E-003   -0.104265209630433     
 -8.600000000000000E-003   -0.108082198244652     
 -8.499999999999999E-003   -0.112004064250081     
 -8.399999999999999E-003   -0.116032380225698     
 -8.300000000000000E-003   -0.120168655872608     
 -8.199999999999999E-003   -0.124414387005613     
 -8.100000000000000E-003   -0.128771022260436     
 -8.000000000000000E-003   -0.133239993186068     
 -7.899999999999999E-003   -0.137822657844573     
 -7.800000000000000E-003   -0.142520369899674     
 -7.699999999999999E-003   -0.147334389300844     
 -7.599999999999999E-003   -0.152265958248071     
 -7.499999999999999E-003   -0.157316266034111     
 -7.399999999999999E-003   -0.162486432507866     
 -7.299999999999999E-003   -0.167777519550219     
 -7.199999999999999E-003   -0.173190528983348     
 -7.100000000000000E-003   -0.178726399256816     
 -6.999999999999999E-003   -0.184386004116034     
 -6.899999999999999E-003   -0.190170124894658     
 -6.800000000000000E-003   -0.196079494027842     
 -6.699999999999999E-003   -0.202114766350609     
 -6.599999999999999E-003   -0.208276483922290     
 -6.499999999999999E-003   -0.214565108838873     
 -6.399999999999999E-003   -0.220981031342292     
 -6.299999999999999E-003   -0.227524553716644     
 -6.199999999999999E-003   -0.234195840791272     
 -6.100000000000000E-003   -0.240995031069329     
 -5.999999999999999E-003   -0.247922077266693     
 -5.899999999999999E-003   -0.254976834353877     
 -5.800000000000000E-003   -0.262159116206931     
 -5.699999999999999E-003   -0.269468565623354     
 -5.599999999999999E-003   -0.276904736519157     
 -5.499999999999999E-003   -0.284467040613390     
 -5.399999999999999E-003   -0.292154777328105     
 -5.299999999999999E-003   -0.299967110895746     
 -5.199999999999999E-003   -0.307903092100616     
 -5.099999999999999E-003   -0.315961605649539     
 -4.999999999999999E-003   -0.324141423743199     
 -4.899999999999999E-003   -0.332441190313006     
 -4.799999999999999E-003   -0.340859350631813     
 -4.699999999999999E-003   -0.349394260012630     
 -4.599999999999999E-003   -0.358044111669683     
 -4.499999999999999E-003   -0.366806922204607     
 -4.399999999999999E-003   -0.375680576853518     
 -4.299999999999999E-003   -0.384662790788140     
 -4.199999999999999E-003   -0.393751140862520     
 -4.099999999999999E-003   -0.402942999301573     
 -3.999999999999999E-003   -0.412235601526802     
 -3.899999999999999E-003   -0.421626039309051     
 -3.799999999999999E-003   -0.431111174176210     
 -3.699999999999999E-003   -0.440687748561551     
 -3.599999999999999E-003   -0.450352311032200     
 -3.499999999999999E-003   -0.460101281169680     
 -3.399999999999999E-003   -0.469930834538117     
 -3.299999999999999E-003   -0.479837010115204     
 -3.199999999999999E-003   -0.489815673926022     
 -3.099999999999999E-003   -0.499862481951650     
 -2.999999999999999E-003   -0.509972901789261     
 -2.899999999999999E-003   -0.520142277006604     
 -2.799999999999999E-003   -0.530365737994440     
 -2.699999999999999E-003   -0.540638248843147     
 -2.599999999999999E-003   -0.550954539193842     
 -2.499999999999999E-003   -0.561309175724614     
 -2.399999999999999E-003   -0.571696616784398     
 -2.299999999999999E-003   -0.582111041012994     
 -2.199999999999999E-003   -0.592546564156116     
 -2.099999999999999E-003   -0.602996983151907     
 -1.999999999999999E-003   -0.613456021635548     
 -1.899999999999999E-003   -0.623917212375400     
 -1.799999999999999E-003   -0.634373911550117     
 -1.699999999999999E-003   -0.644819293443879     
 -1.599999999999999E-003   -0.655246402037246     
 -1.499999999999999E-003   -0.665648083268001     
 -1.399999999999999E-003   -0.676016983009783     
 -1.299999999999999E-003   -0.686345634605734     
 -1.199999999999999E-003   -0.696626449498743     
 -1.099999999999999E-003   -0.706851634527706     
 -9.999999999999989E-004   -0.717013223964683     
 -8.999999999999990E-004   -0.727103198026236     
 -7.999999999999990E-004   -0.737113318523954     
 -6.999999999999989E-004   -0.747035227512792     
 -5.999999999999990E-004   -0.756860457186508     
 -4.999999999999989E-004   -0.766580411362431     
 -3.999999999999989E-004   -0.776186342937849     
 -2.999999999999989E-004   -0.785669480951554     
 -1.999999999999989E-004   -0.795020814997325     
 -9.999999999999892E-005   -0.804231409995932     
  1.084202172485504E-018   -0.813292081775566     
  1.000000000000011E-004   -0.822193618292309     
  2.000000000000011E-004   -0.830926695606597     
  3.000000000000011E-004   -0.839482034118136     
  4.000000000000011E-004   -0.847850183768111     
  5.000000000000011E-004   -0.856021639557314     
  6.000000000000011E-004   -0.863986890660694     
  7.000000000000011E-004   -0.871736337463886     
  8.000000000000011E-004   -0.879260372307716     
  9.000000000000012E-004   -0.886549351988214     
  1.000000000000001E-003   -0.893593628176368     
  1.100000000000001E-003   -0.900383650413542     
  1.200000000000001E-003   -0.906909649889354     
  1.300000000000001E-003   -0.913162087549267     
  1.400000000000001E-003   -0.919131386727166     
  1.500000000000001E-003   -0.924807981175772     
  1.600000000000001E-003   -0.930182313866308     
  1.700000000000001E-003   -0.935245012931609     
  1.800000000000001E-003   -0.939986664844895     
  1.900000000000001E-003   -0.944397883679869     
  2.000000000000001E-003   -0.948469594820053     
  2.100000000000001E-003   -0.952192570025005     
  2.200000000000001E-003   -0.955557795502899     
  2.300000000000001E-003   -0.958556391826681     
  2.400000000000001E-003   -0.961179645734862     
  2.500000000000001E-003   -0.963418932347538     
  2.600000000000001E-003   -0.965265689730868     
  2.700000000000001E-003   -0.966711713649949     
  2.800000000000001E-003   -0.967748833863113     
  2.900000000000001E-003   -0.968369189288202     
  3.000000000000001E-003   -0.968564980275068     
  3.100000000000001E-003   -0.968328638763222     
  3.200000000000001E-003   -0.967652909727448     
  3.300000000000001E-003   -0.966530679182405     
  3.400000000000001E-003   -0.964955182528808     
  3.500000000000001E-003   -0.962919753252271     
  3.600000000000001E-003   -0.960418192499497     
  3.700000000000001E-003   -0.957444455413903     
  3.800000000000001E-003   -0.953992733083757     
  3.900000000000001E-003   -0.950057607261266     
  4.000000000000001E-003   -0.945633949781990     
  4.100000000000001E-003   -0.940716874897645     
  4.200000000000001E-003   -0.935301955752312     
  4.300000000000001E-003   -0.929385004869491     
  4.400000000000001E-003   -0.922962177690441     
  4.500000000000001E-003   -0.916029999091331     
  4.600000000000002E-003   -0.908585338007011     
  4.700000000000001E-003   -0.900625489068269     
  4.800000000000001E-003   -0.892148112172321     
  4.900000000000002E-003   -0.883151197268284     
  5.000000000000001E-003   -0.873633159904726     
  5.100000000000001E-003   -0.863592818392214     
  5.200000000000001E-003   -0.853029436907305     
  5.300000000000002E-003   -0.841942681877696     
  5.400000000000001E-003   -0.830332638280047     
  5.500000000000001E-003   -0.818199800989410     
  5.600000000000002E-003   -0.805545044538672     
  5.700000000000001E-003   -0.792369746566173     
  5.800000000000001E-003   -0.778675754285430     
  5.900000000000002E-003   -0.764465251442966     
  6.000000000000001E-003   -0.749740968217745     
  6.100000000000001E-003   -0.734506065084517     
  6.200000000000002E-003   -0.718764114971271     
  6.300000000000002E-003   -0.702519199231547     
  6.400000000000001E-003   -0.685775811571622     
  6.500000000000001E-003   -0.668538941337138     
  6.600000000000002E-003   -0.650814002431685     
  6.700000000000001E-003   -0.632606900967922     
  6.800000000000001E-003   -0.613923989191025     
  6.900000000000002E-003   -0.594772051500571     
  7.000000000000001E-003   -0.575158362789040     
  7.100000000000001E-003   -0.555090617524190     
  7.200000000000002E-003   -0.534576955508863     
  7.300000000000002E-003   -0.513626008134725     
  7.400000000000001E-003   -0.492246793493615     
  7.500000000000001E-003   -0.470448765241665     
  7.600000000000002E-003   -0.448241905045819     
  7.700000000000001E-003   -0.425636448263151     
  7.800000000000001E-003   -0.402643209017648     
  7.900000000000001E-003   -0.379273338220822     
  8.000000000000002E-003   -0.355538372407029     
  8.100000000000001E-003   -0.331450298392078     
  8.200000000000001E-003   -0.307021501682176     
  8.300000000000002E-003   -0.282264746631707     
  8.400000000000001E-003   -0.257193144411734     
  8.500000000000002E-003   -0.231820157391796     
  8.600000000000002E-003   -0.206159621437957     
  8.700000000000001E-003   -0.180225707968791     
  8.800000000000002E-003   -0.154032946803847     
  8.900000000000002E-003   -0.127596151939531     
  9.000000000000001E-003   -0.100930433263906     
  9.100000000000002E-003   -7.405121479964438E-002
  9.200000000000002E-003   -4.697423951620283E-002
  9.300000000000001E-003   -1.971543578735213E-002
  9.400000000000002E-003    7.708979293655271E-003
  9.500000000000001E-003    3.528254826585406E-002
  9.600000000000001E-003    6.298854967896605E-002
  9.700000000000002E-003    9.081014483710320E-002
  9.800000000000001E-003    0.118730204229087     
  9.900000000000001E-003    0.146731479819110     
  1.000000000000000E-002    0.174796527681075     
  1.010000000000000E-002    0.202907803493681     
  1.020000000000000E-002    0.231047564960178     
  1.030000000000000E-002    0.259198072982206     
  1.040000000000000E-002    0.287341339101076     
  1.050000000000000E-002    0.315459439405882     
  1.060000000000000E-002    0.343534224529333     
  1.070000000000000E-002    0.371547742031966     
  1.080000000000000E-002    0.399481863318529     
  1.090000000000000E-002    0.427318430364792     
  1.100000000000000E-002    0.455039349702590     
  1.110000000000000E-002    0.482626587826995     
  1.120000000000000E-002    0.510062089751082     
  1.130000000000000E-002    0.537327897932783     
  1.140000000000000E-002    0.564406115091544     
  1.150000000000000E-002    0.591278932387531     
  1.160000000000000E-002    0.617928748334158     
  1.170000000000000E-002    0.644338029117842     
  1.180000000000000E-002    0.670489336960214     
  1.190000000000000E-002    0.696365529832238     
  1.200000000000000E-002    0.721949591157052     
  1.210000000000000E-002    0.747224668787172     
  1.220000000000000E-002    0.772174147112905     
  1.230000000000000E-002    0.796781749333572     
  1.240000000000000E-002    0.821031389978526     
  1.250000000000000E-002    0.844907189061948     
  1.260000000000000E-002    0.868393661997883     
  1.270000000000000E-002    0.891475520173405     
  1.280000000000000E-002    0.914138027294358     
  1.290000000000000E-002    0.936366465757146     
  1.300000000000000E-002    0.958146670964825     
  1.310000000000000E-002    0.979464733433382     
  1.320000000000000E-002     1.00030722248032     
  1.330000000000000E-002     1.02066108691757     
  1.340000000000000E-002     1.04051356658743     
  1.350000000000000E-002     1.05985240583255     
  1.360000000000000E-002     1.07866584510340     
  1.370000000000000E-002     1.09694244942945     
  1.380000000000000E-002     1.11467124652081     
  1.390000000000000E-002     1.13184183260953     
  1.400000000000000E-002     1.14844410484285     
  1.410000000000000E-002     1.16446853391907     
  1.420000000000000E-002     1.17990619086668     
  1.430000000000000E-002     1.19474845784257     
  1.440000000000000E-002     1.20898727695548     
  1.450000000000000E-002     1.22261516284814     
  1.460000000000000E-002     1.23562519412753     
  1.470000000000000E-002     1.24801079756667     
  1.480000000000000E-002     1.25976606968156     
  1.490000000000000E-002     1.27088565335539     
  1.500000000000000E-002     1.28136459028393     
  1.510000000000000E-002     1.29119849521345     
  1.520000000000000E-002     1.30038366702034     
  1.530000000000000E-002     1.30891688586017     
  1.540000000000000E-002     1.31679545629877     
  1.550000000000000E-002     1.32401722852715     
  1.560000000000000E-002     1.33058055301605     
  1.570000000000000E-002     1.33648446519191     
  1.580000000000000E-002     1.34172846153520     
  1.590000000000000E-002     1.34631262927357     
  1.600000000000000E-002     1.35023751579450     
  1.610000000000000E-002     1.35350431365478     
  1.620000000000000E-002     1.35611467807427     
  1.630000000000000E-002     1.35807087854889     
  1.640000000000000E-002     1.35937561596149     
  1.650000000000000E-002     1.36003216291892     
  1.660000000000000E-002     1.36004440728288     
  1.670000000000000E-002     1.35941657878971     
  1.680000000000000E-002     1.35815342954896     
  1.690000000000000E-002     1.35626029552406     
  1.700000000000000E-002     1.35374294061656     
  1.710000000000000E-002     1.35060763790115     
  1.720000000000000E-002     1.34686100416825     
  1.730000000000000E-002     1.34251031786767     
  1.740000000000000E-002     1.33756325551824     
  1.750000000000000E-002     1.33202778631825     
  1.760000000000000E-002     1.32591256510882     
  1.770000000000000E-002     1.31922640211659     
  1.780000000000000E-002     1.31197874194021     
  1.790000000000000E-002     1.30417920847604     
  1.800000000000000E-002     1.29583799069730     
  1.810000000000000E-002     1.28696546660710     
  1.820000000000000E-002     1.27757252814172     
  1.830000000000000E-002     1.26767032751723     
  1.840000000000000E-002     1.25727038631790     
  1.850000000000000E-002     1.24638444876662     
  1.860000000000000E-002     1.23502457332075     
  1.870000000000000E-002     1.22320324036837     