 -4.000000000000000E-002    0.000000000000000E+000
 -3.990000000000000E-002    0.000000000000000E+000
 -3.980000000000000E-002    0.000000000000000E+000
 -3.970000000000000E-002    0.000000000000000E+000
 -3.960000000000000E-002    0.000000000000000E+000
 -3.950000000000000E-002    0.000000000000000E+000
 -3.940000000000000E-002    0.000000000000000E+000
 -3.930000000000000E-002    0.000000000000000E+000
 -3.920000000000000E-002    0.000000000000000E+000
 -3.910000000000000E-002    0.000000000000000E+000
 -3.900000000000000E-002    0.000000000000000E+000
 -3.890000000000000E-002    0.000000000000000E+000
 -3.880000000000000E-002    0.000000000000000E+000
 -3.870000000000000E-002    0.000000000000000E+000
 -3.860000000000000E-002    0.000000000000000E+000
 -3.850000000000000E-002    0.000000000000000E+000
 -3.840000000000000E-002    0.000000000000000E+000
 -3.830000000000000E-002    0.000000000000000E+000
 -3.820000000000000E-002    0.000000000000000E+000
 -3.810000000000000E-002    0.000000000000000E+000
 -3.800000000000000E-002    0.000000000000000E+000
 -3.790000000000000E-002    0.000000000000000E+000
 -3.780000000000000E-002    0.000000000000000E+000
 -3.770000000000000E-002    0.000000000000000E+000
 -3.760000000000000E-002    0.000000000000000E+000
 -3.750000000000000E-002    0.000000000000000E+000
 -3.740000000000000E-002    0.000000000000000E+000
 -3.730000000000000E-002    0.000000000000000E+000
 -3.720000000000000E-002    0.000000000000000E+000
 -3.710000000000000E-002    0.000000000000000E+000
 -3.700000000000000E-002    0.000000000000000E+000
 -3.690000000000000E-002    0.000000000000000E+000
 -3.680000000000000E-002    0.000000000000000E+000
 -3.670000000000000E-002    0.000000000000000E+000
 -3.660000000000000E-002    0.000000000000000E+000
 -3.650000000000000E-002    0.000000000000000E+000
 -3.640000000000000E-002    0.000000000000000E+000
 -3.630000000000000E-002    0.000000000000000E+000
 -3.620000000000000E-002    0.000000000000000E+000
 -3.610000000000000E-002    0.000000000000000E+000
 -3.600000000000000E-002    0.000000000000000E+000
 -3.590000000000000E-002    0.000000000000000E+000
 -3.580000000000000E-002    0.000000000000000E+000
 -3.570000000000000E-002    0.000000000000000E+000
 -3.560000000000000E-002    0.000000000000000E+000
 -3.550000000000000E-002    0.000000000000000E+000
 -3.540000000000000E-002    0.000000000000000E+000
 -3.530000000000000E-002    0.000000000000000E+000
 -3.520000000000000E-002    0.000000000000000E+000
 -3.510000000000000E-002    0.000000000000000E+000
 -3.500000000000000E-002    0.000000000000000E+000
 -3.490000000000000E-002    0.000000000000000E+000
 -3.480000000000000E-002    0.000000000000000E+000
 -3.470000000000000E-002    0.000000000000000E+000
 -3.460000000000000E-002    0.000000000000000E+000
 -3.450000000000000E-002    0.000000000000000E+000
 -3.440000000000000E-002    0.000000000000000E+000
 -3.430000000000000E-002    0.000000000000000E+000
 -3.420000000000000E-002    0.000000000000000E+000
 -3.410000000000000E-002    0.000000000000000E+000
 -3.400000000000000E-002    0.000000000000000E+000
 -3.390000000000000E-002    0.000000000000000E+000
 -3.380000000000000E-002    0.000000000000000E+000
 -3.370000000000000E-002    0.000000000000000E+000
 -3.360000000000000E-002    0.000000000000000E+000
 -3.350000000000000E-002    0.000000000000000E+000
 -3.340000000000000E-002    0.000000000000000E+000
 -3.330000000000000E-002    0.000000000000000E+000
 -3.320000000000000E-002    0.000000000000000E+000
 -3.310000000000000E-002    0.000000000000000E+000
 -3.300000000000000E-002    0.000000000000000E+000
 -3.290000000000000E-002    0.000000000000000E+000
 -3.280000000000000E-002    0.000000000000000E+000
 -3.270000000000000E-002    0.000000000000000E+000
 -3.260000000000000E-002    0.000000000000000E+000
 -3.250000000000000E-002    0.000000000000000E+000
 -3.240000000000000E-002    0.000000000000000E+000
 -3.230000000000000E-002    0.000000000000000E+000
 -3.220000000000000E-002    0.000000000000000E+000
 -3.210000000000000E-002    0.000000000000000E+000
 -3.200000000000000E-002    0.000000000000000E+000
 -3.190000000000000E-002    0.000000000000000E+000
 -3.180000000000000E-002    0.000000000000000E+000
 -3.170000000000000E-002    0.000000000000000E+000
 -3.160000000000000E-002    0.000000000000000E+000
 -3.150000000000000E-002    0.000000000000000E+000
 -3.140000000000000E-002    0.000000000000000E+000
 -3.130000000000000E-002    0.000000000000000E+000
 -3.120000000000000E-002    0.000000000000000E+000
 -3.110000000000000E-002    0.000000000000000E+000
 -3.100000000000000E-002    0.000000000000000E+000
 -3.090000000000000E-002    0.000000000000000E+000
 -3.080000000000000E-002    0.000000000000000E+000
 -3.070000000000000E-002    0.000000000000000E+000
 -3.060000000000000E-002    0.000000000000000E+000
 -3.050000000000000E-002    0.000000000000000E+000
 -3.040000000000000E-002    0.000000000000000E+000
 -3.030000000000000E-002    0.000000000000000E+000
 -3.020000000000000E-002    0.000000000000000E+000
 -3.010000000000000E-002    0.000000000000000E+000
 -3.000000000000000E-002    0.000000000000000E+000
 -2.990000000000000E-002    0.000000000000000E+000
 -2.980000000000000E-002    0.000000000000000E+000
 -2.970000000000000E-002    0.000000000000000E+000
 -2.960000000000000E-002    0.000000000000000E+000
 -2.950000000000000E-002    0.000000000000000E+000
 -2.940000000000000E-002    0.000000000000000E+000
 -2.930000000000000E-002    0.000000000000000E+000
 -2.920000000000000E-002    0.000000000000000E+000
 -2.910000000000000E-002    0.000000000000000E+000
 -2.900000000000000E-002    0.000000000000000E+000
 -2.890000000000000E-002    0.000000000000000E+000
 -2.880000000000000E-002    0.000000000000000E+000
 -2.870000000000000E-002    0.000000000000000E+000
 -2.860000000000000E-002    0.000000000000000E+000
 -2.850000000000000E-002    0.000000000000000E+000
 -2.840000000000000E-002    0.000000000000000E+000
 -2.830000000000000E-002    0.000000000000000E+000
 -2.820000000000000E-002    0.000000000000000E+000
 -2.810000000000000E-002    0.000000000000000E+000
 -2.800000000000000E-002    0.000000000000000E+000
 -2.790000000000000E-002    0.000000000000000E+000
 -2.780000000000000E-002    0.000000000000000E+000
 -2.770000000000000E-002    0.000000000000000E+000
 -2.760000000000000E-002    0.000000000000000E+000
 -2.750000000000000E-002    0.000000000000000E+000
 -2.740000000000000E-002    0.000000000000000E+000
 -2.730000000000000E-002    0.000000000000000E+000
 -2.720000000000000E-002    0.000000000000000E+000
 -2.710000000000000E-002    0.000000000000000E+000
 -2.700000000000000E-002    0.000000000000000E+000
 -2.690000000000000E-002    0.000000000000000E+000
 -2.680000000000000E-002    0.000000000000000E+000
 -2.670000000000000E-002    0.000000000000000E+000
 -2.660000000000000E-002    0.000000000000000E+000
 -2.650000000000000E-002    0.000000000000000E+000
 -2.640000000000000E-002    0.000000000000000E+000
 -2.630000000000000E-002    0.000000000000000E+000
 -2.620000000000000E-002    0.000000000000000E+000
 -2.610000000000000E-002    0.000000000000000E+000
 -2.600000000000000E-002    0.000000000000000E+000
 -2.590000000000000E-002    0.000000000000000E+000
 -2.580000000000000E-002    0.000000000000000E+000
 -2.570000000000000E-002    0.000000000000000E+000
 -2.560000000000000E-002    0.000000000000000E+000
 -2.550000000000000E-002    0.000000000000000E+000
 -2.540000000000000E-002    0.000000000000000E+000
 -2.530000000000000E-002    0.000000000000000E+000
 -2.520000000000000E-002    0.000000000000000E+000
 -2.510000000000000E-002    0.000000000000000E+000
 -2.500000000000000E-002    0.000000000000000E+000
 -2.490000000000000E-002    0.000000000000000E+000
 -2.480000000000000E-002    0.000000000000000E+000
 -2.470000000000000E-002    0.000000000000000E+000
 -2.460000000000000E-002    0.000000000000000E+000
 -2.450000000000000E-002    0.000000000000000E+000
 -2.440000000000000E-002    0.000000000000000E+000
 -2.430000000000000E-002    0.000000000000000E+000
 -2.420000000000000E-002    0.000000000000000E+000
 -2.410000000000000E-002    0.000000000000000E+000
 -2.400000000000000E-002    0.000000000000000E+000
 -2.390000000000000E-002    0.000000000000000E+000
 -2.380000000000000E-002    0.000000000000000E+000
 -2.370000000000000E-002    0.000000000000000E+000
 -2.360000000000000E-002    0.000000000000000E+000
 -2.350000000000000E-002    0.000000000000000E+000
 -2.340000000000000E-002    0.000000000000000E+000
 -2.330000000000000E-002    0.000000000000000E+000
 -2.320000000000000E-002    0.000000000000000E+000
 -2.310000000000000E-002    0.000000000000000E+000
 -2.300000000000000E-002    0.000000000000000E+000
 -2.290000000000000E-002    0.000000000000000E+000
 -2.280000000000000E-002    0.000000000000000E+000
 -2.270000000000000E-002    0.000000000000000E+000
 -2.260000000000000E-002    0.000000000000000E+000
 -2.250000000000000E-002    0.000000000000000E+000
 -2.240000000000000E-002    0.000000000000000E+000
 -2.230000000000000E-002    0.000000000000000E+000
 -2.220000000000000E-002    0.000000000000000E+000
 -2.210000000000000E-002    0.000000000000000E+000
 -2.200000000000000E-002    0.000000000000000E+000
 -2.190000000000000E-002    0.000000000000000E+000
 -2.180000000000000E-002    0.000000000000000E+000
 -2.170000000000000E-002    0.000000000000000E+000
 -2.160000000000000E-002    0.000000000000000E+000
 -2.150000000000000E-002    0.000000000000000E+000
 -2.140000000000000E-002    0.000000000000000E+000
 -2.130000000000000E-002    0.000000000000000E+000
 -2.120000000000000E-002    0.000000000000000E+000
 -2.110000000000000E-002    0.000000000000000E+000
 -2.100000000000000E-002    0.000000000000000E+000
 -2.090000000000000E-002    0.000000000000000E+000
 -2.080000000000000E-002    0.000000000000000E+000
 -2.070000000000000E-002    0.000000000000000E+000
 -2.060000000000000E-002    0.000000000000000E+000
 -2.050000000000000E-002    0.000000000000000E+000
 -2.040000000000000E-002    0.000000000000000E+000
 -2.030000000000000E-002    0.000000000000000E+000
 -2.020000000000000E-002    0.000000000000000E+000
 -2.010000000000000E-002    0.000000000000000E+000
 -2.000000000000000E-002    0.000000000000000E+000
 -1.990000000000000E-002    0.000000000000000E+000
 -1.980000000000000E-002    0.000000000000000E+000
 -1.970000000000000E-002    0.000000000000000E+000
 -1.960000000000000E-002    0.000000000000000E+000
 -1.950000000000000E-002    0.000000000000000E+000
 -1.940000000000000E-002    0.000000000000000E+000
 -1.930000000000000E-002    0.000000000000000E+000
 -1.920000000000000E-002    0.000000000000000E+000
 -1.910000000000000E-002    0.000000000000000E+000
 -1.900000000000000E-002    0.000000000000000E+000
 -1.890000000000000E-002    0.000000000000000E+000
 -1.880000000000000E-002    0.000000000000000E+000
 -1.870000000000000E-002    0.000000000000000E+000
 -1.860000000000000E-002    0.000000000000000E+000
 -1.850000000000000E-002    0.000000000000000E+000
 -1.840000000000000E-002    0.000000000000000E+000
 -1.830000000000000E-002    0.000000000000000E+000
 -1.820000000000000E-002    0.000000000000000E+000
 -1.810000000000000E-002    0.000000000000000E+000
 -1.800000000000000E-002    0.000000000000000E+000
 -1.790000000000000E-002    0.000000000000000E+000
 -1.780000000000000E-002    0.000000000000000E+000
 -1.770000000000000E-002    0.000000000000000E+000
 -1.760000000000000E-002    0.000000000000000E+000
 -1.750000000000000E-002    0.000000000000000E+000
 -1.740000000000000E-002    0.000000000000000E+000
 -1.730000000000000E-002    0.000000000000000E+000
 -1.720000000000000E-002    0.000000000000000E+000
 -1.710000000000000E-002    0.000000000000000E+000
 -1.700000000000000E-002    0.000000000000000E+000
 -1.690000000000000E-002    0.000000000000000E+000
 -1.680000000000000E-002    0.000000000000000E+000
 -1.670000000000000E-002    0.000000000000000E+000
 -1.660000000000000E-002    0.000000000000000E+000
 -1.650000000000000E-002    0.000000000000000E+000
 -1.640000000000000E-002    0.000000000000000E+000
 -1.630000000000000E-002    0.000000000000000E+000
 -1.620000000000000E-002    0.000000000000000E+000
 -1.610000000000000E-002    0.000000000000000E+000
 -1.600000000000000E-002    0.000000000000000E+000
 -1.590000000000000E-002    0.000000000000000E+000
 -1.580000000000000E-002    0.000000000000000E+000
 -1.570000000000000E-002    0.000000000000000E+000
 -1.560000000000000E-002    0.000000000000000E+000
 -1.550000000000000E-002    0.000000000000000E+000
 -1.540000000000000E-002    0.000000000000000E+000
 -1.530000000000000E-002    0.000000000000000E+000
 -1.520000000000000E-002    0.000000000000000E+000
 -1.510000000000000E-002    0.000000000000000E+000
 -1.500000000000000E-002    0.000000000000000E+000
 -1.490000000000000E-002    0.000000000000000E+000
 -1.480000000000000E-002    0.000000000000000E+000
 -1.470000000000000E-002    0.000000000000000E+000
 -1.460000000000000E-002    0.000000000000000E+000
 -1.450000000000000E-002    0.000000000000000E+000
 -1.440000000000000E-002    0.000000000000000E+000
 -1.430000000000000E-002    0.000000000000000E+000
 -1.420000000000000E-002    0.000000000000000E+000
 -1.410000000000000E-002    0.000000000000000E+000
 -1.400000000000000E-002    0.000000000000000E+000
 -1.390000000000000E-002    0.000000000000000E+000
 -1.380000000000000E-002    0.000000000000000E+000
 -1.370000000000000E-002    0.000000000000000E+000
 -1.360000000000000E-002    0.000000000000000E+000
 -1.350000000000000E-002    0.000000000000000E+000
 -1.340000000000000E-002    0.000000000000000E+000
 -1.330000000000000E-002    0.000000000000000E+000
 -1.320000000000000E-002    0.000000000000000E+000
 -1.310000000000000E-002    0.000000000000000E+000
 -1.300000000000000E-002    0.000000000000000E+000
 -1.290000000000000E-002    0.000000000000000E+000
 -1.280000000000000E-002    0.000000000000000E+000
 -1.270000000000000E-002    0.000000000000000E+000
 -1.260000000000000E-002    0.000000000000000E+000
 -1.250000000000000E-002    0.000000000000000E+000
 -1.240000000000000E-002    0.000000000000000E+000
 -1.230000000000000E-002    0.000000000000000E+000
 -1.220000000000000E-002    0.000000000000000E+000
 -1.210000000000000E-002    0.000000000000000E+000
 -1.200000000000000E-002    0.000000000000000E+000
 -1.190000000000000E-002    0.000000000000000E+000
 -1.180000000000000E-002    0.000000000000000E+000
 -1.170000000000000E-002    0.000000000000000E+000
 -1.160000000000000E-002    0.000000000000000E+000
 -1.150000000000000E-002    0.000000000000000E+000
 -1.140000000000000E-002    0.000000000000000E+000
 -1.130000000000000E-002    0.000000000000000E+000
 -1.120000000000000E-002    0.000000000000000E+000
 -1.110000000000000E-002    0.000000000000000E+000
 -1.100000000000000E-002    0.000000000000000E+000
 -1.090000000000000E-002    0.000000000000000E+000
 -1.080000000000000E-002    0.000000000000000E+000
 -1.070000000000000E-002    0.000000000000000E+000
 -1.060000000000000E-002    0.000000000000000E+000
 -1.050000000000000E-002    0.000000000000000E+000
 -1.040000000000000E-002    0.000000000000000E+000
 -1.030000000000000E-002    0.000000000000000E+000
 -1.020000000000000E-002    0.000000000000000E+000
 -1.010000000000000E-002    0.000000000000000E+000
 -1.000000000000000E-002    0.000000000000000E+000
 -9.899999999999999E-003    0.000000000000000E+000
 -9.800000000000000E-003    0.000000000000000E+000
 -9.699999999999999E-003    0.000000000000000E+000
 -9.599999999999999E-003    0.000000000000000E+000
 -9.500000000000000E-003    0.000000000000000E+000
 -9.399999999999999E-003    0.000000000000000E+000
 -9.299999999999999E-003    0.000000000000000E+000
 -9.200000000000000E-003    0.000000000000000E+000
 -9.099999999999999E-003    0.000000000000000E+000
 -8.999999999999999E-003    0.000000000000000E+000
 -8.900000000000000E-003    0.000000000000000E+000
 -8.799999999999999E-003    0.000000000000000E+000
 -8.699999999999999E-003    0.000000000000000E+000
 -8.600000000000000E-003    0.000000000000000E+000
 -8.499999999999999E-003    0.000000000000000E+000
 -8.399999999999999E-003    0.000000000000000E+000
 -8.300000000000000E-003    0.000000000000000E+000
 -8.199999999999999E-003    0.000000000000000E+000
 -8.100000000000000E-003    0.000000000000000E+000
 -8.000000000000000E-003    0.000000000000000E+000
 -7.899999999999999E-003    0.000000000000000E+000
 -7.800000000000000E-003    0.000000000000000E+000
 -7.699999999999999E-003    0.000000000000000E+000
 -7.599999999999999E-003    0.000000000000000E+000
 -7.499999999999999E-003    0.000000000000000E+000
 -7.399999999999999E-003    0.000000000000000E+000
 -7.299999999999999E-003    0.000000000000000E+000
 -7.199999999999999E-003    0.000000000000000E+000
 -7.100000000000000E-003    0.000000000000000E+000
 -6.999999999999999E-003    0.000000000000000E+000
 -6.899999999999999E-003    0.000000000000000E+000
 -6.800000000000000E-003    0.000000000000000E+000
 -6.699999999999999E-003    0.000000000000000E+000
 -6.599999999999999E-003    0.000000000000000E+000
 -6.499999999999999E-003    0.000000000000000E+000
 -6.399999999999999E-003    0.000000000000000E+000
 -6.299999999999999E-003    0.000000000000000E+000
 -6.199999999999999E-003    0.000000000000000E+000
 -6.100000000000000E-003    0.000000000000000E+000
 -5.999999999999999E-003    0.000000000000000E+000
 -5.899999999999999E-003    0.000000000000000E+000
 -5.800000000000000E-003    0.000000000000000E+000
 -5.699999999999999E-003    0.000000000000000E+000
 -5.599999999999999E-003    0.000000000000000E+000
 -5.499999999999999E-003    0.000000000000000E+000
 -5.399999999999999E-003    0.000000000000000E+000
 -5.299999999999999E-003    0.000000000000000E+000
 -5.199999999999999E-003    0.000000000000000E+000
 -5.099999999999999E-003    0.000000000000000E+000
 -4.999999999999999E-003    0.000000000000000E+000
 -4.899999999999999E-003    0.000000000000000E+000
 -4.799999999999999E-003   -1.924390591266381E-047
 -4.699999999999999E-003   -1.924390591266381E-047
 -4.599999999999999E-003   -1.924390591266381E-047
 -4.499999999999999E-003   -1.924390591266381E-047
 -4.399999999999999E-003    0.000000000000000E+000
 -4.299999999999999E-003    1.282927060844254E-047
 -4.199999999999999E-003   -2.950732239941784E-047
 -4.099999999999999E-003   -5.260000949461441E-047
 -3.999999999999999E-003   -6.927806128558971E-047
 -3.899999999999999E-003   -6.651199450956184E-047
 -3.799999999999999E-003   -7.677541099631587E-047
 -3.699999999999999E-003   -2.525811590820635E-047
 -3.599999999999999E-003   -9.601931690897968E-047
 -3.499999999999999E-003    9.790798981067349E-046
 -3.399999999999999E-003    1.745315075754642E-045
 -3.299999999999999E-003    2.428120473941162E-045
 -3.199999999999999E-003    3.018354911092557E-045
 -3.099999999999999E-003    2.523721101741327E-045
 -2.999999999999999E-003    2.456568948762236E-045
 -2.899999999999999E-003    1.235631392797100E-045
 -2.799999999999999E-003   -5.896923184952284E-046
 -2.699999999999999E-003   -3.125257276156868E-045
 -2.599999999999999E-003   -6.043516659458637E-045
 -2.499999999999999E-003   -9.702379896236364E-045
 -2.399999999999999E-003   -1.298600266943183E-044
 -2.299999999999999E-003   -1.632392372316957E-044
 -2.199999999999999E-003   -1.956801810585628E-044
 -2.099999999999999E-003   -2.118014985863598E-044
 -1.999999999999999E-003   -2.059971303330322E-044
 -1.899999999999999E-003   -1.670737334322721E-044
 -1.799999999999999E-003   -8.409098015527776E-045
 -1.699999999999999E-003    3.900065379840997E-045
 -1.599999999999999E-003    2.078893172484590E-044
 -1.499999999999999E-003    4.336131058871541E-044
 -1.399999999999999E-003    6.924566249607428E-044
 -1.299999999999999E-003    9.615776785722052E-044
 -1.199999999999999E-003    1.219443275776858E-043
 -1.099999999999999E-003    1.405769918568748E-043
 -9.999999999999989E-004    1.470281057830878E-043
 -8.999999999999990E-004    1.355399265408086E-043
 -7.999999999999990E-004    1.000306913737495E-043
 -6.999999999999989E-004    3.507539207945536E-044
 -5.999999999999990E-004   -6.132252897401949E-044
 -4.999999999999989E-004   -1.915512303431089E-043
 -3.999999999999989E-004   -3.486037738274667E-043
 -2.999999999999989E-004   -5.234337243514257E-043
 -1.999999999999989E-004   -6.975194092238281E-043
 -9.999999999999892E-005   -8.465154947264961E-043
  1.084202172485504E-018   -9.390993536969826E-043
  1.000000000000011E-004   -9.385445722010145E-043
  2.000000000000011E-004   -8.073360429142271E-043
  3.000000000000011E-004   -5.091863879817233E-043
  4.000000000000011E-004   -1.786241608598948E-044
  5.000000000000011E-004    6.753480868204389E-043
  6.000000000000011E-004    1.557483167415732E-042
  7.000000000000011E-004    2.581684891752193E-042
  8.000000000000011E-004    3.664191674671037E-042
  9.000000000000012E-004    4.678532406956314E-042
  1.000000000000001E-003    5.458898793778158E-042
  1.100000000000001E-003    5.805627740127446E-042
  1.200000000000001E-003    5.499684492721912E-042
  1.300000000000001E-003    4.326774237471951E-042
  1.400000000000001E-003    2.107166647993335E-042
  1.500000000000001E-003   -1.266414245561281E-042
  1.600000000000001E-003   -5.785939391196314E-042
  1.700000000000001E-003   -1.128352631065453E-041
  1.800000000000001E-003   -1.739502328834405E-041
  1.900000000000001E-003   -2.353207643881725E-041
  2.000000000000001E-003   -2.888220825603635E-041
  2.100000000000001E-003   -3.242865944650861E-041
  2.200000000000001E-003   -3.301256622817313E-041
  2.300000000000001E-003   -2.943657036383852E-041
  2.400000000000001E-003   -2.061383522023055E-041
  2.500000000000001E-003   -5.751010652512934E-042
  2.600000000000001E-003    1.543490087351492E-041
  2.700000000000001E-003    4.248947105955975E-041
  2.800000000000001E-003    7.400802791183354E-041
  2.900000000000001E-003    1.074802362357070E-040
  3.000000000000001E-003    1.392193961390796E-040
  3.100000000000001E-003    1.644228264696378E-040
  3.200000000000001E-003    1.774079165180177E-040
  3.300000000000001E-003    1.720488138048964E-040
  3.400000000000001E-003    1.424273072231125E-040
  3.500000000000001E-003    8.368983874734054E-041
  3.600000000000001E-003   -6.936225465222115E-042
  3.700000000000001E-003   -1.290353152037829E-040
  3.800000000000001E-003   -2.779368455206731E-040
  3.900000000000001E-003   -4.438300275835424E-040
  4.000000000000001E-003   -6.112533551310253E-040
  4.100000000000001E-003   -7.591500455280909E-040
  4.200000000000001E-003   -8.616741240057214E-040
  4.300000000000001E-003   -8.899116299049317E-040
  4.400000000000001E-003   -8.145924043579716E-040
  4.500000000000001E-003   -6.097701943190915E-040
  4.600000000000002E-003   -2.573285908412791E-040
  4.700000000000001E-003    2.480149041935203E-040
  4.800000000000001E-003    8.936923398447926E-040
  4.900000000000002E-003    1.644907471474348E-039
  5.000000000000001E-003    2.441691141838500E-039
  5.100000000000001E-003    3.198241802306266E-039
  5.200000000000001E-003    3.805406498727098E-039
  5.300000000000002E-003    4.136999259761130E-039
  5.400000000000001E-003    4.060394585534372E-039
  5.500000000000001E-003    3.451415681013870E-039
  5.600000000000002E-003    2.212965529246827E-039
  5.700000000000001E-003    2.961956722661729E-040
  5.800000000000001E-003   -2.277722120552763E-039
  5.900000000000002E-003   -5.397854832594666E-039
  6.000000000000001E-003   -8.848984554719087E-039
  6.100000000000001E-003   -1.230585310742602E-038
  6.200000000000002E-003   -1.533966491294515E-038
  6.300000000000002E-003   -1.743987043871399E-038
  6.400000000000001E-003   -1.805318644377940E-038
  6.500000000000001E-003   -1.664019489134600E-038
  6.600000000000002E-003   -1.274766997594925E-038
  6.700000000000001E-003   -6.092197183814730E-039
  6.800000000000001E-003    3.352177468448699E-039
  6.900000000000002E-003    1.527228905929643E-038
  7.000000000000001E-003    2.895241400443265E-038
  7.100000000000001E-003    4.324267906677426E-038
  7.200000000000002E-003    5.657288370344568E-038
  7.300000000000002E-003    6.702351351774714E-038
  7.400000000000001E-003    7.246187628259384E-038
  7.500000000000001E-003    7.074522477356562E-038
  7.600000000000002E-003    5.998477354481726E-038
  7.700000000000001E-003    3.885469359528395E-038
  7.800000000000001E-003    6.920063988974601E-039
  7.900000000000001E-003   -3.505241964936458E-038
  8.000000000000002E-003   -8.484526813992761E-038
  8.100000000000001E-003   -1.386517905484233E-037
  8.200000000000001E-003   -1.910973035861379E-037
  8.300000000000002E-003   -2.354624427207912E-037
  8.400000000000001E-003   -2.641371701943344E-037
  8.500000000000002E-003   -2.693124197320073E-037
  8.600000000000002E-003   -2.438880254614645E-037
  8.700000000000001E-003   -1.825423139308098E-037
  8.800000000000002E-003   -8.287248917788304E-038
  8.900000000000002E-003    5.351868184796855E-038
  9.000000000000001E-003    2.201413265911562E-037
  9.100000000000002E-003    4.051085701272450E-037
  9.200000000000002E-003    5.911622266077512E-037
  9.300000000000001E-003    7.563735414729157E-037
  9.400000000000002E-003    8.756093097771484E-037
  9.500000000000001E-003    9.227797879487382E-037
  9.600000000000001E-003    8.737903711897537E-037
  9.700000000000002E-003    7.100056483197681E-037
  9.800000000000001E-003    4.219239498556085E-037
  9.900000000000001E-003    1.264983060324352E-038
  1.000000000000000E-002   -4.993241949639331E-037
  1.010000000000000E-002   -1.078553280271800E-036
  1.020000000000000E-002   -1.672798110607042E-036
  1.030000000000000E-002   -2.215315755219643E-036
  1.040000000000000E-002   -2.629523043348282E-036
  1.050000000000000E-002   -2.836026412097331E-036
  1.060000000000000E-002   -2.761704827704764E-036
  1.070000000000000E-002   -2.350190072861203E-036
  1.080000000000000E-002   -1.572746257990780E-036
  1.090000000000000E-002   -4.382532184546813E-037
  1.100000000000000E-002    9.992009732196141E-037
  1.110000000000000E-002    2.636660140795398E-036
  1.120000000000000E-002    4.323974900970168E-036
  1.130000000000000E-002    5.871853468296741E-036
  1.140000000000000E-002    7.066730979051178E-036
  1.150000000000000E-002    7.692112330577639E-036
  1.160000000000000E-002    7.555099967442727E-036
  1.170000000000000E-002    6.515822758858121E-036
  1.180000000000000E-002    4.516552602602668E-036
  1.190000000000000E-002    1.606588286364276E-036
  1.200000000000000E-002   -2.041378425325794E-036
  1.210000000000000E-002   -6.127530752807615E-036
  1.220000000000000E-002   -1.023721317708178E-035
  1.230000000000000E-002   -1.387119800306531E-035
  1.240000000000000E-002   -1.649389126952804E-035
  1.250000000000000E-002   -1.759692712348125E-035
  1.260000000000000E-002   -1.677286878983181E-035
  1.270000000000000E-002   -1.379103609278360E-035
  1.280000000000000E-002   -8.665320447225957E-036
  1.290000000000000E-002   -1.702515393857689E-036
  1.300000000000000E-002    6.480224551309894E-036
  1.310000000000000E-002    1.497856602376937E-035
  1.320000000000000E-002    2.267100898670504E-035
  1.330000000000000E-002    2.833668367442090E-035
  1.340000000000000E-002    3.081506719744166E-035
  1.350000000000000E-002    2.919414881989030E-035
  1.360000000000000E-002    2.300590510321185E-035
  1.370000000000000E-002    1.240152268742072E-035
  1.380000000000000E-002   -1.725390126185874E-036
  1.390000000000000E-002   -1.769978007520932E-035
  1.400000000000000E-002   -3.313830747553629E-035
  1.410000000000000E-002   -4.515321287755679E-035
  1.420000000000000E-002   -5.069063134205646E-035
  1.430000000000000E-002   -4.698787748939480E-035
  1.440000000000000E-002   -3.211154192553313E-035
  1.450000000000000E-002   -5.516017229304737E-036
  1.460000000000000E-002    3.145861200183878E-035
  1.470000000000000E-002    7.524345426926129E-035
  1.480000000000000E-002    1.199501899529345E-034
  1.490000000000000E-002    1.576201404232692E-034
  1.500000000000000E-002    1.788746350736361E-034
  1.510000000000000E-002    1.739849287203392E-034
  1.520000000000000E-002    1.343231235972271E-034
  1.530000000000000E-002    5.408694559030639E-035
  1.540000000000000E-002   -6.787984955497811E-035
  1.550000000000000E-002   -2.264170258704976E-034
  1.560000000000000E-002   -4.088204092645437E-034
  1.570000000000000E-002   -5.943741706706046E-034
  1.580000000000000E-002   -7.549358630348799E-034
  1.590000000000000E-002   -8.568063342280685E-034
  1.600000000000000E-002   -8.639912086599150E-034
  1.610000000000000E-002   -7.427971215230000E-034
  1.620000000000000E-002   -4.674940442846684E-034
  1.630000000000000E-002   -2.654757956584730E-035
  1.640000000000000E-002    5.713002814072861E-034
  1.650000000000000E-002    1.292007126374687E-033
  1.660000000000000E-002    2.073284462948058E-033
  1.670000000000000E-002    2.824744274408098E-033
  1.680000000000000E-002    3.432018163008473E-033
  1.690000000000000E-002    3.765419309835247E-033
  1.700000000000000E-002    3.693260264638318E-033
  1.710000000000000E-002    3.099319900539902E-033
  1.720000000000000E-002    1.903254482112998E-033
  1.730000000000000E-002    8.200131835639642E-035
  1.740000000000000E-002   -2.310444471322951E-033
  1.750000000000000E-002   -5.128008072586005E-033
  1.760000000000000E-002   -8.125602807376579E-033
  1.770000000000000E-002   -1.096345799866232E-032
  1.780000000000000E-002   -1.322522231720767E-032
  1.790000000000000E-002   -1.445120000923838E-032
  1.800000000000000E-002   -1.418644225048747E-032
  1.810000000000000E-002   -1.204136137244532E-032
  1.820000000000000E-002   -7.760282520504223E-033
  1.830000000000000E-002   -1.291067685779802E-033
  1.840000000000000E-002    7.152964168531007E-033
  1.850000000000000E-002    1.704890913606518E-032
  1.860000000000000E-002    2.754831367672936E-032
  1.870000000000000E-002    3.749875227972458E-032