 -4.000000000000000E-002    0.000000000000000E+000
 -3.990000000000000E-002    0.000000000000000E+000
 -3.980000000000000E-002    0.000000000000000E+000
 -3.970000000000000E-002    0.000000000000000E+000
 -3.960000000000000E-002    0.000000000000000E+000
 -3.950000000000000E-002    0.000000000000000E+000
 -3.940000000000000E-002    0.000000000000000E+000
 -3.930000000000000E-002    0.000000000000000E+000
 -3.920000000000000E-002    0.000000000000000E+000
 -3.910000000000000E-002    0.000000000000000E+000
 -3.900000000000000E-002    0.000000000000000E+000
 -3.890000000000000E-002    0.000000000000000E+000
 -3.880000000000000E-002    0.000000000000000E+000
 -3.870000000000000E-002    0.000000000000000E+000
 -3.860000000000000E-002    0.000000000000000E+000
 -3.850000000000000E-002    0.000000000000000E+000
 -3.840000000000000E-002    0.000000000000000E+000
 -3.830000000000000E-002    0.000000000000000E+000
 -3.820000000000000E-002    0.000000000000000E+000
 -3.810000000000000E-002    0.000000000000000E+000
 -3.800000000000000E-002    0.000000000000000E+000
 -3.790000000000000E-002    0.000000000000000E+000
 -3.780000000000000E-002    0.000000000000000E+000
 -3.770000000000000E-002    0.000000000000000E+000
 -3.760000000000000E-002    0.000000000000000E+000
 -3.750000000000000E-002    0.000000000000000E+000
 -3.740000000000000E-002    0.000000000000000E+000
 -3.730000000000000E-002    0.000000000000000E+000
 -3.720000000000000E-002    0.000000000000000E+000
 -3.710000000000000E-002    0.000000000000000E+000
 -3.700000000000000E-002    0.000000000000000E+000
 -3.690000000000000E-002    0.000000000000000E+000
 -3.680000000000000E-002    0.000000000000000E+000
 -3.670000000000000E-002    0.000000000000000E+000
 -3.660000000000000E-002    0.000000000000000E+000
 -3.650000000000000E-002    0.000000000000000E+000
 -3.640000000000000E-002    0.000000000000000E+000
 -3.630000000000000E-002    0.000000000000000E+000
 -3.620000000000000E-002    0.000000000000000E+000
 -3.610000000000000E-002    0.000000000000000E+000
 -3.600000000000000E-002    0.000000000000000E+000
 -3.590000000000000E-002    0.000000000000000E+000
 -3.580000000000000E-002    0.000000000000000E+000
 -3.570000000000000E-002    0.000000000000000E+000
 -3.560000000000000E-002    0.000000000000000E+000
 -3.550000000000000E-002    0.000000000000000E+000
 -3.540000000000000E-002    0.000000000000000E+000
 -3.530000000000000E-002    0.000000000000000E+000
 -3.520000000000000E-002    0.000000000000000E+000
 -3.510000000000000E-002    0.000000000000000E+000
 -3.500000000000000E-002    0.000000000000000E+000
 -3.490000000000000E-002    0.000000000000000E+000
 -3.480000000000000E-002    0.000000000000000E+000
 -3.470000000000000E-002    0.000000000000000E+000
 -3.460000000000000E-002    0.000000000000000E+000
 -3.450000000000000E-002    0.000000000000000E+000
 -3.440000000000000E-002    0.000000000000000E+000
 -3.430000000000000E-002    0.000000000000000E+000
 -3.420000000000000E-002    0.000000000000000E+000
 -3.410000000000000E-002    0.000000000000000E+000
 -3.400000000000000E-002    0.000000000000000E+000
 -3.390000000000000E-002    0.000000000000000E+000
 -3.380000000000000E-002    0.000000000000000E+000
 -3.370000000000000E-002    0.000000000000000E+000
 -3.360000000000000E-002    0.000000000000000E+000
 -3.350000000000000E-002    0.000000000000000E+000
 -3.340000000000000E-002    0.000000000000000E+000
 -3.330000000000000E-002    0.000000000000000E+000
 -3.320000000000000E-002    0.000000000000000E+000
 -3.310000000000000E-002    0.000000000000000E+000
 -3.300000000000000E-002    0.000000000000000E+000
 -3.290000000000000E-002    0.000000000000000E+000
 -3.280000000000000E-002    0.000000000000000E+000
 -3.270000000000000E-002    0.000000000000000E+000
 -3.260000000000000E-002    0.000000000000000E+000
 -3.250000000000000E-002    0.000000000000000E+000
 -3.240000000000000E-002    0.000000000000000E+000
 -3.230000000000000E-002    0.000000000000000E+000
 -3.220000000000000E-002    0.000000000000000E+000
 -3.210000000000000E-002    0.000000000000000E+000
 -3.200000000000000E-002    0.000000000000000E+000
 -3.190000000000000E-002    0.000000000000000E+000
 -3.180000000000000E-002    0.000000000000000E+000
 -3.170000000000000E-002    0.000000000000000E+000
 -3.160000000000000E-002    0.000000000000000E+000
 -3.150000000000000E-002    0.000000000000000E+000
 -3.140000000000000E-002    0.000000000000000E+000
 -3.130000000000000E-002    0.000000000000000E+000
 -3.120000000000000E-002    0.000000000000000E+000
 -3.110000000000000E-002    0.000000000000000E+000
 -3.100000000000000E-002    0.000000000000000E+000
 -3.090000000000000E-002    0.000000000000000E+000
 -3.080000000000000E-002    0.000000000000000E+000
 -3.070000000000000E-002    0.000000000000000E+000
 -3.060000000000000E-002    0.000000000000000E+000
 -3.050000000000000E-002    0.000000000000000E+000
 -3.040000000000000E-002    0.000000000000000E+000
 -3.030000000000000E-002    0.000000000000000E+000
 -3.020000000000000E-002    0.000000000000000E+000
 -3.010000000000000E-002    0.000000000000000E+000
 -3.000000000000000E-002    0.000000000000000E+000
 -2.990000000000000E-002    0.000000000000000E+000
 -2.980000000000000E-002    0.000000000000000E+000
 -2.970000000000000E-002    0.000000000000000E+000
 -2.960000000000000E-002    0.000000000000000E+000
 -2.950000000000000E-002    0.000000000000000E+000
 -2.940000000000000E-002    0.000000000000000E+000
 -2.930000000000000E-002    0.000000000000000E+000
 -2.920000000000000E-002    0.000000000000000E+000
 -2.910000000000000E-002    0.000000000000000E+000
 -2.900000000000000E-002    0.000000000000000E+000
 -2.890000000000000E-002    0.000000000000000E+000
 -2.880000000000000E-002    0.000000000000000E+000
 -2.870000000000000E-002    0.000000000000000E+000
 -2.860000000000000E-002    0.000000000000000E+000
 -2.850000000000000E-002    0.000000000000000E+000
 -2.840000000000000E-002    0.000000000000000E+000
 -2.830000000000000E-002    0.000000000000000E+000
 -2.820000000000000E-002    0.000000000000000E+000
 -2.810000000000000E-002    0.000000000000000E+000
 -2.800000000000000E-002    0.000000000000000E+000
 -2.790000000000000E-002    0.000000000000000E+000
 -2.780000000000000E-002    0.000000000000000E+000
 -2.770000000000000E-002    0.000000000000000E+000
 -2.760000000000000E-002    0.000000000000000E+000
 -2.750000000000000E-002    0.000000000000000E+000
 -2.740000000000000E-002    0.000000000000000E+000
 -2.730000000000000E-002    0.000000000000000E+000
 -2.720000000000000E-002    0.000000000000000E+000
 -2.710000000000000E-002    0.000000000000000E+000
 -2.700000000000000E-002    0.000000000000000E+000
 -2.690000000000000E-002    0.000000000000000E+000
 -2.680000000000000E-002    0.000000000000000E+000
 -2.670000000000000E-002    0.000000000000000E+000
 -2.660000000000000E-002    0.000000000000000E+000
 -2.650000000000000E-002    0.000000000000000E+000
 -2.640000000000000E-002    0.000000000000000E+000
 -2.630000000000000E-002    0.000000000000000E+000
 -2.620000000000000E-002    0.000000000000000E+000
 -2.610000000000000E-002    0.000000000000000E+000
 -2.600000000000000E-002    0.000000000000000E+000
 -2.590000000000000E-002    0.000000000000000E+000
 -2.580000000000000E-002    0.000000000000000E+000
 -2.570000000000000E-002    0.000000000000000E+000
 -2.560000000000000E-002    0.000000000000000E+000
 -2.550000000000000E-002    0.000000000000000E+000
 -2.540000000000000E-002    0.000000000000000E+000
 -2.530000000000000E-002    0.000000000000000E+000
 -2.520000000000000E-002    0.000000000000000E+000
 -2.510000000000000E-002    0.000000000000000E+000
 -2.500000000000000E-002    0.000000000000000E+000
 -2.490000000000000E-002    0.000000000000000E+000
 -2.480000000000000E-002    0.000000000000000E+000
 -2.470000000000000E-002    0.000000000000000E+000
 -2.460000000000000E-002    0.000000000000000E+000
 -2.450000000000000E-002    0.000000000000000E+000
 -2.440000000000000E-002    0.000000000000000E+000
 -2.430000000000000E-002    0.000000000000000E+000
 -2.420000000000000E-002    0.000000000000000E+000
 -2.410000000000000E-002    0.000000000000000E+000
 -2.400000000000000E-002    0.000000000000000E+000
 -2.390000000000000E-002    0.000000000000000E+000
 -2.380000000000000E-002    0.000000000000000E+000
 -2.370000000000000E-002    0.000000000000000E+000
 -2.360000000000000E-002    0.000000000000000E+000
 -2.350000000000000E-002    0.000000000000000E+000
 -2.340000000000000E-002    0.000000000000000E+000
 -2.330000000000000E-002    0.000000000000000E+000
 -2.320000000000000E-002    0.000000000000000E+000
 -2.310000000000000E-002    0.000000000000000E+000
 -2.300000000000000E-002    0.000000000000000E+000
 -2.290000000000000E-002    0.000000000000000E+000
 -2.280000000000000E-002    0.000000000000000E+000
 -2.270000000000000E-002    0.000000000000000E+000
 -2.260000000000000E-002    0.000000000000000E+000
 -2.250000000000000E-002    0.000000000000000E+000
 -2.240000000000000E-002    0.000000000000000E+000
 -2.230000000000000E-002    0.000000000000000E+000
 -2.220000000000000E-002    0.000000000000000E+000
 -2.210000000000000E-002    0.000000000000000E+000
 -2.200000000000000E-002    0.000000000000000E+000
 -2.190000000000000E-002    0.000000000000000E+000
 -2.180000000000000E-002    0.000000000000000E+000
 -2.170000000000000E-002    0.000000000000000E+000
 -2.160000000000000E-002    0.000000000000000E+000
 -2.150000000000000E-002    0.000000000000000E+000
 -2.140000000000000E-002    0.000000000000000E+000
 -2.130000000000000E-002    0.000000000000000E+000
 -2.120000000000000E-002    0.000000000000000E+000
 -2.110000000000000E-002    0.000000000000000E+000
 -2.100000000000000E-002    0.000000000000000E+000
 -2.090000000000000E-002    0.000000000000000E+000
 -2.080000000000000E-002    0.000000000000000E+000
 -2.070000000000000E-002    0.000000000000000E+000
 -2.060000000000000E-002    0.000000000000000E+000
 -2.050000000000000E-002    0.000000000000000E+000
 -2.040000000000000E-002    0.000000000000000E+000
 -2.030000000000000E-002    0.000000000000000E+000
 -2.020000000000000E-002    0.000000000000000E+000
 -2.010000000000000E-002    0.000000000000000E+000
 -2.000000000000000E-002    0.000000000000000E+000
 -1.990000000000000E-002    0.000000000000000E+000
 -1.980000000000000E-002    0.000000000000000E+000
 -1.970000000000000E-002    0.000000000000000E+000
 -1.960000000000000E-002    0.000000000000000E+000
 -1.950000000000000E-002    0.000000000000000E+000
 -1.940000000000000E-002    0.000000000000000E+000
 -1.930000000000000E-002    0.000000000000000E+000
 -1.920000000000000E-002    0.000000000000000E+000
 -1.910000000000000E-002    0.000000000000000E+000
 -1.900000000000000E-002    0.000000000000000E+000
 -1.890000000000000E-002    0.000000000000000E+000
 -1.880000000000000E-002    0.000000000000000E+000
 -1.870000000000000E-002    0.000000000000000E+000
 -1.860000000000000E-002    0.000000000000000E+000
 -1.850000000000000E-002    0.000000000000000E+000
 -1.840000000000000E-002    0.000000000000000E+000
 -1.830000000000000E-002    0.000000000000000E+000
 -1.820000000000000E-002    0.000000000000000E+000
 -1.810000000000000E-002    0.000000000000000E+000
 -1.800000000000000E-002    0.000000000000000E+000
 -1.790000000000000E-002    0.000000000000000E+000
 -1.780000000000000E-002    0.000000000000000E+000
 -1.770000000000000E-002    0.000000000000000E+000
 -1.760000000000000E-002    0.000000000000000E+000
 -1.750000000000000E-002    0.000000000000000E+000
 -1.740000000000000E-002    0.000000000000000E+000
 -1.730000000000000E-002    0.000000000000000E+000
 -1.720000000000000E-002    0.000000000000000E+000
 -1.710000000000000E-002    0.000000000000000E+000
 -1.700000000000000E-002    0.000000000000000E+000
 -1.690000000000000E-002    0.000000000000000E+000
 -1.680000000000000E-002    0.000000000000000E+000
 -1.670000000000000E-002    0.000000000000000E+000
 -1.660000000000000E-002    0.000000000000000E+000
 -1.650000000000000E-002    0.000000000000000E+000
 -1.640000000000000E-002    0.000000000000000E+000
 -1.630000000000000E-002    0.000000000000000E+000
 -1.620000000000000E-002    0.000000000000000E+000
 -1.610000000000000E-002   -6.414635304221270E-048
 -1.600000000000000E-002   -1.282927060844254E-047
 -1.590000000000000E-002   -1.924390591266381E-047
 -1.580000000000000E-002   -1.924390591266381E-047
 -1.570000000000000E-002   -1.282927060844254E-047
 -1.560000000000000E-002    2.138211768073757E-048
 -1.550000000000000E-002    2.352032944881132E-047
 -1.540000000000000E-002    9.408131779524529E-048
 -1.530000000000000E-002    2.523089886327033E-047
 -1.520000000000000E-002    1.411219766928679E-047
 -1.510000000000000E-002    7.269920011450772E-048
 -1.500000000000000E-002   -8.125204718680275E-048
 -1.490000000000000E-002   -2.243761504230643E-047
 -1.480000000000000E-002   -2.583153682628842E-047
 -1.470000000000000E-002    3.990473601342222E-047
 -1.460000000000000E-002    9.866525609240393E-047
 -1.450000000000000E-002    1.054808387296614E-046
 -1.440000000000000E-002    2.526965884554501E-046
 -1.430000000000000E-002    4.275483990183688E-046
 -1.420000000000000E-002    4.122995799718451E-046
 -1.410000000000000E-002    3.847697771926721E-046
 -1.400000000000000E-002    3.294447824068300E-046
 -1.390000000000000E-002   -9.968727211674750E-048
 -1.380000000000000E-002   -7.173266175943367E-046
 -1.370000000000000E-002   -4.374383236667833E-046
 -1.360000000000000E-002   -8.528826220873863E-046
 -1.350000000000000E-002   -1.611603080843673E-045
 -1.340000000000000E-002   -2.444946347269199E-045
 -1.330000000000000E-002   -3.077754127872631E-045
 -1.320000000000000E-002   -3.318496043370502E-045
 -1.310000000000000E-002   -1.924859802193882E-045
 -1.300000000000000E-002   -7.278812491838359E-046
 -1.290000000000000E-002    9.999016180468220E-046
 -1.280000000000000E-002    3.470786266940275E-045
 -1.270000000000000E-002    7.062220730709661E-045
 -1.260000000000000E-002    1.086745266407730E-044
 -1.250000000000000E-002    1.503721977024686E-044
 -1.240000000000000E-002    1.937283903913406E-044
 -1.230000000000000E-002    2.264938185467300E-044
 -1.220000000000000E-002    2.393244191444882E-044
 -1.210000000000000E-002    2.191859581816958E-044
 -1.200000000000000E-002    1.462506685113701E-044
 -1.190000000000000E-002    8.241568257681448E-046
 -1.180000000000000E-002   -1.997513741034434E-044
 -1.170000000000000E-002   -4.889939636172843E-044
 -1.160000000000000E-002   -8.452769685992488E-044
 -1.150000000000000E-002   -1.242499608235711E-043
 -1.140000000000000E-002   -1.634160065890110E-043
 -1.130000000000000E-002   -1.945873541651373E-043
 -1.120000000000000E-002   -2.098244824931694E-043
 -1.110000000000000E-002   -1.968993786752757E-043
 -1.100000000000000E-002   -1.455087519790776E-043
 -1.090000000000000E-002   -4.428494519326631E-044
 -1.080000000000000E-002    1.157389163722305E-043
 -1.070000000000000E-002    3.360973804311193E-043
 -1.060000000000000E-002    6.117913671662147E-043
 -1.050000000000000E-002    9.247120078050058E-043
 -1.040000000000000E-002    1.242480327793799E-042
 -1.030000000000000E-002    1.514264714229862E-042
 -1.020000000000000E-002    1.675658538070436E-042
 -1.010000000000000E-002    1.645462493192056E-042
 -1.000000000000000E-002    1.337144885715115E-042
 -9.899999999999999E-003    6.661040846003963E-043
 -9.800000000000000E-003   -4.341757097391133E-043
 -9.699999999999999E-003   -1.993249701017762E-042
 -9.599999999999999E-003   -3.981173489182985E-042
 -9.500000000000000E-003   -6.286498804933263E-042
 -9.399999999999999E-003   -8.695254127972651E-042
 -9.299999999999999E-003   -1.087589760100143E-041
 -9.200000000000000E-003   -1.238044351555742E-041
 -9.099999999999999E-003   -1.265860521686901E-041
 -8.999999999999999E-003   -1.110005911476181E-041
 -8.900000000000000E-003   -7.098373643796652E-042
 -8.799999999999999E-003   -1.519771543410006E-043
 -8.699999999999999E-003    1.001263375546370E-041
 -8.600000000000000E-003    2.329517401066157E-041
 -8.499999999999999E-003    3.906956464928412E-041
 -8.399999999999999E-003    5.604335816213566E-041
 -8.300000000000000E-003    7.216606258982214E-041
 -8.199999999999999E-003    8.460189750452755E-041
 -8.100000000000000E-003    8.981619035405066E-041
 -8.000000000000000E-003    8.381253016171664E-041
 -7.899999999999999E-003    6.253495174396588E-041
 -7.800000000000000E-003    2.245656624441586E-041
 -7.699999999999999E-003   -3.865547429904351E-041
 -7.599999999999999E-003   -1.208468009861165E-040
 -7.499999999999999E-003   -2.210249790710533E-040
 -7.399999999999999E-003   -3.320824419514308E-040
 -7.299999999999999E-003   -4.422409507234966E-040
 -7.199999999999999E-003   -5.348276523472362E-040
 -7.100000000000000E-003   -5.886809267469674E-040
 -6.999999999999999E-003   -5.793925679098230E-040
 -6.899999999999999E-003   -4.815549843151833E-040
 -6.800000000000000E-003   -2.720854297848867E-040
 -6.699999999999999E-003    6.541736618021174E-041
 -6.599999999999999E-003    5.355096003166275E-040
 -6.499999999999999E-003    1.125358446938614E-039
 -6.399999999999999E-003    1.799480081861620E-039
 -6.299999999999999E-003    2.495641806028567E-039
 -6.199999999999999E-003    3.123005951714513E-039
 -6.100000000000000E-003    3.563664593978760E-039
 -5.999999999999999E-003    3.678707734807643E-039
 -5.899999999999999E-003    3.319734554594998E-039
 -5.800000000000000E-003    2.346293473463921E-039
 -5.699999999999999E-003    6.490800345630238E-040
 -5.599999999999999E-003   -1.822215862158466E-039
 -5.499999999999999E-003   -5.028570467363793E-039
 -5.399999999999999E-003   -8.812167059136890E-039
 -5.299999999999999E-003   -1.287237395704126E-038
 -5.199999999999999E-003   -1.675264459216626E-038
 -5.099999999999999E-003   -1.984434702013230E-038
 -4.999999999999999E-003   -2.141345609151806E-038
 -4.899999999999999E-003   -2.065495243367735E-038
 -4.799999999999999E-003   -1.677769844484114E-038
 -4.699999999999999E-003   -9.119339139795900E-039
 -4.599999999999999E-003    2.713726562182991E-039
 -4.499999999999999E-003    1.869149955307109E-038
 -4.399999999999999E-003    3.820674404052155E-038
 -4.299999999999999E-003    5.994428068202250E-038
 -4.199999999999999E-003    8.179977792305138E-038
 -4.099999999999999E-003    1.008771282961993E-037
 -3.999999999999999E-003    1.135931941875395E-037
 -3.899999999999999E-003    1.159140710757968E-037
 -3.799999999999999E-003    1.037376011052194E-037
 -3.699999999999999E-003    7.342148823670419E-038
 -3.599999999999999E-003    2.243697410196145E-038
 -3.499999999999999E-003   -4.989727628568831E-038
 -3.399999999999999E-003   -1.416724157005614E-037
 -3.299999999999999E-003   -2.477354364831356E-037
 -3.199999999999999E-003   -3.592431039570960E-037
 -3.099999999999999E-003   -4.635548377938171E-037
 -2.999999999999999E-003   -5.445965170105112E-037
 -2.899999999999999E-003   -5.838050077993995E-037
 -2.799999999999999E-003   -5.617231112094603E-037
 -2.699999999999999E-003   -4.602519151749331E-037
 -2.599999999999999E-003   -2.654776724455990E-037
 -2.499999999999999E-003    2.911088529243495E-038
 -2.399999999999999E-003    4.193148827822776E-037
 -2.299999999999999E-003    8.872353353601934E-037
 -2.199999999999999E-003    1.399103292935803E-036
 -2.099999999999999E-003    1.904480415932035E-036
 -1.999999999999999E-003    2.337378360887756E-036
 -1.899999999999999E-003    2.619766316488263E-036
 -1.799999999999999E-003    2.667767553256165E-036
 -1.699999999999999E-003    2.400570157688501E-036
 -1.599999999999999E-003    1.751756376479034E-036
 -1.499999999999999E-003    6.823002836069093E-037
 -1.399999999999999E-003   -8.059379630844989E-037
 -1.299999999999999E-003   -2.657839590123518E-036
 -1.199999999999999E-003   -4.755735295329739E-036
 -1.099999999999999E-003   -6.915357305224299E-036
 -9.999999999999989E-004   -8.889135674295696E-036
 -8.999999999999990E-004   -1.037865141678117E-035
 -7.999999999999990E-004   -1.105732107044736E-035
 -6.999999999999989E-004   -1.060344625529586E-035
 -5.999999999999990E-004   -8.742323212145400E-036
 -4.999999999999989E-004   -5.294626179279549E-036
 -3.999999999999989E-004   -2.265513288267862E-037
 -2.999999999999989E-004    6.304304220069115E-036
 -1.999999999999989E-004    1.391457550745280E-035
 -9.999999999999892E-005    2.198006765342582E-035
  1.084202172485504E-018    2.964743189285604E-035
  1.000000000000011E-004    3.587874385408735E-035
  2.000000000000011E-004    3.953227184677053E-035
  3.000000000000011E-004    3.947906018845077E-035
  4.000000000000011E-004    3.474984269366580E-035
  5.000000000000011E-004    2.470135104033508E-035
  6.000000000000011E-004    9.185291718948149E-036
  7.000000000000011E-004   -1.130179877994823E-035
  8.000000000000011E-004   -3.551307278639318E-035
  9.000000000000012E-004   -6.141654623830116E-035
  1.000000000000001E-003   -8.625500546626964E-035
  1.100000000000001E-003   -1.067180419991127E-034
  1.200000000000001E-003   -1.192339176595952E-034
  1.300000000000001E-003   -1.203733397146140E-034
  1.400000000000001E-003   -1.073407215835888E-034
  1.500000000000001E-003   -7.850848085172321E-035
  1.600000000000001E-003   -3.393218975685091E-035
  1.700000000000001E-003    2.423076284878921E-035
  1.800000000000001E-003    9.148407460265115E-035
  1.900000000000001E-003    1.610204039410938E-034
  2.000000000000001E-003    2.240844315446190E-034
  2.100000000000001E-003    2.707102238190732E-034
  2.200000000000001E-003    2.908338332863840E-034
  2.300000000000001E-003    2.757238505953989E-034
  2.400000000000001E-003    2.196126754074468E-034
  2.500000000000001E-003    1.213464244992692E-034
  2.600000000000001E-003   -1.418392766464423E-035
  2.700000000000001E-003   -1.751057563212948E-034
  2.800000000000001E-003   -3.424077704215847E-034
  2.900000000000001E-003   -4.908157590147712E-034
  3.000000000000001E-003   -5.908849752549363E-034
  3.100000000000001E-003   -6.123559631208098E-034
  3.200000000000001E-003   -5.286641717410618E-034
  3.300000000000001E-003   -3.222766882948481E-034
  3.400000000000001E-003    9.689956019127480E-036
  3.500000000000001E-003    4.503237862478902E-034
  3.600000000000001E-003    9.591695818829035E-034
  3.700000000000001E-003    1.470880667458826E-033
  3.800000000000001E-003    1.897238169733792E-033
  3.900000000000001E-003    2.133318191368225E-033
  4.000000000000001E-003    2.068222331819297E-033
  4.100000000000001E-003    1.600253744698238E-033
  4.200000000000001E-003    6.557414311388536E-034
  4.300000000000001E-003   -7.900672479531319E-034
  4.400000000000001E-003   -2.692439320767812E-033
  4.500000000000001E-003   -4.919995558484616E-033
  4.600000000000002E-003   -7.244560973017238E-033
  4.700000000000001E-003   -9.341739702828120E-033
  4.800000000000001E-003   -1.080563962041718E-032
  4.900000000000002E-003   -1.118018506942612E-032
  5.000000000000001E-003   -1.000796716670805E-032
  5.100000000000001E-003   -6.895383114322832E-033
  5.200000000000001E-003   -1.590182442611532E-033
  5.300000000000002E-003    5.935420399981107E-033
  5.400000000000001E-003    1.540580105254010E-032
  5.500000000000001E-003    2.617928522420663E-032
  5.600000000000002E-003    3.721567258240090E-032
  5.700000000000001E-003    4.708768462617860E-032
  5.800000000000001E-003    5.404862175693145E-032
  5.900000000000002E-003    5.616471768274253E-032
  6.000000000000001E-003    5.151438217605214E-032
  6.100000000000001E-003    3.844844294171334E-032
  6.200000000000002E-003    1.589557994606599E-032
  6.300000000000002E-003   -1.631357027873597E-032
  6.400000000000001E-003   -5.714071423447944E-032
  6.500000000000001E-003   -1.040982259474338E-031
  6.600000000000002E-003   -1.531219913765834E-031
  6.700000000000001E-003   -1.986101545965380E-031
  6.800000000000001E-003   -2.336716051675036E-031
  6.900000000000002E-003   -2.506143275654520E-031
  7.000000000000001E-003   -2.416818762230179E-031
  7.100000000000001E-003   -2.000163138645728E-031
  7.200000000000002E-003   -1.207907706752962E-031
  7.300000000000002E-003   -2.417022168460255E-033
  7.400000000000001E-003    1.523025600365278E-031
  7.500000000000001E-003    3.352406265737156E-031
  7.600000000000002E-003    5.324064248256452E-031
  7.700000000000001E-003    7.239836057502459E-031
  7.800000000000001E-003    8.851008293110796E-031
  7.900000000000001E-003    9.874461837895714E-031
  8.000000000000002E-003    1.001758480326273E-030
  8.100000000000001E-003    9.011308376920208E-031
  8.200000000000001E-003    6.649423091306594E-031
  8.300000000000002E-003    2.831074157733568E-031
  8.400000000000001E-003   -2.397928937034860E-031
  8.500000000000002E-003   -8.810363875261626E-031
  8.600000000000002E-003   -1.597538421656893E-030
  8.700000000000001E-003   -2.325495597521557E-030
  8.800000000000002E-003   -2.982433034000270E-030
  8.900000000000002E-003   -3.472043063436117E-030
  9.000000000000001E-003   -3.691964465065227E-030
  9.100000000000002E-003   -3.544341939701805E-030
  9.200000000000002E-003   -2.948613991178287E-030
  9.300000000000001E-003   -1.855572596611428E-030
  9.400000000000002E-003   -2.613394292401752E-031
  9.500000000000001E-003    1.780438207476717E-030
  9.600000000000001E-003    4.150079557249922E-030
  9.700000000000002E-003    6.659005562587078E-030
  9.800000000000001E-003    9.054285492419017E-030
  9.900000000000001E-003    1.103190650835011E-029
  1.000000000000000E-002    1.225939140482664E-029
  1.010000000000000E-002    1.240741778851941E-029
  1.020000000000000E-002    1.118890178968343E-029
  1.030000000000000E-002    8.402802614209962E-030
  1.040000000000000E-002    3.978644012515935E-030
  1.050000000000000E-002   -1.983342444154952E-030
  1.060000000000000E-002   -9.182186007376315E-030
  1.070000000000000E-002   -1.710225959233495E-029
  1.080000000000000E-002   -2.502095759727981E-029
  1.090000000000000E-002   -3.204225681432509E-029
  1.100000000000000E-002   -3.715836897537461E-029
  1.110000000000000E-002   -3.933895364379623E-029
  1.120000000000000E-002   -3.764401309404726E-029
  1.130000000000000E-002   -3.135283433726047E-029
  1.140000000000000E-002   -2.009773881597890E-029
  1.150000000000000E-002   -3.988247547455981E-030
  1.160000000000000E-002    1.629100118558440E-029
  1.170000000000000E-002    3.942599231625431E-029
  1.180000000000000E-002    6.347890765971181E-029
  1.190000000000000E-002    8.596668934101298E-029
  1.200000000000000E-002    1.040199336167384E-028
  1.210000000000000E-002    1.146219658001970E-028
  1.220000000000000E-002    1.149184368723942E-028
  1.230000000000000E-002    1.025777343388558E-028
  1.240000000000000E-002    7.617165523797456E-029
  1.250000000000000E-002    3.553735213454937E-029
  1.260000000000000E-002   -1.792553941907503E-029
  1.270000000000000E-002   -8.107080736410860E-029
  1.280000000000000E-002   -1.489804705276444E-028
  1.290000000000000E-002   -2.151362475973217E-028
  1.300000000000000E-002   -2.718101119037401E-028
  1.310000000000000E-002   -3.106771623161405E-028
  1.320000000000000E-002   -3.236276200850539E-028
  1.330000000000000E-002   -3.037278002504225E-028
  1.340000000000000E-002   -2.462519261652031E-028
  1.350000000000000E-002   -1.496813297527302E-028
  1.360000000000000E-002   -1.655003352135480E-029
  1.370000000000000E-002    1.459925825307863E-028
  1.380000000000000E-002    3.260253242711866E-028
  1.390000000000000E-002    5.072078759214362E-028
  1.400000000000000E-002    6.697080159742194E-028
  1.410000000000000E-002    7.917159138870804E-028
  1.420000000000000E-002    8.514948614696766E-028
  1.430000000000000E-002    8.298418225778639E-028
  1.440000000000000E-002    7.127635838792819E-028
  1.450000000000000E-002    4.941045534633931E-028
  1.460000000000000E-002    1.778174892680089E-028
  1.470000000000000E-002   -2.204542729119582E-028
  1.480000000000000E-002   -6.728030224966639E-028
  1.490000000000000E-002   -1.139758965847512E-027
  1.500000000000000E-002   -1.572442093023831E-027
  1.510000000000000E-002   -1.916208585820826E-027
  1.520000000000000E-002   -2.115671661645945E-027
  1.530000000000000E-002   -2.120793321719504E-027
  1.540000000000000E-002   -1.893565933593453E-027
  1.550000000000000E-002   -1.414633172912583E-027
  1.560000000000000E-002   -6.890843955070623E-028
  1.570000000000000E-002    2.494030272485787E-028
  1.580000000000000E-002    1.336865710313854E-027
  1.590000000000000E-002    2.480471191561247E-027
  1.600000000000000E-002    3.563486328312023E-027
  1.610000000000000E-002    4.453917142459256E-027
  1.620000000000000E-002    5.016533151823117E-027
  1.630000000000000E-002    5.127550467231862E-027
  1.640000000000000E-002    4.690805344149391E-027
  1.650000000000000E-002    3.653832156951123E-027
  1.660000000000000E-002    2.022010504137066E-027
  1.670000000000000E-002   -1.312314318227097E-028
  1.680000000000000E-002   -2.660052666682319E-027
  1.690000000000000E-002   -5.349295005121243E-027
  1.700000000000000E-002   -7.926068866805191E-027
  1.710000000000000E-002   -1.008011387050315E-026
  1.720000000000000E-002   -1.149221503157722E-026
  1.730000000000000E-002   -1.186892757391558E-026
  1.740000000000000E-002   -1.098080173732849E-026
  1.750000000000000E-002   -8.700335552977234E-027
  1.760000000000000E-002   -5.035249027641292E-027
  1.770000000000000E-002   -1.523714508383070E-028
  1.780000000000000E-002    5.612355115694177E-027
  1.790000000000000E-002    1.176147620691356E-026
  1.800000000000000E-002    1.766361337728091E-026
  1.810000000000000E-002    2.260154591036133E-026
  1.820000000000000E-002    2.583900297593176E-026
  1.830000000000000E-002    2.670190694070343E-026
  1.840000000000000E-002    2.466729991617806E-026
  1.850000000000000E-002    1.945110657638950E-026
  1.860000000000000E-002    1.108432788216249E-026
  1.870000000000000E-002   -3.328290090546719E-029