 -4.000000000000000E-002    0.000000000000000E+000
 -3.990000000000000E-002    0.000000000000000E+000
 -3.980000000000000E-002    0.000000000000000E+000
 -3.970000000000000E-002    0.000000000000000E+000
 -3.960000000000000E-002    2.241935492039594E-017
 -3.950000000000000E-002    2.006758607764273E-016
 -3.940000000000000E-002    9.921506748749041E-016
 -3.930000000000000E-002    3.570953212877303E-015
 -3.920000000000000E-002    1.042216317151052E-014
 -3.910000000000000E-002    2.608272568428731E-014
 -3.900000000000000E-002    5.785218400548111E-014
 -3.890000000000000E-002    1.161426667250228E-013
 -3.880000000000000E-002    2.139867719857868E-013
 -3.870000000000000E-002    3.651285447525913E-013
 -3.860000000000000E-002    5.801526561919186E-013
 -3.850000000000000E-002    8.603207833170361E-013
 -3.840000000000000E-002    1.189218099255153E-012
 -3.830000000000000E-002    1.522958186715854E-012
 -3.820000000000000E-002    1.780475981337234E-012
 -3.810000000000000E-002    1.836224102059994E-012
 -3.800000000000000E-002    1.518180725305883E-012
 -3.790000000000000E-002    6.142624374916439E-013
 -3.780000000000000E-002   -1.110185894069694E-012
 -3.770000000000000E-002   -3.882310889415933E-012
 -3.760000000000000E-002   -7.879477181538674E-012
 -3.750000000000000E-002   -1.317769940804116E-011
 -3.740000000000000E-002   -1.969647536168359E-011
 -3.730000000000000E-002   -2.714830990764887E-011
 -3.720000000000000E-002   -3.500308254031602E-011
 -3.710000000000000E-002   -4.247794889153830E-011
 -3.700000000000000E-002   -4.856225520732960E-011
 -3.690000000000000E-002   -5.208367348218539E-011
 -3.680000000000000E-002   -5.181664596286783E-011
 -3.670000000000000E-002   -4.662752784453286E-011
 -3.660000000000000E-002   -3.564355000318094E-011
 -3.650000000000000E-002   -1.842581306132200E-011
 -3.640000000000000E-002    4.878547996056433E-012
 -3.630000000000000E-002    3.343218758313875E-011
 -3.620000000000000E-002    6.567668145247701E-011
 -3.610000000000000E-002    9.939428291027130E-011
 -3.600000000000000E-002    1.318711649498381E-010
 -3.590000000000000E-002    1.601573682669741E-010
 -3.580000000000000E-002    1.814032612487021E-010
 -3.570000000000000E-002    1.932371185212055E-010
 -3.560000000000000E-002    1.941364390714863E-010
 -3.550000000000000E-002    1.837384468562665E-010
 -3.540000000000000E-002    1.630354134624680E-010
 -3.530000000000000E-002    1.344086936232623E-010
 -3.520000000000000E-002    1.014717047743235E-010
 -3.510000000000000E-002    6.871528316220583E-011
 -3.500000000000000E-002    4.097619975223435E-011
 -3.490000000000000E-002    2.277765768139675E-011
 -3.480000000000000E-002    1.761533496748038E-011
 -3.470000000000000E-002    2.727972019125862E-011
 -3.460000000000000E-002    5.131210683753162E-011
 -3.450000000000000E-002    8.668479842651111E-011
 -3.440000000000000E-002    1.277763989003143E-010
 -3.430000000000000E-002    1.666809733215890E-010
 -3.420000000000000E-002    1.938494419407462E-010
 -3.410000000000000E-002    1.990175431659166E-010
 -3.400000000000000E-002    1.723332515780512E-010
 -3.390000000000000E-002    1.055630731635888E-010
 -3.380000000000000E-002   -6.762615434253125E-012
 -3.370000000000000E-002   -1.664067978965939E-010
 -3.360000000000000E-002   -3.708106236056899E-010
 -3.350000000000000E-002   -6.128954929929632E-010
 -3.340000000000000E-002   -8.813248389074999E-010
 -3.330000000000000E-002   -1.161210851639303E-009
 -3.320000000000000E-002   -1.435197069753149E-009
 -3.310000000000000E-002   -1.684798644302494E-009
 -3.300000000000000E-002   -1.891850837167991E-009
 -3.290000000000000E-002   -2.039902477541710E-009
 -3.280000000000000E-002   -2.115402760847636E-009
 -3.270000000000000E-002   -2.108560386868749E-009
 -3.260000000000000E-002   -2.013802375627780E-009
 -3.250000000000000E-002   -1.829817600270974E-009
 -3.240000000000000E-002   -1.559229936623282E-009
 -3.230000000000000E-002   -1.207991184666173E-009
 -3.220000000000000E-002   -7.846210343939151E-010
 -3.210000000000000E-002   -2.994270398428669E-010
 -3.200000000000000E-002    2.361752985916202E-010
 -3.190000000000000E-002    8.101598341459737E-010
 -3.180000000000000E-002    1.410174561009709E-009
 -3.170000000000000E-002    2.023637766124852E-009
 -3.160000000000000E-002    2.637729156036901E-009
 -3.150000000000000E-002    3.239381706581292E-009
 -3.140000000000000E-002    3.815402468302469E-009
 -3.130000000000000E-002    4.352814925227051E-009
 -3.120000000000000E-002    4.839474532507548E-009
 -3.110000000000000E-002    5.264927557983152E-009
 -3.100000000000000E-002    5.621399832912536E-009
 -3.090000000000000E-002    5.904724741856883E-009
 -3.080000000000000E-002    6.114957092484791E-009
 -3.070000000000000E-002    6.256413688508228E-009
 -3.060000000000000E-002    6.336903602845320E-009
 -3.050000000000000E-002    6.366006273092304E-009
 -3.040000000000000E-002    6.352398474244594E-009
 -3.030000000000000E-002    6.300400681490630E-009
 -3.020000000000000E-002    6.206103247755022E-009
 -3.010000000000000E-002    6.053606124599965E-009
 -3.000000000000000E-002    5.812026122455660E-009
 -2.990000000000000E-002    5.433967680104391E-009
 -2.980000000000000E-002    4.856101169511927E-009
 -2.970000000000000E-002    4.002323936639317E-009
 -2.960000000000000E-002    2.789708065552678E-009
 -2.950000000000000E-002    1.137089871095112E-009
 -2.940000000000000E-002   -1.024243261656450E-009
 -2.930000000000000E-002   -3.738706284505068E-009
 -2.920000000000000E-002   -7.014671726846669E-009
 -2.910000000000000E-002   -1.081430439747229E-008
 -2.900000000000000E-002   -1.504650902754673E-008
 -2.890000000000000E-002   -1.956435485898716E-008
 -2.880000000000000E-002   -2.416801848920567E-008
 -2.870000000000000E-002   -2.861374348456339E-008
 -2.860000000000000E-002   -3.262865369863033E-008
 -2.850000000000000E-002   -3.593052066018962E-008
 -2.840000000000000E-002   -3.825089033578204E-008
 -2.830000000000000E-002   -3.935939000763264E-008
 -2.820000000000000E-002   -3.908661279688551E-008
 -2.810000000000000E-002   -3.734293067911378E-008
 -2.800000000000000E-002   -3.413073545543189E-008
 -2.790000000000000E-002   -2.954820563337139E-008
 -2.780000000000000E-002   -2.378347315612041E-008
 -2.770000000000000E-002   -1.709913334521075E-008
 -2.760000000000000E-002   -9.808166457741986E-009
 -2.750000000000000E-002   -2.243472053406264E-009
 -2.740000000000000E-002    5.275883102168331E-009
 -2.730000000000000E-002    1.247792076940203E-008
 -2.720000000000000E-002    1.916654271272660E-008
 -2.710000000000000E-002    2.524209395297864E-008
 -2.700000000000000E-002    3.071068855618439E-008
 -2.690000000000000E-002    3.568035547487797E-008
 -2.680000000000000E-002    4.034360854053715E-008
 -2.670000000000000E-002    4.494754823093988E-008
 -2.660000000000000E-002    4.975428808048131E-008
 -2.650000000000000E-002    5.499577618351256E-008
 -2.640000000000000E-002    6.082811782322413E-008
 -2.630000000000000E-002    6.729090118902566E-008
 -2.620000000000000E-002    7.427682169434096E-008
 -2.610000000000000E-002    8.151611336939139E-008
 -2.600000000000000E-002    8.857882031411794E-008
 -2.590000000000000E-002    9.489610572287258E-008
 -2.580000000000000E-002    9.979972854858573E-008
 -2.570000000000000E-002    1.025766539704353E-007
 -2.560000000000000E-002    1.025339377416376E-007
 -2.550000000000000E-002    9.906755199036145E-008
 -2.540000000000000E-002    9.172813162755325E-008
 -2.530000000000000E-002    8.027654754008815E-008
 -2.520000000000000E-002    6.472311760664268E-008
 -2.510000000000000E-002    4.534569944240709E-008
 -2.500000000000000E-002    2.268411834077973E-008
 -2.490000000000000E-002   -2.489204595222166E-009
 -2.480000000000000E-002   -2.921992834065412E-008
 -2.470000000000000E-002   -5.643897325144239E-008
 -2.460000000000000E-002   -8.303945884411477E-008
 -2.450000000000000E-002   -1.079555936041052E-007
 -2.440000000000000E-002   -1.302351546229083E-007
 -2.430000000000000E-002   -1.490980905683254E-007
 -2.420000000000000E-002   -1.639749087747958E-007
 -2.410000000000000E-002   -1.745208469324616E-007
 -2.400000000000000E-002   -1.806043605760142E-007
 -2.390000000000000E-002   -1.822712511119750E-007
 -2.380000000000000E-002   -1.796884482817150E-007
 -2.370000000000000E-002   -1.730737021629127E-007
 -2.360000000000000E-002   -1.626189178679130E-007
 -2.350000000000000E-002   -1.484157106905461E-007
 -2.340000000000000E-002   -1.303913689739348E-007
 -2.330000000000000E-002   -1.082624352226063E-007
 -2.320000000000000E-002   -8.151098337994817E-008
 -2.310000000000000E-002   -4.938649083357586E-008
 -2.300000000000000E-002   -1.093319605554679E-008
 -2.290000000000000E-002    3.495976765195375E-008
 -2.280000000000000E-002    8.949066853998791E-008
 -2.270000000000000E-002    1.538667167165511E-007
 -2.260000000000000E-002    2.292230885870533E-007
 -2.250000000000000E-002    3.165475634050115E-007
 -2.240000000000000E-002    4.166183802928205E-007
 -2.230000000000000E-002    5.299615734077638E-007
 -2.220000000000000E-002    6.568318152952222E-007
 -2.210000000000000E-002    7.972186006335033E-007
 -2.200000000000000E-002    9.508771973207959E-007
 -2.190000000000000E-002    1.117381277202737E-006
 -2.180000000000000E-002    1.296191965498662E-006
 -2.170000000000000E-002    1.486737388012799E-006
 -2.160000000000000E-002    1.688496400161702E-006
 -2.150000000000000E-002    1.901077654531767E-006
 -2.140000000000000E-002    2.124289924473851E-006
 -2.130000000000000E-002    2.358197082061114E-006
 -2.120000000000000E-002    2.603154783214791E-006
 -2.110000000000000E-002    2.859827427424476E-006
 -2.100000000000000E-002    3.129185374094337E-006
 -2.090000000000000E-002    3.412483714307201E-006
 -2.080000000000000E-002    3.711226466514324E-006
 -2.070000000000000E-002    4.027120268390552E-006
 -2.060000000000000E-002    4.362021395585002E-006
 -2.050000000000000E-002    4.717882855440552E-006
 -2.040000000000000E-002    5.096703616590537E-006
 -2.030000000000000E-002    5.500485827218482E-006
 -2.020000000000000E-002    5.931202436175954E-006
 -2.010000000000000E-002    6.390779126139581E-006
 -2.000000000000000E-002    6.881087829947185E-006
 -1.990000000000000E-002    7.403956733938741E-006
 -1.980000000000000E-002    7.961194227671924E-006
 -1.970000000000000E-002    8.554619631211544E-006
 -1.960000000000000E-002    9.186107514546597E-006
 -1.950000000000000E-002    9.857637976156444E-006
 -1.940000000000000E-002    1.057134490684242E-005
 -1.930000000000000E-002    1.132956209960491E-005
 -1.920000000000000E-002    1.213486715392940E-005
 -1.910000000000000E-002    1.299011049318730E-005
 -1.900000000000000E-002    1.389843525095311E-005
 -1.890000000000000E-002    1.486327753214803E-005
 -1.880000000000000E-002    1.588835353494237E-005
 -1.870000000000000E-002    1.697763547696228E-005
 -1.860000000000000E-002    1.813530338211833E-005
 -1.850000000000000E-002    1.936569946785091E-005
 -1.840000000000000E-002    2.067326773473747E-005
 -1.830000000000000E-002    2.206250194401401E-005
 -1.820000000000000E-002    2.353790202902795E-005
 -1.810000000000000E-002    2.510393908979647E-005
 -1.800000000000000E-002    2.676504326901264E-005
 -1.790000000000000E-002    2.852561846834866E-005
 -1.780000000000000E-002    3.039007656114345E-005
 -1.770000000000000E-002    3.236290589439505E-005
 -1.760000000000000E-002    3.444874865323936E-005
 -1.750000000000000E-002    3.665250624553862E-005
 -1.740000000000000E-002    3.897945377035378E-005
 -1.730000000000000E-002    4.143534516018603E-005
 -1.720000000000000E-002    4.402652069401104E-005
 -1.710000000000000E-002    4.675997846128953E-005
 -1.700000000000000E-002    4.964344282955455E-005
 -1.690000000000000E-002    5.268537159814725E-005
 -1.680000000000000E-002    5.589496877394797E-005
 -1.670000000000000E-002    5.928211525143545E-005
 -1.660000000000000E-002    6.285731114708025E-005
 -1.650000000000000E-002    6.663158143445763E-005
 -1.640000000000000E-002    7.061637453951899E-005
 -1.630000000000000E-002    7.482345490321297E-005
 -1.620000000000000E-002    7.926483173751196E-005
 -1.610000000000000E-002    8.395268124188354E-005
 -1.600000000000000E-002    8.889931766574556E-005
 -1.590000000000000E-002    9.411721180529090E-005
 -1.580000000000000E-002    9.961901880041779E-005
 -1.570000000000000E-002    1.054176980143667E-004
 -1.560000000000000E-002    1.115265711513538E-004
 -1.550000000000000E-002    1.179595122443720E-004
 -1.540000000000000E-002    1.247310477477306E-004
 -1.530000000000000E-002    1.318564934171437E-004
 -1.520000000000000E-002    1.393520981286397E-004
 -1.510000000000000E-002    1.472350985306263E-004
 -1.500000000000000E-002    1.555238153212746E-004
 -1.490000000000000E-002    1.642376244275302E-004
 -1.480000000000000E-002    1.733969714769308E-004
 -1.470000000000000E-002    1.830233257589197E-004
 -1.460000000000000E-002    1.931390733029042E-004
 -1.450000000000000E-002    2.037675065177951E-004
 -1.440000000000000E-002    2.149326381491227E-004
 -1.430000000000000E-002    2.266592416723969E-004
 -1.420000000000000E-002    2.389727466172286E-004
 -1.410000000000000E-002    2.518992426489442E-004
 -1.400000000000000E-002    2.654655453657729E-004
 -1.390000000000000E-002    2.796991947581216E-004
 -1.380000000000000E-002    2.946286355056831E-004
 -1.370000000000000E-002    3.102833247212235E-004
 -1.360000000000000E-002    3.266939365540882E-004
 -1.350000000000000E-002    3.438924775247112E-004
 -1.340000000000000E-002    3.619125128463277E-004
 -1.330000000000000E-002    3.807893433063862E-004
 -1.320000000000000E-002    4.005601252825691E-004
 -1.310000000000000E-002    4.212639882965926E-004
 -1.300000000000000E-002    4.429422148002395E-004
 -1.290000000000000E-002    4.656381402394719E-004
 -1.280000000000000E-002    4.893973168552400E-004
 -1.270000000000000E-002    5.142674478988981E-004
 -1.260000000000000E-002    5.402983782278050E-004
 -1.250000000000000E-002    5.675420660898208E-004
 -1.240000000000000E-002    5.960525206148686E-004
 -1.230000000000000E-002    6.258857240322999E-004
 -1.220000000000000E-002    6.570995751199061E-004
 -1.210000000000000E-002    6.897539336505275E-004
 -1.200000000000000E-002    7.239105643647968E-004
 -1.190000000000000E-002    7.596331055955656E-004
 -1.180000000000000E-002    7.969871643673165E-004
 -1.170000000000000E-002    8.360402887118410E-004
 -1.160000000000000E-002    8.768620784529379E-004
 -1.150000000000000E-002    9.195244411365023E-004
 -1.140000000000000E-002    9.641014055178035E-004
 -1.130000000000000E-002    1.010669567647085E-003
 -1.120000000000000E-002    1.059307957728692E-003
 -1.110000000000000E-002    1.110098334205160E-003
 -1.100000000000000E-002    1.163125259691368E-003
 -1.090000000000000E-002    1.218476291532274E-003
 -1.080000000000000E-002    1.276241924750385E-003
 -1.070000000000000E-002    1.336515809621642E-003
 -1.060000000000000E-002    1.399394649126185E-003
 -1.050000000000000E-002    1.464978267950455E-003
 -1.040000000000000E-002    1.533369541878361E-003
 -1.030000000000000E-002    1.604674394243775E-003
 -1.020000000000000E-002    1.679001697726003E-003
 -1.010000000000000E-002    1.756463407784686E-003
 -1.000000000000000E-002    1.837174211474088E-003
 -9.899999999999999E-003    1.921251402439398E-003
 -9.800000000000000E-003    2.008815361344095E-003
 -9.699999999999999E-003    2.099989277069377E-003
 -9.599999999999999E-003    2.194899060752460E-003
 -9.500000000000000E-003    2.293674009965420E-003
 -9.399999999999999E-003    2.396446298040291E-003
 -9.299999999999999E-003    2.503351682527524E-003
 -9.200000000000000E-003    2.614529407797086E-003
 -9.099999999999999E-003    2.730122596325821E-003
 -8.999999999999999E-003    2.850278521350163E-003
 -8.900000000000000E-003    2.975148125821480E-003
 -8.799999999999999E-003    3.104886706498414E-003
 -8.699999999999999E-003    3.239653689063360E-003
 -8.600000000000000E-003    3.379612968968751E-003
 -8.499999999999999E-003    3.524932099703041E-003
 -8.399999999999999E-003    3.675782040504668E-003
 -8.300000000000000E-003    3.832338256640650E-003
 -8.199999999999999E-003    3.994779217355238E-003
 -8.100000000000000E-003    4.163286301859056E-003
 -8.000000000000000E-003    4.338044745867711E-003
 -7.899999999999999E-003    4.519242949910900E-003
 -7.800000000000000E-003    4.707072188182821E-003
 -7.699999999999999E-003    4.901726662648783E-003
 -7.599999999999999E-003    5.103404719159232E-003
 -7.499999999999999E-003    5.312308133534892E-003
 -7.399999999999999E-003    5.528642347045868E-003
 -7.299999999999999E-003    5.752617679504765E-003
 -7.199999999999999E-003    5.984448315566352E-003
 -7.100000000000000E-003    6.224353141282267E-003
 -6.999999999999999E-003    6.472555881586461E-003
 -6.899999999999999E-003    6.729283949603168E-003
 -6.800000000000000E-003    6.994770295619084E-003
 -6.699999999999999E-003    7.269251719610293E-003
 -6.599999999999999E-003    7.552969237920993E-003
 -6.499999999999999E-003    7.846166175435855E-003
 -6.399999999999999E-003    8.149090345176319E-003
 -6.299999999999999E-003    8.461991823743714E-003
 -6.199999999999999E-003    8.785123641245240E-003
 -6.100000000000000E-003    9.118739829133934E-003
 -5.999999999999999E-003    9.463098348710628E-003
 -5.899999999999999E-003    9.818457723175262E-003
 -5.800000000000000E-003    1.018508102118700E-002
 -5.699999999999999E-003    1.056323303536281E-002
 -5.599999999999999E-003    1.095318043439408E-002
 -5.499999999999999E-003    1.135519516430653E-002
 -5.399999999999999E-003    1.176955101878188E-002
 -5.299999999999999E-003    1.219652699686482E-002
 -5.199999999999999E-003    1.263640366774280E-002
 -5.099999999999999E-003    1.308946704146877E-002
 -4.999999999999999E-003    1.355600683929381E-002
 -4.899999999999999E-003    1.403631463217469E-002
 -4.799999999999999E-003    1.453068376294026E-002
 -4.699999999999999E-003    1.503941139752230E-002
 -4.599999999999999E-003    1.556279530619502E-002
 -4.499999999999999E-003    1.610113180749040E-002
 -4.399999999999999E-003    1.665472059878714E-002
 -4.299999999999999E-003    1.722386081537071E-002
 -4.199999999999999E-003    1.780884855773161E-002
 -4.099999999999999E-003    1.840998129010936E-002
 -3.999999999999999E-003    1.902755595833400E-002
 -3.899999999999999E-003    1.966186800208161E-002
 -3.799999999999999E-003    2.031321364170375E-002
 -3.699999999999999E-003    2.098188741748980E-002
 -3.599999999999999E-003    2.166818470598160E-002
 -3.499999999999999E-003    2.237239999722378E-002
 -3.399999999999999E-003    2.309482641835866E-002
 -3.299999999999999E-003    2.383575657667321E-002
 -3.199999999999999E-003    2.459548334155524E-002
 -3.099999999999999E-003    2.537429507248075E-002
 -2.999999999999999E-003    2.617247878420681E-002
 -2.899999999999999E-003    2.699031747763976E-002
 -2.799999999999999E-003    2.782809097171614E-002
 -2.699999999999999E-003    2.868607327245986E-002
 -2.599999999999999E-003    2.956452929785140E-002
 -2.499999999999999E-003    3.046371949705479E-002
 -2.399999999999999E-003    3.138389870945674E-002
 -2.299999999999999E-003    3.232531317465488E-002
 -2.199999999999999E-003    3.328819875678120E-002
 -2.099999999999999E-003    3.427278856202324E-002
 -1.999999999999999E-003    3.527930686933693E-002
 -1.899999999999999E-003    3.630797000135764E-002
 -1.799999999999999E-003    3.735898533626061E-002
 -1.699999999999999E-003    3.843255685428070E-002
 -1.599999999999999E-003    3.952887678338011E-002
 -1.499999999999999E-003    4.064813106159014E-002
 -1.399999999999999E-003    4.179049891854261E-002
 -1.299999999999999E-003    4.295614440699084E-002
 -1.199999999999999E-003    4.414522480658322E-002
 -1.099999999999999E-003    4.535788568614339E-002
 -9.999999999999989E-004    4.659425683110070E-002
 -8.999999999999990E-004    4.785446007015749E-002
 -7.999999999999990E-004    4.913859999769170E-002
 -6.999999999999989E-004    5.044676365311793E-002
 -5.999999999999990E-004    5.177902629978676E-002
 -4.999999999999989E-004    5.313544701951542E-002
 -3.999999999999989E-004    5.451606720440691E-002
 -2.999999999999989E-004    5.592091480424890E-002
 -1.999999999999989E-004    5.735000241576972E-002
 -9.999999999999892E-005    5.880331716134748E-002
  1.084202172485504E-018    6.028084700577759E-002
  1.000000000000011E-004    6.178254457510587E-002
  2.000000000000011E-004    6.330836131422317E-002
  3.000000000000011E-004    6.485822478770065E-002
  4.000000000000011E-004    6.643205012006338E-002
  5.000000000000011E-004    6.802972311072422E-002
  6.000000000000011E-004    6.965111867217411E-002
  7.000000000000011E-004    7.129609218946499E-002
  8.000000000000011E-004    7.296447256815458E-002
  9.000000000000012E-004    7.465606220360088E-002
  1.000000000000001E-003    7.637064922437972E-002
  1.100000000000001E-003    7.810800106546879E-002
  1.200000000000001E-003    7.986784543267438E-002
  1.300000000000001E-003    8.164990208228107E-002
  1.400000000000001E-003    8.345386310260836E-002
  1.500000000000001E-003    8.527939380801967E-002
  1.600000000000001E-003    8.712613816676548E-002
  1.700000000000001E-003    8.899371047228147E-002
  1.800000000000001E-003    9.088170554196640E-002
  1.900000000000001E-003    9.278970032950708E-002
  2.000000000000001E-003    9.471723879073964E-002
  2.100000000000001E-003    9.666384598209035E-002
  2.200000000000001E-003    9.862901824210696E-002
  2.300000000000001E-003    0.100612230942561     
  2.400000000000001E-003    0.102612934731256     
  2.500000000000001E-003    0.104630550883651     
  2.600000000000001E-003    0.106664468286813     
  2.700000000000001E-003    0.108714054700762     
  2.800000000000001E-003    0.110778648589749     
  2.900000000000001E-003    0.112857555558515     
  3.000000000000001E-003    0.114950057396021     
  3.100000000000001E-003    0.117055404244646     
  3.200000000000001E-003    0.119172821679403     
  3.300000000000001E-003    0.121301514591573     
  3.400000000000001E-003    0.123440642676000     
  3.500000000000001E-003    0.125589342423995     
  3.600000000000001E-003    0.127746732486706     
  3.700000000000001E-003    0.129911907027686     
  3.800000000000001E-003    0.132083932160204     
  3.900000000000001E-003    0.134261842290905     
  4.000000000000001E-003    0.136444644666890     
  4.100000000000001E-003    0.138631321632549     
  4.200000000000001E-003    0.140820831678449     
  4.300000000000001E-003    0.143012104084083     
  4.400000000000001E-003    0.145204034488989     
  4.500000000000001E-003    0.147395491353989     
  4.600000000000002E-003    0.149585310148419     
  4.700000000000001E-003    0.151772315317988     
  4.800000000000001E-003    0.153955284320232     
  4.900000000000002E-003    0.156132969671564     
  5.000000000000001E-003    0.158304107577306     
  5.100000000000001E-003    0.160467392613355     
  5.200000000000001E-003    0.162621512410845     
  5.300000000000002E-003    0.164765124376092     
  5.400000000000001E-003    0.166896834579015     
  5.500000000000001E-003    0.169015262430565     
  5.600000000000002E-003    0.171118985594715     
  5.700000000000001E-003    0.173206565480626     
  5.800000000000001E-003    0.175276524506357     
  5.900000000000002E-003    0.177327376110476     
  6.000000000000001E-003    0.179357600399708     
  6.100000000000001E-003    0.181365649076768     
  6.200000000000002E-003    0.183349960084688     
  6.300000000000002E-003    0.185308942000208     
  6.400000000000001E-003    0.187240978931657     
  6.500000000000001E-003    0.189144436183984     
  6.600000000000002E-003    0.191017645545687     
  6.700000000000001E-003    0.192858916440078     
  6.800000000000001E-003    0.194666534994392     
  6.900000000000002E-003    0.196438769314340     
  7.000000000000001E-003    0.198173868757315     
  7.100000000000001E-003    0.199870048002232     
  7.200000000000002E-003    0.201525520034977     
  7.300000000000002E-003    0.203138475987093     
  7.400000000000001E-003    0.204707064042364     
  7.500000000000001E-003    0.206229441345781     
  7.600000000000002E-003    0.207703732869682     
  7.700000000000001E-003    0.209128048320591     
  7.800000000000001E-003    0.210500468975086     
  7.900000000000001E-003    0.211819064333709     
  8.000000000000002E-003    0.213081873302364     
  8.100000000000001E-003    0.214286928129293     
  8.200000000000001E-003    0.215432217901912     
  8.300000000000002E-003    0.216515720960452     
  8.400000000000001E-003    0.217535384768150     
  8.500000000000002E-003    0.218489161437604     
  8.600000000000002E-003    0.219374950208355     
  8.700000000000001E-003    0.220190651127772     
  8.800000000000002E-003    0.220934129238886     
  8.900000000000002E-003    0.221603243869495     
  9.000000000000001E-003    0.222195826351994     
  9.100000000000002E-003    0.222709683228042     
  9.200000000000002E-003    0.223142601149751     
  9.300000000000001E-003    0.223492344661130     
  9.400000000000002E-003    0.223756658718276     
  9.500000000000001E-003    0.223933271642788     
  9.600000000000001E-003    0.224019882156911     
  9.700000000000002E-003    0.224014171120945     
  9.800000000000001E-003    0.223913769755622     
  9.900000000000001E-003    0.223716330864591     
  1.000000000000000E-002    0.223419430823364     
  1.010000000000000E-002    0.223020654748726     
  1.020000000000000E-002    0.222517536055714     
  1.030000000000000E-002    0.221907596809433     
  1.040000000000000E-002    0.221188325372094     
  1.050000000000000E-002    0.220357187069373     
  1.060000000000000E-002    0.219411616506433     
  1.070000000000000E-002    0.218349020104812     
  1.080000000000000E-002    0.217166760815566     
  1.090000000000000E-002    0.215862199574426     
  1.100000000000000E-002    0.214432632632349     
  1.110000000000000E-002    0.212875366001181     
  1.120000000000000E-002    0.211187653261891     
  1.130000000000000E-002    0.209366703200757     
  1.140000000000000E-002    0.207409732379549     
  1.150000000000000E-002    0.205313876137197     
  1.160000000000000E-002    0.203076278024673     
  1.170000000000000E-002    0.200694030984561     
  1.180000000000000E-002    0.198164185375634     
  1.190000000000000E-002    0.195483789034969     
  1.200000000000000E-002    0.192649818552197     
  1.210000000000000E-002    0.189659230568382     
  1.220000000000000E-002    0.186508949587637     
  1.230000000000000E-002    0.183195864676300     
  1.240000000000000E-002    0.179716823810842     
  1.250000000000000E-002    0.176068627347086     
  1.260000000000000E-002    0.172248071687174     
  1.270000000000000E-002    0.168251898874205     
  1.280000000000000E-002    0.164076822594245     
  1.290000000000000E-002    0.159719530327414     
  1.300000000000000E-002    0.155176665326076     
  1.310000000000000E-002    0.150444851696294     
  1.320000000000000E-002    0.145520673106377     
  1.330000000000000E-002    0.140400701820129     
  1.340000000000000E-002    0.135081480077414     
  1.350000000000000E-002    0.129559508652129     
  1.360000000000000E-002    0.123831271380988     
  1.370000000000000E-002    0.117893225864349     
  1.380000000000000E-002    0.111741821526256     
  1.390000000000000E-002    0.105373477317807     
  1.400000000000000E-002    9.878459431958912E-002
  1.410000000000000E-002    9.197155641883245E-002
  1.420000000000000E-002    8.493073623572611E-002
  1.430000000000000E-002    7.765850264780229E-002
  1.440000000000000E-002    7.015120466840108E-002
  1.450000000000000E-002    6.240519747832256E-002
  1.460000000000000E-002    5.441683456973261E-002
  1.470000000000000E-002    4.618247297622904E-002
  1.480000000000000E-002    3.769848246495507E-002
  1.490000000000000E-002    2.896124374097270E-002
  1.500000000000000E-002    1.996716185509985E-002
  1.510000000000000E-002    1.071265549817609E-002
  1.520000000000000E-002    1.194184748601361E-003
  1.530000000000000E-002   -8.591768838781166E-003
  1.540000000000000E-002   -1.864868331917002E-002
  1.550000000000000E-002   -2.897998768145596E-002
  1.560000000000000E-002   -3.958906822286569E-002
  1.570000000000000E-002   -5.047925560351083E-002
  1.580000000000000E-002   -6.165381148002263E-002
  1.590000000000000E-002   -7.311594259863986E-002
  1.600000000000000E-002   -8.486879045677469E-002
  1.610000000000000E-002   -9.691538857689837E-002
  1.620000000000000E-002   -0.109258694064797     
  1.630000000000000E-002   -0.121901574838340     
  1.640000000000000E-002   -0.134846791481253     
  1.650000000000000E-002   -0.148096977518918     
  1.660000000000000E-002   -0.161654658725922     
  1.670000000000000E-002   -0.175522244873178     
  1.680000000000000E-002   -0.189701952373512     
  1.690000000000000E-002   -0.204195895203610     
  1.700000000000000E-002   -0.219006001995077     
  1.710000000000000E-002   -0.234134050468294     
  1.720000000000000E-002   -0.249581644251748     
  1.730000000000000E-002   -0.265350177160584     
  1.740000000000000E-002   -0.281440858553420     
  1.750000000000000E-002   -0.297854688123011     
  1.760000000000000E-002   -0.314592468523692     
  1.770000000000000E-002   -0.331654746742711     
  1.780000000000000E-002   -0.349041823336853     
  1.790000000000000E-002   -0.366753803664489     
  1.800000000000000E-002   -0.384790480663529     
  1.810000000000000E-002   -0.403151427944367     
  1.820000000000000E-002   -0.421835921923837     
  1.830000000000000E-002   -0.440842898400038     
  1.840000000000000E-002   -0.460171029957178     
  1.850000000000000E-002   -0.479818655206339     
  1.860000000000000E-002   -0.499783834294810     
  1.870000000000000E-002   -0.520064269528180     