 -4.000000000000000E-002    0.000000000000000E+000
 -3.990000000000000E-002    0.000000000000000E+000
 -3.980000000000000E-002    0.000000000000000E+000
 -3.970000000000000E-002    0.000000000000000E+000
 -3.960000000000000E-002    0.000000000000000E+000
 -3.950000000000000E-002    0.000000000000000E+000
 -3.940000000000000E-002    0.000000000000000E+000
 -3.930000000000000E-002    0.000000000000000E+000
 -3.920000000000000E-002    0.000000000000000E+000
 -3.910000000000000E-002    0.000000000000000E+000
 -3.900000000000000E-002    0.000000000000000E+000
 -3.890000000000000E-002    0.000000000000000E+000
 -3.880000000000000E-002    0.000000000000000E+000
 -3.870000000000000E-002    0.000000000000000E+000
 -3.860000000000000E-002    0.000000000000000E+000
 -3.850000000000000E-002    0.000000000000000E+000
 -3.840000000000000E-002    0.000000000000000E+000
 -3.830000000000000E-002    0.000000000000000E+000
 -3.820000000000000E-002    0.000000000000000E+000
 -3.810000000000000E-002    0.000000000000000E+000
 -3.800000000000000E-002    0.000000000000000E+000
 -3.790000000000000E-002    0.000000000000000E+000
 -3.780000000000000E-002    0.000000000000000E+000
 -3.770000000000000E-002    0.000000000000000E+000
 -3.760000000000000E-002    0.000000000000000E+000
 -3.750000000000000E-002    0.000000000000000E+000
 -3.740000000000000E-002    0.000000000000000E+000
 -3.730000000000000E-002    0.000000000000000E+000
 -3.720000000000000E-002    0.000000000000000E+000
 -3.710000000000000E-002    0.000000000000000E+000
 -3.700000000000000E-002    0.000000000000000E+000
 -3.690000000000000E-002    0.000000000000000E+000
 -3.680000000000000E-002    0.000000000000000E+000
 -3.670000000000000E-002    0.000000000000000E+000
 -3.660000000000000E-002    0.000000000000000E+000
 -3.650000000000000E-002    0.000000000000000E+000
 -3.640000000000000E-002    0.000000000000000E+000
 -3.630000000000000E-002    0.000000000000000E+000
 -3.620000000000000E-002    0.000000000000000E+000
 -3.610000000000000E-002    0.000000000000000E+000
 -3.600000000000000E-002    0.000000000000000E+000
 -3.590000000000000E-002    0.000000000000000E+000
 -3.580000000000000E-002    0.000000000000000E+000
 -3.570000000000000E-002    0.000000000000000E+000
 -3.560000000000000E-002    0.000000000000000E+000
 -3.550000000000000E-002    0.000000000000000E+000
 -3.540000000000000E-002    0.000000000000000E+000
 -3.530000000000000E-002    0.000000000000000E+000
 -3.520000000000000E-002    0.000000000000000E+000
 -3.510000000000000E-002    0.000000000000000E+000
 -3.500000000000000E-002    0.000000000000000E+000
 -3.490000000000000E-002    0.000000000000000E+000
 -3.480000000000000E-002    0.000000000000000E+000
 -3.470000000000000E-002    0.000000000000000E+000
 -3.460000000000000E-002    0.000000000000000E+000
 -3.450000000000000E-002    0.000000000000000E+000
 -3.440000000000000E-002    0.000000000000000E+000
 -3.430000000000000E-002    0.000000000000000E+000
 -3.420000000000000E-002    0.000000000000000E+000
 -3.410000000000000E-002    0.000000000000000E+000
 -3.400000000000000E-002    0.000000000000000E+000
 -3.390000000000000E-002    0.000000000000000E+000
 -3.380000000000000E-002    0.000000000000000E+000
 -3.370000000000000E-002    0.000000000000000E+000
 -3.360000000000000E-002    0.000000000000000E+000
 -3.350000000000000E-002    0.000000000000000E+000
 -3.340000000000000E-002    0.000000000000000E+000
 -3.330000000000000E-002    0.000000000000000E+000
 -3.320000000000000E-002    0.000000000000000E+000
 -3.310000000000000E-002    0.000000000000000E+000
 -3.300000000000000E-002    0.000000000000000E+000
 -3.290000000000000E-002    0.000000000000000E+000
 -3.280000000000000E-002    0.000000000000000E+000
 -3.270000000000000E-002    0.000000000000000E+000
 -3.260000000000000E-002    0.000000000000000E+000
 -3.250000000000000E-002    0.000000000000000E+000
 -3.240000000000000E-002    0.000000000000000E+000
 -3.230000000000000E-002    0.000000000000000E+000
 -3.220000000000000E-002    0.000000000000000E+000
 -3.210000000000000E-002    0.000000000000000E+000
 -3.200000000000000E-002    0.000000000000000E+000
 -3.190000000000000E-002    0.000000000000000E+000
 -3.180000000000000E-002    0.000000000000000E+000
 -3.170000000000000E-002    0.000000000000000E+000
 -3.160000000000000E-002    0.000000000000000E+000
 -3.150000000000000E-002    0.000000000000000E+000
 -3.140000000000000E-002    0.000000000000000E+000
 -3.130000000000000E-002    0.000000000000000E+000
 -3.120000000000000E-002    0.000000000000000E+000
 -3.110000000000000E-002    0.000000000000000E+000
 -3.100000000000000E-002    0.000000000000000E+000
 -3.090000000000000E-002    0.000000000000000E+000
 -3.080000000000000E-002    0.000000000000000E+000
 -3.070000000000000E-002    0.000000000000000E+000
 -3.060000000000000E-002    0.000000000000000E+000
 -3.050000000000000E-002    0.000000000000000E+000
 -3.040000000000000E-002    0.000000000000000E+000
 -3.030000000000000E-002    0.000000000000000E+000
 -3.020000000000000E-002    0.000000000000000E+000
 -3.010000000000000E-002    0.000000000000000E+000
 -3.000000000000000E-002    0.000000000000000E+000
 -2.990000000000000E-002    0.000000000000000E+000
 -2.980000000000000E-002    0.000000000000000E+000
 -2.970000000000000E-002    0.000000000000000E+000
 -2.960000000000000E-002    0.000000000000000E+000
 -2.950000000000000E-002    0.000000000000000E+000
 -2.940000000000000E-002    0.000000000000000E+000
 -2.930000000000000E-002    0.000000000000000E+000
 -2.920000000000000E-002    0.000000000000000E+000
 -2.910000000000000E-002    0.000000000000000E+000
 -2.900000000000000E-002    0.000000000000000E+000
 -2.890000000000000E-002    0.000000000000000E+000
 -2.880000000000000E-002    0.000000000000000E+000
 -2.870000000000000E-002    0.000000000000000E+000
 -2.860000000000000E-002    0.000000000000000E+000
 -2.850000000000000E-002    0.000000000000000E+000
 -2.840000000000000E-002    0.000000000000000E+000
 -2.830000000000000E-002    0.000000000000000E+000
 -2.820000000000000E-002    0.000000000000000E+000
 -2.810000000000000E-002    0.000000000000000E+000
 -2.800000000000000E-002    0.000000000000000E+000
 -2.790000000000000E-002    0.000000000000000E+000
 -2.780000000000000E-002    0.000000000000000E+000
 -2.770000000000000E-002    0.000000000000000E+000
 -2.760000000000000E-002    0.000000000000000E+000
 -2.750000000000000E-002    0.000000000000000E+000
 -2.740000000000000E-002    0.000000000000000E+000
 -2.730000000000000E-002    0.000000000000000E+000
 -2.720000000000000E-002    0.000000000000000E+000
 -2.710000000000000E-002    0.000000000000000E+000
 -2.700000000000000E-002    1.924390591266381E-047
 -2.690000000000000E-002    4.490244712954889E-047
 -2.680000000000000E-002    2.157319588761740E-046
 -2.670000000000000E-002    4.058053765354630E-046
 -2.660000000000000E-002    5.958787941947519E-046
 -2.650000000000000E-002    7.667083059413770E-046
 -2.640000000000000E-002    9.118792764711171E-046
 -2.630000000000000E-002    8.605621940373469E-046
 -2.620000000000000E-002    5.742692468147390E-046
 -2.610000000000000E-002   -3.825124767859270E-046
 -2.600000000000000E-002   -1.970934260137155E-045
 -2.590000000000000E-002   -5.534293806427773E-045
 -2.580000000000000E-002   -1.006161104173412E-044
 -2.570000000000000E-002   -1.577210580131275E-044
 -2.560000000000000E-002   -2.095865069364505E-044
 -2.550000000000000E-002   -2.625905471009683E-044
 -2.540000000000000E-002   -2.805654850121026E-044
 -2.530000000000000E-002   -2.634487214820606E-044
 -2.520000000000000E-002   -1.650348238778462E-044
 -2.510000000000000E-002    6.294126970742901E-045
 -2.500000000000000E-002    4.649844928812479E-044
 -2.490000000000000E-002    1.087953793492492E-043
 -2.480000000000000E-002    1.966699751244475E-043
 -2.470000000000000E-002    3.097719524229541E-043
 -2.460000000000000E-002    4.412072150668499E-043
 -2.450000000000000E-002    5.759185459005592E-043
 -2.440000000000000E-002    6.835490719238171E-043
 -2.430000000000000E-002    7.181610653112327E-043
 -2.420000000000000E-002    6.147051807275663E-043
 -2.410000000000000E-002    2.890448840934782E-043
 -2.400000000000000E-002   -3.541029938336762E-043
 -2.390000000000000E-002   -1.412259025117369E-042
 -2.380000000000000E-002   -2.963143215954769E-042
 -2.370000000000000E-002   -5.031406775781974E-042
 -2.360000000000000E-002   -7.546370226619941E-042
 -2.350000000000000E-002   -1.028774734131252E-041
 -2.340000000000000E-002   -1.282688782882275E-041
 -2.330000000000000E-002   -1.447186250445272E-041
 -2.320000000000000E-002   -1.422979901511224E-041
 -2.310000000000000E-002   -1.081090026323859E-041
 -2.300000000000000E-002   -2.694810140969968E-042
 -2.290000000000000E-002    1.170641228751766E-041
 -2.280000000000000E-002    3.376337378210103E-041
 -2.270000000000000E-002    6.419557957013959E-041
 -2.260000000000000E-002    1.024866905441873E-040
 -2.250000000000000E-002    1.461681100933304E-040
 -2.240000000000000E-002    1.900330613282341E-040
 -2.230000000000000E-002    2.254055693211131E-040
 -2.220000000000000E-002    2.396285137093154E-040
 -2.210000000000000E-002    2.160376783525808E-040
 -2.200000000000000E-002    1.347176603916052E-040
 -2.190000000000000E-002   -2.561830568446621E-041
 -2.180000000000000E-002   -2.843022071590002E-040
 -2.170000000000000E-002   -6.537070876337512E-040
 -2.160000000000000E-002   -1.132522521801471E-039
 -2.150000000000000E-002   -1.697592028213151E-039
 -2.140000000000000E-002   -2.295026239368893E-039
 -2.130000000000000E-002   -2.831893545160152E-039
 -2.120000000000000E-002   -3.170430336154252E-039
 -2.110000000000000E-002   -3.127367071430702E-039
 -2.100000000000000E-002   -2.481495036213768E-039
 -2.090000000000000E-002   -9.928225637496296E-040
 -2.080000000000000E-002    1.563623533178814E-039
 -2.070000000000000E-002    5.347320864301286E-039
 -2.060000000000000E-002    1.038508925890215E-038
 -2.050000000000000E-002    1.649034459741584E-038
 -2.040000000000000E-002    2.317616549484559E-038
 -2.030000000000000E-002    2.957479357768745E-038
 -2.020000000000000E-002    3.438197412508862E-038
 -2.010000000000000E-002    3.584999458205617E-038
 -2.000000000000000E-002    3.185727071580402E-038
 -1.990000000000000E-002    2.008335260394699E-038
 -1.980000000000000E-002   -1.685593275047297E-039
 -1.970000000000000E-002   -3.510609943533975E-038
 -1.960000000000000E-002   -8.068535273991152E-038
 -1.950000000000000E-002   -1.370791339519706E-037
 -1.940000000000000E-002   -2.003472567085918E-037
 -1.930000000000000E-002   -2.632766996959682E-037
 -1.920000000000000E-002   -3.149274672522088E-037
 -1.910000000000000E-002   -3.405958992350791E-037
 -1.900000000000000E-002   -3.224156583909492E-037
 -1.890000000000000E-002   -2.408153437926592E-037
 -1.880000000000000E-002   -7.701113510074454E-038
 -1.870000000000000E-002    1.833796027387130E-037
 -1.860000000000000E-002    5.456710855544235E-037
 -1.850000000000000E-002    1.000672817735129E-036
 -1.840000000000000E-002    1.519042333686433E-036
 -1.830000000000000E-002    2.046295280091698E-036
 -1.820000000000000E-002    2.499648374495102E-036
 -1.810000000000000E-002    2.768124795448740E-036
 -1.800000000000000E-002    2.717477575176555E-036
 -1.790000000000000E-002    2.201403984561606E-036
 -1.780000000000000E-002    1.080151087723949E-036
 -1.770000000000000E-002   -7.531299858231849E-037
 -1.760000000000000E-002   -3.339068390030571E-036
 -1.750000000000000E-002   -6.614137757142860E-036
 -1.740000000000000E-002   -1.037230695198339E-035
 -1.730000000000000E-002   -1.423251000251745E-035
 -1.720000000000000E-002   -1.762004900712448E-035
 -1.710000000000000E-002   -1.977143814916799E-035
 -1.700000000000000E-002   -1.977259105356968E-035
 -1.690000000000000E-002   -1.663919621988411E-035
 -1.680000000000000E-002   -9.445067994962682E-036
 -1.670000000000000E-002    2.501098926411529E-036
 -1.660000000000000E-002    1.943799318883206E-035
 -1.650000000000000E-002    4.091047622646683E-035
 -1.640000000000000E-002    6.553403034543794E-035
 -1.630000000000000E-002    9.080591470710914E-035
 -1.620000000000000E-002    1.130143977872362E-034
 -1.610000000000000E-002    1.273038195963794E-034
 -1.600000000000000E-002    1.279527733693560E-034
 -1.590000000000000E-002    1.089126929830629E-034
 -1.580000000000000E-002    6.463215959740401E-035
 -1.570000000000000E-002   -8.843597142629541E-036
 -1.560000000000000E-002   -1.125574251526896E-034
 -1.550000000000000E-002   -2.432290942798139E-034
 -1.540000000000000E-002   -3.919341703954438E-034
 -1.530000000000000E-002   -5.431228825006505E-034
 -1.520000000000000E-002   -6.742789346029680E-034
 -1.510000000000000E-002   -7.565409211266369E-034
 -1.500000000000000E-002   -7.565888035821879E-034
 -1.490000000000000E-002   -6.400208659444809E-034
 -1.480000000000000E-002   -3.763022293472435E-034
 -1.470000000000000E-002    5.485221110050771E-035
 -1.460000000000000E-002    6.560803554359090E-034
 -1.450000000000000E-002    1.404714194899490E-033
 -1.440000000000000E-002    2.245958790525174E-033
 -1.430000000000000E-002    3.088320826389829E-033
 -1.420000000000000E-002    3.802911950705490E-033
 -1.410000000000000E-002    4.228293355477340E-033
 -1.400000000000000E-002    4.182324139183275E-033
 -1.390000000000000E-002    3.481960511339568E-033
 -1.380000000000000E-002    1.971085499307474E-033
 -1.370000000000000E-002   -4.447765599403594E-034
 -1.360000000000000E-002   -3.759518662724822E-033
 -1.350000000000000E-002   -7.827649482952259E-033
 -1.340000000000000E-002   -1.233166561158035E-032
 -1.330000000000000E-002   -1.676302646573936E-032
 -1.320000000000000E-002   -2.042493057876961E-032
 -1.310000000000000E-002   -2.246488101853948E-032
 -1.300000000000000E-002   -2.194353176793067E-032
 -1.290000000000000E-002   -1.794319683262575E-032
 -1.280000000000000E-002   -9.714641794578227E-033
 -1.270000000000000E-002    3.145600874708646E-033
 -1.260000000000000E-002    2.050272289341429E-032
 -1.250000000000000E-002    4.149934204002365E-032
 -1.240000000000000E-002    6.441031901010096E-032
 -1.230000000000000E-002    8.657319404069287E-032
 -1.220000000000000E-002    1.044328553828709E-031
 -1.210000000000000E-002    1.137361341848781E-031
 -1.200000000000000E-002    1.099025707089109E-031
 -1.190000000000000E-002    8.858078240581894E-032
 -1.180000000000000E-002    4.637555327142868E-032
 -1.170000000000000E-002   -1.830024682049407E-032
 -1.160000000000000E-002   -1.043298830693927E-031
 -1.150000000000000E-002   -2.070700286230162E-031
 -1.140000000000000E-002   -3.177488466981150E-031
 -1.130000000000000E-002   -4.232530674303372E-031
 -1.120000000000000E-002   -5.064743232031353E-031
 -1.110000000000000E-002   -5.473630524096798E-031
 -1.100000000000000E-002   -5.247863818182826E-031
 -1.090000000000000E-002   -4.192023645486559E-031
 -1.080000000000000E-002   -2.160469300188737E-031
 -1.070000000000000E-002    9.040946098733334E-032
 -1.060000000000000E-002    4.931325733250793E-031
 -1.050000000000000E-002    9.688669042070806E-031
 -1.040000000000000E-002    1.475813928042929E-030
 -1.030000000000000E-002    1.953171976706281E-030
 -1.020000000000000E-002    2.323242539656359E-030
 -1.010000000000000E-002    2.496677617172048E-030
 -1.000000000000000E-002    2.381181311868344E-030
 -9.899999999999999E-003    1.893590450969391E-030
 -9.800000000000000E-003    9.747457941331301E-031
 -9.699999999999999E-003   -3.940320231915721E-031
 -9.599999999999999E-003   -2.174669877938944E-030
 -9.500000000000000E-003   -4.258657358850242E-030
 -9.399999999999999E-003   -6.458746398289236E-030
 -9.299999999999999E-003   -8.508992719690162E-030
 -9.200000000000000E-003   -1.007587542497497E-029
 -9.099999999999999E-003   -1.078255595856368E-029
 -8.999999999999999E-003   -1.024714510555453E-029
 -8.900000000000000E-003   -8.134153665277421E-030
 -8.799999999999999E-003   -4.216162801658457E-030
 -8.699999999999999E-003    1.559621439983083E-030
 -8.600000000000000E-003    9.007675093707378E-030
 -8.499999999999999E-003    1.765312411733129E-029
 -8.399999999999999E-003    2.670451753126760E-029
 -8.300000000000000E-003    3.506173495428757E-029
 -8.199999999999999E-003    4.136901362439584E-029
 -8.100000000000000E-003    4.411992563161407E-029
 -8.000000000000000E-003    4.181604607703115E-029
 -7.899999999999999E-003    3.317411176235646E-029
 -7.800000000000000E-003    1.736816183166804E-029
 -7.699999999999999E-003   -5.715893177063349E-030
 -7.599999999999999E-003   -3.524439292812499E-029
 -7.499999999999999E-003   -6.925692814153152E-029
 -7.399999999999999E-003   -1.045860438097170E-028
 -7.299999999999999E-003   -1.369166900953609E-028
 -7.199999999999999E-003   -1.610196117428564E-028
 -7.100000000000000E-003   -1.711793044911836E-028
 -6.999999999999999E-003   -1.618166561235956E-028
 -6.899999999999999E-003   -1.282799152453859E-028
 -6.800000000000000E-003   -6.774658139558880E-029
 -6.699999999999999E-003    1.985309640091029E-029
 -6.599999999999999E-003    1.310097217752631E-028
 -6.499999999999999E-003    2.580458776244561E-028
 -6.399999999999999E-003    3.889139799090858E-028
 -6.299999999999999E-003    5.075210103677637E-028
 -6.199999999999999E-003    5.946898170743325E-028
 -6.100000000000000E-003    6.298120173566505E-028
 -5.999999999999999E-003    5.931700775288931E-028
 -5.899999999999999E-003    4.688094817803241E-028
 -5.800000000000000E-003    2.477332265055687E-028
 -5.699999999999999E-003   -6.891694526524483E-029
 -5.599999999999999E-003   -4.671218431651833E-028
 -5.499999999999999E-003   -9.181798855757471E-028
 -5.399999999999999E-003   -1.378340721197601E-027
 -5.299999999999999E-003   -1.790330210520422E-027
 -5.199999999999999E-003   -2.087093858711179E-027
 -5.099999999999999E-003   -2.197880372947166E-027
 -4.999999999999999E-003   -2.056506839400190E-027
 -4.899999999999999E-003   -1.611313749187275E-027
 -4.799999999999999E-003   -8.359559051764976E-028
 -4.699999999999999E-003    2.601708752259181E-028
 -4.599999999999999E-003    1.623347348870093E-027
 -4.499999999999999E-003    3.150431261837880E-027
 -4.399999999999999E-003    4.688865566209319E-027
 -4.299999999999999E-003    6.043177457418987E-027
 -4.199999999999999E-003    6.988871537789954E-027
 -4.099999999999999E-003    7.293877352089317E-027
 -3.999999999999999E-003    6.746763497210247E-027
 -3.899999999999999E-003    5.189816220885979E-027
 -3.799999999999999E-003    2.553937234370513E-027
 -3.699999999999999E-003   -1.108736795349421E-027
 -3.599999999999999E-003   -5.599382407947776E-027
 -3.499999999999999E-003   -1.055943785258131E-026
 -3.399999999999999E-003   -1.547493768279424E-026
 -3.299999999999999E-003   -1.970224524270497E-026
 -3.199999999999999E-003   -2.251743777229055E-026
 -3.099999999999999E-003   -2.318908040599159E-026
 -2.999999999999999E-003   -2.107100550410143E-026
 -2.899999999999999E-003   -1.570819552684164E-026
 -2.799999999999999E-003   -6.945378052949218E-027
 -2.699999999999999E-003    4.975097045811245E-027
 -2.599999999999999E-003    1.934160369731325E-026
 -2.499999999999999E-003    3.494387802937177E-026
 -2.399999999999999E-003    5.010061121937881E-026
 -2.299999999999999E-003    6.275503629442733E-026
 -2.199999999999999E-003    7.064347587713548E-026
 -2.099999999999999E-003    7.153364377003008E-026
 -1.999999999999999E-003    6.351962582652171E-026
 -1.899999999999999E-003    4.534983514010326E-026
 -1.799999999999999E-003    1.675392876671930E-026
 -1.699999999999999E-003   -2.127364524245010E-026
 -1.599999999999999E-003   -6.628089754771257E-026
 -1.499999999999999E-003   -1.143038775852661E-025
 -1.399999999999999E-003   -1.599921925856700E-025
 -1.299999999999999E-003   -1.969432710908459E-025
 -1.199999999999999E-003   -2.182544773120362E-025
 -1.099999999999999E-003   -2.172765744997046E-025
 -9.999999999999989E-004   -1.885220813347306E-025
 -8.999999999999990E-004   -1.286510183699455E-025
 -7.999999999999990E-004   -3.742746493540609E-026
 -6.999999999999989E-004    8.148187329750395E-026
 -5.999999999999990E-004    2.200069661662160E-025
 -4.999999999999989E-004    3.656078937696258E-025
 -3.999999999999989E-004    5.017562990807844E-025
 -2.999999999999989E-004    6.090367591925832E-025
 -1.999999999999989E-004    6.668791249683326E-025
 -9.999999999999892E-005    6.558549817149978E-025
  1.084202172485504E-018    5.603854546315511E-025
  1.000000000000011E-004    3.716183821238687E-025
  2.000000000000011E-004    9.015448401503540E-026
  3.000000000000011E-004   -2.717543910264817E-025
  4.000000000000011E-004   -6.889344902432893E-025
  5.000000000000011E-004   -1.123324472007434E-024
  6.000000000000011E-004   -1.525616959577699E-024
  7.000000000000011E-004   -1.838680088388278E-024
  8.000000000000011E-004   -2.002749701997146E-024
  9.000000000000012E-004   -1.962160548366960E-024
  1.000000000000001E-003   -1.673140106157354E-024
  1.100000000000001E-003   -1.111948223038706E-024
  1.200000000000001E-003   -2.824387681928346E-025
  1.300000000000001E-003    7.780198704695362E-025
  1.400000000000001E-003    1.995366476293836E-024
  1.500000000000001E-003    3.259423781230329E-024
  1.600000000000001E-003    4.429008223326376E-024
  1.700000000000001E-003    5.341968560344313E-024
  1.800000000000001E-003    5.830034071315566E-024
  1.900000000000001E-003    5.737735683617285E-024
  2.000000000000001E-003    4.944004520148632E-024
  2.100000000000001E-003    3.384415311729088E-024
  2.200000000000001E-003    1.071520776122168E-024
  2.300000000000001E-003   -1.889606048992991E-024
  2.400000000000001E-003   -5.293548371916411E-024
  2.500000000000001E-003   -8.837061696315686E-024
  2.600000000000001E-003   -1.213386922730715E-023
  2.700000000000001E-003   -1.474259855253327E-023
  2.800000000000001E-003   -1.620731674484960E-023
  2.900000000000001E-003   -1.610849757145334E-023
  3.000000000000001E-003   -1.412050910143271E-023
  3.100000000000001E-003   -1.007013358265492E-023
  3.200000000000001E-003   -3.989315494832906E-024
  3.300000000000001E-003    3.845365559691064E-024
  3.400000000000001E-003    1.289398406751220E-023
  3.500000000000001E-003    2.236187558208028E-023
  3.600000000000001E-003    3.124017926834432E-023
  3.700000000000001E-003    3.838008534687590E-023
  3.800000000000001E-003    4.259885269590183E-023
  3.900000000000001E-003    4.281151544532806E-023
  4.000000000000001E-003    3.817785180089240E-023
  4.100000000000001E-003    2.825027514130061E-023
  4.200000000000001E-003    1.310530761712904E-023
  4.300000000000001E-003   -6.560222778736934E-024
  4.400000000000001E-003   -2.938671583084875E-023
  4.500000000000001E-003   -5.337875614573145E-023
  4.600000000000002E-003   -7.601209059359066E-023
  4.700000000000001E-003   -9.442379650141795E-023
  4.800000000000001E-003   -1.056795037145436E-022
  4.900000000000002E-003   -1.071012975727814E-022
  5.000000000000001E-003   -9.662941673419077E-023
  5.100000000000001E-003   -7.318168414450382E-023
  5.200000000000001E-003   -3.696787138564704E-023
  5.300000000000002E-003    1.028671863998336E-023
  5.400000000000001E-003    6.525225273361494E-023
  5.500000000000001E-003    1.230762458919434E-022
  5.600000000000002E-003    1.776592057329744E-022
  5.700000000000001E-003    2.221286525815935E-022
  5.800000000000001E-003    2.494932034682844E-022
  5.900000000000002E-003    2.534340306288728E-022
  6.000000000000001E-003    2.291662969404566E-022
  6.100000000000001E-003    1.742827634693565E-022
  6.200000000000002E-003    8.947672314058786E-023
  6.300000000000002E-003   -2.096301915431468E-023
  6.400000000000001E-003   -1.489857892411833E-022
  6.500000000000001E-003   -2.830221341483142E-022
  6.600000000000002E-003   -4.086834789782006E-022
  6.700000000000001E-003   -5.099208446592392E-022
  6.800000000000001E-003   -5.705912179356607E-022
  6.900000000000002E-003   -5.763228554151016E-022
  7.000000000000001E-003   -5.165152897776995E-022
  7.100000000000001E-003   -3.862644161244795E-022
  7.200000000000002E-003   -1.879728473150153E-022
  7.300000000000002E-003    6.760066536003905E-023
  7.400000000000001E-003    3.610779609788822E-022
  7.500000000000001E-003    6.651580970824263E-022
  7.600000000000002E-003    9.463668116463302E-022
  7.700000000000001E-003    1.167844049699172E-021
  7.800000000000001E-003    1.293032026303136E-021
  7.900000000000001E-003    1.289993542824154E-021
  8.000000000000002E-003    1.135970139653713E-021
  8.100000000000001E-003    8.216904711967765E-022
  8.200000000000001E-003    3.548796860934620E-022
  8.300000000000002E-003   -2.375815216172012E-022
  8.400000000000001E-003   -9.093428201653877E-022
  8.500000000000002E-003   -1.596481075863659E-021
  8.600000000000002E-003   -2.221781013337122E-021
  8.700000000000001E-003   -2.701325615468662E-021
  8.800000000000002E-003   -2.953040668554251E-021
  8.900000000000002E-003   -2.906546224353552E-021
  9.000000000000001E-003   -2.513403364793778E-021
  9.100000000000002E-003   -1.756636724009749E-021
  9.200000000000002E-003   -6.583020566162377E-022
  9.300000000000001E-003    7.161209254716222E-022
  9.400000000000002E-003    2.257576180362437E-021
  9.500000000000001E-003    3.818279246687964E-021
  9.600000000000001E-003    5.221881200330940E-021
  9.700000000000002E-003    6.278701938108669E-021
  9.800000000000001E-003    6.805164864740341E-021
  9.900000000000001E-003    6.645924008848931E-021
  1.000000000000000E-002    5.696611651847574E-021
  1.010000000000000E-002    3.924702702484852E-021
  1.020000000000000E-002    1.385782654428867E-021
  1.030000000000000E-002   -1.767431710285288E-021
  1.040000000000000E-002   -5.285591594796794E-021
  1.050000000000000E-002   -8.834304930881488E-021
  1.060000000000000E-002   -1.201738139106412E-020
  1.070000000000000E-002   -1.441107580964258E-020
  1.080000000000000E-002   -1.560728866326569E-020
  1.090000000000000E-002   -1.526234772931669E-020
  1.100000000000000E-002   -1.314677157018488E-020
  1.110000000000000E-002   -9.190550157585722E-021
  1.120000000000000E-002   -3.518079447917661E-021
  1.130000000000000E-002    3.532928165876350E-021
  1.140000000000000E-002    1.141334323867436E-020
  1.150000000000000E-002    1.938856667914627E-020
  1.160000000000000E-002    2.658957185904739E-020
  1.170000000000000E-002    3.208744834147627E-020
  1.180000000000000E-002    3.498693415684223E-020
  1.190000000000000E-002    3.453156838744735E-020
  1.200000000000000E-002    3.021058529530514E-020
  1.210000000000000E-002    2.185590511795924E-020
  1.220000000000000E-002    9.716802129914974E-021
  1.230000000000000E-002   -5.499689450400974E-021
  1.240000000000000E-002   -2.263259617829352E-020
  1.250000000000000E-002   -4.012171814576321E-020
  1.260000000000000E-002   -5.611526814340104E-020
  1.270000000000000E-002   -6.862688834636593E-020
  1.280000000000000E-002   -7.573249218246322E-020
  1.290000000000000E-002   -7.579137354952112E-020
  1.300000000000000E-002   -6.767102768455598E-020
  1.310000000000000E-002   -5.095136961421914E-020
  1.320000000000000E-002   -2.608267651253591E-020
  1.330000000000000E-002    5.527369029392331E-021
  1.340000000000000E-002    4.151808411188656E-020
  1.350000000000000E-002    7.868522957237321E-020
  1.360000000000000E-002    1.131996619050060E-019
  1.370000000000000E-002    1.409278653813214E-019
  1.380000000000000E-002    1.578347997024254E-019
  1.390000000000000E-002    1.604374385836589E-019
  1.400000000000000E-002    1.462670683279638E-019
  1.410000000000000E-002    1.142911039134958E-019
  1.420000000000000E-002    6.524227412745473E-020
  1.430000000000000E-002    1.805341521040651E-021
  1.440000000000000E-002   -7.138029443231918E-020
  1.450000000000000E-002   -1.479298009619210E-019
  1.460000000000000E-002   -2.201425897101864E-019
  1.470000000000000E-002   -2.796383437769989E-019
  1.480000000000000E-002   -3.181607143549893E-019
  1.490000000000000E-002   -3.284860389486960E-019
  1.500000000000000E-002   -3.053537837663429E-019
  1.510000000000000E-002   -2.463210027134517E-019
  1.520000000000000E-002   -1.524372944877410E-019
  1.530000000000000E-002   -2.864085041410687E-020
  1.540000000000000E-002    1.162074399268787E-019
  1.550000000000000E-002    2.697078043148252E-019
  1.560000000000000E-002    4.167419363844894E-019
  1.570000000000000E-002    5.407039265967612E-019
  1.580000000000000E-002    6.250676519223725E-019
  1.590000000000000E-002    6.551696268156937E-019
  1.600000000000000E-002    6.200457545372592E-019
  1.610000000000000E-002    5.141317428682797E-019
  1.620000000000000E-002    3.386251009373631E-019
  1.630000000000000E-002    1.023142038891743E-019
  1.640000000000000E-002   -1.782893628064246E-019
  1.650000000000000E-002   -4.796272192564105E-019
  1.660000000000000E-002   -7.726201484522161E-019
  1.670000000000000E-002   -1.024997929153889E-018
  1.680000000000000E-002   -1.204295461928547E-018
  1.690000000000000E-002   -1.281286464602714E-018
  1.700000000000000E-002   -1.233547708804890E-018
  1.710000000000000E-002   -1.048790301915535E-018
  1.720000000000000E-002   -7.275694449938803E-019
  1.730000000000000E-002   -2.849977628783711E-019
  1.740000000000000E-002    2.488576468562374E-019
  1.750000000000000E-002    8.301165933916238E-019
  1.760000000000000E-002    1.403854049847705E-018
  1.770000000000000E-002    1.908421367985180E-018
  1.780000000000000E-002    2.281070710221164E-018
  1.790000000000000E-002    2.464459897976227E-018
  1.800000000000000E-002    2.413464469936622E-018
  1.810000000000000E-002    2.101612792332404E-018
  1.820000000000000E-002    1.526410096711601E-018
  1.830000000000000E-002    7.128347420118261E-019
  1.840000000000000E-002   -2.856084092583591E-019
  1.850000000000000E-002   -1.388716665780943E-018
  1.860000000000000E-002   -2.494490730485195E-018
  1.870000000000000E-002   -3.486997064288826E-018