 -4.000000000000000E-002    0.000000000000000E+000
 -3.990000000000000E-002    0.000000000000000E+000
 -3.980000000000000E-002    0.000000000000000E+000
 -3.970000000000000E-002    0.000000000000000E+000
 -3.960000000000000E-002    0.000000000000000E+000
 -3.950000000000000E-002    0.000000000000000E+000
 -3.940000000000000E-002    0.000000000000000E+000
 -3.930000000000000E-002    0.000000000000000E+000
 -3.920000000000000E-002    0.000000000000000E+000
 -3.910000000000000E-002    0.000000000000000E+000
 -3.900000000000000E-002    0.000000000000000E+000
 -3.890000000000000E-002    0.000000000000000E+000
 -3.880000000000000E-002    0.000000000000000E+000
 -3.870000000000000E-002    0.000000000000000E+000
 -3.860000000000000E-002    0.000000000000000E+000
 -3.850000000000000E-002    0.000000000000000E+000
 -3.840000000000000E-002    0.000000000000000E+000
 -3.830000000000000E-002    0.000000000000000E+000
 -3.820000000000000E-002    1.924390591266381E-047
 -3.810000000000000E-002    1.556345996708335E-046
 -3.800000000000000E-002    5.282024341438771E-046
 -3.790000000000000E-002    2.281683730598033E-045
 -3.780000000000000E-002    1.398043424342865E-044
 -3.770000000000000E-002    7.135945740376883E-044
 -3.760000000000000E-002    3.174296820856984E-043
 -3.750000000000000E-002    1.275857205966781E-042
 -3.740000000000000E-002    4.687940029578461E-042
 -3.730000000000000E-002    1.586359989791008E-041
 -3.720000000000000E-002    4.978754068746206E-041
 -3.710000000000000E-002    1.456639660544474E-040
 -3.700000000000000E-002    3.987730174318679E-040
 -3.690000000000000E-002    1.023962004074151E-039
 -3.680000000000000E-002    2.468640303189397E-039
 -3.670000000000000E-002    5.583691817821855E-039
 -3.660000000000000E-002    1.181085007024316E-038
 -3.650000000000000E-002    2.319544343505868E-038
 -3.640000000000000E-002    4.167165837709271E-038
 -3.630000000000000E-002    6.630256552315450E-038
 -3.620000000000000E-002    8.570131704828877E-038
 -3.610000000000000E-002    6.035566651584265E-038
 -3.600000000000000E-002   -1.143187225700953E-037
 -3.590000000000000E-002   -6.786721345456215E-037
 -3.580000000000000E-002   -2.133642183236967E-036
 -3.570000000000000E-002   -5.443870651182016E-036
 -3.560000000000000E-002   -1.233907724632066E-035
 -3.550000000000000E-002   -2.571016176957170E-035
 -3.540000000000000E-002   -5.003506486406885E-035
 -3.530000000000000E-002   -9.164255589647010E-035
 -3.520000000000000E-002   -1.583944043200270E-034
 -3.510000000000000E-002   -2.579983378613425E-034
 -3.500000000000000E-002   -3.936299232439515E-034
 -3.490000000000000E-002   -5.548491788886790E-034
 -3.480000000000000E-002   -7.010396533120826E-034
 -3.470000000000000E-002   -7.340150935999488E-034
 -3.460000000000000E-002   -4.564835294800193E-034
 -3.450000000000000E-002    4.854684712280566E-034
 -3.440000000000000E-002    2.673678340163133E-033
 -3.430000000000000E-002    6.992614554094365E-033
 -3.420000000000000E-002    1.468295734080541E-032
 -3.410000000000000E-002    2.732774682256632E-032
 -3.400000000000000E-002    4.669426209307172E-032
 -3.390000000000000E-002    7.431694396618106E-032
 -3.380000000000000E-002    1.106647888489251E-031
 -3.370000000000000E-002    1.537028784666622E-031
 -3.360000000000000E-002    1.966478389453447E-031
 -3.350000000000000E-002    2.247609386521499E-031
 -3.340000000000000E-002    2.111596237369946E-031
 -3.330000000000000E-002    1.119041650756822E-031
 -3.320000000000000E-002   -1.389057639350590E-031
 -3.310000000000000E-002   -6.325776047361815E-031
 -3.300000000000000E-002   -1.485378879644348E-030
 -3.290000000000000E-002   -2.830546352730096E-030
 -3.280000000000000E-002   -4.797772605804759E-030
 -3.270000000000000E-002   -7.473997707808914E-030
 -3.260000000000000E-002   -1.083875082942546E-029
 -3.250000000000000E-002   -1.466790408139926E-029
 -3.240000000000000E-002   -1.840249760133482E-029
 -3.230000000000000E-002   -2.098510606252664E-029
 -3.220000000000000E-002   -2.067665420556549E-029
 -3.210000000000000E-002   -1.488170784394727E-029
 -3.200000000000000E-002   -3.165943092994801E-032
 -3.190000000000000E-002    2.839897616321232E-029
 -3.180000000000000E-002    7.563868367856786E-029
 -3.170000000000000E-002    1.469966678820954E-028
 -3.160000000000000E-002    2.467232376884213E-028
 -3.150000000000000E-002    3.762076998259730E-028
 -3.140000000000000E-002    5.314055439195840E-028
 -3.130000000000000E-002    6.994769232542003E-028
 -3.120000000000000E-002    8.547767548008412E-028
 -3.110000000000000E-002    9.545752173967565E-028
 -3.100000000000000E-002    9.352162943259945E-028
 -3.090000000000000E-002    7.098315266780976E-028
 -3.080000000000000E-002    1.691676150707668E-028
 -3.070000000000000E-002   -8.124753322201709E-028
 -3.060000000000000E-002   -2.363901865303241E-027
 -3.050000000000000E-002   -4.593933045434893E-027
 -3.040000000000000E-002   -7.556644926136812E-027
 -3.030000000000000E-002   -1.120409330746448E-026
 -3.020000000000000E-002   -1.532752371420491E-026
 -3.010000000000000E-002   -1.949108548327750E-026
 -3.000000000000000E-002   -2.296588135410565E-026
 -2.990000000000000E-002   -2.467709502147882E-026
 -2.980000000000000E-002   -2.318208440739788E-026
 -2.970000000000000E-002   -1.670254378784412E-026
 -2.960000000000000E-002   -3.237051397863909E-027
 -2.950000000000000E-002    1.921874922569225E-026
 -2.940000000000000E-002    5.232154032206818E-026
 -2.930000000000000E-002    9.688712443965162E-026
 -2.920000000000000E-002    1.522619805252199E-025
 -2.910000000000000E-002    2.155957140074960E-025
 -2.900000000000000E-002    2.810879540311405E-025
 -2.890000000000000E-002    3.393301988089904E-025
 -2.880000000000000E-002    3.769093448312853E-025
 -2.870000000000000E-002    3.764844149577697E-025
 -2.860000000000000E-002    3.175764397405734E-025
 -2.850000000000000E-002    1.783096058309344E-025
 -2.840000000000000E-002   -6.169727313994431E-026
 -2.830000000000000E-002   -4.171982294731811E-025
 -2.820000000000000E-002   -8.920177576070590E-025
 -2.810000000000000E-002   -1.472896844382895E-024
 -2.800000000000000E-002   -2.123120505518903E-024
 -2.790000000000000E-002   -2.776902167409591E-024
 -2.780000000000000E-002   -3.335869829699129E-024
 -2.770000000000000E-002   -3.669276415040876E-024
 -2.760000000000000E-002   -3.619738188795044E-024
 -2.750000000000000E-002   -3.016171804714184E-024
 -2.740000000000000E-002   -1.695230977271376E-024
 -2.730000000000000E-002    4.683605369587992E-025
 -2.720000000000000E-002    3.523501158075433E-024
 -2.710000000000000E-002    7.399137903940448E-024
 -2.700000000000000E-002    1.186036593313284E-023
 -2.690000000000000E-002    1.647145414466673E-023
 -2.680000000000000E-002    2.057531227735354E-023
 -2.670000000000000E-002    2.330050068763627E-023
 -2.660000000000000E-002    2.360724766419043E-023
 -2.650000000000000E-002    2.038278590875429E-023
 -2.640000000000000E-002    1.259251230874046E-023
 -2.630000000000000E-002   -5.129301821846239E-025
 -2.620000000000000E-002   -1.914370397433998E-023
 -2.610000000000000E-002   -4.269129106662680E-023
 -2.600000000000000E-002   -6.945809774439407E-023
 -2.590000000000000E-002   -9.644517883345012E-023
 -2.580000000000000E-002   -1.192586416402053E-022
 -2.570000000000000E-002   -1.322031441856851E-022
 -2.560000000000000E-002   -1.286294136210175E-022
 -2.550000000000000E-002   -1.015911370969706E-022
 -2.540000000000000E-002   -4.484039643416137E-023
 -2.530000000000000E-002    4.585117973609781E-023
 -2.520000000000000E-002    1.711162277332088E-022
 -2.510000000000000E-002    3.263002357776440E-022
 -2.500000000000000E-002    4.998727105941014E-022
 -2.490000000000000E-002    6.722328440548749E-022
 -2.480000000000000E-002    8.152601636249365E-022
 -2.470000000000000E-002    8.929901896210013E-022
 -2.460000000000000E-002    8.637755717039074E-022
 -2.450000000000000E-002    6.842120185636713E-022
 -2.440000000000000E-002    3.149519241653858E-022
 -2.430000000000000E-002   -2.717066267168075E-022
 -2.420000000000000E-002   -1.082877207002484E-021
 -2.410000000000000E-002   -2.095579213540962E-021
 -2.400000000000000E-002   -3.247841452490995E-021
 -2.390000000000000E-002   -4.431951055475012E-021
 -2.380000000000000E-002   -5.491654087304452E-021
 -2.370000000000000E-002   -6.225204096221232E-021
 -2.360000000000000E-002   -6.396037331983757E-021
 -2.350000000000000E-002   -5.752398832288982E-021
 -2.340000000000000E-002   -4.056453435435285E-021
 -2.330000000000000E-002   -1.122284195839386E-021
 -2.320000000000000E-002    3.139323316439152E-021
 -2.310000000000000E-002    8.673056709202007E-021
 -2.300000000000000E-002    1.523371641909863E-020
 -2.290000000000000E-002    2.235040609217369E-020
 -2.280000000000000E-002    2.930844240291183E-020
 -2.270000000000000E-002    3.515750421700157E-020
 -2.260000000000000E-002    3.875386843674097E-020
 -2.250000000000000E-002    3.884250473651746E-020
 -2.240000000000000E-002    3.418139155663256E-020
 -2.230000000000000E-002    2.370544596322015E-020
 -2.220000000000000E-002    6.721365458338396E-021
 -2.210000000000000E-002   -1.688224278344349E-020
 -2.200000000000000E-002   -4.643198713864746E-020
 -2.190000000000000E-002   -8.030289686854778E-020
 -2.180000000000000E-002   -1.158204049466874E-019
 -2.170000000000000E-002   -1.492651283166103E-019
 -2.160000000000000E-002   -1.760112839293209E-019
 -2.150000000000000E-002   -1.908213972531968E-019
 -2.140000000000000E-002   -1.883063234722513E-019
 -2.130000000000000E-002   -1.635411250670539E-019
 -2.120000000000000E-002   -1.128043248121548E-019
 -2.110000000000000E-002   -3.438254078431725E-020
 -2.100000000000000E-002    7.064221117080736E-020
 -2.090000000000000E-002    1.977267859998457E-019
 -2.080000000000000E-002    3.384410179340483E-019
 -2.070000000000000E-002    4.804018515051005E-019
 -2.060000000000000E-002    6.076762293197983E-019
 -2.050000000000000E-002    7.017300033535450E-019
 -2.040000000000000E-002    7.429537061168433E-019
 -2.030000000000000E-002    7.127306093512601E-019
 -2.020000000000000E-002    5.959339283545475E-019
 -2.010000000000000E-002    3.836559351287760E-019
 -2.000000000000000E-002    7.589165870543329E-020
 -1.990000000000000E-002   -3.161690885454446E-019
 -1.980000000000000E-002   -7.686271577319668E-019
 -1.970000000000000E-002   -1.244524906395569E-018
 -1.960000000000000E-002   -1.695004500186280E-018
 -1.950000000000000E-002   -2.062210792531232E-018
 -1.940000000000000E-002   -2.284020405088864E-018
 -1.930000000000000E-002   -2.300467831335236E-018
 -1.920000000000000E-002   -2.061496717534125E-018
 -1.910000000000000E-002   -1.535399372188075E-018
 -1.900000000000000E-002   -7.170770895624503E-019
 -1.890000000000000E-002    3.649537407249476E-019
 -1.880000000000000E-002    1.643976339521331E-018
 -1.870000000000000E-002    3.014067271963824E-018
 -1.860000000000000E-002    4.333653485995074E-018
 -1.850000000000000E-002    5.434292657236599E-018
 -1.840000000000000E-002    6.134839390453999E-018
 -1.830000000000000E-002    6.260520784347751E-018
 -1.820000000000000E-002    5.665745440875748E-018
 -1.810000000000000E-002    4.258699429267442E-018
 -1.800000000000000E-002    2.025116886981789E-018
 -1.790000000000000E-002   -9.518977587020718E-019
 -1.780000000000000E-002   -4.479354075278158E-018
 -1.770000000000000E-002   -8.252415455445289E-018
 -1.760000000000000E-002   -1.186567581354654E-017
 -1.750000000000000E-002   -1.483935121909046E-017
 -1.740000000000000E-002   -1.666060757104409E-017
 -1.730000000000000E-002   -1.683842534933120E-017
 -1.720000000000000E-002   -1.496840551660385E-017
 -1.710000000000000E-002   -1.080186684454109E-017
 -1.700000000000000E-002   -4.311795724712254E-018
 -1.690000000000000E-002    4.253086137029335E-018
 -1.680000000000000E-002    1.433534410694089E-017
 -1.670000000000000E-002    2.506565594500445E-017
 -1.660000000000000E-002    3.529645936744458E-017
 -1.650000000000000E-002    4.367654468962902E-017
 -1.640000000000000E-002    4.876666852885082E-017
 -1.630000000000000E-002    4.919128276331561E-017
 -1.620000000000000E-002    4.381622385885234E-017
 -1.610000000000000E-002    3.193677570709382E-017
 -1.600000000000000E-002    1.345601130637635E-017
 -1.590000000000000E-002   -1.096981301414684E-017
 -1.580000000000000E-002   -3.984301173974548E-017
 -1.570000000000000E-002   -7.081592767949165E-017
 -1.560000000000000E-002   -1.007799127050776E-016
 -1.550000000000000E-002   -1.260617555256267E-016
 -1.540000000000000E-002   -1.427272080410351E-016
 -1.530000000000000E-002   -1.469781981860888E-016
 -1.520000000000000E-002   -1.356170139884285E-016
 -1.510000000000000E-002   -1.065372718742432E-016
 -1.500000000000000E-002   -5.919056555613404E-017
 -1.490000000000000E-002    5.029987348801275E-018
 -1.480000000000000E-002    8.254987714460632E-017
 -1.470000000000000E-002    1.675729374256413E-016
 -1.460000000000000E-002    2.522846886262522E-016
 -1.450000000000000E-002    3.273237215408343E-016
 -1.440000000000000E-002    3.825194725671601E-016
 -1.430000000000000E-002    4.078643413155955E-016
 -1.420000000000000E-002    3.946549805264821E-016
 -1.410000000000000E-002    3.367059842777143E-016
 -1.400000000000000E-002    2.315136964407133E-016
 -1.390000000000000E-002    8.122968961498750E-017
 -1.380000000000000E-002   -1.066999556391173E-016
 -1.370000000000000E-002   -3.193623623255308E-016
 -1.360000000000000E-002   -5.387765751645889E-016
 -1.350000000000000E-002   -7.429234936181756E-016
 -1.340000000000000E-002   -9.074037764773821E-016
 -1.330000000000000E-002   -1.007654474609529E-015
 -1.320000000000000E-002   -1.021575486396270E-015
 -1.310000000000000E-002   -9.323499460828947E-016
 -1.300000000000000E-002   -7.311806696846815E-016
 -1.290000000000000E-002   -4.196275466261053E-016
 -1.280000000000000E-002   -1.122070660710428E-017
 -1.270000000000000E-002    4.679502174402360E-016
 -1.260000000000000E-002    9.799077868863895E-016
 -1.250000000000000E-002    1.476857553757371E-015
 -1.240000000000000E-002    1.904663053786143E-015
 -1.230000000000000E-002    2.207580143443168E-015
 -1.220000000000000E-002    2.333939110838867E-015
 -1.210000000000000E-002    2.242311649883260E-015
 -1.200000000000000E-002    1.907571914476689E-015
 -1.190000000000000E-002    1.326173550855727E-015
 -1.180000000000000E-002    5.199492207033756E-016
 -1.170000000000000E-002   -4.622159019561850E-016
 -1.160000000000000E-002   -1.545352514550299E-015
 -1.150000000000000E-002   -2.632324685429482E-015
 -1.140000000000000E-002   -3.610735733388649E-015
 -1.130000000000000E-002   -4.362535820616886E-015
 -1.120000000000000E-002   -4.775711881590131E-015
 -1.110000000000000E-002   -4.757121221358595E-015
 -1.100000000000000E-002   -4.245251995288641E-015
 -1.090000000000000E-002   -3.221534713159990E-015
 -1.080000000000000E-002   -1.718758270364338E-015
 -1.070000000000000E-002    1.747429500932381E-016
 -1.060000000000000E-002    2.316221305527489E-015
 -1.050000000000000E-002    4.515638586988644E-015
 -1.040000000000000E-002    6.548907484509890E-015
 -1.030000000000000E-002    8.176736289202468E-015
 -1.020000000000000E-002    9.167899904953952E-015
 -1.010000000000000E-002    9.325079311816635E-015
 -1.000000000000000E-002    8.510899001814486E-015
 -9.899999999999999E-003    6.671405171103476E-015
 -9.800000000000000E-003    3.854098535918817E-015
 -9.699999999999999E-003    2.178109979518040E-016
 -9.599999999999999E-003   -3.967813991960716E-015
 -9.500000000000000E-003   -8.334701949090664E-015
 -9.399999999999999E-003   -1.244098120223243E-014
 -9.299999999999999E-003   -1.580704911174383E-014
 -9.200000000000000E-003   -1.796088350363706E-014
 -9.099999999999999E-003   -1.848916510942756E-014
 -8.999999999999999E-003   -1.708964030747842E-014
 -8.900000000000000E-003   -1.361940334625470E-014
 -8.799999999999999E-003   -8.133427426061994E-015
 -8.699999999999999E-003   -9.079221824474476E-016
 -8.600000000000000E-003    7.556076984009733E-015
 -8.499999999999999E-003    1.655208340019003E-014
 -8.399999999999999E-003    2.521171199671388E-014
 -8.300000000000000E-003    3.257131129222670E-014
 -8.199999999999999E-003    3.765800714942069E-014
 -8.100000000000000E-003    3.958898073454309E-014
 -8.000000000000000E-003    3.767559061786884E-014
 -7.899999999999999E-003    3.152231896121500E-014
 -7.800000000000000E-003    2.110964857536271E-014
 -7.699999999999999E-003    6.850182485035860E-015
 -7.599999999999999E-003   -1.039137890339767E-014
 -7.499999999999999E-003   -2.932140859324192E-014
 -7.399999999999999E-003   -4.828717258688354E-014
 -7.299999999999999E-003   -6.539254193402125E-014
 -7.199999999999999E-003   -7.865406641541984E-014
 -7.100000000000000E-003   -8.618715653195768E-014
 -6.999999999999999E-003   -8.640755075948557E-014
 -6.899999999999999E-003   -7.822999528380347E-014
 -6.800000000000000E-003   -6.124373253698361E-014
 -6.699999999999999E-003   -3.584438500060567E-014
 -6.599999999999999E-003   -3.303265863992571E-015
 -6.499999999999999E-003    3.424079394114312E-014
 -6.399999999999999E-003    7.387632210126705E-014
 -6.299999999999999E-003    1.121024140308553E-013
 -6.199999999999999E-003    1.450934323046265E-013
 -6.100000000000000E-003    1.690292138191664E-013
 -5.999999999999999E-003    1.804664278325830E-013
 -5.899999999999999E-003    1.767196067780843E-013
 -5.800000000000000E-003    1.562155531259101E-013
 -5.699999999999999E-003    1.187826686321272E-013
 -5.599999999999999E-003    6.583910617504811E-014
 -5.499999999999999E-003    4.486502058313520E-016
 -5.399999999999999E-003   -7.277698262965155E-014
 -5.299999999999999E-003   -1.479384553243879E-013
 -5.199999999999999E-003   -2.182655078403992E-013
 -5.099999999999999E-003   -2.766676862185342E-013
 -4.999999999999999E-003   -3.163807195068977E-013
 -4.899999999999999E-003   -3.316562939830121E-013
 -4.799999999999999E-003   -3.184324368541237E-013
 -4.699999999999999E-003   -2.749158037963036E-013
 -4.599999999999999E-003   -2.020087089828885E-013
 -4.499999999999999E-003   -1.035202660073875E-013
 -4.399999999999999E-003    1.388390561590299E-014
 -4.299999999999999E-003    1.410185820416692E-013
 -4.199999999999999E-003    2.668019780486969E-013
 -4.099999999999999E-003    3.791356760581873E-013
 -3.999999999999999E-003    4.659835717997414E-013
 -3.899999999999999E-003    5.165645065541487E-013
 -3.799999999999999E-003    5.225528519454794E-013
 -3.699999999999999E-003    4.791678432319270E-013
 -3.599999999999999E-003    3.860292186501681E-013
 -3.499999999999999E-003    2.476674167789446E-013
 -3.399999999999999E-003    7.359665419776490E-014
 -3.299999999999999E-003   -1.221059494305036E-013
 -3.199999999999999E-003   -3.217295258347372E-013
 -3.099999999999999E-003   -5.053309288495470E-013
 -2.999999999999999E-003   -6.525212081287822E-013
 -2.899999999999999E-003   -7.444998915972095E-013
 -2.799999999999999E-003   -7.661581287340955E-013
 -2.699999999999999E-003   -7.080456225486373E-013
 -2.599999999999999E-003   -5.679836990181770E-013
 -2.499999999999999E-003   -3.521189132598066E-013
 -2.399999999999999E-003   -7.524380767745256E-014
 -2.299999999999999E-003    2.397345209632192E-013
 -2.199999999999999E-003    5.632236214519634E-013
 -2.099999999999999E-003    8.612331480101519E-013
 -1.999999999999999E-003    1.098388297090238E-012
 -1.899999999999999E-003    1.241444519257494E-012
 -1.799999999999999E-003    1.263007087783709E-012
 -1.699999999999999E-003    1.145094639480450E-012
 -1.599999999999999E-003    8.821659522966485E-013
 -1.499999999999999E-003    4.832345368333447E-013
 -1.399999999999999E-003   -2.725470689053668E-014
 -1.299999999999999E-003   -6.100243567014675E-013
 -1.199999999999999E-003   -1.213155040387148E-012
 -1.099999999999999E-003   -1.775835177947596E-012
 -9.999999999999989E-004   -2.233475916618544E-012
 -8.999999999999990E-004   -2.523831649321969E-012
 -7.999999999999990E-004   -2.593628436429104E-012
 -6.999999999999989E-004   -2.405087574468422E-012
 -5.999999999999990E-004   -1.941672502488920E-012
 -4.999999999999989E-004   -1.212386680653936E-012
 -3.999999999999989E-004   -2.540224219258359E-013
 -2.999999999999989E-004    8.691079219475813E-013
 -1.999999999999989E-004    2.068220437314798E-012
 -9.999999999999892E-005    3.235903901811722E-012
  1.084202172485504E-018    4.254494687865940E-012
  1.000000000000011E-004    5.006436310795927E-012
  2.000000000000011E-004    5.385807889887623E-012
  3.000000000000011E-004    5.310015914585325E-012
  4.000000000000011E-004    4.730499457718823E-012
  5.000000000000011E-004    3.641282143766223E-012
  6.000000000000011E-004    2.084291739955785E-012
  7.000000000000011E-004    1.505739844155977E-013
  8.000000000000011E-004   -2.023154403573035E-012
  9.000000000000012E-004   -4.262763911468597E-012
  1.000000000000001E-003   -6.369464818376822E-012
  1.100000000000001E-003   -8.136268353038504E-012
  1.200000000000001E-003   -9.366901435736500E-012
  1.300000000000001E-003   -9.895574123748220E-012
  1.400000000000001E-003   -9.605741055750073E-012
  1.500000000000001E-003   -8.445902064876246E-012
  1.600000000000001E-003   -6.440628900191753E-012
  1.700000000000001E-003   -3.695258625898004E-012
  1.800000000000001E-003   -3.932092259238114E-013
  1.900000000000001E-003    3.214508475162938E-012
  2.000000000000001E-003    6.827268187907890E-012
  2.100000000000001E-003    1.011920587072260E-011
  2.200000000000001E-003    1.276816417071811E-011
  2.300000000000001E-003    1.448676566242455E-011
  2.400000000000001E-003    1.505271896202755E-011
  2.500000000000001E-003    1.433530361597349E-011
  2.600000000000001E-003    1.231508471719477E-011
  2.700000000000001E-003    9.094316868269618E-012
  2.800000000000001E-003    4.896228037747962E-012
  2.900000000000001E-003    5.232577693498066E-014
  3.000000000000001E-003   -5.021996752633453E-012
  3.100000000000001E-003   -9.862079851566505E-012
  3.200000000000001E-003   -1.399619673362621E-011
  3.300000000000001E-003   -1.699171618897882E-011
  3.400000000000001E-003   -1.850087349967319E-011
  3.500000000000001E-003   -1.830152324963009E-011
  3.600000000000001E-003   -1.632831625067253E-011
  3.700000000000001E-003   -1.269037149574499E-011
  3.800000000000001E-003   -7.672562053507374E-012
  3.900000000000001E-003   -1.718958012431563E-012
  4.000000000000001E-003    4.601308185355502E-012
  4.100000000000001E-003    1.064369057932974E-011
  4.200000000000001E-003    1.574952055471015E-011
  4.300000000000001E-003    1.931362319648757E-011
  4.400000000000001E-003    2.085175678592363E-011
  4.500000000000001E-003    2.006094002843031E-011
  4.600000000000002E-003    1.686581273785621E-011
  4.700000000000001E-003    1.144508765871099E-011
  4.800000000000001E-003    4.233691864542196E-012
  4.900000000000002E-003   -4.101684462646290E-012
  5.000000000000001E-003   -1.271334320787895E-011
  5.100000000000001E-003   -2.064662824095757E-011
  5.200000000000001E-003   -2.693161100040941E-011
  5.300000000000002E-003   -3.068442731567171E-011
  5.400000000000001E-003   -3.120867490387357E-011
  5.500000000000001E-003   -2.808640138939740E-011
  5.600000000000002E-003   -2.124839661779085E-011
  5.700000000000001E-003   -1.101482159117191E-011
  5.800000000000001E-003    1.900636646432034E-012
  5.900000000000002E-003    1.642666068441307E-011
  6.000000000000001E-003    3.121006808283840E-011
  6.100000000000001E-003    4.472725189270386E-011
  6.200000000000002E-003    5.542307323236868E-011
  6.300000000000002E-003    6.186554137406174E-011
  6.400000000000001E-003    6.290204257101684E-011
  6.500000000000001E-003    5.780161476644231E-011
  6.600000000000002E-003    4.636780653692013E-011
  6.700000000000001E-003    2.900833322833448E-011
  6.800000000000001E-003    6.751096272224151E-012
  6.900000000000002E-003   -1.879955388858823E-011
  7.000000000000001E-003   -4.556685908192200E-011
  7.100000000000001E-003   -7.116065786233941E-011
  7.200000000000002E-003   -9.308007239902158E-011
  7.300000000000002E-003   -1.089436478158472E-010
  7.400000000000001E-003   -1.167264003676983E-010
  7.500000000000001E-003   -1.149814510790088E-010
  7.600000000000002E-003   -1.030233561430704E-010
  7.700000000000001E-003   -8.105265363435391E-011
  7.800000000000001E-003   -5.020518176618578E-011
  7.900000000000001E-003   -1.251602413613154E-011
  8.000000000000002E-003    2.920454794758034E-011
  8.100000000000001E-003    7.157732045337960E-011
  8.200000000000001E-003    1.109284422314870E-010
  8.300000000000002E-003    1.436100240738050E-010
  8.400000000000001E-003    1.663394603093837E-010
  8.500000000000002E-003    1.765260866816495E-010
  8.600000000000002E-003    1.725532901766529E-010
  8.700000000000001E-003    1.539861562132781E-010
  8.800000000000002E-003    1.216802750163395E-010
  8.900000000000002E-003    7.777538214104947E-011
  9.000000000000001E-003    2.556751404493303E-011
  9.100000000000002E-003   -3.073515030371943E-011
  9.200000000000002E-003   -8.635601930368448E-011
  9.300000000000001E-003   -1.363661876187870E-010
  9.400000000000002E-003   -1.761368652823307E-010
  9.500000000000001E-003   -2.017868563076209E-010
  9.600000000000001E-003   -2.105817122362844E-010
  9.700000000000002E-003   -2.012433851519163E-010
  9.800000000000001E-003   -1.741361268244882E-010
  9.900000000000001E-003   -1.313037434093980E-010
  1.000000000000000E-002   -7.634720207745958E-011
  1.010000000000000E-002   -1.414598377113380E-011
  1.020000000000000E-002    4.955766527509637E-011
  1.030000000000000E-002    1.086781610117306E-010
  1.040000000000000E-002    1.573643958096546E-010
  1.050000000000000E-002    1.905822854417134E-010
  1.060000000000000E-002    2.046454598422855E-010
  1.070000000000000E-002    1.976391641837788E-010
  1.080000000000000E-002    1.696903517956367E-010
  1.090000000000000E-002    1.230493986717100E-010
  1.100000000000000E-002    6.196553080927718E-011
  1.110000000000000E-002   -7.642427548823219E-012
  1.120000000000000E-002   -7.869834454304112E-011
  1.130000000000000E-002   -1.436231494988695E-010
  1.140000000000000E-002   -1.950740261791553E-010
  1.150000000000000E-002   -2.267000010541306E-010
  1.160000000000000E-002   -2.338396844256778E-010
  1.170000000000000E-002   -2.140893176837116E-010
  1.180000000000000E-002   -1.676771747308503E-010
  1.190000000000000E-002   -9.759690625650247E-011
  1.200000000000000E-002   -9.472950067829654E-012
  1.210000000000000E-002    8.884380173290034E-011
  1.220000000000000E-002    1.879253279273680E-010
  1.230000000000000E-002    2.776104988658000E-010
  1.240000000000000E-002    3.479719783798700E-010
  1.250000000000000E-002    3.903173565357483E-010
  1.260000000000000E-002    3.981282115326199E-010
  1.270000000000000E-002    3.678411129271354E-010
  1.280000000000000E-002    2.993849210647851E-010
  1.290000000000000E-002    1.964072149910496E-010
  1.300000000000000E-002    6.615027214315804E-011
  1.310000000000000E-002   -8.103192467896029E-011
  1.320000000000000E-002   -2.324890616796912E-010
  1.330000000000000E-002   -3.743614556481673E-010
  1.340000000000000E-002   -4.928493914358960E-010
  1.350000000000000E-002   -5.755506275322333E-010
  1.360000000000000E-002   -6.127405688275508E-010
  1.370000000000000E-002   -5.984672903123343E-010
  1.380000000000000E-002   -5.313448650036121E-010
  1.390000000000000E-002   -4.149503432554430E-010
  1.400000000000000E-002   -2.577634651257175E-010
  1.410000000000000E-002   -7.262887333806564E-011
  1.420000000000000E-002    1.242350170042462E-010
  1.430000000000000E-002    3.146106164313001E-010
  1.440000000000000E-002    4.799286512357903E-010
  1.450000000000000E-002    6.030466776466652E-010
  1.460000000000000E-002    6.699933582002976E-010
  1.470000000000000E-002    6.715115917842296E-010
  1.480000000000000E-002    6.042393340534809E-010
  1.490000000000000E-002    4.713957287630515E-010
  1.500000000000000E-002    2.828776073089677E-010
  1.510000000000000E-002    5.472473602320857E-011
  1.520000000000000E-002   -1.920329379045070E-010
  1.530000000000000E-002   -4.330709397715249E-010
  1.540000000000000E-002   -6.428805410570783E-010
  1.550000000000000E-002   -7.971184553623655E-010
  1.560000000000000E-002   -8.749885239113208E-010
  1.570000000000000E-002   -8.614355971552830E-010
  1.580000000000000E-002   -7.489376031683475E-010
  1.590000000000000E-002   -5.387073752604126E-010
  1.600000000000000E-002   -2.411631411371363E-010
  1.610000000000000E-002    1.244131288829646E-010
  1.620000000000000E-002    5.310387847651923E-010
  1.630000000000000E-002    9.459485941551815E-010
  1.640000000000000E-002    1.333128579405839E-009
  1.650000000000000E-002    1.656263257644222E-009
  1.660000000000000E-002    1.881847714916044E-009
  1.670000000000000E-002    1.982189821949002E-009
  1.680000000000000E-002    1.938028234415595E-009
  1.690000000000000E-002    1.740515792337337E-009
  1.700000000000000E-002    1.392367232455938E-009
  1.710000000000000E-002    9.080429767563050E-010
  1.720000000000000E-002    3.129211034271783E-010
  1.730000000000000E-002   -3.584923658425910E-010
  1.740000000000000E-002   -1.065177353821671E-009
  1.750000000000000E-002   -1.762817137733459E-009
  1.760000000000000E-002   -2.407334359688341E-009
  1.770000000000000E-002   -2.958424558910751E-009
  1.780000000000000E-002   -3.382754846462473E-009
  1.790000000000000E-002   -3.656520218881149E-009
  1.800000000000000E-002   -3.767100796523897E-009
  1.810000000000000E-002   -3.713647549556283E-009
  1.820000000000000E-002   -3.506520565971431E-009
  1.830000000000000E-002   -3.165617861746989E-009
  1.840000000000000E-002   -2.717744937695200E-009
  1.850000000000000E-002   -2.193276376614277E-009
  1.860000000000000E-002   -1.622443395049475E-009
  1.870000000000000E-002   -1.031633093469293E-009