 -4.000000000000000E-002    0.000000000000000E+000
 -3.990000000000000E-002    0.000000000000000E+000
 -3.980000000000000E-002    0.000000000000000E+000
 -3.970000000000000E-002    0.000000000000000E+000
 -3.960000000000000E-002    0.000000000000000E+000
 -3.950000000000000E-002    0.000000000000000E+000
 -3.940000000000000E-002    0.000000000000000E+000
 -3.930000000000000E-002    0.000000000000000E+000
 -3.920000000000000E-002    0.000000000000000E+000
 -3.910000000000000E-002    0.000000000000000E+000
 -3.900000000000000E-002    0.000000000000000E+000
 -3.890000000000000E-002    0.000000000000000E+000
 -3.880000000000000E-002    0.000000000000000E+000
 -3.870000000000000E-002    0.000000000000000E+000
 -3.860000000000000E-002    0.000000000000000E+000
 -3.850000000000000E-002    0.000000000000000E+000
 -3.840000000000000E-002    0.000000000000000E+000
 -3.830000000000000E-002    0.000000000000000E+000
 -3.820000000000000E-002    0.000000000000000E+000
 -3.810000000000000E-002    0.000000000000000E+000
 -3.800000000000000E-002    0.000000000000000E+000
 -3.790000000000000E-002    0.000000000000000E+000
 -3.780000000000000E-002    0.000000000000000E+000
 -3.770000000000000E-002    0.000000000000000E+000
 -3.760000000000000E-002    0.000000000000000E+000
 -3.750000000000000E-002    0.000000000000000E+000
 -3.740000000000000E-002    0.000000000000000E+000
 -3.730000000000000E-002    0.000000000000000E+000
 -3.720000000000000E-002    0.000000000000000E+000
 -3.710000000000000E-002    0.000000000000000E+000
 -3.700000000000000E-002    0.000000000000000E+000
 -3.690000000000000E-002    0.000000000000000E+000
 -3.680000000000000E-002    0.000000000000000E+000
 -3.670000000000000E-002    0.000000000000000E+000
 -3.660000000000000E-002    0.000000000000000E+000
 -3.650000000000000E-002    0.000000000000000E+000
 -3.640000000000000E-002    0.000000000000000E+000
 -3.630000000000000E-002    0.000000000000000E+000
 -3.620000000000000E-002    0.000000000000000E+000
 -3.610000000000000E-002    0.000000000000000E+000
 -3.600000000000000E-002    0.000000000000000E+000
 -3.590000000000000E-002    0.000000000000000E+000
 -3.580000000000000E-002    0.000000000000000E+000
 -3.570000000000000E-002    0.000000000000000E+000
 -3.560000000000000E-002    0.000000000000000E+000
 -3.550000000000000E-002    0.000000000000000E+000
 -3.540000000000000E-002    0.000000000000000E+000
 -3.530000000000000E-002    0.000000000000000E+000
 -3.520000000000000E-002    0.000000000000000E+000
 -3.510000000000000E-002    0.000000000000000E+000
 -3.500000000000000E-002    0.000000000000000E+000
 -3.490000000000000E-002    0.000000000000000E+000
 -3.480000000000000E-002    0.000000000000000E+000
 -3.470000000000000E-002    0.000000000000000E+000
 -3.460000000000000E-002    0.000000000000000E+000
 -3.450000000000000E-002    0.000000000000000E+000
 -3.440000000000000E-002    0.000000000000000E+000
 -3.430000000000000E-002    0.000000000000000E+000
 -3.420000000000000E-002    0.000000000000000E+000
 -3.410000000000000E-002    0.000000000000000E+000
 -3.400000000000000E-002    0.000000000000000E+000
 -3.390000000000000E-002    0.000000000000000E+000
 -3.380000000000000E-002    0.000000000000000E+000
 -3.370000000000000E-002    0.000000000000000E+000
 -3.360000000000000E-002    0.000000000000000E+000
 -3.350000000000000E-002    0.000000000000000E+000
 -3.340000000000000E-002    0.000000000000000E+000
 -3.330000000000000E-002    0.000000000000000E+000
 -3.320000000000000E-002    0.000000000000000E+000
 -3.310000000000000E-002    0.000000000000000E+000
 -3.300000000000000E-002    0.000000000000000E+000
 -3.290000000000000E-002    0.000000000000000E+000
 -3.280000000000000E-002    0.000000000000000E+000
 -3.270000000000000E-002    0.000000000000000E+000
 -3.260000000000000E-002    0.000000000000000E+000
 -3.250000000000000E-002    0.000000000000000E+000
 -3.240000000000000E-002    0.000000000000000E+000
 -3.230000000000000E-002    0.000000000000000E+000
 -3.220000000000000E-002    0.000000000000000E+000
 -3.210000000000000E-002    0.000000000000000E+000
 -3.200000000000000E-002    0.000000000000000E+000
 -3.190000000000000E-002    0.000000000000000E+000
 -3.180000000000000E-002    0.000000000000000E+000
 -3.170000000000000E-002    0.000000000000000E+000
 -3.160000000000000E-002    0.000000000000000E+000
 -3.150000000000000E-002    0.000000000000000E+000
 -3.140000000000000E-002    0.000000000000000E+000
 -3.130000000000000E-002    0.000000000000000E+000
 -3.120000000000000E-002    0.000000000000000E+000
 -3.110000000000000E-002    0.000000000000000E+000
 -3.100000000000000E-002    0.000000000000000E+000
 -3.090000000000000E-002    0.000000000000000E+000
 -3.080000000000000E-002    0.000000000000000E+000
 -3.070000000000000E-002    0.000000000000000E+000
 -3.060000000000000E-002    0.000000000000000E+000
 -3.050000000000000E-002    0.000000000000000E+000
 -3.040000000000000E-002    0.000000000000000E+000
 -3.030000000000000E-002    0.000000000000000E+000
 -3.020000000000000E-002    0.000000000000000E+000
 -3.010000000000000E-002    0.000000000000000E+000
 -3.000000000000000E-002    0.000000000000000E+000
 -2.990000000000000E-002    0.000000000000000E+000
 -2.980000000000000E-002    0.000000000000000E+000
 -2.970000000000000E-002    0.000000000000000E+000
 -2.960000000000000E-002    0.000000000000000E+000
 -2.950000000000000E-002    0.000000000000000E+000
 -2.940000000000000E-002    0.000000000000000E+000
 -2.930000000000000E-002    0.000000000000000E+000
 -2.920000000000000E-002    0.000000000000000E+000
 -2.910000000000000E-002    0.000000000000000E+000
 -2.900000000000000E-002    0.000000000000000E+000
 -2.890000000000000E-002    0.000000000000000E+000
 -2.880000000000000E-002    0.000000000000000E+000
 -2.870000000000000E-002    0.000000000000000E+000
 -2.860000000000000E-002    0.000000000000000E+000
 -2.850000000000000E-002    0.000000000000000E+000
 -2.840000000000000E-002    0.000000000000000E+000
 -2.830000000000000E-002    0.000000000000000E+000
 -2.820000000000000E-002    0.000000000000000E+000
 -2.810000000000000E-002    0.000000000000000E+000
 -2.800000000000000E-002    0.000000000000000E+000
 -2.790000000000000E-002    0.000000000000000E+000
 -2.780000000000000E-002    0.000000000000000E+000
 -2.770000000000000E-002    0.000000000000000E+000
 -2.760000000000000E-002    0.000000000000000E+000
 -2.750000000000000E-002    0.000000000000000E+000
 -2.740000000000000E-002    0.000000000000000E+000
 -2.730000000000000E-002    0.000000000000000E+000
 -2.720000000000000E-002    0.000000000000000E+000
 -2.710000000000000E-002    0.000000000000000E+000
 -2.700000000000000E-002    0.000000000000000E+000
 -2.690000000000000E-002    0.000000000000000E+000
 -2.680000000000000E-002    0.000000000000000E+000
 -2.670000000000000E-002    0.000000000000000E+000
 -2.660000000000000E-002    0.000000000000000E+000
 -2.650000000000000E-002    0.000000000000000E+000
 -2.640000000000000E-002    0.000000000000000E+000
 -2.630000000000000E-002    0.000000000000000E+000
 -2.620000000000000E-002    0.000000000000000E+000
 -2.610000000000000E-002    0.000000000000000E+000
 -2.600000000000000E-002    0.000000000000000E+000
 -2.590000000000000E-002    0.000000000000000E+000
 -2.580000000000000E-002    0.000000000000000E+000
 -2.570000000000000E-002    0.000000000000000E+000
 -2.560000000000000E-002    0.000000000000000E+000
 -2.550000000000000E-002    0.000000000000000E+000
 -2.540000000000000E-002    0.000000000000000E+000
 -2.530000000000000E-002    0.000000000000000E+000
 -2.520000000000000E-002    0.000000000000000E+000
 -2.510000000000000E-002    0.000000000000000E+000
 -2.500000000000000E-002    0.000000000000000E+000
 -2.490000000000000E-002    0.000000000000000E+000
 -2.480000000000000E-002    0.000000000000000E+000
 -2.470000000000000E-002    0.000000000000000E+000
 -2.460000000000000E-002    0.000000000000000E+000
 -2.450000000000000E-002    0.000000000000000E+000
 -2.440000000000000E-002    0.000000000000000E+000
 -2.430000000000000E-002    0.000000000000000E+000
 -2.420000000000000E-002    0.000000000000000E+000
 -2.410000000000000E-002    0.000000000000000E+000
 -2.400000000000000E-002    0.000000000000000E+000
 -2.390000000000000E-002    0.000000000000000E+000
 -2.380000000000000E-002    0.000000000000000E+000
 -2.370000000000000E-002    0.000000000000000E+000
 -2.360000000000000E-002    0.000000000000000E+000
 -2.350000000000000E-002    0.000000000000000E+000
 -2.340000000000000E-002    0.000000000000000E+000
 -2.330000000000000E-002    0.000000000000000E+000
 -2.320000000000000E-002    0.000000000000000E+000
 -2.310000000000000E-002    0.000000000000000E+000
 -2.300000000000000E-002    0.000000000000000E+000
 -2.290000000000000E-002    0.000000000000000E+000
 -2.280000000000000E-002    0.000000000000000E+000
 -2.270000000000000E-002    0.000000000000000E+000
 -2.260000000000000E-002    0.000000000000000E+000
 -2.250000000000000E-002    0.000000000000000E+000
 -2.240000000000000E-002    0.000000000000000E+000
 -2.230000000000000E-002    0.000000000000000E+000
 -2.220000000000000E-002    0.000000000000000E+000
 -2.210000000000000E-002    0.000000000000000E+000
 -2.200000000000000E-002    0.000000000000000E+000
 -2.190000000000000E-002    0.000000000000000E+000
 -2.180000000000000E-002    0.000000000000000E+000
 -2.170000000000000E-002    0.000000000000000E+000
 -2.160000000000000E-002    0.000000000000000E+000
 -2.150000000000000E-002    0.000000000000000E+000
 -2.140000000000000E-002    0.000000000000000E+000
 -2.130000000000000E-002    0.000000000000000E+000
 -2.120000000000000E-002    0.000000000000000E+000
 -2.110000000000000E-002    0.000000000000000E+000
 -2.100000000000000E-002    0.000000000000000E+000
 -2.090000000000000E-002    0.000000000000000E+000
 -2.080000000000000E-002    0.000000000000000E+000
 -2.070000000000000E-002    0.000000000000000E+000
 -2.060000000000000E-002    0.000000000000000E+000
 -2.050000000000000E-002    0.000000000000000E+000
 -2.040000000000000E-002    0.000000000000000E+000
 -2.030000000000000E-002    0.000000000000000E+000
 -2.020000000000000E-002    0.000000000000000E+000
 -2.010000000000000E-002    0.000000000000000E+000
 -2.000000000000000E-002    0.000000000000000E+000
 -1.990000000000000E-002    0.000000000000000E+000
 -1.980000000000000E-002    0.000000000000000E+000
 -1.970000000000000E-002    0.000000000000000E+000
 -1.960000000000000E-002    0.000000000000000E+000
 -1.950000000000000E-002    0.000000000000000E+000
 -1.940000000000000E-002    0.000000000000000E+000
 -1.930000000000000E-002    0.000000000000000E+000
 -1.920000000000000E-002    0.000000000000000E+000
 -1.910000000000000E-002    0.000000000000000E+000
 -1.900000000000000E-002    0.000000000000000E+000
 -1.890000000000000E-002    0.000000000000000E+000
 -1.880000000000000E-002    0.000000000000000E+000
 -1.870000000000000E-002    0.000000000000000E+000
 -1.860000000000000E-002    0.000000000000000E+000
 -1.850000000000000E-002    0.000000000000000E+000
 -1.840000000000000E-002    0.000000000000000E+000
 -1.830000000000000E-002    0.000000000000000E+000
 -1.820000000000000E-002    0.000000000000000E+000
 -1.810000000000000E-002    0.000000000000000E+000
 -1.800000000000000E-002    0.000000000000000E+000
 -1.790000000000000E-002    0.000000000000000E+000
 -1.780000000000000E-002    0.000000000000000E+000
 -1.770000000000000E-002    0.000000000000000E+000
 -1.760000000000000E-002    0.000000000000000E+000
 -1.750000000000000E-002    0.000000000000000E+000
 -1.740000000000000E-002    0.000000000000000E+000
 -1.730000000000000E-002    0.000000000000000E+000
 -1.720000000000000E-002    0.000000000000000E+000
 -1.710000000000000E-002    0.000000000000000E+000
 -1.700000000000000E-002    0.000000000000000E+000
 -1.690000000000000E-002    0.000000000000000E+000
 -1.680000000000000E-002    0.000000000000000E+000
 -1.670000000000000E-002    0.000000000000000E+000
 -1.660000000000000E-002    0.000000000000000E+000
 -1.650000000000000E-002    0.000000000000000E+000
 -1.640000000000000E-002    0.000000000000000E+000
 -1.630000000000000E-002    0.000000000000000E+000
 -1.620000000000000E-002    0.000000000000000E+000
 -1.610000000000000E-002    0.000000000000000E+000
 -1.600000000000000E-002    0.000000000000000E+000
 -1.590000000000000E-002    0.000000000000000E+000
 -1.580000000000000E-002    0.000000000000000E+000
 -1.570000000000000E-002    0.000000000000000E+000
 -1.560000000000000E-002    0.000000000000000E+000
 -1.550000000000000E-002    0.000000000000000E+000
 -1.540000000000000E-002    0.000000000000000E+000
 -1.530000000000000E-002    0.000000000000000E+000
 -1.520000000000000E-002    0.000000000000000E+000
 -1.510000000000000E-002    0.000000000000000E+000
 -1.500000000000000E-002    0.000000000000000E+000
 -1.490000000000000E-002    0.000000000000000E+000
 -1.480000000000000E-002    0.000000000000000E+000
 -1.470000000000000E-002    0.000000000000000E+000
 -1.460000000000000E-002    0.000000000000000E+000
 -1.450000000000000E-002    0.000000000000000E+000
 -1.440000000000000E-002    0.000000000000000E+000
 -1.430000000000000E-002    0.000000000000000E+000
 -1.420000000000000E-002    0.000000000000000E+000
 -1.410000000000000E-002    0.000000000000000E+000
 -1.400000000000000E-002    0.000000000000000E+000
 -1.390000000000000E-002    0.000000000000000E+000
 -1.380000000000000E-002    0.000000000000000E+000
 -1.370000000000000E-002    0.000000000000000E+000
 -1.360000000000000E-002    0.000000000000000E+000
 -1.350000000000000E-002    0.000000000000000E+000
 -1.340000000000000E-002    0.000000000000000E+000
 -1.330000000000000E-002    0.000000000000000E+000
 -1.320000000000000E-002    0.000000000000000E+000
 -1.310000000000000E-002    0.000000000000000E+000
 -1.300000000000000E-002    0.000000000000000E+000
 -1.290000000000000E-002    0.000000000000000E+000
 -1.280000000000000E-002    0.000000000000000E+000
 -1.270000000000000E-002    0.000000000000000E+000
 -1.260000000000000E-002    0.000000000000000E+000
 -1.250000000000000E-002    0.000000000000000E+000
 -1.240000000000000E-002    0.000000000000000E+000
 -1.230000000000000E-002    0.000000000000000E+000
 -1.220000000000000E-002    0.000000000000000E+000
 -1.210000000000000E-002    0.000000000000000E+000
 -1.200000000000000E-002    0.000000000000000E+000
 -1.190000000000000E-002    0.000000000000000E+000
 -1.180000000000000E-002    0.000000000000000E+000
 -1.170000000000000E-002    0.000000000000000E+000
 -1.160000000000000E-002    0.000000000000000E+000
 -1.150000000000000E-002    0.000000000000000E+000
 -1.140000000000000E-002    0.000000000000000E+000
 -1.130000000000000E-002    0.000000000000000E+000
 -1.120000000000000E-002    0.000000000000000E+000
 -1.110000000000000E-002    0.000000000000000E+000
 -1.100000000000000E-002    0.000000000000000E+000
 -1.090000000000000E-002    0.000000000000000E+000
 -1.080000000000000E-002    0.000000000000000E+000
 -1.070000000000000E-002   -1.924390591266381E-047
 -1.060000000000000E-002   -3.848781182532762E-047
 -1.050000000000000E-002   -6.414635304221270E-047
 -1.040000000000000E-002   -2.349758647888378E-046
 -1.030000000000000E-002   -2.349758647888378E-046
 -1.020000000000000E-002   -2.349758647888378E-046
 -1.010000000000000E-002   -2.157319588761740E-046
 -1.000000000000000E-002   -1.708295117466251E-046
 -9.899999999999999E-003    6.414635304221270E-047
 -9.800000000000000E-003    4.827810001861182E-046
 -9.699999999999999E-003    1.020928076642879E-045
 -9.599999999999999E-003    1.565489788403860E-045
 -9.500000000000000E-003    2.255222470694582E-045
 -9.399999999999999E-003    2.900052705855755E-045
 -9.299999999999999E-003    3.316321711532312E-045
 -9.200000000000000E-003    3.504029487724251E-045
 -9.099999999999999E-003    2.889467905073343E-045
 -8.999999999999999E-003    3.579004898753765E-046
 -8.900000000000000E-003   -2.901887419438640E-045
 -8.799999999999999E-003   -6.979072862119849E-045
 -8.699999999999999E-003   -1.185908878110041E-044
 -8.600000000000000E-003   -1.733682753879308E-044
 -8.499999999999999E-003   -2.282822363475649E-044
 -8.399999999999999E-003   -2.773733153724443E-044
 -8.300000000000000E-003   -2.983598247242614E-044
 -8.199999999999999E-003   -2.741612702652435E-044
 -8.100000000000000E-003   -1.974457368423267E-044
 -8.000000000000000E-003   -7.046817470480841E-045
 -7.899999999999999E-003    1.343458323365071E-044
 -7.800000000000000E-003    4.136320736587528E-044
 -7.699999999999999E-003    7.354740159673462E-044
 -7.599999999999999E-003    1.075765273425074E-043
 -7.499999999999999E-003    1.398681541415048E-043
 -7.399999999999999E-003    1.634010209221908E-043
 -7.299999999999999E-003    1.718734160660534E-043
 -7.199999999999999E-003    1.557277764481121E-043
 -7.100000000000000E-003    1.079170519479432E-043
 -6.999999999999999E-003    2.010957570916542E-044
 -6.899999999999999E-003   -1.093522947062411E-043
 -6.800000000000000E-003   -2.782895515039061E-043
 -6.699999999999999E-003   -4.788927695961618E-043
 -6.599999999999999E-003   -6.918650670518254E-043
 -6.499999999999999E-003   -8.888405163271308E-043
 -6.399999999999999E-003   -1.031071427357433E-042
 -6.299999999999999E-003   -1.074729486999063E-042
 -6.199999999999999E-003   -9.676856662088638E-043
 -6.100000000000000E-003   -6.626837512495615E-043
 -5.999999999999999E-003   -1.218996826858850E-043
 -5.899999999999999E-003    6.721280839810891E-043
 -5.800000000000000E-003    1.703413807729209E-042
 -5.699999999999999E-003    2.912891327648894E-042
 -5.599999999999999E-003    4.189897209274506E-042
 -5.499999999999999E-003    5.366473538399255E-042
 -5.399999999999999E-003    6.215757722569967E-042
 -5.299999999999999E-003    6.469455955385723E-042
 -5.199999999999999E-003    5.837025627232646E-042
 -5.099999999999999E-003    4.043044711744477E-042
 -4.999999999999999E-003    8.747194632482576E-043
 -4.899999999999999E-003   -3.758279374641130E-042
 -4.799999999999999E-003   -9.760233083603533E-042
 -4.699999999999999E-003   -1.678803588917711E-041
 -4.599999999999999E-003   -2.420102216785484E-041
 -4.499999999999999E-003   -3.103799384343301E-041
 -4.399999999999999E-003   -3.603188789796680E-041
 -4.299999999999999E-003   -3.767487265306659E-041
 -4.199999999999999E-003   -3.435423350046950E-041
 -4.099999999999999E-003   -2.454771712884111E-041
 -3.999999999999999E-003   -7.089348856987906E-042
 -3.899999999999999E-003    1.851216043865611E-041
 -3.799999999999999E-003    5.173631980538953E-041
 -3.699999999999999E-003    9.072080307588164E-041
 -3.599999999999999E-003    1.320147514788329E-040
 -3.499999999999999E-003    1.704598472233726E-040
 -3.399999999999999E-003    1.992873893207690E-040
 -3.299999999999999E-003    2.104858428283034E-040
 -3.199999999999999E-003    1.954939834474813E-040
 -3.099999999999999E-003    1.462433161621991E-040
 -2.999999999999999E-003    5.652791411842676E-041
 -2.899999999999999E-003   -7.637717604051679E-041
 -2.799999999999999E-003   -2.499917715644804E-040
 -2.699999999999999E-003   -4.550065057140396E-040
 -2.599999999999999E-003   -6.740425286817600E-040
 -2.499999999999999E-003   -8.811173331909138E-040
 -2.399999999999999E-003   -1.042144003932410E-039
 -2.299999999999999E-003   -1.116800788939378E-039
 -2.199999999999999E-003   -1.061977326253644E-039
 -2.099999999999999E-003   -8.368958574076478E-040
 -1.999999999999999E-003   -4.097777027593777E-040
 -1.899999999999999E-003    2.343315697140771E-040
 -1.799999999999999E-003    1.085296637981739E-039
 -1.699999999999999E-003    2.100187155452845E-039
 -1.599999999999999E-003    3.197450993920021E-039
 -1.499999999999999E-003    4.254456011219701E-039
 -1.399999999999999E-003    5.109945568247055E-039
 -1.299999999999999E-003    5.572808613668175E-039
 -1.199999999999999E-003    5.438147307238437E-039
 -1.099999999999999E-003    4.510933652816766E-039
 -9.999999999999989E-004    2.636577135502194E-039
 -8.999999999999990E-004   -2.634791124930297E-040
 -7.999999999999990E-004   -4.154393085797376E-039
 -6.999999999999989E-004   -8.853391871279014E-039
 -5.999999999999990E-004   -1.400387868542775E-038
 -4.999999999999989E-004   -1.906470706558835E-038
 -3.999999999999989E-004   -2.332127997162222E-038
 -2.999999999999989E-004   -2.592428853920852E-038
 -1.999999999999989E-004   -2.596000621207511E-038
 -9.999999999999892E-005   -2.255298423831838E-038
  1.084202172485504E-018   -1.499774886603210E-038
  1.000000000000011E-004   -2.910955068849290E-039
  2.000000000000011E-004    1.361017236812255E-038
  3.000000000000011E-004    3.384278858129755E-038
  4.000000000000011E-004    5.633102063034386E-038
  5.000000000000011E-004    7.884307498431051E-038
  6.000000000000011E-004    9.841951234319476E-038
  7.000000000000011E-004    1.115353800497957E-037
  8.000000000000011E-004    1.143904094155815E-037
  9.000000000000012E-004    1.033284992050436E-037
  1.000000000000001E-003    7.537034358806029E-038
  1.100000000000001E-003    2.882247195606699E-038
  1.200000000000001E-003   -3.609590970055915E-038
  1.300000000000001E-003   -1.166875357715004E-037
  1.400000000000001E-003   -2.073686180296941E-037
  1.500000000000001E-003   -2.995206217326401E-037
  1.600000000000001E-003   -3.817018623000808E-037
  1.700000000000001E-003   -4.402998778243051E-037
  1.800000000000001E-003   -4.606697581087227E-037
  1.900000000000001E-003   -4.287515907282765E-037
  2.000000000000001E-003   -3.330925946368557E-037
  2.100000000000001E-003   -1.671222424831893E-037
  2.200000000000001E-003    6.855057854058392E-038
  2.300000000000001E-003    3.641207676488790E-037
  2.400000000000001E-003    6.992039415016600E-037
  2.500000000000001E-003    1.042457663643673E-036
  2.600000000000001E-003    1.352549176590904E-036
  2.700000000000001E-003    1.580727066924311E-036
  2.800000000000001E-003    1.675111542633363E-036
  2.900000000000001E-003    1.586615044738802E-036
  3.000000000000001E-003    1.276158913217015E-036
  3.100000000000001E-003    7.225768227549273E-037
  3.200000000000001E-003   -6.966851932328272E-038
  3.300000000000001E-003   -1.064053280774480E-036
  3.400000000000001E-003   -2.188075904087144E-036
  3.500000000000001E-003   -3.333086535010263E-036
  3.600000000000001E-003   -4.358923461461168E-036
  3.700000000000001E-003   -5.104051328050337E-036
  3.800000000000001E-003   -5.401327602325243E-036
  3.900000000000001E-003   -5.098778630150443E-036
  4.000000000000001E-003   -4.083900213887430E-036
  4.100000000000001E-003   -2.309091065101997E-036
  4.200000000000001E-003    1.849915738096181E-037
  4.300000000000001E-003    3.251963742117663E-036
  4.400000000000001E-003    6.632172161631125E-036
  4.500000000000001E-003    9.958832716956670E-036
  4.600000000000002E-003    1.278070278078038E-035
  4.700000000000001E-003    1.460260018514213E-035
  4.800000000000001E-003    1.494287524057161E-035
  4.900000000000002E-003    1.340429379141919E-035
  5.000000000000001E-003    9.751858377938860E-036
  5.100000000000001E-003    3.988292515441951E-036
  5.200000000000001E-003   -3.584353425476022E-036
  5.300000000000002E-003   -1.232975250503188E-035
  5.400000000000001E-003   -2.128150903202281E-035
  5.500000000000001E-003   -2.919685448648809E-035
  5.600000000000002E-003   -3.466587904754103E-035
  5.700000000000001E-003   -3.627586070867222E-035
  5.800000000000001E-003   -3.282208536443709E-035
  5.900000000000002E-003   -2.354715126933206E-035
  6.000000000000001E-003   -8.381285229174509E-036
  6.100000000000001E-003    1.185191837018289E-035
  6.200000000000002E-003    3.530529867314771E-035
  6.300000000000002E-003    5.909527678918092E-035
  6.400000000000001E-003    7.944311800465575E-035
  6.500000000000001E-003    9.199508244067044E-035
  6.600000000000002E-003    9.232703163104035E-035
  6.700000000000001E-003    7.661332023437949E-035
  6.800000000000001E-003    4.240922577541404E-035
  6.900000000000002E-003   -1.053603377225062E-035
  7.000000000000001E-003   -7.954850842461427E-035
  7.100000000000001E-003   -1.585158495684246E-034
  7.200000000000002E-003   -2.377349840103833E-034
  7.300000000000002E-003   -3.042562164184274E-034
  7.400000000000001E-003   -3.428268933936440E-034
  7.500000000000001E-003   -3.374822860634669E-034
  7.600000000000002E-003   -2.737500976677449E-034
  7.700000000000001E-003   -1.413360974645649E-034
  7.800000000000001E-003    6.295329046197647E-035
  7.900000000000001E-003    3.324046841997935E-034
  8.000000000000002E-003    6.481534616634826E-034
  8.100000000000001E-003    9.780034479115221E-034
  8.200000000000001E-003    1.276814128013345E-033
  8.300000000000002E-003    1.488889292280935E-033
  8.400000000000001E-003    1.552650245909254E-033
  8.500000000000002E-003    1.407637003113437E-033
  8.600000000000002E-003    1.003567056502873E-033
  8.700000000000001E-003    3.108080934420625E-034
  8.800000000000002E-003   -6.687737855435955E-034
  8.900000000000002E-003   -1.891993912911732E-033
  9.000000000000001E-003   -3.267246081134215E-033
  9.100000000000002E-003   -4.651933026941657E-033
  9.200000000000002E-003   -5.856172420256480E-033
  9.300000000000001E-003   -6.654170310659969E-033
  9.400000000000002E-003   -6.804026924364140E-033
  9.500000000000001E-003   -6.075807142204041E-033
  9.600000000000001E-003   -4.286537323727750E-033
  9.700000000000002E-003   -1.339450369534793E-033
  9.800000000000001E-003    2.736551393530473E-033
  9.900000000000001E-003    7.752474830473382E-033
  1.000000000000000E-002    1.333594939565654E-032
  1.010000000000000E-002    1.892546617340633E-032
  1.020000000000000E-002    2.378804303533082E-032
  1.030000000000000E-002    2.706478770035235E-032
  1.040000000000000E-002    2.784642755311132E-032
  1.050000000000000E-002    2.527751081063343E-032
  1.060000000000000E-002    1.868379350540253E-032
  1.070000000000000E-002    7.712806387068356E-033
  1.080000000000000E-002   -7.527059410238830E-033
  1.090000000000000E-002   -2.634743865132596E-032
  1.100000000000000E-002   -4.740196728169091E-032
  1.110000000000000E-002   -6.867098616472372E-032
  1.120000000000000E-002   -8.752847082052039E-032
  1.130000000000000E-002   -1.009054659369096E-031
  1.140000000000000E-002   -1.055557188801744E-031
  1.150000000000000E-002   -9.841771309362554E-032
  1.160000000000000E-002   -7.705320399642109E-032
  1.170000000000000E-002   -4.012735274683931E-032
  1.180000000000000E-002    1.211939130205159E-032
  1.190000000000000E-002    7.746969283291259E-032
  1.200000000000000E-002    1.514677636936808E-031
  1.210000000000000E-002    2.273685195520256E-031
  1.220000000000000E-002    2.963599643537640E-031
  1.230000000000000E-002    3.481035469016889E-031
  1.240000000000000E-002    3.716086045703817E-031
  1.250000000000000E-002    3.564196409293695E-031
  1.260000000000000E-002    2.940496489488268E-031
  1.270000000000000E-002    1.795451177764309E-031
  1.280000000000000E-002    1.302192447922908E-032
  1.290000000000000E-002   -1.990262902430888E-031
  1.300000000000000E-002   -4.428683096346513E-031
  1.310000000000000E-002   -6.973453608152333E-031
  1.320000000000000E-002   -9.345457992364274E-031
  1.330000000000000E-002   -1.121480439589104E-030
  1.340000000000000E-002   -1.222805687720751E-030
  1.350000000000000E-002   -1.204523345224052E-030
  1.360000000000000E-002   -1.038446852962944E-030
  1.370000000000000E-002   -7.070785553492010E-031
  1.380000000000000E-002   -2.084018342157626E-031
  1.390000000000000E-002    4.400188085654455E-031
  1.400000000000000E-002    1.198300988980154E-030
  1.410000000000000E-002    2.003540463978638E-030
  1.420000000000000E-002    2.771722286900813E-030
  1.430000000000000E-002    3.402652468811079E-030
  1.440000000000000E-002    3.788042186975752E-030
  1.450000000000000E-002    3.822526556484618E-030
  1.460000000000000E-002    3.416988330664493E-030
  1.470000000000000E-002    2.513125166962283E-030
  1.480000000000000E-002    1.097796343526294E-030
  1.490000000000000E-002   -7.846369677928786E-031
  1.500000000000000E-002   -3.023940460196008E-030
  1.510000000000000E-002   -5.441551740405363E-030
  1.520000000000000E-002   -7.795724131920092E-030
  1.530000000000000E-002   -9.795432949490615E-030
  1.540000000000000E-002   -1.112341106656988E-029
  1.550000000000000E-002   -1.146767077991061E-029
  1.560000000000000E-002   -1.055969488865037E-029
  1.570000000000000E-002   -8.216260395728191E-030
  1.580000000000000E-002   -4.380716391579263E-030
  1.590000000000000E-002    8.413350006508588E-031
  1.600000000000000E-002    7.157501949730252E-030
  1.610000000000000E-002    1.408066262913809E-029
  1.620000000000000E-002    2.094232165457109E-029
  1.630000000000000E-002    2.693046699616496E-029
  1.640000000000000E-002    3.115292070401955E-029
  1.650000000000000E-002    3.272434509486707E-029
  1.660000000000000E-002    3.087182386989272E-029
  1.670000000000000E-002    2.505059928591891E-029
  1.680000000000000E-002    1.505847777184830E-029
  1.690000000000000E-002    1.135028442573229E-030
  1.700000000000000E-002   -1.596952086865844E-029
  1.710000000000000E-002   -3.497048664310096E-029
  1.720000000000000E-002   -5.408268133546445E-029
  1.730000000000000E-002   -7.112062719275025E-029
  1.740000000000000E-002   -8.366756024242030E-029
  1.750000000000000E-002   -8.930807239027173E-029
  1.760000000000000E-002   -8.591056993081785E-029
  1.770000000000000E-002   -7.193693689315232E-029
  1.780000000000000E-002   -4.674861952698152E-029
  1.790000000000000E-002   -1.087230365673172E-029
  1.800000000000000E-002    3.381470074167648E-029
  1.810000000000000E-002    8.401823576436282E-029
  1.820000000000000E-002    1.351130695649020E-028
  1.830000000000000E-002    1.814025355285795E-028
  1.840000000000000E-002    2.165579379724306E-028
  1.850000000000000E-002    2.342235019567737E-028
  1.860000000000000E-002    2.287501871948947E-028
  1.870000000000000E-002    1.959989667140913E-028