 -4.000000000000000E-002    0.000000000000000E+000
 -3.990000000000000E-002    0.000000000000000E+000
 -3.980000000000000E-002    0.000000000000000E+000
 -3.970000000000000E-002    0.000000000000000E+000
 -3.960000000000000E-002    0.000000000000000E+000
 -3.950000000000000E-002    0.000000000000000E+000
 -3.940000000000000E-002    0.000000000000000E+000
 -3.930000000000000E-002    0.000000000000000E+000
 -3.920000000000000E-002    0.000000000000000E+000
 -3.910000000000000E-002    0.000000000000000E+000
 -3.900000000000000E-002    0.000000000000000E+000
 -3.890000000000000E-002    0.000000000000000E+000
 -3.880000000000000E-002    0.000000000000000E+000
 -3.870000000000000E-002    0.000000000000000E+000
 -3.860000000000000E-002    0.000000000000000E+000
 -3.850000000000000E-002    0.000000000000000E+000
 -3.840000000000000E-002    0.000000000000000E+000
 -3.830000000000000E-002    0.000000000000000E+000
 -3.820000000000000E-002    0.000000000000000E+000
 -3.810000000000000E-002    0.000000000000000E+000
 -3.800000000000000E-002    0.000000000000000E+000
 -3.790000000000000E-002    0.000000000000000E+000
 -3.780000000000000E-002    0.000000000000000E+000
 -3.770000000000000E-002    0.000000000000000E+000
 -3.760000000000000E-002    0.000000000000000E+000
 -3.750000000000000E-002    0.000000000000000E+000
 -3.740000000000000E-002    0.000000000000000E+000
 -3.730000000000000E-002    0.000000000000000E+000
 -3.720000000000000E-002    0.000000000000000E+000
 -3.710000000000000E-002    0.000000000000000E+000
 -3.700000000000000E-002    0.000000000000000E+000
 -3.690000000000000E-002    1.924390591266381E-047
 -3.680000000000000E-002    2.093173235719528E-046
 -3.670000000000000E-002    5.445617117609818E-046
 -3.660000000000000E-002    1.437197082319435E-045
 -3.650000000000000E-002    3.792888289068548E-045
 -3.640000000000000E-002    8.069525091616527E-045
 -3.630000000000000E-002    1.731352013881333E-044
 -3.620000000000000E-002    3.374862932822880E-044
 -3.610000000000000E-002    5.187162502163034E-044
 -3.600000000000000E-002    4.544531150318094E-044
 -3.590000000000000E-002   -8.403973947444102E-044
 -3.580000000000000E-002   -6.166485025177178E-043
 -3.570000000000000E-002   -2.260146374259058E-042
 -3.560000000000000E-002   -6.654182339507010E-042
 -3.550000000000000E-002   -1.731329062908587E-041
 -3.540000000000000E-002   -4.126440076033578E-041
 -3.530000000000000E-002   -9.163834828679016E-041
 -3.520000000000000E-002   -1.912750821203924E-040
 -3.510000000000000E-002   -3.767824776458537E-040
 -3.500000000000000E-002   -7.009335355379617E-040
 -3.490000000000000E-002   -1.228250230570303E-039
 -3.480000000000000E-002   -2.013127414269283E-039
 -3.470000000000000E-002   -3.041146101728720E-039
 -3.460000000000000E-002   -4.101916051695467E-039
 -3.450000000000000E-002   -4.546999099712235E-039
 -3.440000000000000E-002   -2.873548688350401E-039
 -3.430000000000000E-002    3.926686495361755E-039
 -3.420000000000000E-002    2.128356252836318E-038
 -3.410000000000000E-002    5.816872669803759E-038
 -3.400000000000000E-002    1.281598912142270E-037
 -3.390000000000000E-002    2.498270820863764E-037
 -3.380000000000000E-002    4.452360340100063E-037
 -3.370000000000000E-002    7.345276089326067E-037
 -3.360000000000000E-002    1.123481184262576E-036
 -3.350000000000000E-002    1.579881717522589E-036
 -3.340000000000000E-002    1.993808072149025E-036
 -3.330000000000000E-002    2.117410974324617E-036
 -3.320000000000000E-002    1.482590540481671E-036
 -3.310000000000000E-002   -6.980636165713608E-037
 -3.300000000000000E-002   -5.628529878904640E-036
 -3.290000000000000E-002   -1.498472600679120E-035
 -3.280000000000000E-002   -3.085665138780751E-035
 -3.270000000000000E-002   -5.546565099371416E-035
 -3.260000000000000E-002   -9.050050467724082E-035
 -3.250000000000000E-002   -1.358781606602341E-034
 -3.240000000000000E-002   -1.877240451065267E-034
 -3.230000000000000E-002   -2.354144174507196E-034
 -3.220000000000000E-002   -2.576726943912978E-034
 -3.210000000000000E-002   -2.180151967589662E-034
 -3.200000000000000E-002   -6.035213312317127E-035
 -3.190000000000000E-002    2.936953953867713E-034
 -3.180000000000000E-002    9.432066803658048E-034
 -3.170000000000000E-002    1.998392699984927E-033
 -3.160000000000000E-002    3.558230255160386E-033
 -3.150000000000000E-002    5.669791133128653E-033
 -3.140000000000000E-002    8.264051249419112E-033
 -3.130000000000000E-002    1.106503112888288E-032
 -3.120000000000000E-002    1.347388589297742E-032
 -3.110000000000000E-002    1.443799213828630E-032
 -3.100000000000000E-002    1.232791061779708E-032
 -3.090000000000000E-002    4.862460083792191E-033
 -3.080000000000000E-002   -1.085697789378274E-032
 -3.070000000000000E-002   -3.812009487429997E-032
 -3.060000000000000E-002   -8.008896742667870E-032
 -3.050000000000000E-002   -1.388813685305423E-031
 -3.040000000000000E-002   -2.141677597337398E-031
 -3.030000000000000E-002   -3.012466848647677E-031
 -3.020000000000000E-002   -3.886652415239251E-031
 -3.010000000000000E-002   -4.556136358151446E-031
 -3.000000000000000E-002   -4.695493261517078E-031
 -2.990000000000000E-002   -3.847890508280936E-031
 -2.980000000000000E-002   -1.431184793063437E-031
 -2.970000000000000E-002    3.222447875345926E-031
 -2.960000000000000E-002    1.077822209272430E-030
 -2.950000000000000E-002    2.174714642388543E-030
 -2.940000000000000E-002    3.626062678867824E-030
 -2.930000000000000E-002    5.377008952838956E-030
 -2.920000000000000E-002    7.268629875035051E-030
 -2.910000000000000E-002    8.999604738163098E-030
 -2.900000000000000E-002    1.009238297325161E-029
 -2.890000000000000E-002    9.874052606890634E-030
 -2.880000000000000E-002    7.485579205665673E-030
 -2.870000000000000E-002    1.935808202164237E-030
 -2.860000000000000E-002   -7.782399202849243E-030
 -2.850000000000000E-002   -2.249858741303229E-029
 -2.840000000000000E-002   -4.258487365864430E-029
 -2.830000000000000E-002   -6.759326512885574E-029
 -2.820000000000000E-002   -9.583234150191988E-029
 -2.810000000000000E-002   -1.239309798797718E-028
 -2.800000000000000E-002   -1.464673655152894E-028
 -2.790000000000000E-002   -1.557744419016606E-028
 -2.780000000000000E-002   -1.420623845064355E-028
 -2.770000000000000E-002   -9.401727069535646E-029
 -2.760000000000000E-002   -3.301317252389715E-032
 -2.750000000000000E-002    1.497998387868033E-028
 -2.740000000000000E-002    3.609009285081622E-028
 -2.730000000000000E-002    6.306808298717471E-028
 -2.720000000000000E-002    9.445528363202588E-028
 -2.710000000000000E-002    1.271958542937331E-027
 -2.700000000000000E-002    1.563143465581218E-027
 -2.690000000000000E-002    1.747667932301660E-027
 -2.680000000000000E-002    1.735833336959888E-027
 -2.670000000000000E-002    1.424281655061735E-027
 -2.660000000000000E-002    7.069136871700489E-028
 -2.650000000000000E-002   -5.081081897333157E-028
 -2.640000000000000E-002   -2.275208568296178E-027
 -2.630000000000000E-002   -4.583100461725014E-027
 -2.620000000000000E-002   -7.323741267670354E-027
 -2.610000000000000E-002   -1.026260053193824E-026
 -2.600000000000000E-002   -1.301602519663802E-026
 -2.590000000000000E-002   -1.504301263212888E-026
 -2.580000000000000E-002   -1.565968266695055E-026
 -2.570000000000000E-002   -1.408470304087914E-026
 -2.560000000000000E-002   -9.522461669010727E-027
 -2.550000000000000E-002   -1.287458145778485E-027
 -2.540000000000000E-002    1.103203804641039E-026
 -2.530000000000000E-002    2.738055936107895E-026
 -2.520000000000000E-002    4.703104335652874E-026
 -2.510000000000000E-002    6.839849979715815E-026
 -2.500000000000000E-002    8.891062349423948E-026
 -2.490000000000000E-002    1.049818259656560E-025
 -2.480000000000000E-002    1.121402416008133E-025
 -2.470000000000000E-002    1.053534026450910E-025
 -2.460000000000000E-002    7.958514662181218E-026
 -2.450000000000000E-002    3.059218742498247E-026
 -2.440000000000000E-002   -4.406680330833785E-026
 -2.430000000000000E-002   -1.438829014618510E-025
 -2.420000000000000E-002   -2.642357673495351E-025
 -2.410000000000000E-002   -3.954004298777629E-025
 -2.400000000000000E-002   -5.219497444897198E-025
 -2.390000000000000E-002   -6.228095956946655E-025
 -2.380000000000000E-002   -6.722235356581567E-025
 -2.370000000000000E-002   -6.418406029063648E-025
 -2.360000000000000E-002   -5.040472835808243E-025
 -2.350000000000000E-002   -2.365143114129181E-025
 -2.340000000000000E-002    1.722743444782267E-025
 -2.330000000000000E-002    7.169900433309413E-025
 -2.320000000000000E-002    1.369669654268812E-024
 -2.310000000000000E-002    2.075161589687725E-024
 -2.300000000000000E-002    2.748990432928881E-024
 -2.290000000000000E-002    3.278895235422426E-024
 -2.280000000000000E-002    3.531201394769784E-024
 -2.270000000000000E-002    3.362873252662465E-024
 -2.260000000000000E-002    2.639531847072485E-024
 -2.250000000000000E-002    1.258909502960878E-024
 -2.240000000000000E-002   -8.218203759601245E-025
 -2.230000000000000E-002   -3.557563471527891E-024
 -2.220000000000000E-002   -6.789578868423381E-024
 -2.210000000000000E-002   -1.022739633728376E-023
 -2.200000000000000E-002   -1.344387984288731E-023
 -2.190000000000000E-002   -1.588891024726570E-023
 -2.180000000000000E-002   -1.692630942303832E-023
 -2.170000000000000E-002   -1.589674688251343E-023
 -2.160000000000000E-002   -1.220644597200241E-023
 -2.150000000000000E-002   -5.437571630307706E-024
 -2.140000000000000E-002    4.528487282753005E-024
 -2.130000000000000E-002    1.738870290386387E-023
 -2.120000000000000E-002    3.231519489011441E-023
 -2.110000000000000E-002    4.789302885422162E-023
 -2.100000000000000E-002    6.212213282496157E-023
 -2.090000000000000E-002    7.250486514348956E-023
 -2.080000000000000E-002    7.623538118409328E-023
 -2.070000000000000E-002    7.049746938920169E-023
 -2.060000000000000E-002    5.286391144200210E-023
 -2.050000000000000E-002    2.177330952145588E-023
 -2.040000000000000E-002   -2.295871845126623E-023
 -2.030000000000000E-002   -7.965620200651321E-023
 -2.020000000000000E-002   -1.444055938747332E-022
 -2.010000000000000E-002   -2.108729541045854E-022
 -2.000000000000000E-002   -2.704042397122031E-022
 -1.990000000000000E-002   -3.124849967606444E-022
 -1.980000000000000E-002   -3.256087791933027E-022
 -1.970000000000000E-002   -2.985609696822465E-022
 -1.960000000000000E-002   -2.220678673124921E-022
 -1.950000000000000E-002   -9.069353479983652E-023
 -1.940000000000000E-002    9.520396061411796E-023
 -1.930000000000000E-002    3.277119243274151E-022
 -1.920000000000000E-002    5.901028263038386E-022
 -1.910000000000000E-002    8.564022309750970E-022
 -1.900000000000000E-002    1.092095332156351E-021
 -1.890000000000000E-002    1.256217459697483E-021
 -1.880000000000000E-002    1.304954332509758E-021
 -1.870000000000000E-002    1.196707136850039E-021
 -1.860000000000000E-002    8.983602933356901E-022
 -1.850000000000000E-002    3.922499048329270E-022
 -1.840000000000000E-002   -3.169142615994229E-022
 -1.830000000000000E-002   -1.196126501949632E-021
 -1.820000000000000E-002   -2.180255402307608E-021
 -1.810000000000000E-002   -3.171423190765265E-021
 -1.800000000000000E-002   -4.042593394582747E-021
 -1.790000000000000E-002   -4.646072934773902E-021
 -1.780000000000000E-002   -4.827168741708114E-021
 -1.770000000000000E-002   -4.442609904727271E-021
 -1.760000000000000E-002   -3.382591642056297E-021
 -1.750000000000000E-002   -1.594499818197068E-021
 -1.740000000000000E-002    8.943858245060795E-022
 -1.730000000000000E-002    3.958507411091742E-021
 -1.720000000000000E-002    7.363577969011657E-021
 -1.710000000000000E-002    1.076758701239601E-020
 -1.700000000000000E-002    1.373620836674625E-020
 -1.690000000000000E-002    1.577441138895522E-020
 -1.680000000000000E-002    1.637442072463090E-020
 -1.670000000000000E-002    1.507801938251790E-020
 -1.660000000000000E-002    1.154879108136346E-020
 -1.650000000000000E-002    5.647421761296552E-021
 -1.640000000000000E-002   -2.498990081384255E-021
 -1.630000000000000E-002   -1.244420764295456E-020
 -1.620000000000000E-002   -2.339785134631257E-020
 -1.610000000000000E-002   -3.423843050503413E-020
 -1.600000000000000E-002   -4.357239039084052E-020
 -1.590000000000000E-002   -4.984313665607617E-020
 -1.580000000000000E-002   -5.148848463189067E-020
 -1.570000000000000E-002   -4.713827980283292E-020
 -1.560000000000000E-002   -3.583671917480732E-020
 -1.550000000000000E-002   -1.726681380351441E-020
 -1.540000000000000E-002    8.051295331987704E-021
 -1.530000000000000E-002    3.862004195870201E-020
 -1.520000000000000E-002    7.191426501390281E-020
 -1.510000000000000E-002    1.044494071761022E-019
 -1.500000000000000E-002    1.319879153190037E-019
 -1.490000000000000E-002    1.498907224125872E-019
 -1.480000000000000E-002    1.536036876478959E-019
 -1.470000000000000E-002    1.392492563163287E-019
 -1.460000000000000E-002    1.042732607829488E-019
 -1.450000000000000E-002    4.807792848686415E-020
 -1.440000000000000E-002   -2.744210257091441E-020
 -1.430000000000000E-002   -1.175508187079781E-019
 -1.420000000000000E-002   -2.145962173042628E-019
 -1.410000000000000E-002   -3.082825306177314E-019
 -1.400000000000000E-002   -3.863345830583242E-019
 -1.390000000000000E-002   -4.355605831892867E-019
 -1.380000000000000E-002   -4.432707319209595E-019
 -1.370000000000000E-002   -3.989551777499004E-019
 -1.360000000000000E-002   -2.960704147846110E-019
 -1.350000000000000E-002   -1.337366359360890E-019
 -1.340000000000000E-002    8.188437111053175E-020
 -1.330000000000000E-002    3.367717780638852E-019
 -1.320000000000000E-002    6.090127873441751E-019
 -1.310000000000000E-002    8.697294306643651E-019
 -1.300000000000000E-002    1.085059651306739E-018
 -1.290000000000000E-002    1.219176625266043E-018
 -1.280000000000000E-002    1.238199259756989E-018
 -1.270000000000000E-002    1.114705711961858E-018
 -1.260000000000000E-002    8.324255895755381E-019
 -1.250000000000000E-002    3.905772368771030E-019
 -1.240000000000000E-002   -1.927533508595591E-019
 -1.230000000000000E-002   -8.788024540662935E-019
 -1.220000000000000E-002   -1.608433554313865E-018
 -1.210000000000000E-002   -2.304955996046103E-018
 -1.200000000000000E-002   -2.879634405490037E-018
 -1.190000000000000E-002   -3.239772328173454E-018
 -1.180000000000000E-002   -3.298917287855469E-018
 -1.170000000000000E-002   -2.988390512240532E-018
 -1.160000000000000E-002   -2.269018754518548E-018
 -1.150000000000000E-002   -1.141702749060681E-018
 -1.140000000000000E-002    3.446755464709413E-019
 -1.130000000000000E-002    2.089477667814713E-018
 -1.120000000000000E-002    3.941929996207690E-018
 -1.110000000000000E-002    5.708999130816356E-018
 -1.100000000000000E-002    7.169802783944771E-018
 -1.090000000000000E-002    8.096101934370263E-018
 -1.080000000000000E-002    8.277611866393256E-018
 -1.070000000000000E-002    7.550049554909038E-018
 -1.060000000000000E-002    5.823117865014548E-018
 -1.050000000000000E-002    3.105103479761773E-018
 -1.040000000000000E-002   -4.794556973476322E-019
 -1.030000000000000E-002   -4.682413212344625E-018
 -1.020000000000000E-002   -9.137754213443708E-018
 -1.010000000000000E-002   -1.338218697956622E-017
 -1.000000000000000E-002   -1.689090531670964E-017
 -9.899999999999999E-003   -1.912710246782117E-017
 -9.800000000000000E-003   -1.960195133809446E-017
 -9.699999999999999E-003   -1.793992344944973E-017
 -9.599999999999999E-003   -1.394278228584215E-017
 -9.500000000000000E-003   -7.644534441294459E-018
 -9.399999999999999E-003    6.506876006447862E-019
 -9.299999999999999E-003    1.035526499663705E-017
 -9.200000000000000E-003    2.061516245766702E-017
 -9.099999999999999E-003    3.036080941476688E-017
 -8.999999999999999E-003    3.839185015987777E-017
 -8.900000000000000E-003    4.349185420927757E-017
 -8.799999999999999E-003    4.456494779103906E-017
 -8.699999999999999E-003    4.078237451004378E-017
 -8.600000000000000E-003    3.172379209428608E-017
 -8.499999999999999E-003    1.749612380869178E-017
 -8.399999999999999E-003   -1.187553666881184E-018
 -8.300000000000000E-003   -2.298493317873731E-017
 -8.199999999999999E-003   -4.596935841481869E-017
 -8.100000000000000E-003   -6.774895615900968E-017
 -8.000000000000000E-003   -8.565889716811322E-017
 -7.899999999999999E-003   -9.701704713265046E-017
 -7.800000000000000E-003   -9.942448826672670E-017
 -7.699999999999999E-003   -9.108405547564687E-017
 -7.599999999999999E-003   -7.110377411763766E-017
 -7.499999999999999E-003   -3.974826392084293E-017
 -7.399999999999999E-003    1.398863965269159E-018
 -7.299999999999999E-003    4.939441520242885E-017
 -7.199999999999999E-003    1.000411666912747E-016
 -7.100000000000000E-003    1.481512013921634E-016
 -6.999999999999999E-003    1.879627670547387E-016
 -6.899999999999999E-003    2.136883408820877E-016
 -6.800000000000000E-003    2.201534982780027E-016
 -6.699999999999999E-003    2.034693515230473E-016
 -6.599999999999999E-003    1.616690097945770E-016
 -6.499999999999999E-003    9.523145731161344E-017
 -6.399999999999999E-003    7.417168575269211E-018
 -6.299999999999999E-003   -9.565092325627667E-017
 -6.199999999999999E-003   -2.052092742583075E-016
 -6.100000000000000E-003   -3.104002876141586E-016
 -5.999999999999999E-003   -3.991327681254173E-016
 -5.899999999999999E-003   -4.592090966503587E-016
 -5.800000000000000E-003   -4.796356213278790E-016
 -5.699999999999999E-003   -4.519999649229379E-016
 -5.599999999999999E-003   -3.717746040296414E-016
 -5.499999999999999E-003   -2.393932127579442E-016
 -5.399999999999999E-003   -6.094927003479364E-017
 -5.299999999999999E-003    1.516147519938041E-016
 -5.199999999999999E-003    3.809222621550232E-016
 -5.099999999999999E-003    6.052240028239839E-016
 -4.999999999999999E-003    8.000844120703652E-016
 -4.899999999999999E-003    9.406000602803019E-016
 -4.799999999999999E-003    1.003986811635976E-015
 -4.699999999999999E-003    9.723093694079616E-016
 -4.599999999999999E-003    8.350793345740042E-016
 -4.499999999999999E-003    5.914248453614390E-016
 -4.399999999999999E-003    2.515395494027527E-016
 -4.299999999999999E-003   -1.628443253067371E-016
 -4.199999999999999E-003   -6.191437367254133E-016
 -4.099999999999999E-003   -1.075858735022596E-015
 -3.999999999999999E-003   -1.485717079857885E-015
 -3.899999999999999E-003   -1.799858317575547E-015
 -3.799999999999999E-003   -1.972752766440360E-015
 -3.699999999999999E-003   -1.967431875029770E-015
 -3.599999999999999E-003   -1.760516791015096E-015
 -3.499999999999999E-003   -1.346484505048411E-015
 -3.399999999999999E-003   -7.406197465034323E-016
 -3.299999999999999E-003    1.983366917473661E-017
 -3.199999999999999E-003    8.766801122046302E-016
 -3.099999999999999E-003    1.754114499982023E-015
 -2.999999999999999E-003    2.564351256095361E-015
 -2.899999999999999E-003    3.215244240392189E-015
 -2.799999999999999E-003    3.619351906704713E-015
 -2.699999999999999E-003    3.703680983267514E-015
 -2.599999999999999E-003    3.419170158896513E-015
 -2.499999999999999E-003    2.748882881361542E-015
 -2.399999999999999E-003    1.713883656688634E-015
 -2.299999999999999E-003    3.758830460786876E-016
 -2.199999999999999E-003   -1.164038236607748E-015
 -2.099999999999999E-003   -2.770992092115955E-015
 -1.999999999999999E-003   -4.286096495130706E-015
 -1.899999999999999E-003   -5.540049964583712E-015
 -1.799999999999999E-003   -6.369521947338891E-015
 -1.699999999999999E-003   -6.635005701404208E-015
 -1.599999999999999E-003   -6.238442327712432E-015
 -1.499999999999999E-003   -5.138751189218765E-015
 -1.399999999999999E-003   -3.363371272609952E-015
 -1.299999999999999E-003   -1.014105895162347E-015
 -1.199999999999999E-003    1.734066582823397E-015
 -1.099999999999999E-003    4.641980073946709E-015
 -9.999999999999989E-004    7.423124501144639E-015
 -8.999999999999990E-004    9.767578418924023E-015
 -7.999999999999990E-004    1.137145137652845E-014
 -6.999999999999989E-004    1.196945799081210E-014
 -5.999999999999990E-004    1.136763957546985E-014
 -4.999999999999989E-004    9.472856122499458E-015
 -3.999999999999989E-004    6.315560090935880E-015
 -2.999999999999989E-004    2.062645306536426E-015
 -1.999999999999989E-004   -2.982235692750814E-015
 -9.999999999999892E-005   -8.392513556757540E-015
  1.084202172485504E-018   -1.364708295883399E-014
  1.000000000000011E-004   -1.817213762698865E-014
  2.000000000000011E-004   -2.139386708160301E-014
  3.000000000000011E-004   -2.279795727410126E-014
  4.000000000000011E-004   -2.199062701089884E-014
  5.000000000000011E-004   -1.875512718319516E-014
  6.000000000000011E-004   -1.309730026137166E-014
  7.000000000000011E-004   -5.274112798298213E-015
  8.000000000000011E-004    4.199916563849979E-015
  9.000000000000012E-004    1.457188846575808E-014
  1.000000000000001E-003    2.489658058925211E-014
  1.100000000000001E-003    3.410810311829099E-014
  1.200000000000001E-003    4.111306433023354E-014
  1.300000000000001E-003    4.489849318089815E-014
  1.400000000000001E-003    4.464531731738948E-014
  1.500000000000001E-003    3.983661721673353E-014
  1.600000000000001E-003    3.034889246628378E-014
  1.700000000000001E-003    1.651498909545005E-014
  1.800000000000001E-003   -8.512930893841094E-016
  1.900000000000001E-003   -2.047619441420041E-014
  2.000000000000001E-003   -4.069613149942044E-014
  2.100000000000001E-003   -5.957597112598081E-014
  2.200000000000001E-003   -7.506940855266200E-014
  2.300000000000001E-003   -8.521039983174698E-014
  2.400000000000001E-003   -8.832008523329876E-014
  2.500000000000001E-003   -8.321015300062893E-014
  2.600000000000001E-003   -6.936167050576799E-014
  2.700000000000001E-003   -4.705826208053589E-014
  2.800000000000001E-003   -1.745472174310588E-014
  2.900000000000001E-003    1.743368362498348E-014
  3.000000000000001E-003    5.482961013808383E-014
  3.100000000000001E-003    9.138025009488258E-014
  3.200000000000001E-003    1.234237398776190E-013
  3.300000000000001E-003    1.473178745421075E-013
  3.400000000000001E-003    1.598051614126815E-013
  3.500000000000001E-003    1.583815283374694E-013
  3.600000000000001E-003    1.416318390412303E-013
  3.700000000000001E-003    1.094942869509343E-013
  3.800000000000001E-003    6.341876837921332E-014
  3.900000000000001E-003    6.390950762468375E-015
  4.000000000000001E-003   -5.719571479936620E-014
  4.100000000000001E-003   -1.218243171285373E-013
  4.200000000000001E-003   -1.812839230821902E-013
  4.300000000000001E-003   -2.292167782471923E-013
  4.400000000000001E-003   -2.597406783730435E-013
  4.500000000000001E-003   -2.680914371050870E-013
  4.600000000000002E-003   -2.512220894401701E-013
  4.700000000000001E-003   -2.082927456080896E-013
  4.800000000000001E-003   -1.409888394648319E-013
  4.900000000000002E-003   -5.361625661188537E-014
  5.000000000000001E-003    4.706085793310386E-014
  5.100000000000001E-003    1.522511091544344E-013
  5.200000000000001E-003    2.518207219935845E-013
  5.300000000000002E-003    3.351891406711258E-013
  5.400000000000001E-003    3.923658275086013E-013
  5.500000000000001E-003    4.150365507298617E-013
  5.600000000000002E-003    3.975918234587350E-013
  5.700000000000001E-003    3.379847488774565E-013
  5.800000000000001E-003    2.383109741454825E-013
  5.900000000000002E-003    1.050203313154252E-013
  6.000000000000001E-003   -5.130120043475149E-014
  6.100000000000001E-003   -2.166029715579938E-013
  6.200000000000002E-003   -3.744729108769235E-013
  6.300000000000002E-003   -5.076040802956536E-013
  6.400000000000001E-003   -5.995100725484473E-013
  6.500000000000001E-003   -6.363367019981660E-013
  6.600000000000002E-003   -6.085905908663418E-013
  6.700000000000001E-003   -5.125949956203474E-013
  6.800000000000001E-003   -3.514912252692335E-013
  6.900000000000002E-003   -1.356316844183879E-013
  7.000000000000001E-003    1.177413917564962E-013
  7.100000000000001E-003    3.855744389578700E-013
  7.200000000000002E-003    6.408060960785398E-013
  7.300000000000002E-003    8.547841574012239E-013
  7.400000000000001E-003    1.000108301502872E-012
  7.500000000000001E-003    1.053645616938160E-012
  7.600000000000002E-003    9.994218648028147E-013
  7.700000000000001E-003    8.310726842005172E-013
  7.800000000000001E-003    5.535506164151750E-013
  7.900000000000001E-003    1.838319092729735E-013
  8.000000000000002E-003   -2.495577585960122E-013
  8.100000000000001E-003   -7.082726428581904E-013
  8.200000000000001E-003   -1.147083501718237E-012
  8.300000000000002E-003   -1.517841735904759E-012
  8.400000000000001E-003   -1.774165799930483E-012
  8.500000000000002E-003   -1.876437721398684E-012
  8.600000000000002E-003   -1.796622814683811E-012
  8.700000000000001E-003   -1.522394186690162E-012
  8.800000000000002E-003   -1.060064028565866E-012
  8.900000000000002E-003   -4.358955836157103E-013
  9.000000000000001E-003    3.045035767305494E-013
  9.100000000000002E-003    1.098838666650214E-012
  9.200000000000002E-003    1.872766635656041E-012
  9.300000000000001E-003    2.546237445912499E-012
  9.400000000000002E-003    3.041054173899732E-012
  9.500000000000001E-003    3.288994283679122E-012
  9.600000000000001E-003    3.239716011340013E-012
  9.700000000000002E-003    2.867616110252802E-012
  9.800000000000001E-003    2.176838285430952E-012
  9.900000000000001E-003    1.203741450800468E-012
  1.000000000000000E-002    1.633631688423845E-014
  1.010000000000000E-002   -1.289537789107112E-012
  1.020000000000000E-002   -2.597210662039700E-012
  1.030000000000000E-002   -3.778932834125678E-012
  1.040000000000000E-002   -4.707642565244991E-012
  1.050000000000000E-002   -5.269732537568264E-012
  1.060000000000000E-002   -5.377609618850472E-012
  1.070000000000000E-002   -4.980752491686143E-012
  1.080000000000000E-002   -4.074011184324553E-012
  1.090000000000000E-002   -2.702063183944901E-012
  1.100000000000000E-002   -9.592389039192165E-013
  1.110000000000000E-002    1.015664418815306E-012
  1.120000000000000E-002    3.049485033850503E-012
  1.130000000000000E-002    4.949107693740865E-012
  1.140000000000000E-002    6.519084172449490E-012
  1.150000000000000E-002    7.580945043412221E-012
  1.160000000000000E-002    7.992381804636937E-012
  1.170000000000000E-002    7.664348288805140E-012
  1.180000000000000E-002    6.574170772299448E-012
  1.190000000000000E-002    4.773014314625125E-012
  1.200000000000000E-002    2.386495267986601E-012
  1.210000000000000E-002   -3.921738092839316E-013
  1.220000000000000E-002   -3.316401112936827E-012
  1.230000000000000E-002   -6.106933282615639E-012
  1.240000000000000E-002   -8.477478297433930E-012
  1.250000000000000E-002   -1.016300859312462E-011
  1.260000000000000E-002   -1.094807949630101E-011
  1.270000000000000E-002   -1.069227280786578E-011
  1.280000000000000E-002   -9.349962237046755E-012
  1.290000000000000E-002   -6.981947490970383E-012
  1.300000000000000E-002   -3.757150513085608E-012
  1.310000000000000E-002    5.655450242030055E-014
  1.320000000000000E-002    4.112266210200608E-012
  1.330000000000000E-002    8.013519565146421E-012
  1.340000000000000E-002    1.135099651325686E-011
  1.350000000000000E-002    1.374329008520864E-011
  1.360000000000000E-002    1.487785850859034E-011
  1.370000000000000E-002    1.454800671277063E-011
  1.380000000000000E-002    1.268182642294923E-011
  1.390000000000000E-002    9.359531540866549E-012
  1.400000000000000E-002    4.816565620390602E-012
  1.410000000000000E-002   -5.689002267367449E-013
  1.420000000000000E-002   -6.303962999189181E-012
  1.430000000000000E-002   -1.182276726411366E-011
  1.440000000000000E-002   -1.653883191137971E-011
  1.450000000000000E-002   -1.990337236133800E-011
  1.460000000000000E-002   -2.146411725493586E-011
  1.470000000000000E-002   -2.091867415833701E-011
  1.480000000000000E-002   -1.815661530884440E-011
  1.490000000000000E-002   -1.328517653671345E-011
  1.500000000000000E-002   -6.634761807562414E-012
  1.510000000000000E-002    1.257776230360125E-012
  1.520000000000000E-002    9.688003728446863E-012
  1.530000000000000E-002    1.784259779420149E-011
  1.540000000000000E-002    2.487335012371318E-011
  1.550000000000000E-002    2.998011680126739E-011
  1.560000000000000E-002    3.249498401272778E-011
  1.570000000000000E-002    3.195924199388007E-011
  1.580000000000000E-002    2.818491053758409E-011
  1.590000000000000E-002    2.129352574552554E-011
  1.600000000000000E-002    1.172669253842520E-011
  1.610000000000000E-002    2.253498695781861E-013
  1.620000000000000E-002   -1.222235390555095E-011
  1.630000000000000E-002   -2.446154129259979E-011
  1.640000000000000E-002   -3.527336032311144E-011
  1.650000000000000E-002   -4.349127265275036E-011
  1.660000000000000E-002   -4.812019766066733E-011
  1.670000000000000E-002   -4.844684616432285E-011
  1.680000000000000E-002   -4.412964365379375E-011
  1.690000000000000E-002   -3.525794546274326E-011
  1.700000000000000E-002   -2.237260142457606E-011
  1.710000000000000E-002   -6.443283985220862E-012
  1.720000000000000E-002    1.119802751365533E-011
  1.730000000000000E-002    2.896367651195750E-011
  1.740000000000000E-002    4.514911595688277E-011
  1.750000000000000E-002    5.809220007889662E-011
  1.760000000000000E-002    6.633853412540206E-011
  1.770000000000000E-002    6.879695500549994E-011
  1.780000000000000E-002    6.486914599689481E-011
  1.790000000000000E-002    5.453898097887971E-011
  1.800000000000000E-002    3.841027862955616E-011
  1.810000000000000E-002    1.768606161897967E-011
  1.820000000000000E-002   -5.912256737511089E-012
  1.830000000000000E-002   -3.028146485919291E-011
  1.840000000000000E-002   -5.311886580009793E-011
  1.850000000000000E-002   -7.213514005304138E-011
  1.860000000000000E-002   -8.527862270363043E-011
  1.870000000000000E-002   -9.094966859657293E-011