 -4.000000000000000E-002    0.000000000000000E+000
 -3.990000000000000E-002    0.000000000000000E+000
 -3.980000000000000E-002    0.000000000000000E+000
 -3.970000000000000E-002    0.000000000000000E+000
 -3.960000000000000E-002    0.000000000000000E+000
 -3.950000000000000E-002    0.000000000000000E+000
 -3.940000000000000E-002    0.000000000000000E+000
 -3.930000000000000E-002    0.000000000000000E+000
 -3.920000000000000E-002    0.000000000000000E+000
 -3.910000000000000E-002    0.000000000000000E+000
 -3.900000000000000E-002    0.000000000000000E+000
 -3.890000000000000E-002    0.000000000000000E+000
 -3.880000000000000E-002    0.000000000000000E+000
 -3.870000000000000E-002    0.000000000000000E+000
 -3.860000000000000E-002    0.000000000000000E+000
 -3.850000000000000E-002    0.000000000000000E+000
 -3.840000000000000E-002    0.000000000000000E+000
 -3.830000000000000E-002    0.000000000000000E+000
 -3.820000000000000E-002    0.000000000000000E+000
 -3.810000000000000E-002    0.000000000000000E+000
 -3.800000000000000E-002    0.000000000000000E+000
 -3.790000000000000E-002    0.000000000000000E+000
 -3.780000000000000E-002    0.000000000000000E+000
 -3.770000000000000E-002    0.000000000000000E+000
 -3.760000000000000E-002    0.000000000000000E+000
 -3.750000000000000E-002    0.000000000000000E+000
 -3.740000000000000E-002    0.000000000000000E+000
 -3.730000000000000E-002    0.000000000000000E+000
 -3.720000000000000E-002    0.000000000000000E+000
 -3.710000000000000E-002    0.000000000000000E+000
 -3.700000000000000E-002    0.000000000000000E+000
 -3.690000000000000E-002    0.000000000000000E+000
 -3.680000000000000E-002    0.000000000000000E+000
 -3.670000000000000E-002    0.000000000000000E+000
 -3.660000000000000E-002    0.000000000000000E+000
 -3.650000000000000E-002    0.000000000000000E+000
 -3.640000000000000E-002    0.000000000000000E+000
 -3.630000000000000E-002    0.000000000000000E+000
 -3.620000000000000E-002    0.000000000000000E+000
 -3.610000000000000E-002    0.000000000000000E+000
 -3.600000000000000E-002    0.000000000000000E+000
 -3.590000000000000E-002    0.000000000000000E+000
 -3.580000000000000E-002    0.000000000000000E+000
 -3.570000000000000E-002    0.000000000000000E+000
 -3.560000000000000E-002    0.000000000000000E+000
 -3.550000000000000E-002    0.000000000000000E+000
 -3.540000000000000E-002    0.000000000000000E+000
 -3.530000000000000E-002    0.000000000000000E+000
 -3.520000000000000E-002    0.000000000000000E+000
 -3.510000000000000E-002    0.000000000000000E+000
 -3.500000000000000E-002    0.000000000000000E+000
 -3.490000000000000E-002    0.000000000000000E+000
 -3.480000000000000E-002    0.000000000000000E+000
 -3.470000000000000E-002    0.000000000000000E+000
 -3.460000000000000E-002    0.000000000000000E+000
 -3.450000000000000E-002    0.000000000000000E+000
 -3.440000000000000E-002    0.000000000000000E+000
 -3.430000000000000E-002    0.000000000000000E+000
 -3.420000000000000E-002    0.000000000000000E+000
 -3.410000000000000E-002    0.000000000000000E+000
 -3.400000000000000E-002    0.000000000000000E+000
 -3.390000000000000E-002    0.000000000000000E+000
 -3.380000000000000E-002    0.000000000000000E+000
 -3.370000000000000E-002    0.000000000000000E+000
 -3.360000000000000E-002    0.000000000000000E+000
 -3.350000000000000E-002    0.000000000000000E+000
 -3.340000000000000E-002    0.000000000000000E+000
 -3.330000000000000E-002    0.000000000000000E+000
 -3.320000000000000E-002    0.000000000000000E+000
 -3.310000000000000E-002    0.000000000000000E+000
 -3.300000000000000E-002    0.000000000000000E+000
 -3.290000000000000E-002    0.000000000000000E+000
 -3.280000000000000E-002    0.000000000000000E+000
 -3.270000000000000E-002    0.000000000000000E+000
 -3.260000000000000E-002    0.000000000000000E+000
 -3.250000000000000E-002    0.000000000000000E+000
 -3.240000000000000E-002    0.000000000000000E+000
 -3.230000000000000E-002    0.000000000000000E+000
 -3.220000000000000E-002    0.000000000000000E+000
 -3.210000000000000E-002    0.000000000000000E+000
 -3.200000000000000E-002    0.000000000000000E+000
 -3.190000000000000E-002    0.000000000000000E+000
 -3.180000000000000E-002    0.000000000000000E+000
 -3.170000000000000E-002    0.000000000000000E+000
 -3.160000000000000E-002    0.000000000000000E+000
 -3.150000000000000E-002    0.000000000000000E+000
 -3.140000000000000E-002    0.000000000000000E+000
 -3.130000000000000E-002    0.000000000000000E+000
 -3.120000000000000E-002    0.000000000000000E+000
 -3.110000000000000E-002    0.000000000000000E+000
 -3.100000000000000E-002    0.000000000000000E+000
 -3.090000000000000E-002    0.000000000000000E+000
 -3.080000000000000E-002    0.000000000000000E+000
 -3.070000000000000E-002    0.000000000000000E+000
 -3.060000000000000E-002    0.000000000000000E+000
 -3.050000000000000E-002    0.000000000000000E+000
 -3.040000000000000E-002    0.000000000000000E+000
 -3.030000000000000E-002    0.000000000000000E+000
 -3.020000000000000E-002    0.000000000000000E+000
 -3.010000000000000E-002    0.000000000000000E+000
 -3.000000000000000E-002    0.000000000000000E+000
 -2.990000000000000E-002    0.000000000000000E+000
 -2.980000000000000E-002    0.000000000000000E+000
 -2.970000000000000E-002    0.000000000000000E+000
 -2.960000000000000E-002    0.000000000000000E+000
 -2.950000000000000E-002    0.000000000000000E+000
 -2.940000000000000E-002    0.000000000000000E+000
 -2.930000000000000E-002    0.000000000000000E+000
 -2.920000000000000E-002    0.000000000000000E+000
 -2.910000000000000E-002    0.000000000000000E+000
 -2.900000000000000E-002    0.000000000000000E+000
 -2.890000000000000E-002    0.000000000000000E+000
 -2.880000000000000E-002    0.000000000000000E+000
 -2.870000000000000E-002    0.000000000000000E+000
 -2.860000000000000E-002    0.000000000000000E+000
 -2.850000000000000E-002    0.000000000000000E+000
 -2.840000000000000E-002    0.000000000000000E+000
 -2.830000000000000E-002    0.000000000000000E+000
 -2.820000000000000E-002    0.000000000000000E+000
 -2.810000000000000E-002    0.000000000000000E+000
 -2.800000000000000E-002    0.000000000000000E+000
 -2.790000000000000E-002    0.000000000000000E+000
 -2.780000000000000E-002    0.000000000000000E+000
 -2.770000000000000E-002    0.000000000000000E+000
 -2.760000000000000E-002    0.000000000000000E+000
 -2.750000000000000E-002    0.000000000000000E+000
 -2.740000000000000E-002    0.000000000000000E+000
 -2.730000000000000E-002    0.000000000000000E+000
 -2.720000000000000E-002    0.000000000000000E+000
 -2.710000000000000E-002    0.000000000000000E+000
 -2.700000000000000E-002    0.000000000000000E+000
 -2.690000000000000E-002    0.000000000000000E+000
 -2.680000000000000E-002    0.000000000000000E+000
 -2.670000000000000E-002    0.000000000000000E+000
 -2.660000000000000E-002    0.000000000000000E+000
 -2.650000000000000E-002    0.000000000000000E+000
 -2.640000000000000E-002    0.000000000000000E+000
 -2.630000000000000E-002    0.000000000000000E+000
 -2.620000000000000E-002    0.000000000000000E+000
 -2.610000000000000E-002    0.000000000000000E+000
 -2.600000000000000E-002    0.000000000000000E+000
 -2.590000000000000E-002    0.000000000000000E+000
 -2.580000000000000E-002    0.000000000000000E+000
 -2.570000000000000E-002    0.000000000000000E+000
 -2.560000000000000E-002    0.000000000000000E+000
 -2.550000000000000E-002    0.000000000000000E+000
 -2.540000000000000E-002    0.000000000000000E+000
 -2.530000000000000E-002    0.000000000000000E+000
 -2.520000000000000E-002    0.000000000000000E+000
 -2.510000000000000E-002    0.000000000000000E+000
 -2.500000000000000E-002    0.000000000000000E+000
 -2.490000000000000E-002    0.000000000000000E+000
 -2.480000000000000E-002    0.000000000000000E+000
 -2.470000000000000E-002    0.000000000000000E+000
 -2.460000000000000E-002    0.000000000000000E+000
 -2.450000000000000E-002    0.000000000000000E+000
 -2.440000000000000E-002    0.000000000000000E+000
 -2.430000000000000E-002    0.000000000000000E+000
 -2.420000000000000E-002    0.000000000000000E+000
 -2.410000000000000E-002    0.000000000000000E+000
 -2.400000000000000E-002    0.000000000000000E+000
 -2.390000000000000E-002    0.000000000000000E+000
 -2.380000000000000E-002    0.000000000000000E+000
 -2.370000000000000E-002    0.000000000000000E+000
 -2.360000000000000E-002    0.000000000000000E+000
 -2.350000000000000E-002    0.000000000000000E+000
 -2.340000000000000E-002    0.000000000000000E+000
 -2.330000000000000E-002    0.000000000000000E+000
 -2.320000000000000E-002    0.000000000000000E+000
 -2.310000000000000E-002    0.000000000000000E+000
 -2.300000000000000E-002    0.000000000000000E+000
 -2.290000000000000E-002    0.000000000000000E+000
 -2.280000000000000E-002    0.000000000000000E+000
 -2.270000000000000E-002    0.000000000000000E+000
 -2.260000000000000E-002    0.000000000000000E+000
 -2.250000000000000E-002    0.000000000000000E+000
 -2.240000000000000E-002    0.000000000000000E+000
 -2.230000000000000E-002    0.000000000000000E+000
 -2.220000000000000E-002    0.000000000000000E+000
 -2.210000000000000E-002    0.000000000000000E+000
 -2.200000000000000E-002    0.000000000000000E+000
 -2.190000000000000E-002    0.000000000000000E+000
 -2.180000000000000E-002    0.000000000000000E+000
 -2.170000000000000E-002    0.000000000000000E+000
 -2.160000000000000E-002    0.000000000000000E+000
 -2.150000000000000E-002    0.000000000000000E+000
 -2.140000000000000E-002    0.000000000000000E+000
 -2.130000000000000E-002    0.000000000000000E+000
 -2.120000000000000E-002    0.000000000000000E+000
 -2.110000000000000E-002    0.000000000000000E+000
 -2.100000000000000E-002    0.000000000000000E+000
 -2.090000000000000E-002    0.000000000000000E+000
 -2.080000000000000E-002    0.000000000000000E+000
 -2.070000000000000E-002    0.000000000000000E+000
 -2.060000000000000E-002    0.000000000000000E+000
 -2.050000000000000E-002    0.000000000000000E+000
 -2.040000000000000E-002    0.000000000000000E+000
 -2.030000000000000E-002    0.000000000000000E+000
 -2.020000000000000E-002    0.000000000000000E+000
 -2.010000000000000E-002    0.000000000000000E+000
 -2.000000000000000E-002    0.000000000000000E+000
 -1.990000000000000E-002    0.000000000000000E+000
 -1.980000000000000E-002    0.000000000000000E+000
 -1.970000000000000E-002    0.000000000000000E+000
 -1.960000000000000E-002    0.000000000000000E+000
 -1.950000000000000E-002    1.924390591266381E-047
 -1.940000000000000E-002    3.848781182532762E-047
 -1.930000000000000E-002    3.848781182532762E-047
 -1.920000000000000E-002    3.848781182532762E-047
 -1.910000000000000E-002    1.924390591266381E-047
 -1.900000000000000E-002   -2.565854121688508E-047
 -1.890000000000000E-002    3.592195770363911E-047
 -1.880000000000000E-002    7.697562365065523E-048
 -1.870000000000000E-002    9.237074838078628E-047
 -1.860000000000000E-002    1.064829460500731E-046
 -1.850000000000000E-002    1.270097790235811E-046
 -1.840000000000000E-002    3.442248776149388E-046
 -1.830000000000000E-002    3.546885067560322E-046
 -1.820000000000000E-002   -3.134830968112041E-046
 -1.810000000000000E-002   -5.573272275346502E-046
 -1.800000000000000E-002   -7.996882185429126E-046
 -1.790000000000000E-002   -8.609562813177959E-046
 -1.780000000000000E-002   -9.344924972446141E-046
 -1.770000000000000E-002   -1.184911955420110E-045
 -1.760000000000000E-002   -2.045389137916309E-045
 -1.750000000000000E-002   -1.555638350402807E-045
 -1.740000000000000E-002   -1.243510878542455E-045
 -1.730000000000000E-002    3.372133475384898E-046
 -1.720000000000000E-002    1.323999766349872E-045
 -1.710000000000000E-002    2.680347325078178E-045
 -1.700000000000000E-002    4.961187932053458E-045
 -1.690000000000000E-002    7.179209704367982E-045
 -1.680000000000000E-002    9.913325172418578E-045
 -1.670000000000000E-002    1.122599026693714E-044
 -1.660000000000000E-002    1.109901955189969E-044
 -1.650000000000000E-002    7.926749991704851E-045
 -1.640000000000000E-002    1.870588564571143E-045
 -1.630000000000000E-002   -8.546643794514018E-045
 -1.620000000000000E-002   -2.417213328308203E-044
 -1.610000000000000E-002   -4.427942352099675E-044
 -1.600000000000000E-002   -6.847082799331834E-044
 -1.590000000000000E-002   -9.318226107893673E-044
 -1.580000000000000E-002   -1.146105512373286E-043
 -1.570000000000000E-002   -1.276130231789006E-043
 -1.560000000000000E-002   -1.234239469282051E-043
 -1.550000000000000E-002   -9.416655557404704E-044
 -1.540000000000000E-002   -3.204614972285460E-044
 -1.530000000000000E-002    7.088990522274867E-044
 -1.520000000000000E-002    2.183694283830783E-043
 -1.510000000000000E-002    4.090021813180356E-043
 -1.500000000000000E-002    6.307588068389033E-043
 -1.490000000000000E-002    8.613445479949945E-043
 -1.480000000000000E-002    1.064144108986928E-042
 -1.470000000000000E-002    1.187202064947684E-042
 -1.460000000000000E-002    1.164862015272239E-042
 -1.450000000000000E-002    9.200733011175352E-043
 -1.440000000000000E-002    3.771348964979299E-043
 -1.430000000000000E-002   -5.304758008380801E-043
 -1.420000000000000E-002   -1.838271008233633E-042
 -1.410000000000000E-002   -3.530482508047786E-042
 -1.400000000000000E-002   -5.515779814105329E-042
 -1.390000000000000E-002   -7.601263491548024E-042
 -1.380000000000000E-002   -9.474474699080355E-042
 -1.370000000000000E-002   -1.069431164198124E-041
 -1.360000000000000E-002   -1.070042965011577E-041
 -1.350000000000000E-002   -8.849880239432532E-042
 -1.340000000000000E-002   -4.485089546744092E-042
 -1.330000000000000E-002    2.961089112246828E-042
 -1.320000000000000E-002    1.382000411335217E-041
 -1.310000000000000E-002    2.800876194833231E-041
 -1.300000000000000E-002    4.483411757754797E-041
 -1.290000000000000E-002    6.279819853810253E-041
 -1.280000000000000E-002    7.944378284910813E-041
 -1.270000000000000E-002    9.128912872157454E-041
 -1.260000000000000E-002    9.389828245436241E-041
 -1.250000000000000E-002    8.214829491683869E-041
 -1.240000000000000E-002    5.074472920158104E-041
 -1.230000000000000E-002   -4.976406813765089E-042
 -1.220000000000000E-002   -8.796303994234159E-041
 -1.210000000000000E-002   -1.981139064597302E-040
 -1.200000000000000E-002   -3.308029873185642E-040
 -1.190000000000000E-002   -4.754351417072762E-040
 -1.180000000000000E-002   -6.142877197005440E-040
 -1.170000000000000E-002   -7.219698338253023E-040
 -1.160000000000000E-002   -7.658715932960916E-040
 -1.150000000000000E-002   -7.080122386377008E-040
 -1.140000000000000E-002   -5.086320737371315E-040
 -1.130000000000000E-002   -1.317731154871029E-040
 -1.120000000000000E-002    4.471397379374221E-040
 -1.110000000000000E-002    1.232000170175316E-039
 -1.100000000000000E-002    2.195715201101110E-039
 -1.090000000000000E-002    3.270090441028484E-039
 -1.080000000000000E-002    4.337604272490467E-039
 -1.070000000000000E-002    5.227262054306277E-039
 -1.060000000000000E-002    5.717036926001385E-039
 -1.050000000000000E-002    5.545506152634577E-039
 -1.040000000000000E-002    4.434976546644141E-039
 -1.030000000000000E-002    2.127619550898637E-039
 -1.020000000000000E-002   -1.565270467735843E-039
 -1.010000000000000E-002   -6.702790557739602E-039
 -1.000000000000000E-002   -1.314720881797642E-038
 -9.899999999999999E-003   -2.049753545024704E-038
 -9.800000000000000E-003   -2.803461394731638E-038
 -9.699999999999999E-003   -3.469128789186028E-038
 -9.599999999999999E-003   -3.906321089422583E-038
 -9.500000000000000E-003   -3.947622624857253E-038
 -9.399999999999999E-003   -3.412446097520498E-038
 -9.299999999999999E-003   -2.128828136395229E-038
 -9.200000000000000E-003    3.671379628528637E-040
 -9.099999999999999E-003    3.142374276791568E-038
 -8.999999999999999E-003    7.129976877299632E-038
 -8.900000000000000E-003    1.178405325171074E-037
 -8.799999999999999E-003    1.669734635281067E-037
 -8.699999999999999E-003    2.125066692357746E-037
 -8.600000000000000E-003    2.461610494610087E-037
 -8.499999999999999E-003    2.579289493361103E-037
 -8.399999999999999E-003    2.368394990789552E-037
 -8.300000000000000E-003    1.721845248946773E-037
 -8.199999999999999E-003    5.521139072717082E-038
 -8.100000000000000E-003   -1.187795883712286E-037
 -8.000000000000000E-003   -3.480789748808029E-037
 -7.899999999999999E-003   -6.221975509043674E-037
 -7.800000000000000E-003   -9.198257927865738E-037
 -7.699999999999999E-003   -1.207555096723285E-036
 -7.599999999999999E-003   -1.439854700585303E-036
 -7.499999999999999E-003   -1.560806342744345E-036
 -7.399999999999999E-003   -1.508036800054845E-036
 -7.299999999999999E-003   -1.219148901279664E-036
 -7.199999999999999E-003   -6.406852098422073E-037
 -7.100000000000000E-003    2.606703465030104E-037
 -6.999999999999999E-003    1.485415103889646E-036
 -6.899999999999999E-003    2.988320077231623E-036
 -6.800000000000000E-003    4.667067995230891E-036
 -6.699999999999999E-003    6.354645925446801E-036
 -6.599999999999999E-003    7.818024080933129E-036
 -6.499999999999999E-003    8.765695787474683E-036
 -6.399999999999999E-003    8.866343344383578E-036
 -6.299999999999999E-003    7.780185381373432E-036
 -6.199999999999999E-003    5.203302466062734E-036
 -6.100000000000000E-003    9.235312536700350E-037
 -5.999999999999999E-003   -5.115646868300054E-036
 -5.899999999999999E-003   -1.274925401904385E-035
 -5.800000000000000E-003   -2.153148336328520E-035
 -5.699999999999999E-003   -3.069356798124515E-035
 -5.599999999999999E-003   -3.913097008923435E-035
 -5.499999999999999E-003   -4.543223033882407E-035
 -5.399999999999999E-003   -4.796056474095702E-035
 -5.299999999999999E-003   -4.499567051403857E-035
 -5.199999999999999E-003   -3.493776463418786E-035
 -5.099999999999999E-003   -1.656770995592187E-035
 -4.999999999999999E-003    1.065264749342718E-035
 -4.899999999999999E-003    4.626697511136420E-035
 -4.799999999999999E-003    8.853602416056652E-035
 -4.699999999999999E-003    1.342223420373072E-034
 -4.599999999999999E-003    1.785023794380645E-034
 -4.499999999999999E-003    2.150622021248602E-034
 -4.399999999999999E-003    2.364257859774244E-034
 -4.299999999999999E-003    2.345508588878650E-034
 -4.199999999999999E-003    2.017025829875476E-034
 -4.099999999999999E-003    1.315798707398526E-034
 -3.999999999999999E-003    2.062842051954973E-035
 -3.899999999999999E-003   -1.305743030928288E-034
 -3.799999999999999E-003   -3.160232757883383E-034
 -3.699999999999999E-003   -5.232818849568310E-034
 -3.599999999999999E-003   -7.329981677960965E-034
 -3.499999999999999E-003   -9.191757705455561E-034
 -3.399999999999999E-003   -1.050406312674669E-033
 -3.299999999999999E-003   -1.092207167506485E-033
 -3.199999999999999E-003   -1.010510711258381E-033
 -3.099999999999999E-003   -7.762046196885656E-034
 -2.999999999999999E-003   -3.704582808728544E-034
 -2.899999999999999E-003    2.096236603480787E-034
 -2.799999999999999E-003    9.456622740035233E-034
 -2.699999999999999E-003    1.793781317246048E-033
 -2.599999999999999E-003    2.682401707644768E-033
 -2.499999999999999E-003    3.512957378248026E-033
 -2.399999999999999E-003    4.164333320980563E-033
 -2.299999999999999E-003    4.501571123056423E-033
 -2.199999999999999E-003    4.388979858945261E-033
 -2.099999999999999E-003    3.707258085102890E-033
 -1.999999999999999E-003    2.373570949207397E-033
 -1.899999999999999E-003    3.628275903957238E-034
 -1.799999999999999E-003   -2.272286236990558E-033
 -1.699999999999999E-003   -5.385511684225494E-033
 -1.599999999999999E-003   -8.728765166288898E-033
 -1.499999999999999E-003   -1.195471987452271E-032
 -1.399999999999999E-003   -1.463300106862605E-032
 -1.299999999999999E-003   -1.628178094635838E-032
 -1.199999999999999E-003   -1.641501836724508E-032
 -1.099999999999999E-003   -1.460356997064045E-032
 -9.999999999999989E-004   -1.054603378468234E-032
 -8.999999999999990E-004   -4.142676759575151E-033
 -7.999999999999990E-004    4.436477345835731E-033
 -6.999999999999989E-004    1.470010096178055E-032
 -5.999999999999990E-004    2.581208597042238E-032
 -4.999999999999989E-004    3.660710279743473E-032
 -3.999999999999989E-004    4.565400299549104E-032
 -2.999999999999989E-004    5.137185291609934E-032
 -1.999999999999989E-004    5.219762764052609E-032
 -9.999999999999892E-005    4.679722114201286E-032
  1.084202172485504E-018    3.430312821089752E-032
  1.000000000000011E-004    1.455389538526730E-032
  2.000000000000011E-004   -1.169687169202193E-032
  3.000000000000011E-004   -4.263912437143971E-032
  4.000000000000011E-004   -7.537074460205888E-032
  5.000000000000011E-004   -1.060023628113827E-031
  6.000000000000011E-004   -1.299269941970836E-031
  7.000000000000011E-004   -1.422634916958845E-031
  8.000000000000011E-004   -1.384607054559268E-031
  9.000000000000012E-004   -1.150230444076385E-031
  1.000000000000001E-003   -7.028994946654632E-032
  1.100000000000001E-003   -5.174946079016145E-033
  1.200000000000001E-003    7.625176710840660E-032
  1.300000000000001E-003    1.664648294720028E-031
  1.400000000000001E-003    2.545929244230770E-031
  1.500000000000001E-003    3.270392743485837E-031
  1.600000000000001E-003    3.686732208044122E-031
  1.700000000000001E-003    3.645899238546580E-031
  1.800000000000001E-003    3.023553050129919E-031
  1.900000000000001E-003    1.745572601122110E-031
  2.000000000000001E-003   -1.860836582100584E-032
  2.100000000000001E-003   -2.670774565296702E-031
  2.200000000000001E-003   -5.494011412996552E-031
  2.300000000000001E-003   -8.324132882938285E-031
  2.400000000000001E-003   -1.072484944981181E-030
  2.500000000000001E-003   -1.218665946924271E-030
  2.600000000000001E-003   -1.217839029704997E-030
  2.700000000000001E-003   -1.021769736961005E-030
  2.800000000000001E-003   -5.956274055394451E-031
  2.900000000000001E-003    7.276663620968960E-032
  3.000000000000001E-003    9.640441688744637E-031
  3.100000000000001E-003    2.020095135893300E-030
  3.200000000000001E-003    3.140087867188550E-030
  3.300000000000001E-003    4.181236631312741E-030
  3.400000000000001E-003    4.965645781674249E-030
  3.500000000000001E-003    5.294126199927091E-030
  3.600000000000001E-003    4.967210924024864E-030
  3.700000000000001E-003    3.812653097065487E-030
  3.800000000000001E-003    1.717643292827582E-030
  3.900000000000001E-003   -1.337208427450651E-030
  4.000000000000001E-003   -5.246167985402837E-030
  4.100000000000001E-003   -9.753880540304198E-030
  4.200000000000001E-003   -1.444349314646123E-029
  4.300000000000001E-003   -1.874271869349938E-029
  4.400000000000001E-003   -2.195230222952059E-029
  4.500000000000001E-003   -2.329977624135602E-029
  4.600000000000002E-003   -2.201874256427599E-029
  4.700000000000001E-003   -1.745090530056135E-029
  4.800000000000001E-003   -9.163980604160574E-030
  4.900000000000002E-003    2.925078601941825E-030
  5.000000000000001E-003    1.843598753309801E-029
  5.100000000000001E-003    3.643746956043477E-029
  5.200000000000001E-003    5.540477511484966E-029
  5.300000000000002E-003    7.324051916271864E-029
  5.400000000000001E-003    8.737419981365673E-029
  5.500000000000001E-003    9.494952072648965E-029
  5.600000000000002E-003    9.310064320708146E-029
  5.700000000000001E-003    7.930698315564215E-029
  5.800000000000001E-003    5.180376267115366E-029
  5.900000000000002E-003    1.001231885023526E-029
  6.000000000000001E-003   -4.505823631982300E-029
  6.100000000000001E-003   -1.104956256034933E-028
  6.200000000000002E-003   -1.813175693851771E-028
  6.300000000000002E-003   -2.505141405584299E-028
  6.400000000000001E-003   -3.093497574083155E-028
  6.500000000000001E-003   -3.479567258552353E-028
  6.600000000000002E-003   -3.562243238113253E-028
  6.700000000000001E-003   -3.249525567763077E-028
  6.800000000000001E-003   -2.471986301970498E-028
  6.900000000000002E-003   -1.197030810813940E-028
  7.000000000000001E-003    5.575769803770582E-029
  7.100000000000001E-003    2.712746426178506E-028
  7.200000000000002E-003    5.121627048963441E-028
  7.300000000000002E-003    7.569634825967642E-028
  7.400000000000001E-003    9.782568121446474E-028
  7.500000000000001E-003    1.144387398012752E-027
  7.600000000000002E-003    1.222126341196959E-027
  7.700000000000001E-003    1.180183655935269E-027
  7.800000000000001E-003    9.933623876624333E-028
  7.900000000000001E-003    6.470153106722895E-028
  8.000000000000002E-003    1.413514098691946E-028
  8.100000000000001E-003   -5.049580324549459E-028
  8.200000000000001E-003   -1.252468859053517E-027
  8.300000000000002E-003   -2.040534077293396E-027
  8.400000000000001E-003   -2.789254754960125E-027
  8.500000000000002E-003   -3.404146358061362E-027
  8.600000000000002E-003   -3.783616415454381E-027
  8.700000000000001E-003   -3.829031738203291E-027
  8.800000000000002E-003   -3.456797873547083E-027
  8.900000000000002E-003   -2.611505286910193E-027
  9.000000000000001E-003   -1.278847072133737E-027
  9.100000000000002E-003    5.032592542500277E-028
  9.200000000000002E-003    2.637056208790467E-027
  9.300000000000001E-003    4.962526995424684E-027
  9.400000000000002E-003    7.261633549075125E-027
  9.500000000000001E-003    9.270219389835109E-027
  9.600000000000001E-003    1.069792226975290E-026
  9.700000000000002E-003    1.125554227601475E-026
  9.800000000000001E-003    1.068838295180405E-026
  9.900000000000001E-003    8.812965871278692E-027
  1.000000000000000E-002    5.553625002426106E-027
  1.010000000000000E-002    9.746938849445297E-028
  1.020000000000000E-002   -4.696404148327366E-027
  1.030000000000000E-002   -1.105983190336141E-026
  1.040000000000000E-002   -1.755182333964162E-026
  1.050000000000000E-002   -2.347384942918546E-026
  1.060000000000000E-002   -2.804348228420086E-026
  1.070000000000000E-002   -3.046576029083037E-026
  1.080000000000000E-002   -3.002107037815472E-026
  1.090000000000000E-002   -2.616294642220663E-026
  1.100000000000000E-002   -1.861650808623070E-026
  1.110000000000000E-002   -7.466297681617606E-027
  1.120000000000000E-002    6.778849432993855E-027
  1.130000000000000E-002    2.315619782993444E-026
  1.140000000000000E-002    4.026549081913699E-026
  1.150000000000000E-002    5.633895344839667E-026
  1.160000000000000E-002    6.936778616297423E-026
  1.170000000000000E-002    7.728216788361762E-026
  1.180000000000000E-002    7.817485977498803E-026
  1.190000000000000E-002    7.055141736496574E-026
  1.200000000000000E-002    5.358344797187272E-026
  1.210000000000000E-002    2.733629205904137E-026
  1.220000000000000E-002   -7.060429872856029E-027
  1.230000000000000E-002   -4.733052981963101E-026
  1.240000000000000E-002   -9.008446108642901E-026
  1.250000000000000E-002   -1.309872438386703E-025
  1.260000000000000E-002   -1.650682253268981E-025
  1.270000000000000E-002   -1.871652926015784E-025
  1.280000000000000E-002   -1.924783214721659E-025
  1.290000000000000E-002   -1.771894657677801E-025
  1.300000000000000E-002   -1.390913622211328E-025
  1.310000000000000E-002   -7.815232837670358E-026
  1.320000000000000E-002    3.059760090779856E-027
  1.330000000000000E-002    9.917123590745851E-026
  1.340000000000000E-002    2.020805152899552E-025
  1.350000000000000E-002    3.013660610795804E-025
  1.360000000000000E-002    3.850410138910941E-025
  1.370000000000000E-002    4.406337858848553E-025
  1.380000000000000E-002    4.565318320967320E-025
  1.390000000000000E-002    4.234832486169072E-025
  1.400000000000000E-002    3.361116934475995E-025
  1.410000000000000E-002    1.942714454274917E-025
  1.420000000000000E-002    4.053843975824103E-027
  1.430000000000000E-002   -2.217380394941395E-025
  1.440000000000000E-002   -4.638029030913391E-025
  1.450000000000000E-002   -6.973497377491735E-025
  1.460000000000000E-002   -8.939335213865207E-025
  1.470000000000000E-002   -1.024062305466867E-024
  1.480000000000000E-002   -1.060417519153114E-024
  1.490000000000000E-002   -9.814275962165095E-025
  1.500000000000000E-002   -7.748460952453464E-025
  1.510000000000000E-002   -4.409174709637878E-025
  1.520000000000000E-002    5.316138455291920E-027
  1.530000000000000E-002    5.329974255664337E-025
  1.540000000000000E-002    1.096086037519946E-024
  1.550000000000000E-002    1.635876422644874E-024
  1.560000000000000E-002    2.085462012452207E-024
  1.570000000000000E-002    2.375985156817299E-024
  1.580000000000000E-002    2.444284339929066E-024
  1.590000000000000E-002    2.241299839041457E-024
  1.600000000000000E-002    1.740405073412855E-024
  1.610000000000000E-002    9.446753128829940E-025
  1.620000000000000E-002   -1.079504877220525E-025
  1.630000000000000E-002   -1.342609866368085E-024
  1.640000000000000E-002   -2.649372332627998E-024
  1.650000000000000E-002   -3.889523763483254E-024
  1.660000000000000E-002   -4.906368583582948E-024
  1.670000000000000E-002   -5.540122926869893E-024
  1.680000000000000E-002   -5.645929906753828E-024
  1.690000000000000E-002   -5.113469759830072E-024
  1.700000000000000E-002   -3.886182762694076E-024
  1.710000000000000E-002   -1.977795960981976E-024
  1.720000000000000E-002    5.162671592280241E-025
  1.730000000000000E-002    3.414856873470054E-024
  1.740000000000000E-002    6.456276752159069E-024
  1.750000000000000E-002    9.313764896424282E-024
  1.760000000000000E-002    1.162136056878952E-023
  1.770000000000000E-002    1.300908161289409E-023
  1.780000000000000E-002    1.314501977872148E-023
  1.790000000000000E-002    1.178076390885743E-023
  1.800000000000000E-002    8.795496579858380E-024
  1.810000000000000E-002    4.233418614742068E-024
  1.820000000000000E-002   -1.671025055755534E-024
  1.830000000000000E-002   -8.485257312540666E-024
  1.840000000000000E-002   -1.559207313062350E-023
  1.850000000000000E-002   -2.222686887059533E-023
  1.860000000000000E-002   -2.753860834688561E-023
  1.870000000000000E-002   -3.067178683461782E-023