 -4.000000000000000E-002    0.000000000000000E+000
 -3.990000000000000E-002    0.000000000000000E+000
 -3.980000000000000E-002    0.000000000000000E+000
 -3.970000000000000E-002    0.000000000000000E+000
 -3.960000000000000E-002    0.000000000000000E+000
 -3.950000000000000E-002    0.000000000000000E+000
 -3.940000000000000E-002    0.000000000000000E+000
 -3.930000000000000E-002    0.000000000000000E+000
 -3.920000000000000E-002    0.000000000000000E+000
 -3.910000000000000E-002    0.000000000000000E+000
 -3.900000000000000E-002    0.000000000000000E+000
 -3.890000000000000E-002    0.000000000000000E+000
 -3.880000000000000E-002    0.000000000000000E+000
 -3.870000000000000E-002    0.000000000000000E+000
 -3.860000000000000E-002    0.000000000000000E+000
 -3.850000000000000E-002    0.000000000000000E+000
 -3.840000000000000E-002    0.000000000000000E+000
 -3.830000000000000E-002    0.000000000000000E+000
 -3.820000000000000E-002    0.000000000000000E+000
 -3.810000000000000E-002    0.000000000000000E+000
 -3.800000000000000E-002    0.000000000000000E+000
 -3.790000000000000E-002    0.000000000000000E+000
 -3.780000000000000E-002    0.000000000000000E+000
 -3.770000000000000E-002    0.000000000000000E+000
 -3.760000000000000E-002    0.000000000000000E+000
 -3.750000000000000E-002    0.000000000000000E+000
 -3.740000000000000E-002    0.000000000000000E+000
 -3.730000000000000E-002    0.000000000000000E+000
 -3.720000000000000E-002    0.000000000000000E+000
 -3.710000000000000E-002    0.000000000000000E+000
 -3.700000000000000E-002    0.000000000000000E+000
 -3.690000000000000E-002    0.000000000000000E+000
 -3.680000000000000E-002    0.000000000000000E+000
 -3.670000000000000E-002    0.000000000000000E+000
 -3.660000000000000E-002    0.000000000000000E+000
 -3.650000000000000E-002    0.000000000000000E+000
 -3.640000000000000E-002    0.000000000000000E+000
 -3.630000000000000E-002    0.000000000000000E+000
 -3.620000000000000E-002    0.000000000000000E+000
 -3.610000000000000E-002    0.000000000000000E+000
 -3.600000000000000E-002    0.000000000000000E+000
 -3.590000000000000E-002    0.000000000000000E+000
 -3.580000000000000E-002    0.000000000000000E+000
 -3.570000000000000E-002    0.000000000000000E+000
 -3.560000000000000E-002    0.000000000000000E+000
 -3.550000000000000E-002    0.000000000000000E+000
 -3.540000000000000E-002    0.000000000000000E+000
 -3.530000000000000E-002    0.000000000000000E+000
 -3.520000000000000E-002    0.000000000000000E+000
 -3.510000000000000E-002    0.000000000000000E+000
 -3.500000000000000E-002    0.000000000000000E+000
 -3.490000000000000E-002    0.000000000000000E+000
 -3.480000000000000E-002    0.000000000000000E+000
 -3.470000000000000E-002    0.000000000000000E+000
 -3.460000000000000E-002    0.000000000000000E+000
 -3.450000000000000E-002    0.000000000000000E+000
 -3.440000000000000E-002    0.000000000000000E+000
 -3.430000000000000E-002    0.000000000000000E+000
 -3.420000000000000E-002    0.000000000000000E+000
 -3.410000000000000E-002    0.000000000000000E+000
 -3.400000000000000E-002    0.000000000000000E+000
 -3.390000000000000E-002    0.000000000000000E+000
 -3.380000000000000E-002    0.000000000000000E+000
 -3.370000000000000E-002    0.000000000000000E+000
 -3.360000000000000E-002    0.000000000000000E+000
 -3.350000000000000E-002    0.000000000000000E+000
 -3.340000000000000E-002    0.000000000000000E+000
 -3.330000000000000E-002    0.000000000000000E+000
 -3.320000000000000E-002    0.000000000000000E+000
 -3.310000000000000E-002    0.000000000000000E+000
 -3.300000000000000E-002    0.000000000000000E+000
 -3.290000000000000E-002    0.000000000000000E+000
 -3.280000000000000E-002    0.000000000000000E+000
 -3.270000000000000E-002    0.000000000000000E+000
 -3.260000000000000E-002    0.000000000000000E+000
 -3.250000000000000E-002    0.000000000000000E+000
 -3.240000000000000E-002    0.000000000000000E+000
 -3.230000000000000E-002    0.000000000000000E+000
 -3.220000000000000E-002    0.000000000000000E+000
 -3.210000000000000E-002    0.000000000000000E+000
 -3.200000000000000E-002    0.000000000000000E+000
 -3.190000000000000E-002    0.000000000000000E+000
 -3.180000000000000E-002    0.000000000000000E+000
 -3.170000000000000E-002    0.000000000000000E+000
 -3.160000000000000E-002    0.000000000000000E+000
 -3.150000000000000E-002    0.000000000000000E+000
 -3.140000000000000E-002    0.000000000000000E+000
 -3.130000000000000E-002    0.000000000000000E+000
 -3.120000000000000E-002    0.000000000000000E+000
 -3.110000000000000E-002    0.000000000000000E+000
 -3.100000000000000E-002    0.000000000000000E+000
 -3.090000000000000E-002    0.000000000000000E+000
 -3.080000000000000E-002    0.000000000000000E+000
 -3.070000000000000E-002    0.000000000000000E+000
 -3.060000000000000E-002    0.000000000000000E+000
 -3.050000000000000E-002    0.000000000000000E+000
 -3.040000000000000E-002    0.000000000000000E+000
 -3.030000000000000E-002    0.000000000000000E+000
 -3.020000000000000E-002    0.000000000000000E+000
 -3.010000000000000E-002    0.000000000000000E+000
 -3.000000000000000E-002    0.000000000000000E+000
 -2.990000000000000E-002    0.000000000000000E+000
 -2.980000000000000E-002    0.000000000000000E+000
 -2.970000000000000E-002    0.000000000000000E+000
 -2.960000000000000E-002    0.000000000000000E+000
 -2.950000000000000E-002    0.000000000000000E+000
 -2.940000000000000E-002    0.000000000000000E+000
 -2.930000000000000E-002    0.000000000000000E+000
 -2.920000000000000E-002    0.000000000000000E+000
 -2.910000000000000E-002    0.000000000000000E+000
 -2.900000000000000E-002    0.000000000000000E+000
 -2.890000000000000E-002    0.000000000000000E+000
 -2.880000000000000E-002    0.000000000000000E+000
 -2.870000000000000E-002    0.000000000000000E+000
 -2.860000000000000E-002    0.000000000000000E+000
 -2.850000000000000E-002    0.000000000000000E+000
 -2.840000000000000E-002    0.000000000000000E+000
 -2.830000000000000E-002    0.000000000000000E+000
 -2.820000000000000E-002    1.924390591266381E-047
 -2.810000000000000E-002    5.793193039233079E-047
 -2.800000000000000E-002    2.200997268869168E-047
 -2.790000000000000E-002    5.331920897716380E-048
 -2.780000000000000E-002   -1.134613089325892E-047
 -2.770000000000000E-002   -4.746830125123739E-047
 -2.760000000000000E-002   -1.733953658683136E-046
 -2.750000000000000E-002   -3.277470384783028E-046
 -2.740000000000000E-002   -4.566675944758997E-046
 -2.730000000000000E-002   -1.822334269465309E-046
 -2.720000000000000E-002    1.653275830509603E-046
 -2.710000000000000E-002   -3.650007593994161E-046
 -2.700000000000000E-002   -5.303771786070064E-046
 -2.690000000000000E-002   -1.030885762512324E-045
 -2.680000000000000E-002   -1.782708614901661E-045
 -2.670000000000000E-002   -3.067282868015267E-045
 -2.660000000000000E-002   -4.354159012856231E-045
 -2.650000000000000E-002   -5.625639143442604E-045
 -2.640000000000000E-002   -7.433351313391357E-045
 -2.630000000000000E-002   -8.579462962388906E-045
 -2.620000000000000E-002   -8.558091977028273E-045
 -2.610000000000000E-002   -6.837938619135094E-045
 -2.600000000000000E-002   -1.168891386481310E-045
 -2.590000000000000E-002    1.012261357375742E-044
 -2.580000000000000E-002    3.016057323576511E-044
 -2.570000000000000E-002    6.074972030216888E-044
 -2.560000000000000E-002    1.033611049006349E-043
 -2.550000000000000E-002    1.584325822515631E-043
 -2.540000000000000E-002    2.248122417202284E-043
 -2.530000000000000E-002    2.960729468153506E-043
 -2.520000000000000E-002    3.586387824371058E-043
 -2.510000000000000E-002    3.919392534475465E-043
 -2.500000000000000E-002    3.646626416865789E-043
 -2.490000000000000E-002    2.354459596651354E-043
 -2.480000000000000E-002   -5.064622867266052E-044
 -2.470000000000000E-002   -5.517316624520612E-043
 -2.460000000000000E-002   -1.326068436108532E-042
 -2.450000000000000E-002   -2.418446180993722E-042
 -2.440000000000000E-002   -3.836363223308282E-042
 -2.430000000000000E-002   -5.528201666019258E-042
 -2.420000000000000E-002   -7.341020740292803E-042
 -2.410000000000000E-002   -8.987232941852778E-042
 -2.400000000000000E-002   -1.000222180147206E-041
 -2.390000000000000E-002   -9.717524863501357E-042
 -2.380000000000000E-002   -7.253526880636775E-042
 -2.370000000000000E-002   -1.548446157509290E-042
 -2.360000000000000E-002    8.546593979831464E-042
 -2.350000000000000E-002    2.409741201346886E-041
 -2.340000000000000E-002    4.581156644808647E-041
 -2.330000000000000E-002    7.365228680283014E-041
 -2.320000000000000E-002    1.063386935316149E-040
 -2.310000000000000E-002    1.407634180627169E-040
 -2.300000000000000E-002    1.713915220276922E-040
 -2.290000000000000E-002    1.897429200329106E-040
 -2.280000000000000E-002    1.841201438574620E-040
 -2.270000000000000E-002    1.398012716689708E-040
 -2.260000000000000E-002    3.995086370259518E-041
 -2.250000000000000E-002   -1.324696394960641E-040
 -2.240000000000000E-002   -3.915264341583736E-040
 -2.230000000000000E-002   -7.437127513567990E-040
 -2.220000000000000E-002   -1.181909143041443E-039
 -2.210000000000000E-002   -1.678212608283629E-039
 -2.200000000000000E-002   -2.176312710424955E-039
 -2.190000000000000E-002   -2.584628157845978E-039
 -2.180000000000000E-002   -2.771991638347859E-039
 -2.170000000000000E-002   -2.568297149037340E-039
 -2.160000000000000E-002   -1.772961865050672E-039
 -2.150000000000000E-002   -1.743275404844465E-040
 -2.140000000000000E-002    2.417184472516604E-039
 -2.130000000000000E-002    6.120267568933083E-039
 -2.120000000000000E-002    1.091834249605787E-038
 -2.110000000000000E-002    1.658255242394524E-038
 -2.100000000000000E-002    2.258944903225662E-038
 -2.090000000000000E-002    2.804574478818229E-038
 -2.080000000000000E-002    3.163858837750545E-038
 -2.070000000000000E-002    3.163540449735482E-038
 -2.060000000000000E-002    2.596201871392672E-038
 -2.050000000000000E-002    1.238917461761342E-038
 -2.040000000000000E-002   -1.114515545621810E-038
 -2.030000000000000E-002   -4.606101709063477E-038
 -2.020000000000000E-002   -9.251084235693475E-038
 -2.010000000000000E-002   -1.486342790797295E-037
 -2.000000000000000E-002   -2.097639821446611E-037
 -1.990000000000000E-002   -2.677018531391438E-037
 -1.980000000000000E-002   -3.102379652392718E-037
 -1.970000000000000E-002   -3.211342948411017E-037
 -1.960000000000000E-002   -2.808323856045946E-037
 -1.950000000000000E-002   -1.681553859377781E-037
 -1.940000000000000E-002    3.676515243439098E-038
 -1.930000000000000E-002    3.481983215561231E-037
 -1.920000000000000E-002    7.691961420344984E-037
 -1.910000000000000E-002    1.284945583453418E-036
 -1.900000000000000E-002    1.855726102570293E-036
 -1.890000000000000E-002    2.410522970167134E-036
 -1.880000000000000E-002    2.842781751437221E-036
 -1.870000000000000E-002    3.010188635274293E-036
 -1.860000000000000E-002    2.740630243142650E-036
 -1.850000000000000E-002    1.846540590461119E-036
 -1.840000000000000E-002    1.494588447774164E-037
 -1.830000000000000E-002   -2.484159242466846E-036
 -1.820000000000000E-002   -6.096296470639842E-036
 -1.810000000000000E-002   -1.058246705624789E-035
 -1.800000000000000E-002   -1.563371515248152E-035
 -1.790000000000000E-002   -2.068398939324231E-035
 -1.780000000000000E-002   -2.487460273056785E-035
 -1.770000000000000E-002   -2.705035178947707E-035
 -1.760000000000000E-002   -2.580400394771680E-035
 -1.750000000000000E-002   -1.958541084804748E-035
 -1.740000000000000E-002   -6.889102287727790E-036
 -1.730000000000000E-002    1.347259477508373E-035
 -1.720000000000000E-002    4.201456748584157E-035
 -1.710000000000000E-002    7.816147713963230E-035
 -1.700000000000000E-002    1.198065290656587E-034
 -1.690000000000000E-002    1.629080151852969E-034
 -1.680000000000000E-002    2.012079896680684E-034
 -1.670000000000000E-002    2.261771027524306E-034
 -1.660000000000000E-002    2.273018737167755E-034
 -1.650000000000000E-002    1.928287907197331E-034
 -1.640000000000000E-002    1.110576856414012E-034
 -1.630000000000000E-002   -2.776705219383178E-035
 -1.620000000000000E-002   -2.289960615972873E-034
 -1.610000000000000E-002   -4.906779082494439E-034
 -1.600000000000000E-002   -8.004851498570854E-034
 -1.590000000000000E-002   -1.132874765068150E-033
 -1.580000000000000E-002   -1.447035618633922E-033
 -1.570000000000000E-002   -1.686301031917035E-033
 -1.560000000000000E-002   -1.779773294922279E-033
 -1.550000000000000E-002   -1.646887252851671E-033
 -1.540000000000000E-002   -1.205495573493232E-033
 -1.530000000000000E-002   -3.837649673152074E-034
 -1.520000000000000E-002    8.643000460893453E-034
 -1.510000000000000E-002    2.540536786997755E-033
 -1.500000000000000E-002    4.583119035494139E-033
 -1.490000000000000E-002    6.848365720132761E-033
 -1.480000000000000E-002    9.097203138380245E-033
 -1.470000000000000E-002    1.099032728955207E-032
 -1.460000000000000E-002    1.209648044445766E-032
 -1.450000000000000E-002    1.191806097611937E-032
 -1.440000000000000E-002    9.937446616385461E-033
 -1.430000000000000E-002    5.685583922899350E-033
 -1.420000000000000E-002   -1.168299515334924E-033
 -1.410000000000000E-002   -1.071065223330086E-032
 -1.400000000000000E-002   -2.267055309994367E-032
 -1.390000000000000E-002   -3.631365366559270E-032
 -1.380000000000000E-002   -5.036187197266133E-032
 -1.370000000000000E-002   -6.296104758561901E-032
 -1.360000000000000E-002   -7.172067506064553E-032
 -1.350000000000000E-002   -7.384840584417601E-032
 -1.340000000000000E-002   -6.639697304930032E-032
 -1.330000000000000E-002   -4.663134598984731E-032
 -1.320000000000000E-002   -1.250903268873806E-032
 -1.310000000000000E-002    3.675275692698552E-032
 -1.300000000000000E-002    1.000731015003858E-031
 -1.290000000000000E-002    1.739404256105314E-031
 -1.280000000000000E-002    2.519802044528605E-031
 -1.270000000000000E-002    3.247717736805009E-031
 -1.260000000000000E-002    3.800362426226933E-031
 -1.250000000000000E-002    4.033089648805173E-031
 -1.240000000000000E-002    3.791825048819885E-031
 -1.230000000000000E-002    2.931534460780277E-031
 -1.220000000000000E-002    1.340336064289285E-031
 -1.210000000000000E-002   -1.032135738528085E-031
 -1.200000000000000E-002   -4.144618140945164E-031
 -1.190000000000000E-002   -7.836053924711987E-031
 -1.180000000000000E-002   -1.180413744721697E-030
 -1.170000000000000E-002   -1.559611431654607E-030
 -1.160000000000000E-002   -1.861764323154434E-030
 -1.150000000000000E-002   -2.016501505488024E-030
 -1.140000000000000E-002   -1.948462020028903E-030
 -1.130000000000000E-002   -1.586101006122360E-030
 -1.120000000000000E-002   -8.731347141999116E-031
 -1.110000000000000E-002    2.180565200490748E-031
 -1.100000000000000E-002    1.672270242344356E-030
 -1.090000000000000E-002    3.418296678652446E-030
 -1.080000000000000E-002    5.318913455281355E-030
 -1.070000000000000E-002    7.166600908838896E-030
 -1.060000000000000E-002    8.687576210859527E-030
 -1.050000000000000E-002    9.556486732999698E-030
 -1.040000000000000E-002    9.423450077468938E-030
 -1.030000000000000E-002    7.953896781350745E-030
 -1.020000000000000E-002    4.880128797249782E-030
 -1.010000000000000E-002    6.140807999715904E-032
 -1.000000000000000E-002   -6.452794507808412E-030
 -9.899999999999999E-003   -1.436413463323899E-029
 -9.800000000000000E-003   -2.308094369437719E-029
 -9.699999999999999E-003   -3.169892541740651E-029
 -9.599999999999999E-003   -3.901817924275797E-029
 -9.500000000000000E-003   -4.360634338661733E-029
 -9.399999999999999E-003   -4.391456961824792E-029
 -9.299999999999999E-003   -3.844813125152618E-029
 -9.200000000000000E-003   -2.598638523362756E-029
 -9.099999999999999E-003   -5.838364964759225E-030
 -8.999999999999999E-003    2.188894529649881E-029
 -8.900000000000000E-003    5.604195854289568E-029
 -8.799999999999999E-003    9.423138962566198E-029
 -8.699999999999999E-003    1.327475744575542E-028
 -8.600000000000000E-003    1.666251221541811E-028
 -8.499999999999999E-003    1.898959636496484E-028
 -8.399999999999999E-003    1.960571705522703E-028
 -8.300000000000000E-003    1.787586612572232E-028
 -8.199999999999999E-003    1.326886350140500E-028
 -8.100000000000000E-003    5.460075263829528E-029
 -8.000000000000000E-003   -5.560912456740987E-029
 -7.899999999999999E-003   -1.939042882989450E-028
 -7.800000000000000E-003   -3.513428023864954E-028
 -7.699999999999999E-003   -5.137208428512424E-028
 -7.599999999999999E-003   -6.617949280474275E-028
 -7.499999999999999E-003   -7.722311967817247E-028
 -7.399999999999999E-003   -8.193763998861314E-028
 -7.299999999999999E-003   -7.778661129582110E-028
 -7.199999999999999E-003   -6.259805425699792E-028
 -7.100000000000000E-003   -3.495309944769804E-028
 -6.999999999999999E-003    5.407188202179779E-029
 -6.899999999999999E-003    5.720450675264879E-028
 -6.800000000000000E-003    1.173333964220680E-027
 -6.699999999999999E-003    1.807217388740486E-027
 -6.599999999999999E-003    2.404039753116381E-027
 -6.499999999999999E-003    2.878585224317204E-027
 -6.399999999999999E-003    3.136425239708982E-027
 -6.299999999999999E-003    3.083266322910453E-027
 -6.199999999999999E-003    2.636945870142004E-027
 -6.100000000000000E-003    1.741283418850819E-027
 -5.999999999999999E-003    3.805185476025404E-028
 -5.899999999999999E-003   -1.407352882811630E-027
 -5.800000000000000E-003   -3.520376324385016E-027
 -5.699999999999999E-003   -5.787756640468320E-027
 -5.599999999999999E-003   -7.972398019682423E-027
 -5.499999999999999E-003   -9.782588296063362E-027
 -5.399999999999999E-003   -1.089386001164747E-026
 -5.299999999999999E-003   -1.098097813496352E-026
 -5.199999999999999E-003   -9.758737222792445E-027
 -5.099999999999999E-003   -7.028707847087567E-027
 -4.999999999999999E-003   -2.727554396151112E-027
 -4.899999999999999E-003    3.028865123419811E-027
 -4.799999999999999E-003    9.912405695016322E-027
 -4.699999999999999E-003    1.736776513212369E-026
 -4.599999999999999E-003    2.462258079218227E-026
 -4.499999999999999E-003    3.072788867846976E-026
 -4.399999999999999E-003    3.463178622213521E-026
 -4.299999999999999E-003    3.528562848291755E-026
 -4.199999999999999E-003    3.177772077645519E-026
 -4.099999999999999E-003    2.348458850458874E-026
 -3.999999999999999E-003    1.022495456315466E-026
 -3.899999999999999E-003   -7.602618913757376E-027
 -3.799999999999999E-003   -2.892043120158049E-026
 -3.699999999999999E-003   -5.193344021988336E-026
 -3.599999999999999E-003   -7.417308254605522E-026
 -3.499999999999999E-003   -9.263876564747150E-026
 -3.399999999999999E-003   -1.040441790159121E-025
 -3.299999999999999E-003   -1.051641601163811E-025
 -3.199999999999999E-003   -9.326319624468316E-026
 -3.099999999999999E-003   -6.657190290321842E-026
 -2.999999999999999E-003   -2.476229041487414E-026
 -2.899999999999999E-003    3.063950427658818E-026
 -2.799999999999999E-003    9.597233554541210E-026
 -2.699999999999999E-003    1.653610176249534E-025
 -2.599999999999999E-003    2.309015881407666E-025
 -2.499999999999999E-003    2.831548625315750E-025
 -2.399999999999999E-003    3.119640830642423E-025
 -2.299999999999999E-003    3.075755858306559E-025
 -2.199999999999999E-003    2.619957883108078E-025
 -2.099999999999999E-003    1.704720505516259E-025
 -1.999999999999999E-003    3.293910424524359E-026
 -1.899999999999999E-003   -1.447624068218426E-025
 -1.799999999999999E-003   -3.501087407812055E-025
 -1.699999999999999E-003   -5.637694347765327E-025
 -1.599999999999999E-003   -7.603192390973448E-025
 -1.499999999999999E-003   -9.099070055200032E-025
 -1.399999999999999E-003   -9.809149017479207E-025
 -1.299999999999999E-003   -9.435194322296196E-025
 -1.199999999999999E-003   -7.739357597157330E-025
 -1.099999999999999E-003   -4.589793500807902E-025
 -9.999999999999989E-004   -4.543435447342300E-028
 -8.999999999999990E-004    5.812294719097464E-025
 -7.999999999999990E-004    1.244854245796721E-024
 -6.999999999999989E-004    1.928237045198904E-024
 -5.999999999999990E-004    2.550646936737067E-024
 -4.999999999999989E-004    3.018135622900660E-024
 -3.999999999999989E-004    3.231841865480898E-024
 -2.999999999999989E-004    3.098972986879440E-024
 -1.999999999999989E-004    2.545774653480557E-024
 -9.999999999999892E-005    1.531369675083715E-024
  1.084202172485504E-018    6.098529721422941E-026
  1.000000000000011E-004   -1.803201398990592E-024
  2.000000000000011E-004   -3.935501397736728E-024
  3.000000000000011E-004   -6.146269018326249E-024
  4.000000000000011E-004   -8.189095286158443E-024
  5.000000000000011E-004   -9.776594732936876E-024
  6.000000000000011E-004   -1.060492580437846E-023
  7.000000000000011E-004   -1.038614820750768E-023
  8.000000000000011E-004   -8.886387063472554E-024
  9.000000000000012E-004   -5.966584553995970E-024
  1.000000000000001E-003   -1.621554710567491E-024
  1.100000000000001E-003    3.987683325181666E-024
  1.200000000000001E-003    1.051372882328650E-023
  1.300000000000001E-003    1.741993620912932E-023
  1.400000000000001E-003    2.399917893796894E-023
  1.500000000000001E-003    2.941693245499125E-023
  1.600000000000001E-003    3.277908547195624E-023
  1.700000000000001E-003    3.322208029419418E-023
  1.800000000000001E-003    3.001974457876685E-023
  1.900000000000001E-003    2.269804128244806E-023
  2.000000000000001E-003    1.114607880137597E-023
  2.100000000000001E-003   -4.290436026233128E-024
  2.200000000000001E-003   -2.274797092406216E-023
  2.300000000000001E-003   -4.283029458401515E-023
  2.400000000000001E-003   -6.265169928431370E-023
  2.500000000000001E-003   -7.994572835809055E-023
  2.600000000000001E-003   -9.224081746595418E-023
  2.700000000000001E-003   -9.709675816276558E-023
  2.800000000000001E-003   -9.238745345398919E-023
  2.900000000000001E-003   -7.660718711098769E-023
  3.000000000000001E-003   -4.917002263939405E-023
  3.100000000000001E-003   -1.066650607331908E-023
  3.200000000000001E-003    3.696053242663252E-023
  3.300000000000001E-003    9.035774626416788E-023
  3.400000000000001E-003    1.448512030631720E-022
  3.500000000000001E-003    1.947040661995507E-022
  3.600000000000001E-003    2.335464609769492E-022
  3.700000000000001E-003    2.549623418561936E-022
  3.800000000000001E-003    2.531980900708037E-022
  3.900000000000001E-003    2.239357587358828E-022
  4.000000000000001E-003    1.650553034556220E-022
  4.100000000000001E-003    7.729706282431543E-023
  4.200000000000001E-003   -3.527067104308066E-023
  4.300000000000001E-003   -1.650697556528857E-022
  4.400000000000001E-003   -3.011917890314903E-022
  4.500000000000001E-003   -4.299880053459954E-022
  4.600000000000002E-003   -5.360802374566165E-022
  4.700000000000001E-003   -6.037573603277357E-022
  4.800000000000001E-003   -6.186713157758050E-022
  4.900000000000002E-003   -5.696956427180643E-022
  5.000000000000001E-003   -4.507638363315362E-022
  5.100000000000001E-003   -2.624756936842280E-022
  5.200000000000001E-003   -1.324384620277916E-023
  5.300000000000002E-003    2.802349184844429E-022
  5.400000000000001E-003    5.933624149150859E-022
  5.500000000000001E-003    8.949884557701562E-022
  5.600000000000002E-003    1.149750692913512E-021
  5.700000000000001E-003    1.321316463365427E-021
  5.800000000000001E-003    1.376321757678966E-021
  5.900000000000002E-003    1.288680652905285E-021
  6.000000000000001E-003    1.043838672867735E-021
  6.100000000000001E-003    6.424717566686628E-022
  6.200000000000002E-003    1.031049835835510E-022
  6.300000000000002E-003   -5.368442955502958E-022
  6.400000000000001E-003   -1.222004262518685E-021
  6.500000000000001E-003   -1.882213848677019E-021
  6.600000000000002E-003   -2.437954937903948E-021
  6.700000000000001E-003   -2.807827049229418E-021
  6.800000000000001E-003   -2.917576518028874E-021
  6.900000000000002E-003   -2.709909639368800E-021
  7.000000000000001E-003   -2.154103840187970E-021
  7.100000000000001E-003   -1.254266303806601E-021
  7.200000000000002E-003   -5.504610701439395E-023
  7.300000000000002E-003    1.356316642145895E-021
  7.400000000000001E-003    2.852500455523934E-021
  7.500000000000001E-003    4.273692552644607E-021
  7.600000000000002E-003    5.440299439285561E-021
  7.700000000000001E-003    6.170223174757283E-021
  7.800000000000001E-003    6.299523182506104E-021
  7.900000000000001E-003    5.704695324457432E-021
  8.000000000000002E-003    4.324276113545320E-021
  8.100000000000001E-003    2.177168164981892E-021
  8.200000000000001E-003   -6.250137933461265E-022
  8.300000000000002E-003   -3.874071371999813E-021
  8.400000000000001E-003   -7.271779051554479E-021
  8.500000000000002E-003   -1.044798852742474E-020
  8.600000000000002E-003   -1.299025336339676E-020
  8.700000000000001E-003   -1.448365619435230E-020
  8.800000000000002E-003   -1.455807975723264E-020
  8.900000000000002E-003   -1.293884281326861E-020
  9.000000000000001E-003   -9.495532030783441E-021
  9.100000000000002E-003   -4.283132010445335E-021
  9.200000000000002E-003    2.430587288087193E-021
  9.300000000000001E-003    1.015697806168273E-020
  9.400000000000002E-003    1.820203389807607E-020
  9.500000000000001E-003    2.570796340844475E-020
  9.600000000000001E-003    3.172062930829531E-020
  9.700000000000002E-003    3.527988531047636E-020
  9.800000000000001E-003    3.552657931742612E-020
  9.900000000000001E-003    3.181710408931959E-020
  1.000000000000000E-002    2.383400626741841E-020
  1.010000000000000E-002    1.167954018224654E-020
  1.020000000000000E-002   -4.061225024477791E-021
  1.030000000000000E-002   -2.230004030999087E-020
  1.040000000000000E-002   -4.147747203937799E-020
  1.050000000000000E-002   -5.965268864941699E-020
  1.060000000000000E-002   -7.465087544773482E-020
  1.070000000000000E-002   -8.426192333347435E-020
  1.080000000000000E-002   -8.647692860456783E-020
  1.090000000000000E-002   -7.974292454099625E-020
  1.100000000000000E-002   -6.321088501788772E-020
  1.110000000000000E-002   -3.694848176229718E-020
  1.120000000000000E-002   -2.088548263963915E-021
  1.130000000000000E-002    3.911377479607407E-020
  1.140000000000000E-002    8.333655304545173E-020
  1.150000000000000E-002    1.263716497240511E-019
  1.160000000000000E-002    1.634312684706144E-019
  1.170000000000000E-002    1.895675705383670E-019
  1.180000000000000E-002    2.001782494843352E-019
  1.190000000000000E-002    1.915570288377784E-019
  1.200000000000000E-002    1.614366798962119E-019
  1.210000000000000E-002    1.094647480846819E-019
  1.220000000000000E-002    3.754978544247258E-020
  1.230000000000000E-002   -4.997979884075533E-020
  1.240000000000000E-002   -1.464509042008585E-019
  1.250000000000000E-002   -2.431836823785064E-019
  1.260000000000000E-002   -3.300969250706324E-019
  1.270000000000000E-002   -3.965579502328008E-019
  1.280000000000000E-002   -4.324231628378352E-019
  1.290000000000000E-002   -4.291878916577102E-019
  1.300000000000000E-002   -3.811390069121843E-019
  1.310000000000000E-002   -2.863871563490093E-019
  1.320000000000000E-002   -1.476508433700257E-019
  1.330000000000000E-002    2.732958645358407E-020
  1.340000000000000E-002    2.258478860057429E-019
  1.350000000000000E-002    4.308223981735712E-019
  1.360000000000000E-002    6.219383066455917E-019
  1.370000000000000E-002    7.773026768411480E-019
  1.380000000000000E-002    8.755118345941094E-019
  1.390000000000000E-002    8.979733820658116E-019
  1.400000000000000E-002    8.312730575453186E-019
  1.410000000000000E-002    6.693425681918359E-019
  1.420000000000000E-002    4.151686524985238E-019
  1.430000000000000E-002    8.179645549024282E-020
  1.440000000000000E-002   -3.075826645259743E-019
  1.450000000000000E-002   -7.205993169790427E-019
  1.460000000000000E-002   -1.117780553321964E-018
  1.470000000000000E-002   -1.455670720978482E-018
  1.480000000000000E-002   -1.690817252934974E-018
  1.490000000000000E-002   -1.784324366085851E-018
  1.500000000000000E-002   -1.706573339334239E-018
  1.510000000000000E-002   -1.441636521347104E-018
  1.520000000000000E-002   -9.908730950059845E-019
  1.530000000000000E-002   -3.752151625912126E-019
  1.540000000000000E-002    3.642840267708290E-019
  1.550000000000000E-002    1.167938776980174E-018
  1.560000000000000E-002    1.961084425617236E-018
  1.570000000000000E-002    2.659811308642098E-018
  1.580000000000000E-002    3.178468148805668E-018
  1.590000000000000E-002    3.438381845359475E-018
  1.600000000000000E-002    3.377052796043938E-018
  1.610000000000000E-002    2.956915217352939E-018
  1.620000000000000E-002    2.172687239285543E-018
  1.630000000000000E-002    1.056341838530113E-018
  1.640000000000000E-002   -3.211503113897537E-019
  1.650000000000000E-002   -1.851926534940493E-018
  1.660000000000000E-002   -3.397494032319432E-018
  1.670000000000000E-002   -4.799044999557502E-018
  1.680000000000000E-002   -5.891304554808560E-018
  1.690000000000000E-002   -6.518920680347635E-018
  1.700000000000000E-002   -6.554031674827491E-018
  1.710000000000000E-002   -5.913317501151211E-018
  1.720000000000000E-002   -4.572680595365991E-018
  1.730000000000000E-002   -2.577699619833728E-018
  1.740000000000000E-002   -4.819526961435644E-020
  1.750000000000000E-002    2.824357176987111E-018
  1.760000000000000E-002    5.787250804757263E-018
  1.770000000000000E-002    8.544749340992438E-018
  1.780000000000000E-002    1.078321239418276E-017
  1.790000000000000E-002    1.220140437132475E-017
  1.800000000000000E-002    1.254352241616861E-017
  1.810000000000000E-002    1.163184822623749E-017
  1.820000000000000E-002    9.395537649024359E-018
  1.830000000000000E-002    5.892058723902421E-018
  1.840000000000000E-002    1.318058875335152E-018
  1.850000000000000E-002   -3.992855513485392E-018
  1.860000000000000E-002   -9.586902093125752E-018
  1.870000000000000E-002   -1.492162382781123E-017