 -4.000000000000000E-002    0.000000000000000E+000
 -3.990000000000000E-002    0.000000000000000E+000
 -3.980000000000000E-002    0.000000000000000E+000
 -3.970000000000000E-002    0.000000000000000E+000
 -3.960000000000000E-002    0.000000000000000E+000
 -3.950000000000000E-002    0.000000000000000E+000
 -3.940000000000000E-002    0.000000000000000E+000
 -3.930000000000000E-002    0.000000000000000E+000
 -3.920000000000000E-002    0.000000000000000E+000
 -3.910000000000000E-002    0.000000000000000E+000
 -3.900000000000000E-002    0.000000000000000E+000
 -3.890000000000000E-002    0.000000000000000E+000
 -3.880000000000000E-002    0.000000000000000E+000
 -3.870000000000000E-002    0.000000000000000E+000
 -3.860000000000000E-002    0.000000000000000E+000
 -3.850000000000000E-002    0.000000000000000E+000
 -3.840000000000000E-002    0.000000000000000E+000
 -3.830000000000000E-002    0.000000000000000E+000
 -3.820000000000000E-002    0.000000000000000E+000
 -3.810000000000000E-002    0.000000000000000E+000
 -3.800000000000000E-002    0.000000000000000E+000
 -3.790000000000000E-002    0.000000000000000E+000
 -3.780000000000000E-002    0.000000000000000E+000
 -3.770000000000000E-002    0.000000000000000E+000
 -3.760000000000000E-002    0.000000000000000E+000
 -3.750000000000000E-002    0.000000000000000E+000
 -3.740000000000000E-002    0.000000000000000E+000
 -3.730000000000000E-002    0.000000000000000E+000
 -3.720000000000000E-002    0.000000000000000E+000
 -3.710000000000000E-002    0.000000000000000E+000
 -3.700000000000000E-002    0.000000000000000E+000
 -3.690000000000000E-002    0.000000000000000E+000
 -3.680000000000000E-002    0.000000000000000E+000
 -3.670000000000000E-002    0.000000000000000E+000
 -3.660000000000000E-002    0.000000000000000E+000
 -3.650000000000000E-002    0.000000000000000E+000
 -3.640000000000000E-002    0.000000000000000E+000
 -3.630000000000000E-002    0.000000000000000E+000
 -3.620000000000000E-002    0.000000000000000E+000
 -3.610000000000000E-002    0.000000000000000E+000
 -3.600000000000000E-002    0.000000000000000E+000
 -3.590000000000000E-002    0.000000000000000E+000
 -3.580000000000000E-002    0.000000000000000E+000
 -3.570000000000000E-002    0.000000000000000E+000
 -3.560000000000000E-002    0.000000000000000E+000
 -3.550000000000000E-002    0.000000000000000E+000
 -3.540000000000000E-002    0.000000000000000E+000
 -3.530000000000000E-002    0.000000000000000E+000
 -3.520000000000000E-002    0.000000000000000E+000
 -3.510000000000000E-002    0.000000000000000E+000
 -3.500000000000000E-002    0.000000000000000E+000
 -3.490000000000000E-002    0.000000000000000E+000
 -3.480000000000000E-002    0.000000000000000E+000
 -3.470000000000000E-002    0.000000000000000E+000
 -3.460000000000000E-002    0.000000000000000E+000
 -3.450000000000000E-002    0.000000000000000E+000
 -3.440000000000000E-002    0.000000000000000E+000
 -3.430000000000000E-002    0.000000000000000E+000
 -3.420000000000000E-002    0.000000000000000E+000
 -3.410000000000000E-002    0.000000000000000E+000
 -3.400000000000000E-002    0.000000000000000E+000
 -3.390000000000000E-002    0.000000000000000E+000
 -3.380000000000000E-002    0.000000000000000E+000
 -3.370000000000000E-002    0.000000000000000E+000
 -3.360000000000000E-002    0.000000000000000E+000
 -3.350000000000000E-002    0.000000000000000E+000
 -3.340000000000000E-002    0.000000000000000E+000
 -3.330000000000000E-002    0.000000000000000E+000
 -3.320000000000000E-002    0.000000000000000E+000
 -3.310000000000000E-002    0.000000000000000E+000
 -3.300000000000000E-002    0.000000000000000E+000
 -3.290000000000000E-002    0.000000000000000E+000
 -3.280000000000000E-002    0.000000000000000E+000
 -3.270000000000000E-002    0.000000000000000E+000
 -3.260000000000000E-002    0.000000000000000E+000
 -3.250000000000000E-002    0.000000000000000E+000
 -3.240000000000000E-002    0.000000000000000E+000
 -3.230000000000000E-002    0.000000000000000E+000
 -3.220000000000000E-002    0.000000000000000E+000
 -3.210000000000000E-002    0.000000000000000E+000
 -3.200000000000000E-002    0.000000000000000E+000
 -3.190000000000000E-002    0.000000000000000E+000
 -3.180000000000000E-002    0.000000000000000E+000
 -3.170000000000000E-002    0.000000000000000E+000
 -3.160000000000000E-002    0.000000000000000E+000
 -3.150000000000000E-002    0.000000000000000E+000
 -3.140000000000000E-002    0.000000000000000E+000
 -3.130000000000000E-002    0.000000000000000E+000
 -3.120000000000000E-002    0.000000000000000E+000
 -3.110000000000000E-002    0.000000000000000E+000
 -3.100000000000000E-002    0.000000000000000E+000
 -3.090000000000000E-002    0.000000000000000E+000
 -3.080000000000000E-002    0.000000000000000E+000
 -3.070000000000000E-002    0.000000000000000E+000
 -3.060000000000000E-002    0.000000000000000E+000
 -3.050000000000000E-002    0.000000000000000E+000
 -3.040000000000000E-002    0.000000000000000E+000
 -3.030000000000000E-002    0.000000000000000E+000
 -3.020000000000000E-002    0.000000000000000E+000
 -3.010000000000000E-002    0.000000000000000E+000
 -3.000000000000000E-002    0.000000000000000E+000
 -2.990000000000000E-002    0.000000000000000E+000
 -2.980000000000000E-002    0.000000000000000E+000
 -2.970000000000000E-002    0.000000000000000E+000
 -2.960000000000000E-002    0.000000000000000E+000
 -2.950000000000000E-002    0.000000000000000E+000
 -2.940000000000000E-002    0.000000000000000E+000
 -2.930000000000000E-002    0.000000000000000E+000
 -2.920000000000000E-002    0.000000000000000E+000
 -2.910000000000000E-002    0.000000000000000E+000
 -2.900000000000000E-002    0.000000000000000E+000
 -2.890000000000000E-002    0.000000000000000E+000
 -2.880000000000000E-002    0.000000000000000E+000
 -2.870000000000000E-002    0.000000000000000E+000
 -2.860000000000000E-002    0.000000000000000E+000
 -2.850000000000000E-002    0.000000000000000E+000
 -2.840000000000000E-002    0.000000000000000E+000
 -2.830000000000000E-002    0.000000000000000E+000
 -2.820000000000000E-002    0.000000000000000E+000
 -2.810000000000000E-002    0.000000000000000E+000
 -2.800000000000000E-002    0.000000000000000E+000
 -2.790000000000000E-002    0.000000000000000E+000
 -2.780000000000000E-002    0.000000000000000E+000
 -2.770000000000000E-002    0.000000000000000E+000
 -2.760000000000000E-002    0.000000000000000E+000
 -2.750000000000000E-002    0.000000000000000E+000
 -2.740000000000000E-002    0.000000000000000E+000
 -2.730000000000000E-002    0.000000000000000E+000
 -2.720000000000000E-002    0.000000000000000E+000
 -2.710000000000000E-002    0.000000000000000E+000
 -2.700000000000000E-002    0.000000000000000E+000
 -2.690000000000000E-002    0.000000000000000E+000
 -2.680000000000000E-002    0.000000000000000E+000
 -2.670000000000000E-002    0.000000000000000E+000
 -2.660000000000000E-002    0.000000000000000E+000
 -2.650000000000000E-002    0.000000000000000E+000
 -2.640000000000000E-002    0.000000000000000E+000
 -2.630000000000000E-002    0.000000000000000E+000
 -2.620000000000000E-002    0.000000000000000E+000
 -2.610000000000000E-002    0.000000000000000E+000
 -2.600000000000000E-002    0.000000000000000E+000
 -2.590000000000000E-002    0.000000000000000E+000
 -2.580000000000000E-002    0.000000000000000E+000
 -2.570000000000000E-002    0.000000000000000E+000
 -2.560000000000000E-002    0.000000000000000E+000
 -2.550000000000000E-002    0.000000000000000E+000
 -2.540000000000000E-002    0.000000000000000E+000
 -2.530000000000000E-002    0.000000000000000E+000
 -2.520000000000000E-002    0.000000000000000E+000
 -2.510000000000000E-002    0.000000000000000E+000
 -2.500000000000000E-002    0.000000000000000E+000
 -2.490000000000000E-002    0.000000000000000E+000
 -2.480000000000000E-002    0.000000000000000E+000
 -2.470000000000000E-002    0.000000000000000E+000
 -2.460000000000000E-002    0.000000000000000E+000
 -2.450000000000000E-002    0.000000000000000E+000
 -2.440000000000000E-002    0.000000000000000E+000
 -2.430000000000000E-002    0.000000000000000E+000
 -2.420000000000000E-002    0.000000000000000E+000
 -2.410000000000000E-002    0.000000000000000E+000
 -2.400000000000000E-002    0.000000000000000E+000
 -2.390000000000000E-002    0.000000000000000E+000
 -2.380000000000000E-002    0.000000000000000E+000
 -2.370000000000000E-002    0.000000000000000E+000
 -2.360000000000000E-002    0.000000000000000E+000
 -2.350000000000000E-002    0.000000000000000E+000
 -2.340000000000000E-002    0.000000000000000E+000
 -2.330000000000000E-002    0.000000000000000E+000
 -2.320000000000000E-002    0.000000000000000E+000
 -2.310000000000000E-002    0.000000000000000E+000
 -2.300000000000000E-002    0.000000000000000E+000
 -2.290000000000000E-002    0.000000000000000E+000
 -2.280000000000000E-002    0.000000000000000E+000
 -2.270000000000000E-002    0.000000000000000E+000
 -2.260000000000000E-002    0.000000000000000E+000
 -2.250000000000000E-002    0.000000000000000E+000
 -2.240000000000000E-002    0.000000000000000E+000
 -2.230000000000000E-002    0.000000000000000E+000
 -2.220000000000000E-002    0.000000000000000E+000
 -2.210000000000000E-002    0.000000000000000E+000
 -2.200000000000000E-002    0.000000000000000E+000
 -2.190000000000000E-002    0.000000000000000E+000
 -2.180000000000000E-002    0.000000000000000E+000
 -2.170000000000000E-002    0.000000000000000E+000
 -2.160000000000000E-002    0.000000000000000E+000
 -2.150000000000000E-002    0.000000000000000E+000
 -2.140000000000000E-002    0.000000000000000E+000
 -2.130000000000000E-002    0.000000000000000E+000
 -2.120000000000000E-002    0.000000000000000E+000
 -2.110000000000000E-002    0.000000000000000E+000
 -2.100000000000000E-002    8.552847072295026E-048
 -2.090000000000000E-002    6.549601765450340E-047
 -2.080000000000000E-002    1.288538235409331E-046
 -2.070000000000000E-002    1.922116294273627E-046
 -2.060000000000000E-002    2.470165882414973E-046
 -2.050000000000000E-002    2.954069117514107E-046
 -2.040000000000000E-002    2.868540646791156E-046
 -2.030000000000000E-002    2.063905646480959E-046
 -2.020000000000000E-002    4.526335193171718E-047
 -2.010000000000000E-002   -2.425794725575209E-046
 -2.000000000000000E-002   -7.013185463448305E-046
 -1.990000000000000E-002   -1.341578190719134E-045
 -1.980000000000000E-002   -2.057036151778187E-045
 -1.970000000000000E-002   -2.875756132712735E-045
 -1.960000000000000E-002   -3.636610920806399E-045
 -1.950000000000000E-002   -4.217161327822466E-045
 -1.940000000000000E-002   -4.238971092951601E-045
 -1.930000000000000E-002   -3.001522520466330E-045
 -1.920000000000000E-002   -1.859820349250909E-045
 -1.910000000000000E-002    1.000867993176350E-045
 -1.900000000000000E-002    6.158635400770429E-045
 -1.890000000000000E-002    1.337234393717983E-044
 -1.880000000000000E-002    2.230377011439402E-044
 -1.870000000000000E-002    3.190351965445760E-044
 -1.860000000000000E-002    4.237093674418102E-044
 -1.850000000000000E-002    5.244825305081241E-044
 -1.840000000000000E-002    5.843040767520645E-044
 -1.830000000000000E-002    5.656672568194283E-044
 -1.820000000000000E-002    4.449385029600223E-044
 -1.810000000000000E-002    1.716897629002457E-044
 -1.800000000000000E-002   -2.887104128113566E-044
 -1.790000000000000E-002   -9.638145558201930E-044
 -1.780000000000000E-002   -1.855288786990008E-043
 -1.770000000000000E-002   -2.923087466717572E-043
 -1.760000000000000E-002   -4.079658200748538E-043
 -1.750000000000000E-002   -5.177506773789432E-043
 -1.740000000000000E-002   -5.993386206740405E-043
 -1.730000000000000E-002   -6.216677524391189E-043
 -1.720000000000000E-002   -5.486144114519557E-043
 -1.710000000000000E-002   -3.404270800051331E-043
 -1.700000000000000E-002    3.899054359010498E-044
 -1.690000000000000E-002    6.177251856594830E-043
 -1.680000000000000E-002    1.404173101497561E-042
 -1.670000000000000E-002    2.374231913730668E-042
 -1.660000000000000E-002    3.459257099748780E-042
 -1.650000000000000E-002    4.535692074690566E-042
 -1.640000000000000E-002    5.416568374394610E-042
 -1.630000000000000E-002    5.850673183446372E-042
 -1.620000000000000E-002    5.533735782845192E-042
 -1.610000000000000E-002    4.131138458340558E-042
 -1.600000000000000E-002    1.322713317979511E-042
 -1.590000000000000E-002   -3.140006036907342E-042
 -1.580000000000000E-002   -9.350732993567656E-042
 -1.570000000000000E-002   -1.715977863029113E-041
 -1.560000000000000E-002   -2.607150812599343E-041
 -1.550000000000000E-002   -3.516478182855540E-041
 -1.540000000000000E-002   -4.303121759439445E-041
 -1.530000000000000E-002   -4.777561792709162E-041
 -1.520000000000000E-002   -4.709131278519607E-041
 -1.510000000000000E-002   -3.844731429377234E-041
 -1.500000000000000E-002   -1.940132316334227E-041
 -1.490000000000000E-002    1.195763944412999E-041
 -1.480000000000000E-002    5.643595554129536E-041
 -1.470000000000000E-002    1.130775655262081E-040
 -1.460000000000000E-002    1.784879617982525E-040
 -1.450000000000000E-002    2.462463765923940E-040
 -1.440000000000000E-002    3.065393571345022E-040
 -1.430000000000000E-002    3.461824092563578E-040
 -1.420000000000000E-002    3.492129016741900E-040
 -1.410000000000000E-002    2.982056822204674E-040
 -1.400000000000000E-002    1.764361402626154E-040
 -1.390000000000000E-002   -2.908270301577794E-041
 -1.380000000000000E-002   -3.237892951599197E-040
 -1.370000000000000E-002   -7.012695525990715E-040
 -1.360000000000000E-002   -1.138937636707948E-039
 -1.350000000000000E-002   -1.594399103557076E-039
 -1.340000000000000E-002   -2.003408176300577E-039
 -1.330000000000000E-002   -2.280436383430433E-039
 -1.320000000000000E-002   -2.322951219682538E-039
 -1.310000000000000E-002   -2.020317095128274E-039
 -1.300000000000000E-002   -1.267929001883334E-039
 -1.290000000000000E-002    1.342319878993938E-041
 -1.280000000000000E-002    1.853803201162872E-039
 -1.270000000000000E-002    4.207908034855312E-039
 -1.260000000000000E-002    6.929538963984037E-039
 -1.250000000000000E-002    9.751152521533337E-039
 -1.240000000000000E-002    1.227395741523909E-038
 -1.230000000000000E-002    1.397465769872493E-038
 -1.220000000000000E-002    1.423487492701510E-038
 -1.210000000000000E-002    1.239817695871925E-038
 -1.200000000000000E-002    7.857354134095669E-039
 -1.190000000000000E-002    1.708057750584208E-040
 -1.180000000000000E-002   -1.079816276247691E-038
 -1.170000000000000E-002   -2.473160400241441E-038
 -1.160000000000000E-002   -4.071604486078480E-038
 -1.150000000000000E-002   -5.713638883733100E-038
 -1.140000000000000E-002   -7.163570239883550E-038
 -1.130000000000000E-002   -8.117441575990267E-038
 -1.120000000000000E-002   -8.222055870882138E-038
 -1.110000000000000E-002   -7.109499737224589E-038
 -1.100000000000000E-002   -4.448104438540301E-038
 -1.090000000000000E-002   -8.588093652761212E-041
 -1.080000000000000E-002    6.258755213181154E-038
 -1.070000000000000E-002    1.414334239483514E-037
 -1.060000000000000E-002    2.310115905542746E-037
 -1.050000000000000E-002    3.220353445822055E-037
 -1.040000000000000E-002    4.012451922318141E-037
 -1.030000000000000E-002    4.518416201465933E-037
 -1.020000000000000E-002    4.546327578155077E-037
 -1.010000000000000E-002    3.900029840693439E-037
 -1.000000000000000E-002    2.407251251173986E-037
 -9.899999999999999E-003   -4.482143387505805E-039
 -9.800000000000000E-003   -3.469029391283910E-037
 -9.699999999999999E-003   -7.737018378073897E-037
 -9.599999999999999E-003   -1.254329605599234E-036
 -9.500000000000000E-003   -1.738204943871688E-036
 -9.399999999999999E-003   -2.154515012925050E-036
 -9.299999999999999E-003   -2.414977761791469E-036
 -9.200000000000000E-003   -2.420284747001174E-036
 -9.099999999999999E-003   -2.070657389114611E-036
 -8.999999999999999E-003   -1.280500158517939E-036
 -8.900000000000000E-003    3.494267563498079E-039
 -8.799999999999999E-003    1.782185383285875E-036
 -8.699999999999999E-003    3.984000857773717E-036
 -8.600000000000000E-003    6.448161871983304E-036
 -8.499999999999999E-003    8.914798973783026E-036
 -8.399999999999999E-003    1.102597324025149E-035
 -8.300000000000000E-003    1.234148481841773E-035
 -8.199999999999999E-003    1.237258150994294E-035
 -8.100000000000000E-003    1.063517265240393E-035
 -8.000000000000000E-003    6.721874232622342E-036
 -7.899999999999999E-003    3.891960469126793E-037
 -7.800000000000000E-003   -8.347377335619220E-036
 -7.699999999999999E-003   -1.912140088076786E-035
 -7.599999999999999E-003   -3.114106482497459E-035
 -7.499999999999999E-003   -4.314944568959470E-035
 -7.399999999999999E-003   -5.343751648656733E-035
 -7.299999999999999E-003   -5.992674855310349E-035
 -7.199999999999999E-003   -6.033400034502134E-035
 -7.100000000000000E-003   -5.242394138843478E-035
 -6.999999999999999E-003   -3.434347448601255E-035
 -6.899999999999999E-003   -5.018850238010329E-036
 -6.800000000000000E-003    3.541945007876808E-035
 -6.699999999999999E-003    8.523508056696402E-035
 -6.599999999999999E-003    1.407726140211544E-034
 -6.499999999999999E-003    1.963076147073411E-034
 -6.399999999999999E-003    2.441370078274059E-034
 -6.299999999999999E-003    2.749788746873987E-034
 -6.199999999999999E-003    2.787299401671592E-034
 -6.100000000000000E-003    2.455947155194009E-034
 -5.999999999999999E-003    1.675523832325052E-034
 -5.899999999999999E-003    4.006832471808743E-035
 -5.800000000000000E-003   -1.361082193215940E-034
 -5.699999999999999E-003   -3.532831953552119E-034
 -5.599999999999999E-003   -5.955711860479341E-034
 -5.499999999999999E-003   -8.383730090781454E-034
 -5.399999999999999E-003   -1.048887814629953E-033
 -5.299999999999999E-003   -1.187926697168236E-033
 -5.199999999999999E-003   -1.213197742089695E-033
 -5.099999999999999E-003   -1.084084612648129E-033
 -4.999999999999999E-003   -7.677384570818285E-034
 -4.899999999999999E-003   -2.460624575134265E-034
 -4.799999999999999E-003    4.770885049417109E-034
 -4.699999999999999E-003    1.369416996771635E-033
 -4.599999999999999E-003    2.365519855079538E-033
 -4.499999999999999E-003    3.365267879822084E-033
 -4.399999999999999E-003    4.236410461421578E-033
 -4.299999999999999E-003    4.822368540183579E-033
 -4.199999999999999E-003    4.955773315986900E-033
 -4.099999999999999E-003    4.477676736308316E-033
 -3.999999999999999E-003    3.261574229557824E-033
 -3.899999999999999E-003    1.240441848614920E-033
 -3.799999999999999E-003   -1.565968771637665E-033
 -3.699999999999999E-003   -5.027213800350823E-033
 -3.599999999999999E-003   -8.885901293974089E-033
 -3.499999999999999E-003   -1.275362676078238E-032
 -3.399999999999999E-003   -1.612335061355647E-032
 -3.299999999999999E-003   -1.840147435060673E-032
 -3.199999999999999E-003   -1.896121024885376E-032
 -3.099999999999999E-003   -1.721636898515514E-032
 -2.999999999999999E-003   -1.271168884225518E-032
 -2.899999999999999E-003   -5.222403788959271E-033
 -2.799999999999999E-003    5.147661860358105E-033
 -2.699999999999999E-003    1.788315872194838E-032
 -2.599999999999999E-003    3.200504797054882E-032
 -2.499999999999999E-003    4.606534300624895E-032
 -2.399999999999999E-003    5.820309437950083E-032
 -2.299999999999999E-003    6.627197357910610E-032
 -2.199999999999999E-003    6.804310808978654E-032
 -2.099999999999999E-003    6.147760450116706E-032
 -1.999999999999999E-003    4.505236542816816E-032
 -1.899999999999999E-003    1.811060182131845E-032
 -1.799999999999999E-003   -1.880283833228250E-032
 -1.699999999999999E-003   -6.367078537017680E-032
 -1.599999999999999E-003   -1.128525754177630E-031
 -1.499999999999999E-003   -1.611067166549280E-031
 -1.399999999999999E-003   -2.018337833425005E-031
 -1.299999999999999E-003   -2.275696659282871E-031
 -1.199999999999999E-003   -2.307337472512382E-031
 -1.099999999999999E-003   -2.046039270072119E-031
 -9.999999999999989E-004   -1.444517514564725E-031
 -8.999999999999990E-004   -4.873072353261331E-032
 -7.999999999999990E-004    7.982635990125618E-032
 -6.999999999999989E-004    2.333735285840758E-031
 -5.999999999999990E-004    3.985664374085534E-031
 -4.999999999999989E-004    5.568027012874456E-031
 -3.999999999999989E-004    6.852303532838173E-031
 -2.999999999999989E-004    7.586036004286237E-031
 -1.999999999999989E-004    7.519736425168849E-031
 -9.999999999999892E-005    6.440875414950788E-031
  1.084202172485504E-018    4.212382868645204E-031
  1.000000000000011E-004    8.117795876182445E-032
  2.000000000000011E-004   -3.634098432803134E-031
  3.000000000000011E-004   -8.824610213786168E-031
  4.000000000000011E-004   -1.427713784937535E-030
  5.000000000000011E-004   -1.934079491743671E-030
  6.000000000000011E-004   -2.323622165776495E-030
  7.000000000000011E-004   -2.512333786965751E-030
  8.000000000000011E-004   -2.419572528872163E-030
  9.000000000000012E-004   -1.979647800829589E-030
  1.000000000000001E-003   -1.154605192237030E-030
  1.100000000000001E-003    5.314582453534679E-032
  1.200000000000001E-003    1.590068566377426E-030
  1.300000000000001E-003    3.344516929223364E-030
  1.400000000000001E-003    5.145481008240289E-030
  1.500000000000001E-003    6.768770009971077E-030
  1.600000000000001E-003    7.951830208581929E-030
  1.700000000000001E-003    8.417587238267912E-030
  1.800000000000001E-003    7.906630356172683E-030
  1.900000000000001E-003    6.215783084173531E-030
  2.000000000000001E-003    3.239760873321482E-030
  2.100000000000001E-003   -9.886654337590296E-031
  2.200000000000001E-003   -6.265594725908950E-030
  2.300000000000001E-003   -1.219616484351909E-029
  2.400000000000001E-003   -1.819401704357051E-029
  2.500000000000001E-003   -2.350523395198366E-029
  2.600000000000001E-003   -2.726011344270822E-029
  2.700000000000001E-003   -2.855344366978370E-029
  2.800000000000001E-003   -2.655049706036425E-029
  2.900000000000001E-003   -2.061191641253811E-029
  3.000000000000001E-003   -1.042653729039519E-029
  3.100000000000001E-003    3.862673634704905E-030
  3.200000000000001E-003    2.155728531491339E-029
  3.300000000000001E-003    4.134579744247821E-029
  3.400000000000001E-003    6.130828521129790E-029
  3.500000000000001E-003    7.899851315625899E-029
  3.600000000000001E-003    9.161303943122189E-029
  3.700000000000001E-003    9.624811768549955E-029
  3.800000000000001E-003    9.023451964763190E-029
  3.900000000000001E-003    7.152809712397471E-029
  4.000000000000001E-003    3.912154078551855E-029
  4.100000000000001E-003   -6.568470256389910E-030
  4.200000000000001E-003   -6.339282099775784E-029
  4.300000000000001E-003   -1.272976746040381E-028
  4.400000000000001E-003   -1.923430709119843E-028
  4.500000000000001E-003   -2.509572288332478E-028
  4.600000000000002E-003   -2.944522430318774E-028
  4.700000000000001E-003   -3.138023342864130E-028
  4.800000000000001E-003   -3.006523864150423E-028
  4.900000000000002E-003   -2.484896723854183E-028
  5.000000000000001E-003   -1.538751898076809E-028
  5.100000000000001E-003   -1.759932846609279E-029
  5.200000000000001E-003    1.543957598688515E-028
  5.300000000000002E-003    3.504943208596232E-028
  5.400000000000001E-003    5.534418856734803E-028
  5.500000000000001E-003    7.410636773504205E-028
  5.600000000000002E-003    8.877383509715075E-028
  5.700000000000001E-003    9.666257729414173E-028
  5.800000000000001E-003    9.525549562760641E-028
  5.900000000000002E-003    8.253787129708758E-028
  6.000000000000001E-003    5.735005687622335E-028
  6.100000000000001E-003    1.971930038268803E-028
  6.200000000000002E-003   -2.887349967095118E-028
  6.300000000000002E-003   -8.533837578174888E-028
  6.400000000000001E-003   -1.449754553052563E-027
  6.500000000000001E-003   -2.016632268832344E-027
  6.600000000000002E-003   -2.482553639642406E-027
  6.700000000000001E-003   -2.771850330536483E-027
  6.800000000000001E-003   -2.812508189304701E-027
  6.900000000000002E-003   -2.545311835486986E-027
  7.000000000000001E-003   -1.933477215456978E-027
  7.100000000000001E-003   -9.717434159903518E-028
  7.200000000000002E-003    3.062568692303534E-028
  7.300000000000002E-003    1.823580448435949E-027
  7.400000000000001E-003    3.459655440299941E-027
  7.500000000000001E-003    5.054956803072390E-027
  7.600000000000002E-003    6.421184587912941E-027
  7.700000000000001E-003    7.356896301492476E-027
  7.800000000000001E-003    7.667903080831603E-027
  7.900000000000001E-003    7.191035151247290E-027
  8.000000000000002E-003    5.819194928664796E-027
  8.100000000000001E-003    3.525042901042732E-027
  8.200000000000001E-003    3.802740207074586E-028
  8.300000000000002E-003   -3.432641048789752E-027
  8.400000000000001E-003   -7.619152182672279E-027
  8.500000000000002E-003   -1.178399347748973E-026
  8.600000000000002E-003   -1.545643263965278E-026
  8.700000000000001E-003   -1.812923243764145E-026
  8.800000000000002E-003   -1.930948447634150E-026
  8.900000000000002E-003   -1.857778055051026E-026
  9.000000000000001E-003   -1.565044246419614E-026
  9.100000000000002E-003   -1.043819852205126E-026
  9.200000000000002E-003   -3.093775497290121E-027
  9.300000000000001E-003    5.959276926595740E-027
  9.400000000000002E-003    1.602348411312485E-026
  9.500000000000001E-003    2.615542691959350E-026
  9.600000000000001E-003    3.522741272544807E-026
  9.700000000000002E-003    4.202222298189219E-026
  9.800000000000001E-003    4.535608904736352E-026
  9.900000000000001E-003    4.422096040636642E-026
  1.000000000000000E-002    3.793317505468561E-026
  1.010000000000000E-002    2.627235225322508E-026
  1.020000000000000E-002    9.592486126081778E-027
  1.030000000000000E-002   -1.111289947216966E-026
  1.040000000000000E-002   -3.420785859097544E-026
  1.050000000000000E-002   -5.748515075324042E-026
  1.060000000000000E-002   -7.831709631664773E-026
  1.070000000000000E-002   -9.388312610829598E-026
  1.080000000000000E-002   -1.014617682998311E-025
  1.090000000000000E-002   -9.876475064694254E-026
  1.100000000000000E-002   -8.428187852153147E-026
  1.110000000000000E-002   -5.759828146835789E-026
  1.120000000000000E-002   -1.964161680180877E-026
  1.130000000000000E-002    2.718234638276521E-026
  1.140000000000000E-002    7.900273278258650E-026
  1.150000000000000E-002    1.306703248807085E-025
  1.160000000000000E-002    1.761284855436030E-025
  1.170000000000000E-002    2.089580509129037E-025
  1.180000000000000E-002    2.230644438588016E-025
  1.190000000000000E-002    2.134518193785719E-025
  1.200000000000000E-002    1.770093097974251E-025
  1.210000000000000E-002    1.132191930711756E-025
  1.220000000000000E-002    2.468927062973907E-026
  1.230000000000000E-002   -8.258534859831565E-026
  1.240000000000000E-002   -1.993110377128950E-025
  1.250000000000000E-002   -3.133887161332260E-025
  1.260000000000000E-002   -4.108270503679324E-025
  1.270000000000000E-002   -4.770450326401509E-025
  1.280000000000000E-002   -4.984814034822389E-025
  1.290000000000000E-002   -4.643786335953736E-025
  1.300000000000000E-002   -3.685628054845644E-025
  1.310000000000000E-002   -2.110103161610226E-025
  1.320000000000000E-002    1.021694329841834E-027
  1.330000000000000E-002    2.525123455912166E-025
  1.340000000000000E-002    5.210169716085638E-025
  1.350000000000000E-002    7.779383265829465E-025
  1.360000000000000E-002    9.907505352654245E-025
  1.370000000000000E-002    1.126089207269527E-024
  1.380000000000000E-002    1.153502071083548E-024
  1.390000000000000E-002    1.049544450309529E-024
  1.400000000000000E-002    8.018036205501371E-025
  1.410000000000000E-002    4.123714973667174E-025
  1.420000000000000E-002   -9.973703196749536E-026
  1.430000000000000E-002   -6.976929508177628E-025
  1.440000000000000E-002   -1.327863699140016E-024
  1.450000000000000E-002   -1.922954200387820E-024
  1.460000000000000E-002   -2.407295191591841E-024
  1.470000000000000E-002   -2.704053011381857E-024
  1.480000000000000E-002   -2.743874694227504E-024
  1.490000000000000E-002   -2.474229242752739E-024
  1.500000000000000E-002   -1.868494802769245E-024
  1.510000000000000E-002   -9.337048235804520E-025
  1.520000000000000E-002    2.841722321077244E-025
  1.530000000000000E-002    1.698457406803865E-024
  1.540000000000000E-002    3.184313879042819E-024
  1.550000000000000E-002    4.586101196513799E-024
  1.560000000000000E-002    5.729523922503041E-024
  1.570000000000000E-002    6.438053871228438E-024
  1.580000000000000E-002    6.552492188981468E-024
  1.590000000000000E-002    5.952010873268729E-024
  1.600000000000000E-002    4.574550835887175E-024
  1.610000000000000E-002    2.434160888718900E-024
  1.620000000000000E-002   -3.671991789356788E-025
  1.630000000000000E-002   -3.635675788177837E-024
  1.640000000000000E-002   -7.091140731398061E-024
  1.650000000000000E-002   -1.038343317534189E-023
  1.660000000000000E-002   -1.311920345933255E-023
  1.670000000000000E-002   -1.489816680421985E-023
  1.680000000000000E-002   -1.535631473326533E-023
  1.690000000000000E-002   -1.421243433721271E-023
  1.700000000000000E-002   -1.131333083790559E-023
  1.710000000000000E-002   -6.672508850585115E-024
  1.720000000000000E-002   -4.969423933167804E-025
  1.730000000000000E-002    6.803034314901384E-024
  1.740000000000000E-002    1.462454489501980E-023
  1.750000000000000E-002    2.220600161706852E-023
  1.760000000000000E-002    2.868393054075487E-023
  1.770000000000000E-002    3.317032741688532E-023
  1.780000000000000E-002    3.484543428594732E-023
  1.790000000000000E-002    3.305819662038049E-023
  1.800000000000000E-002    2.742472923454128E-023
  1.810000000000000E-002    1.791361606596650E-023
  1.820000000000000E-002    4.906701233734375E-024
  1.830000000000000E-002   -1.077524783685021E-023
  1.840000000000000E-002   -2.789034926297939E-023
  1.850000000000000E-002   -4.484186344074200E-023
  1.860000000000000E-002   -5.979336972486739E-023
  1.870000000000000E-002   -7.082806562383308E-023