 -4.000000000000000E-002    0.000000000000000E+000
 -3.990000000000000E-002    0.000000000000000E+000
 -3.980000000000000E-002    0.000000000000000E+000
 -3.970000000000000E-002    0.000000000000000E+000
 -3.960000000000000E-002    0.000000000000000E+000
 -3.950000000000000E-002    0.000000000000000E+000
 -3.940000000000000E-002    0.000000000000000E+000
 -3.930000000000000E-002    0.000000000000000E+000
 -3.920000000000000E-002   -2.439434322256839E-031
 -3.910000000000000E-002   -1.053835307917984E-029
 -3.900000000000000E-002   -1.483412332374055E-028
 -3.890000000000000E-002   -1.238846539339665E-027
 -3.880000000000000E-002   -7.433263190371902E-027
 -3.870000000000000E-002   -3.513705966031331E-026
 -3.860000000000000E-002   -1.379381225804898E-025
 -3.850000000000000E-002   -4.648520461196614E-025
 -3.840000000000000E-002   -1.374108798828726E-024
 -3.830000000000000E-002   -3.611987739107823E-024
 -3.820000000000000E-002   -8.504589059258687E-024
 -3.810000000000000E-002   -1.794680812246158E-023
 -3.800000000000000E-002   -3.363714435771644E-023
 -3.790000000000000E-002   -5.442670725574569E-023
 -3.780000000000000E-002   -6.981177832699753E-023
 -3.770000000000000E-002   -4.660386373009069E-023
 -3.760000000000000E-002    9.498094647269472E-023
 -3.750000000000000E-002    5.194180079920750E-022
 -3.740000000000000E-002    1.529531033293461E-021
 -3.730000000000000E-002    3.631010161690111E-021
 -3.720000000000000E-002    7.591543370331904E-021
 -3.710000000000000E-002    1.445931685466435E-020
 -3.700000000000000E-002    2.547954848425349E-020
 -3.690000000000000E-002    4.181588686620733E-020
 -3.680000000000000E-002    6.395270176161296E-020
 -3.670000000000000E-002    9.063637075189102E-020
 -3.660000000000000E-002    1.172259481256975E-019
 -3.650000000000000E-002    1.333903713286300E-019
 -3.640000000000000E-002    1.202375994959928E-019
 -3.630000000000000E-002    4.721285934969485E-020
 -3.620000000000000E-002   -1.305259849162417E-019
 -3.610000000000000E-002   -4.730741776318335E-019
 -3.600000000000000E-002   -1.053368975942283E-018
 -3.590000000000000E-002   -1.949199012089051E-018
 -3.580000000000000E-002   -3.227123805169943E-018
 -3.570000000000000E-002   -4.915918800882497E-018
 -3.560000000000000E-002   -6.967915527239006E-018
 -3.550000000000000E-002   -9.208284762913975E-018
 -3.540000000000000E-002   -1.127507866840145E-017
 -3.530000000000000E-002   -1.255679074449380E-017
 -3.520000000000000E-002   -1.213917201523728E-017
 -3.510000000000000E-002   -8.778432682746762E-018
 -3.500000000000000E-002   -9.232576919313546E-019
 -3.490000000000000E-002    1.318827051612297E-017
 -3.480000000000000E-002    3.533030755290150E-017
 -3.470000000000000E-002    6.696713422012980E-017
 -3.460000000000000E-002    1.087957985107297E-016
 -3.450000000000000E-002    1.601609573508384E-016
 -3.440000000000000E-002    2.183759915361111E-016
 -3.430000000000000E-002    2.780189427803616E-016
 -3.420000000000000E-002    3.303099500902093E-016
 -3.410000000000000E-002    3.627161706724018E-016
 -3.400000000000000E-002    3.589596427683556E-016
 -3.390000000000000E-002    2.996195888457199E-016
 -3.380000000000000E-002    1.635120901381675E-016
 -3.370000000000000E-002   -7.001731554641249E-017
 -3.360000000000000E-002   -4.178350503826509E-016
 -3.350000000000000E-002   -8.888712009830725E-016
 -3.340000000000000E-002   -1.479326887877273E-015
 -3.330000000000000E-002   -2.167678024550426E-015
 -3.320000000000000E-002   -2.910120163416303E-015
 -3.310000000000000E-002   -3.637278998757446E-015
 -3.300000000000000E-002   -4.253141973400366E-015
 -3.290000000000000E-002   -4.637175186548622E-015
 -3.280000000000000E-002   -4.650499533214301E-015
 -3.270000000000000E-002   -4.146692016581317E-015
 -3.260000000000000E-002   -2.987356296855214E-015
 -3.250000000000000E-002   -1.061940823661292E-015
 -3.240000000000000E-002    1.689452714648901E-015
 -3.230000000000000E-002    5.252366527249024E-015
 -3.220000000000000E-002    9.516250568227403E-015
 -3.210000000000000E-002    1.425817630002423E-014
 -3.200000000000000E-002    1.913575975042161E-014
 -3.190000000000000E-002    2.369292008078116E-014
 -3.180000000000000E-002    2.738139055363683E-014
 -3.170000000000000E-002    2.959953397133884E-014
 -3.160000000000000E-002    2.974811237590525E-014
 -3.150000000000000E-002    2.730026456157234E-014
 -3.140000000000000E-002    2.188015542456829E-014
 -3.130000000000000E-002    1.334218092624333E-014
 -3.120000000000000E-002    1.840312321266810E-015
 -3.110000000000000E-002   -1.212417210792329E-014
 -3.100000000000000E-002   -2.768846596004079E-014
 -3.090000000000000E-002   -4.365774130614605E-014
 -3.080000000000000E-002   -5.858525541244844E-014
 -3.070000000000000E-002   -7.090458397560488E-014
 -3.060000000000000E-002   -7.910856138688111E-014
 -3.050000000000000E-002   -8.196152837957875E-014
 -3.040000000000000E-002   -7.872350398191020E-014
 -3.030000000000000E-002   -6.935745683598405E-014
 -3.020000000000000E-002   -5.468607728236101E-014
 -3.010000000000000E-002   -3.646259214163578E-014
 -3.000000000000000E-002   -1.732334576509124E-014
 -2.990000000000000E-002   -5.977977051152463E-016
 -2.980000000000000E-002    1.003475886285608E-014
 -2.970000000000000E-002    1.103348794299263E-014
 -2.960000000000000E-002   -4.002040317344020E-016
 -2.950000000000000E-002   -2.565723201558229E-014
 -2.940000000000000E-002   -6.406962504583347E-014
 -2.930000000000000E-002   -1.123668897039844E-013
 -2.920000000000000E-002   -1.643430546632941E-013
 -2.910000000000000E-002   -2.108352265146325E-013
 -2.900000000000000E-002   -2.401002108487011E-013
 -2.890000000000000E-002   -2.386444287199964E-013
 -2.880000000000000E-002   -1.925185340240441E-013
 -2.870000000000000E-002   -8.903281886990493E-014
 -2.860000000000000E-002    8.121635019573312E-014
 -2.850000000000000E-002    3.221798077313725E-013
 -2.840000000000000E-002    6.302809510456585E-013
 -2.830000000000000E-002    9.927034412505148E-013
 -2.820000000000000E-002    1.386332539689316E-012
 -2.810000000000000E-002    1.777628185219198E-012
 -2.800000000000000E-002    2.123657028935595E-012
 -2.790000000000000E-002    2.374429821881468E-012
 -2.780000000000000E-002    2.476564146479665E-012
 -2.770000000000000E-002    2.378152986442137E-012
 -2.760000000000000E-002    2.034556035494758E-012
 -2.750000000000000E-002    1.414666795247863E-012
 -2.740000000000000E-002    5.070781221730824E-013
 -2.730000000000000E-002   -6.745358499299481E-013
 -2.720000000000000E-002   -2.087546568556108E-012
 -2.710000000000000E-002   -3.658693079594751E-012
 -2.700000000000000E-002   -5.285179052144954E-012
 -2.690000000000000E-002   -6.838929861010471E-012
 -2.680000000000000E-002   -8.174109525932364E-012
 -2.670000000000000E-002   -9.137703919915998E-012
 -2.660000000000000E-002   -9.582578283837407E-012
 -2.650000000000000E-002   -9.382113113507107E-012
 -2.640000000000000E-002   -8.445177476829007E-012
 -2.630000000000000E-002   -6.730004877858572E-012
 -2.620000000000000E-002   -4.255426419405633E-012
 -2.610000000000000E-002   -1.107960277368810E-012
 -2.600000000000000E-002    2.556534252448941E-012
 -2.590000000000000E-002    6.517547787128868E-012
 -2.580000000000000E-002    1.050136026955009E-011
 -2.570000000000000E-002    1.419899933508131E-011
 -2.560000000000000E-002    1.728980315610408E-011
 -2.550000000000000E-002    1.946899335024147E-011
 -2.540000000000000E-002    2.047705683914540E-011
 -2.530000000000000E-002    2.012831375838726E-011
 -2.520000000000000E-002    1.833577367821706E-011
 -2.510000000000000E-002    1.512942921860285E-011
 -2.500000000000000E-002    1.066545772448747E-011
 -2.490000000000000E-002    5.224400874560473E-012
 -2.480000000000000E-002   -8.027300983789140E-013
 -2.470000000000000E-002   -6.940402424040212E-012
 -2.460000000000000E-002   -1.266537585670959E-011
 -2.450000000000000E-002   -1.745194488820776E-011
 -2.440000000000000E-002   -2.082216044436946E-011
 -2.430000000000000E-002   -2.239662438243476E-011
 -2.420000000000000E-002   -2.194102924580047E-011
 -2.410000000000000E-002   -1.940341411482129E-011
 -2.400000000000000E-002   -1.493755522887069E-011
 -2.390000000000000E-002   -8.908705464314712E-012
 -2.380000000000000E-002   -1.879231633830138E-012
 -2.370000000000000E-002    5.426646158541984E-012
 -2.360000000000000E-002    1.217787700596947E-011
 -2.350000000000000E-002    1.750825096127427E-011
 -2.340000000000000E-002    2.059963914155657E-011
 -2.330000000000000E-002    2.077017383422289E-011
 -2.320000000000000E-002    1.755943942466091E-011
 -2.310000000000000E-002    1.080229401703907E-011
 -2.300000000000000E-002    6.830116571314545E-013
 -2.290000000000000E-002   -1.223761024277180E-011
 -2.280000000000000E-002   -2.702784062552379E-011
 -2.270000000000000E-002   -4.242655392392528E-011
 -2.260000000000000E-002   -5.692104000987380E-011
 -2.250000000000000E-002   -6.885815941099173E-011
 -2.240000000000000E-002   -7.658237227840134E-011
 -2.230000000000000E-002   -7.859125516820484E-011
 -2.220000000000000E-002   -7.369617272644868E-011
 -2.210000000000000E-002   -6.117398595938101E-011
 -2.200000000000000E-002   -4.089497556091942E-011
 -2.190000000000000E-002   -1.341225587547839E-011
 -2.180000000000000E-002    1.999993908523439E-011
 -2.170000000000000E-002    5.736887420649274E-011
 -2.160000000000000E-002    9.611215744351242E-011
 -2.150000000000000E-002    1.331926960456388E-010
 -2.140000000000000E-002    1.653336769557260E-010
 -2.130000000000000E-002    1.892814286451165E-010
 -2.120000000000000E-002    2.020977515191344E-010
 -2.110000000000000E-002    2.014587857705929E-010
 -2.100000000000000E-002    1.859336777016481E-010
 -2.090000000000000E-002    1.552149649838916E-010
 -2.080000000000000E-002    1.102736728977374E-010
 -2.070000000000000E-002    5.341553785654406E-011
 -2.060000000000000E-002   -1.177886594024119E-011
 -2.050000000000000E-002   -8.063848722133123E-011
 -2.040000000000000E-002   -1.477086213010670E-010
 -2.030000000000000E-002   -2.071658903597342E-010
 -2.020000000000000E-002   -2.533155832398554E-010
 -2.010000000000000E-002   -2.811334242601475E-010
 -2.000000000000000E-002   -2.868065980301258E-010
 -1.990000000000000E-002   -2.682208529378113E-010
 -1.980000000000000E-002   -2.253414528724570E-010
 -1.970000000000000E-002   -1.604378450904607E-010
 -1.960000000000000E-002   -7.811202796943521E-011
 -1.950000000000000E-002    1.489571018738015E-011
 -1.940000000000000E-002    1.101311673318692E-010
 -1.930000000000000E-002    1.980660553663592E-010
 -1.920000000000000E-002    2.689164046437859E-010
 -1.910000000000000E-002    3.135792780976889E-010
 -1.900000000000000E-002    3.246093661277430E-010
 -1.890000000000000E-002    2.971436151809169E-010
 -1.880000000000000E-002    2.296756294254426E-010
 -1.870000000000000E-002    1.245862273528265E-010
 -1.860000000000000E-002   -1.165132879635746E-011
 -1.850000000000000E-002   -1.686482022070887E-010
 -1.840000000000000E-002   -3.326849440364613E-010
 -1.830000000000000E-002   -4.876917825560072E-010
 -1.820000000000000E-002   -6.165702040018888E-010
 -1.810000000000000E-002   -7.027614509909212E-010
 -1.800000000000000E-002   -7.319326372291502E-010
 -1.790000000000000E-002   -6.936239609521107E-010
 -1.780000000000000E-002   -5.826896974844518E-010
 -1.770000000000000E-002   -4.003669531166042E-010
 -1.760000000000000E-002   -1.548276091599455E-010
 -1.750000000000000E-002    1.388942677623755E-010
 -1.740000000000000E-002    4.596541830128487E-010
 -1.730000000000000E-002    7.816204894769970E-010
 -1.720000000000000E-002    1.076291953766773E-009
 -1.710000000000000E-002    1.314965077455050E-009
 -1.700000000000000E-002    1.471446262204384E-009
 -1.690000000000000E-002    1.524762251106589E-009
 -1.680000000000000E-002    1.461598612461146E-009
 -1.670000000000000E-002    1.278196209254964E-009
 -1.660000000000000E-002    9.814730512216780E-010
 -1.650000000000000E-002    5.891917842245018E-010
 -1.640000000000000E-002    1.290772448795371E-010
 -1.630000000000000E-002   -3.631127301836031E-010
 -1.620000000000000E-002   -8.464533244890080E-010
 -1.610000000000000E-002   -1.278440963629010E-009
 -1.600000000000000E-002   -1.618998130691879E-009
 -1.590000000000000E-002   -1.834520790753016E-009
 -1.580000000000000E-002   -1.901564205042047E-009
 -1.570000000000000E-002   -1.809763966525401E-009
 -1.560000000000000E-002   -1.563641556848554E-009
 -1.550000000000000E-002   -1.183028866710515E-009
 -1.540000000000000E-002   -7.019700515777227E-010
 -1.530000000000000E-002   -1.661055087758496E-010
 -1.520000000000000E-002    3.713003932211135E-010
 -1.510000000000000E-002    8.543749402231740E-010
 -1.500000000000000E-002    1.230252194641133E-009
 -1.490000000000000E-002    1.454749410417305E-009
 -1.480000000000000E-002    1.497524778940799E-009
 -1.470000000000000E-002    1.346146954731984E-009
 -1.460000000000000E-002    1.008581309438816E-009
 -1.450000000000000E-002    5.137258592812731E-010
 -1.440000000000000E-002   -9.019187307633788E-011
 -1.430000000000000E-002   -7.393397843680042E-010
 -1.420000000000000E-002   -1.359889572936843E-009
 -1.410000000000000E-002   -1.875061233078624E-009
 -1.400000000000000E-002   -2.212979429291559E-009
 -1.390000000000000E-002   -2.314590437399124E-009
 -1.380000000000000E-002   -2.140837640034701E-009
 -1.370000000000000E-002   -1.678311471560705E-009
 -1.360000000000000E-002   -9.427003194084691E-010
 -1.350000000000000E-002    2.045376939778569E-011
 -1.340000000000000E-002    1.137950339854409E-009
 -1.330000000000000E-002    2.314048719542077E-009
 -1.320000000000000E-002    3.438187968752937E-009
 -1.310000000000000E-002    4.394708903322984E-009
 -1.300000000000000E-002    5.073745262915147E-009
 -1.290000000000000E-002    5.382287592437475E-009
 -1.280000000000000E-002    5.254351489275120E-009
 -1.270000000000000E-002    4.659219230853955E-009
 -1.260000000000000E-002    3.606849180889066E-009
 -1.250000000000000E-002    2.149787377146323E-009
 -1.240000000000000E-002    3.812177772254812E-010
 -1.230000000000000E-002   -1.570851798156069E-009
 -1.220000000000000E-002   -3.552903369914871E-009
 -1.210000000000000E-002   -5.398001690688469E-009
 -1.200000000000000E-002   -6.939657716336287E-009
 -1.190000000000000E-002   -8.026241416692541E-009
 -1.180000000000000E-002   -8.534629659003598E-009
 -1.170000000000000E-002   -8.381811291118429E-009
 -1.160000000000000E-002   -7.533315686444695E-009
 -1.150000000000000E-002   -6.007604843958834E-009
 -1.140000000000000E-002   -3.875932357779125E-009
 -1.130000000000000E-002   -1.257592032201859E-009
 -1.120000000000000E-002    1.689098633100849E-009
 -1.110000000000000E-002    4.779305118522634E-009
 -1.100000000000000E-002    7.816558695304052E-009
 -1.090000000000000E-002    1.060866122762485E-008
 -1.080000000000000E-002    1.298312628110738E-008
 -1.070000000000000E-002    1.480070804841894E-008
 -1.060000000000000E-002    1.596572422980601E-008
 -1.050000000000000E-002    1.643218574114216E-008
 -1.040000000000000E-002    1.620514076635447E-008
 -1.030000000000000E-002    1.533709478352905E-008
 -1.020000000000000E-002    1.391988379391323E-008
 -1.010000000000000E-002    1.207281041796267E-008
 -1.000000000000000E-002    9.928262945906358E-009
 -9.899999999999999E-003    7.616317110296976E-009
 -9.800000000000000E-003    5.249961254768029E-009
 -9.699999999999999E-003    2.912571597429551E-009
 -9.599999999999999E-003    6.490955157019276E-010
 -9.500000000000000E-003   -1.537919995823380E-009
 -9.399999999999999E-003   -3.686741575434473E-009
 -9.299999999999999E-003   -5.869118883937503E-009
 -9.200000000000000E-003   -8.177558966118188E-009
 -9.099999999999999E-003   -1.070809333018998E-008
 -8.999999999999999E-003   -1.353987330437066E-008
 -8.900000000000000E-003   -1.671327936503701E-008
 -8.799999999999999E-003   -2.020845439072512E-008
 -8.699999999999999E-003   -2.392615346264464E-008
 -8.600000000000000E-003   -2.767272096616077E-008
 -8.499999999999999E-003   -3.115066013491233E-008
 -8.399999999999999E-003   -3.395581266346374E-008
 -8.300000000000000E-003   -3.558163684308463E-008
 -8.199999999999999E-003   -3.543042285780134E-008
 -8.100000000000000E-003   -3.283072984095258E-008
 -8.000000000000000E-003   -2.705966478559443E-008
 -7.899999999999999E-003   -1.736829832256063E-008
 -7.800000000000000E-003   -3.008052134946320E-009
 -7.699999999999999E-003    1.674419740029994E-008
 -7.599999999999999E-003    4.256447741618060E-008
 -7.499999999999999E-003    7.506549730452908E-008
 -7.399999999999999E-003    1.147874285285002E-007
 -7.299999999999999E-003    1.621967383767864E-007
 -7.199999999999999E-003    2.176933496579445E-007
 -7.100000000000000E-003    2.816257309913870E-007
 -6.999999999999999E-003    3.543130508646156E-007
 -6.899999999999999E-003    4.360724696842872E-007
 -6.800000000000000E-003    5.272497264924801E-007
 -6.699999999999999E-003    6.282503056779112E-007
 -6.599999999999999E-003    7.395685668465721E-007
 -6.499999999999999E-003    8.618128214231232E-007
 -6.399999999999999E-003    9.957233803793813E-007
 -6.299999999999999E-003    1.142183380760019E-006
 -6.199999999999999E-003    1.302219689058840E-006
 -6.100000000000000E-003    1.476995243131910E-006
 -5.999999999999999E-003    1.667793128480564E-006
 -5.899999999999999E-003    1.875992828354312E-006
 -5.800000000000000E-003    2.103043116762164E-006
 -5.699999999999999E-003    2.350431749624262E-006
 -5.599999999999999E-003    2.619656528057782E-006
 -5.499999999999999E-003    2.912200176441584E-006
 -5.399999999999999E-003    3.229511464049708E-006
 -5.299999999999999E-003    3.572995927673074E-006
 -5.199999999999999E-003    3.944015914758766E-006
 -5.099999999999999E-003    4.343902395887807E-006
 -4.999999999999999E-003    4.773975503342647E-006
 -4.899999999999999E-003    5.235576664649998E-006
 -4.799999999999999E-003    5.730105058589509E-006
 -4.699999999999999E-003    6.259059809819715E-006
 -4.599999999999999E-003    6.824081844957393E-006
 -4.499999999999999E-003    7.426992287800952E-006
 -4.399999999999999E-003    8.069824206709130E-006
 -4.299999999999999E-003    8.754847488987033E-006
 -4.199999999999999E-003    9.484579773224000E-006
 -4.099999999999999E-003    1.026178484119359E-005
 -3.999999999999999E-003    1.108946275696174E-005
 -3.899999999999999E-003    1.197082814664651E-005
 -3.799999999999999E-003    1.290927736448731E-005
 -3.699999999999999E-003    1.390835544067882E-005
 -3.599999999999999E-003    1.497172247724331E-005
 -3.499999999999999E-003    1.610312054378763E-005
 -3.399999999999999E-003    1.730635436288075E-005
 -3.299999999999999E-003    1.858527551866961E-005
 -3.199999999999999E-003    1.994378839748244E-005
 -3.099999999999999E-003    2.138586815015532E-005
 -2.999999999999999E-003    2.291559125275525E-005
 -2.899999999999999E-003    2.453718616202133E-005
 -2.799999999999999E-003    2.625508234103564E-005
 -2.699999999999999E-003    2.807398075927442E-005
 -2.599999999999999E-003    2.999891060040660E-005
 -2.499999999999999E-003    3.203529550197241E-005
 -2.399999999999999E-003    3.418900122693308E-005
 -2.299999999999999E-003    3.646637808311404E-005
 -2.199999999999999E-003    3.887428367484174E-005
 -2.099999999999999E-003    4.142008893214311E-005
 -1.999999999999999E-003    4.411166730095859E-005
 -1.899999999999999E-003    4.695738272396021E-005
 -1.799999999999999E-003    4.996604396413784E-005
 -1.699999999999999E-003    5.314686689891850E-005
 -1.599999999999999E-003    5.650944668813094E-005
 -1.499999999999999E-003    6.006370628085342E-005
 -1.399999999999999E-003    6.381988774552823E-005
 -1.299999999999999E-003    6.778854205164272E-005
 -1.199999999999999E-003    7.198054090047374E-005
 -1.099999999999999E-003    7.640711434324069E-005
 -9.999999999999989E-004    8.107989856175011E-005
 -8.999999999999990E-004    8.601100583483827E-005
 -7.999999999999990E-004    9.121311926568886E-005
 -6.999999999999989E-004    9.669957046725167E-005
 -5.999999999999990E-004    1.024844418265874E-004
 -4.999999999999989E-004    1.085826423235098E-004
 -3.999999999999989E-004    1.150099997323187E-004
 -2.999999999999989E-004    1.217832908263373E-004
 -1.999999999999989E-004    1.289203196463527E-004
 -9.999999999999892E-005    1.364399086355083E-004
  1.084202172485504E-018    1.443618593068361E-004
  1.000000000000011E-004    1.527070198900497E-004
  2.000000000000011E-004    1.614971462489036E-004
  3.000000000000011E-004    1.707549513536993E-004
  4.000000000000011E-004    1.805040089263719E-004
  5.000000000000011E-004    1.907687536084486E-004
  6.000000000000011E-004    2.015744239040973E-004
  7.000000000000011E-004    2.129471348386610E-004
  8.000000000000011E-004    2.249138236223094E-004
  9.000000000000012E-004    2.375024095971637E-004
  1.000000000000001E-003    2.507417954861862E-004
  1.100000000000001E-003    2.646620285160053E-004
  1.200000000000001E-003    2.792943898730896E-004
  1.300000000000001E-003    2.946715809423764E-004
  1.400000000000001E-003    3.108277873569030E-004
  1.500000000000001E-003    3.277988611095756E-004
  1.600000000000001E-003    3.456224443467862E-004
  1.700000000000001E-003    3.643380345050226E-004
  1.800000000000001E-003    3.839871341848516E-004
  1.900000000000001E-003    4.046131722546979E-004
  2.000000000000001E-003    4.262616278156466E-004
  2.100000000000001E-003    4.489800060734254E-004
  2.200000000000001E-003    4.728177611036481E-004
  2.300000000000001E-003    4.978263350385822E-004
  2.400000000000001E-003    5.240591035859494E-004
  2.500000000000001E-003    5.515713180699722E-004
  2.600000000000001E-003    5.804201031486987E-004
  2.700000000000001E-003    6.106644321377412E-004
  2.800000000000001E-003    6.423651541508554E-004
  2.900000000000001E-003    6.755851084863711E-004
  3.000000000000001E-003    7.103891994354149E-004
  3.100000000000001E-003    7.468443897271920E-004
  3.200000000000001E-003    7.850199952393527E-004
  3.300000000000001E-003    8.249877680203085E-004
  3.400000000000001E-003    8.668221317908053E-004
  3.500000000000001E-003    9.106002607294951E-004
  3.600000000000001E-003    9.564022034796169E-004
  3.700000000000001E-003    1.004311129638735E-003
  3.800000000000001E-003    1.054413577109854E-003
  3.900000000000001E-003    1.106799326511250E-003
  4.000000000000001E-003    1.161561658466984E-003
  4.100000000000001E-003    1.218797162627655E-003
  4.200000000000001E-003    1.278606178902974E-003
  4.300000000000001E-003    1.341092460696166E-003
  4.400000000000001E-003    1.406363373508244E-003
  4.500000000000001E-003    1.474529827573709E-003
  4.600000000000002E-003    1.545706051892085E-003
  4.700000000000001E-003    1.620010034040562E-003
  4.800000000000001E-003    1.697563340252389E-003
  4.900000000000002E-003    1.778491132974853E-003
  5.000000000000001E-003    1.862922102272465E-003
  5.100000000000001E-003    1.950988889209160E-003
  5.200000000000001E-003    2.042827781421487E-003
  5.300000000000002E-003    2.138579461641457E-003
  5.400000000000001E-003    2.238388361879543E-003
  5.500000000000001E-003    2.342403344978412E-003
  5.600000000000002E-003    2.450777749268603E-003
  5.700000000000001E-003    2.563669470988158E-003
  5.800000000000001E-003    2.681241211293191E-003
  5.900000000000002E-003    2.803660046382453E-003
  6.000000000000001E-003    2.931098599798860E-003
  6.100000000000001E-003    3.063734127111050E-003
  6.200000000000002E-003    3.201748886433613E-003
  6.300000000000002E-003    3.345330079781183E-003
  6.400000000000001E-003    3.494670517885818E-003
  6.500000000000001E-003    3.649967843181915E-003
  6.600000000000002E-003    3.811424332944768E-003
  6.700000000000001E-003    3.979247982956645E-003
  6.800000000000001E-003    4.153650893174117E-003
  6.900000000000002E-003    4.334851493619797E-003
  7.000000000000001E-003    4.523073021178479E-003
  7.100000000000001E-003    4.718542819382089E-003
  7.200000000000002E-003    4.921494484591005E-003
  7.300000000000002E-003    5.132166993740456E-003
  7.400000000000001E-003    5.350803985353974E-003
  7.500000000000001E-003    5.577655056064212E-003
  7.600000000000002E-003    5.812975693397299E-003
  7.700000000000001E-003    6.057026078665169E-003
  7.800000000000001E-003    6.310072860968614E-003
  7.900000000000001E-003    6.572387785207632E-003
  8.000000000000002E-003    6.844249205759489E-003
  8.100000000000001E-003    7.125940879736645E-003
  8.200000000000001E-003    7.417751249273361E-003
  8.300000000000002E-003    7.719974888259769E-003
  8.400000000000001E-003    8.032912889681748E-003
  8.500000000000002E-003    8.356870518037116E-003
  8.600000000000002E-003    8.692158625281594E-003
  8.700000000000001E-003    9.039093207472619E-003
  8.800000000000002E-003    9.397994769973637E-003
  8.900000000000002E-003    9.769188711962230E-003
  9.000000000000001E-003    1.015300601825095E-002
  9.100000000000002E-003    1.054978207810163E-002
  9.200000000000002E-003    1.095985592620353E-002
  9.300000000000001E-003    1.138357140577812E-002
  9.400000000000002E-003    1.182127751550374E-002
  9.500000000000001E-003    1.227332657622859E-002
  9.600000000000001E-003    1.274007599519074E-002
  9.700000000000002E-003    1.322188724793723E-002
  9.800000000000001E-003    1.371912549796556E-002
  9.900000000000001E-003    1.423216004240513E-002
  1.000000000000000E-002    1.476136277991802E-002
  1.010000000000000E-002    1.530711059113053E-002
  1.020000000000000E-002    1.586978249212022E-002
  1.030000000000000E-002    1.644976058415586E-002
  1.040000000000000E-002    1.704743067884057E-002
  1.050000000000000E-002    1.766317870638376E-002
  1.060000000000000E-002    1.829739588993484E-002
  1.070000000000000E-002    1.895047218101679E-002
  1.080000000000000E-002    1.962279846241676E-002
  1.090000000000000E-002    2.031476823333967E-002
  1.100000000000000E-002    2.102677272721978E-002
  1.110000000000000E-002    2.175920495561982E-002
  1.120000000000000E-002    2.251245706345357E-002
  1.130000000000000E-002    2.328691979572448E-002
  1.140000000000000E-002    2.408298313265825E-002
  1.150000000000000E-002    2.490103447670251E-002
  1.160000000000000E-002    2.574145989116155E-002
  1.170000000000000E-002    2.660464137393986E-002
  1.180000000000000E-002    2.749095853556191E-002
  1.190000000000000E-002    2.840078909581245E-002
  1.200000000000000E-002    2.933450726432995E-002
  1.210000000000000E-002    3.029247714330494E-002
  1.220000000000000E-002    3.127506558974627E-002
  1.230000000000000E-002    3.228262663782640E-002
  1.240000000000000E-002    3.331551283564713E-002
  1.250000000000000E-002    3.437406548351001E-002
  1.260000000000000E-002    3.545861969240418E-002
  1.270000000000000E-002    3.656950526185870E-002
  1.280000000000000E-002    3.770703648423778E-002
  1.290000000000000E-002    3.887152357923474E-002
  1.300000000000000E-002    4.006326237926528E-002
  1.310000000000000E-002    4.128253740686298E-002
  1.320000000000000E-002    4.252962109047689E-002
  1.330000000000000E-002    4.380477498384428E-002
  1.340000000000000E-002    4.510824694057521E-002
  1.350000000000000E-002    4.644026523774439E-002
  1.360000000000000E-002    4.780104537494768E-002
  1.370000000000000E-002    4.919078942874943E-002
  1.380000000000000E-002    5.060967823590538E-002
  1.390000000000000E-002    5.205787669324509E-002
  1.400000000000000E-002    5.353553138082306E-002
  1.410000000000000E-002    5.504276971617600E-002
  1.420000000000000E-002    5.657969544317137E-002
  1.430000000000000E-002    5.814639017716026E-002
  1.440000000000000E-002    5.974292107961557E-002
  1.450000000000000E-002    6.136932291385804E-002
  1.460000000000000E-002    6.302560378890230E-002
  1.470000000000000E-002    6.471175740299598E-002
  1.480000000000000E-002    6.642774954885393E-002
  1.490000000000000E-002    6.817351083149652E-002
  1.500000000000000E-002    6.994894225699338E-002
  1.510000000000000E-002    7.175392805759041E-002
  1.520000000000000E-002    7.358831016340636E-002
  1.530000000000000E-002    7.545190852008650E-002
  1.540000000000000E-002    7.734449591668763E-002
  1.550000000000000E-002    7.926583024888921E-002
  1.560000000000000E-002    8.121562393308820E-002
  1.570000000000000E-002    8.319354899396905E-002
  1.580000000000000E-002    8.519925572630531E-002
  1.590000000000000E-002    8.723234881048339E-002
  1.600000000000000E-002    8.929239190984369E-002
  1.610000000000000E-002    9.137891415769947E-002
  1.620000000000000E-002    9.349139802480716E-002
  1.630000000000000E-002    9.562929988054873E-002
  1.640000000000000E-002    9.779202048382928E-002
  1.650000000000000E-002    9.997891446720572E-002
  1.660000000000000E-002    0.102189305792503     
  1.670000000000000E-002    0.104422463947861     
  1.680000000000000E-002    0.106677621873796     
  1.690000000000000E-002    0.108953958263993     
  1.700000000000000E-002    0.111250610542076     
  1.710000000000000E-002    0.113566660762267     
  1.720000000000000E-002    0.115901158004642     
  1.730000000000000E-002    0.118253082954510     
  1.740000000000000E-002    0.120621373230131     
  1.750000000000000E-002    0.123004933628181     
  1.760000000000000E-002    0.125402586505042     
  1.770000000000000E-002    0.127813124015539     
  1.780000000000000E-002    0.130235282236638     
  1.790000000000000E-002    0.132667742435307     
  1.800000000000000E-002    0.135109129010133     
  1.810000000000000E-002    0.137558006585132     
  1.820000000000000E-002    0.140012906723445     
  1.830000000000000E-002    0.142472293608062     
  1.840000000000000E-002    0.144934585545070     
  1.850000000000000E-002    0.147398134118731     
  1.860000000000000E-002    0.149861240314905     
  1.870000000000000E-002    0.152322152445988     