 -4.000000000000000E-002    0.000000000000000E+000
 -3.990000000000000E-002    0.000000000000000E+000
 -3.980000000000000E-002    0.000000000000000E+000
 -3.970000000000000E-002    0.000000000000000E+000
 -3.960000000000000E-002    0.000000000000000E+000
 -3.950000000000000E-002    0.000000000000000E+000
 -3.940000000000000E-002    0.000000000000000E+000
 -3.930000000000000E-002    0.000000000000000E+000
 -3.920000000000000E-002    0.000000000000000E+000
 -3.910000000000000E-002    0.000000000000000E+000
 -3.900000000000000E-002    0.000000000000000E+000
 -3.890000000000000E-002    0.000000000000000E+000
 -3.880000000000000E-002    0.000000000000000E+000
 -3.870000000000000E-002    0.000000000000000E+000
 -3.860000000000000E-002    0.000000000000000E+000
 -3.850000000000000E-002   -1.924390591266381E-047
 -3.840000000000000E-002   -4.766851390557676E-047
 -3.830000000000000E-002   -7.104966383032925E-046
 -3.820000000000000E-002   -8.383853775879996E-045
 -3.810000000000000E-002   -6.134884652463548E-044
 -3.800000000000000E-002   -3.534260951521731E-043
 -3.790000000000000E-002   -1.704295783884341E-042
 -3.780000000000000E-002   -6.996279771431922E-042
 -3.770000000000000E-002   -2.466347922957268E-041
 -3.760000000000000E-002   -7.415825920317373E-041
 -3.750000000000000E-002   -1.833085528347413E-040
 -3.740000000000000E-002   -3.246237484993352E-040
 -3.730000000000000E-002   -9.508156720809571E-041
 -3.720000000000000E-002    2.461150433466747E-039
 -3.710000000000000E-002    1.451118280095461E-038
 -3.700000000000000E-002    5.853470099614736E-038
 -3.690000000000000E-002    1.977047154057509E-037
 -3.680000000000000E-002    5.946707492517571E-037
 -3.670000000000000E-002    1.637937424001251E-036
 -3.660000000000000E-002    4.194810401404174E-036
 -3.650000000000000E-002    1.008251636094273E-035
 -3.640000000000000E-002    2.288053501961474E-035
 -3.630000000000000E-002    4.921088742863298E-035
 -3.620000000000000E-002    1.005310804575085E-034
 -3.610000000000000E-002    1.952067121470035E-034
 -3.600000000000000E-002    3.599731522076792E-034
 -3.590000000000000E-002    6.285885684058666E-034
 -3.580000000000000E-002    1.033178969801510E-033
 -3.570000000000000E-002    1.580114033615159E-033
 -3.560000000000000E-002    2.197036576952845E-033
 -3.550000000000000E-002    2.631159549239215E-033
 -3.540000000000000E-002    2.272463872834687E-033
 -3.530000000000000E-002   -1.281612658580806E-034
 -3.520000000000000E-002   -6.870418816551625E-033
 -3.510000000000000E-002   -2.184683187109936E-032
 -3.500000000000000E-002   -5.116096760410223E-032
 -3.490000000000000E-002   -1.036604217246281E-031
 -3.480000000000000E-002   -1.910458710020417E-031
 -3.470000000000000E-002   -3.269516888964450E-031
 -3.460000000000000E-002   -5.240322567572112E-031
 -3.450000000000000E-002   -7.876560391926885E-031
 -3.440000000000000E-002   -1.104375419730493E-030
 -3.430000000000000E-002   -1.423063046622846E-030
 -3.420000000000000E-002   -1.626714634436892E-030
 -3.410000000000000E-002   -1.493842163169582E-030
 -3.400000000000000E-002   -6.506030239255026E-031
 -3.390000000000000E-002    1.481012138949881E-030
 -3.380000000000000E-002    5.726830410023921E-030
 -3.370000000000000E-002    1.317400138237023E-029
 -3.360000000000000E-002    2.511929498463666E-029
 -3.350000000000000E-002    4.290182745537357E-029
 -3.340000000000000E-002    6.755412119823442E-029
 -3.330000000000000E-002    9.919388002864416E-029
 -3.320000000000000E-002    1.360778712825040E-028
 -3.310000000000000E-002    1.732588018160825E-028
 -3.300000000000000E-002    2.008380648734528E-028
 -3.290000000000000E-002    2.019055599149182E-028
 -3.280000000000000E-002    1.504178086855812E-028
 -3.270000000000000E-002    9.496256858999025E-030
 -3.260000000000000E-002   -2.690792940066007E-028
 -3.250000000000000E-002   -7.430420027930135E-028
 -3.240000000000000E-002   -1.473994522500001E-027
 -3.230000000000000E-002   -2.516155652946375E-027
 -3.220000000000000E-002   -3.897634700321619E-027
 -3.210000000000000E-002   -5.592594038245482E-027
 -3.200000000000000E-002   -7.483529568043332E-027
 -3.190000000000000E-002   -9.314476852800808E-027
 -3.180000000000000E-002   -1.063855254391873E-026
 -3.170000000000000E-002   -1.076700887145082E-026
 -3.160000000000000E-002   -8.731721077193755E-027
 -3.150000000000000E-002   -3.278695413225261E-027
 -3.140000000000000E-002    7.084086027878100E-027
 -3.130000000000000E-002    2.395650456853296E-026
 -3.120000000000000E-002    4.880354362279292E-026
 -3.110000000000000E-002    8.257251087649139E-026
 -3.100000000000000E-002    1.251526542294606E-025
 -3.090000000000000E-002    1.746798615648145E-025
 -3.080000000000000E-002    2.267207126744917E-025
 -3.070000000000000E-002    2.734158221497591E-025
 -3.060000000000000E-002    3.027206241527320E-025
 -3.050000000000000E-002    2.979455725847559E-025
 -3.040000000000000E-002    2.378669904298473E-025
 -3.030000000000000E-002    9.773167661990330E-026
 -3.020000000000000E-002   -1.484973035320599E-025
 -3.010000000000000E-002   -5.243331010620379E-025
 -3.000000000000000E-002   -1.045177218617926E-024
 -2.990000000000000E-002   -1.710938949197370E-024
 -2.980000000000000E-002   -2.497165483429284E-024
 -2.970000000000000E-002   -3.345413490763674E-024
 -2.960000000000000E-002   -4.154156543490711E-024
 -2.950000000000000E-002   -4.772085122553378E-024
 -2.940000000000000E-002   -4.996270302854233E-024
 -2.930000000000000E-002   -4.578067164083854E-024
 -2.920000000000000E-002   -3.239792495113759E-024
 -2.910000000000000E-002   -7.049107198704284E-025
 -2.900000000000000E-002    3.256547891417735E-024
 -2.890000000000000E-002    8.767330403948814E-024
 -2.880000000000000E-002    1.576975121443156E-023
 -2.870000000000000E-002    2.394607662487517E-023
 -2.860000000000000E-002    3.264278637670221E-023
 -2.850000000000000E-002    4.081333231961542E-023
 -2.840000000000000E-002    4.699794135518981E-023
 -2.830000000000000E-002    4.936144090930158E-023
 -2.820000000000000E-002    4.581028869323280E-023
 -2.810000000000000E-002    3.420635376478424E-023
 -2.800000000000000E-002    1.268661402745595E-023
 -2.790000000000000E-002   -1.991519869063045E-023
 -2.780000000000000E-002   -6.356923560042820E-023
 -2.770000000000000E-002   -1.165196726924343E-022
 -2.760000000000000E-002   -1.747991593925481E-022
 -2.750000000000000E-002   -2.318887413594954E-022
 -2.740000000000000E-002   -2.786449845532738E-022
 -2.730000000000000E-002   -3.036262462358063E-022
 -2.720000000000000E-002   -2.939424162733193E-022
 -2.710000000000000E-002   -2.367185947875765E-022
 -2.700000000000000E-002   -1.212017778406317E-022
 -2.690000000000000E-002    5.855485874025818E-023
 -2.680000000000000E-002    3.006189097400250E-022
 -2.670000000000000E-002    5.920561786255694E-022
 -2.660000000000000E-002    9.062467284917666E-022
 -2.650000000000000E-002    1.201272930011449E-021
 -2.640000000000000E-002    1.420104595935165E-021
 -2.630000000000000E-002    1.493326397168646E-021
 -2.620000000000000E-002    1.345055636333486E-021
 -2.610000000000000E-002    9.024540656888719E-022
 -2.600000000000000E-002    1.088485191016085E-022
 -2.590000000000000E-002   -1.060120701752390E-021
 -2.580000000000000E-002   -2.578599041667334E-021
 -2.570000000000000E-002   -4.352954593993180E-021
 -2.560000000000000E-002   -6.207436605948353E-021
 -2.550000000000000E-002   -7.876605252746007E-021
 -2.540000000000000E-002   -9.008457987175934E-021
 -2.530000000000000E-002   -9.182140674980796E-021
 -2.520000000000000E-002   -7.943376030636037E-021
 -2.510000000000000E-002   -4.859361744233753E-021
 -2.500000000000000E-002    4.073856638063213E-022
 -2.490000000000000E-002    8.009799841733388E-021
 -2.480000000000000E-002    1.781879934675831E-020
 -2.470000000000000E-002    2.932872281451268E-020
 -2.460000000000000E-002    4.158047936636491E-020
 -2.450000000000000E-002    5.312020550403899E-020
 -2.440000000000000E-002    6.201256800899744E-020
 -2.430000000000000E-002    6.592714645955203E-020
 -2.420000000000000E-002    6.231225079673077E-020
 -2.410000000000000E-002    4.866380617177902E-020
 -2.400000000000000E-002    2.288559236410027E-020
 -2.390000000000000E-002   -1.627612274424325E-020
 -2.380000000000000E-002   -6.875758637789466E-020
 -2.370000000000000E-002   -1.327124671620112E-019
 -2.360000000000000E-002   -2.041235452228574E-019
 -2.350000000000000E-002   -2.765691488109633E-019
 -2.340000000000000E-002   -3.412277407787947E-019
 -2.330000000000000E-002   -3.871991142899070E-019
 -2.320000000000000E-002   -4.022029855647559E-019
 -2.310000000000000E-002   -3.736865359802952E-019
 -2.300000000000000E-002   -2.903259290440683E-019
 -2.290000000000000E-002   -1.438519014430639E-019
 -2.280000000000000E-002    6.893528578526387E-020
 -2.270000000000000E-002    3.441636790136712E-019
 -2.260000000000000E-002    6.691599895261144E-019
 -2.250000000000000E-002    1.021297121870967E-018
 -2.240000000000000E-002    1.367737685533782E-018
 -2.230000000000000E-002    1.666371550680574E-018
 -2.220000000000000E-002    1.868180106176733E-018
 -2.210000000000000E-002    1.921140535780845E-018
 -2.200000000000000E-002    1.775625794596519E-018
 -2.190000000000000E-002    1.391044214621284E-018
 -2.180000000000000E-002    7.432424208912106E-019
 -2.170000000000000E-002   -1.680378916362544E-019
 -2.160000000000000E-002   -1.312559754610724E-018
 -2.150000000000000E-002   -2.624896970167632E-018
 -2.140000000000000E-002   -4.002737640110171E-018
 -2.130000000000000E-002   -5.309191846519414E-018
 -2.120000000000000E-002   -6.379876303835425E-018
 -2.110000000000000E-002   -7.035154411945205E-018
 -2.100000000000000E-002   -7.097364820854117E-018
 -2.090000000000000E-002   -6.412203970390470E-018
 -2.080000000000000E-002   -4.872706146283433E-018
 -2.070000000000000E-002   -2.443546348048615E-018
 -2.060000000000000E-002    8.172220892361047E-019
 -2.050000000000000E-002    4.742281601288349E-018
 -2.040000000000000E-002    9.048389599416535E-018
 -2.030000000000000E-002    1.334198681442030E-017
 -2.020000000000000E-002    1.713939338524540E-017
 -2.010000000000000E-002    1.990258801093010E-017
 -2.000000000000000E-002    2.108997202884600E-017
 -1.990000000000000E-002    2.021946673351052E-017
 -1.980000000000000E-002    1.693917719365649E-017
 -1.970000000000000E-002    1.109878526584503E-017
 -1.960000000000000E-002    2.813182582780224E-018
 -1.950000000000000E-002   -7.491224046031815E-018
 -1.940000000000000E-002   -1.905710887016076E-017
 -1.930000000000000E-002   -3.081226713648167E-017
 -1.920000000000000E-002   -4.142722536967835E-017
 -1.910000000000000E-002   -4.941678408250014E-017
 -1.900000000000000E-002   -5.328316683827164E-017
 -1.890000000000000E-002   -5.169257957377493E-017
 -1.880000000000000E-002   -4.367142954709487E-017
 -1.870000000000000E-002   -2.880259838514288E-017
 -1.860000000000000E-002   -7.398074637851698E-018
 -1.850000000000000E-002    1.937820016027773E-017
 -1.840000000000000E-002    4.946309196462226E-017
 -1.830000000000000E-002    7.994493203093381E-017
 -1.820000000000000E-002    1.072273671815053E-016
 -1.810000000000000E-002    1.273112752424405E-016
 -1.800000000000000E-002    1.361863974233833E-016
 -1.790000000000000E-002    1.303093084821313E-016
 -1.780000000000000E-002    1.071289840080134E-016
 -1.770000000000000E-002    6.560723107852116E-017
 -1.760000000000000E-002    6.670557985724207E-018
 -1.750000000000000E-002   -6.647475194992685E-017
 -1.740000000000000E-002   -1.482309623245433E-016
 -1.730000000000000E-002   -2.307565578798470E-016
 -1.720000000000000E-002   -3.044101071114381E-016
 -1.710000000000000E-002   -3.584998468361969E-016
 -1.700000000000000E-002   -3.823135625428109E-016
 -1.690000000000000E-002   -3.663662743621708E-016
 -1.680000000000000E-002   -3.037636091396213E-016
 -1.670000000000000E-002   -1.915454747778612E-016
 -1.660000000000000E-002   -3.184947803112151E-017
 -1.650000000000000E-002    1.672776216818563E-016
 -1.640000000000000E-002    3.915843208575048E-016
 -1.630000000000000E-002    6.209721548365339E-016
 -1.620000000000000E-002    8.305942480541166E-016
 -1.610000000000000E-002    9.927148438952313E-016
 -1.600000000000000E-002    1.079264685091642E-015
 -1.590000000000000E-002    1.064935131312074E-015
 -1.580000000000000E-002    9.305651107976425E-016
 -1.570000000000000E-002    6.664888991046694E-016
 -1.560000000000000E-002    2.754625782523287E-016
 -1.550000000000000E-002   -2.252425759472081E-016
 -1.540000000000000E-002   -8.029696697076278E-016
 -1.530000000000000E-002   -1.410352938050630E-015
 -1.520000000000000E-002   -1.987750112667200E-015
 -1.510000000000000E-002   -2.467479447299187E-015
 -1.500000000000000E-002   -2.779718628325115E-015
 -1.490000000000000E-002   -2.859706139232904E-015
 -1.480000000000000E-002   -2.655684723743325E-015
 -1.470000000000000E-002   -2.136839095835724E-015
 -1.460000000000000E-002   -1.300355558573673E-015
 -1.450000000000000E-002   -1.766751984825321E-016
 -1.440000000000000E-002    1.167944371647403E-015
 -1.430000000000000E-002    2.632299667113391E-015
 -1.420000000000000E-002    4.085028184313886E-015
 -1.410000000000000E-002    5.373450257558755E-015
 -1.400000000000000E-002    6.336182294508360E-015
 -1.390000000000000E-002    6.818779407879937E-015
 -1.380000000000000E-002    6.691208719682417E-015
 -1.370000000000000E-002    5.865574966863492E-015
 -1.360000000000000E-002    4.312221698948555E-015
 -1.350000000000000E-002    2.072226232850158E-015
 -1.340000000000000E-002   -7.356274722033042E-016
 -1.330000000000000E-002   -3.915009422607553E-015
 -1.320000000000000E-002   -7.200442208431582E-015
 -1.310000000000000E-002   -1.027430153280141E-014
 -1.300000000000000E-002   -1.279194060646448E-014
 -1.290000000000000E-002   -1.441349765643062E-014
 -1.280000000000000E-002   -1.484001432191642E-014
 -1.270000000000000E-002   -1.385068524786921E-014
 -1.260000000000000E-002   -1.133744193941353E-014
 -1.250000000000000E-002   -7.332831108280230E-015
 -1.240000000000000E-002   -2.027231594702397E-015
 -1.230000000000000E-002    4.227956402642148E-015
 -1.220000000000000E-002    1.093352810659528E-014
 -1.210000000000000E-002    1.747308555623565E-014
 -1.200000000000000E-002    2.316028429378084E-014
 -1.190000000000000E-002    2.730016128191443E-014
 -1.180000000000000E-002    2.926002981024937E-014
 -1.170000000000000E-002    2.854390180608166E-014
 -1.160000000000000E-002    2.486304343467480E-014
 -1.150000000000000E-002    1.819477219057632E-014
 -1.140000000000000E-002    8.821642586050391E-015
 -1.130000000000000E-002   -2.655801067680629E-015
 -1.120000000000000E-002   -1.533771559387395E-014
 -1.110000000000000E-002   -2.807746883140334E-014
 -1.100000000000000E-002   -3.956713768517881E-014
 -1.090000000000000E-002   -4.845154266085350E-014
 -1.080000000000000E-002   -5.346293621181220E-014
 -1.070000000000000E-002   -5.356494267338991E-014
 -1.060000000000000E-002   -4.809214249604328E-014
 -1.050000000000000E-002   -3.687007857400656E-014
 -1.040000000000000E-002   -2.030058919379454E-014
 -1.030000000000000E-002    6.011444759441609E-016
 -1.020000000000000E-002    2.422818839620029E-014
 -1.010000000000000E-002    4.846783717418771E-014
 -1.000000000000000E-002    7.085169975730569E-014
 -9.899999999999999E-003    8.876313591153071E-014
 -9.800000000000000E-003    9.968826183331213E-014
 -9.699999999999999E-003    1.014906431514766E-013
 -9.599999999999999E-003    9.268453088537731E-014
 -9.500000000000000E-003    7.267836624862002E-014
 -9.399999999999999E-003    4.195971237880364E-014
 -9.299999999999999E-003    2.194763718414376E-015
 -9.200000000000000E-003   -4.377911422033096E-014
 -9.099999999999999E-003   -9.208135375740155E-014
 -8.999999999999999E-003   -1.380397673975826E-013
 -8.900000000000000E-003   -1.765565545588897E-013
 -8.799999999999999E-003   -2.025670510399701E-013
 -8.699999999999999E-003   -2.115571331741247E-013
 -8.600000000000000E-003   -2.000949248002176E-013
 -8.499999999999999E-003   -1.663250346883091E-013
 -8.399999999999999E-003   -1.103713699162323E-013
 -8.300000000000000E-003   -3.459562590039006E-014
 -8.199999999999999E-003    5.633271729691256E-014
 -8.100000000000000E-003    1.555866519971148E-013
 -8.000000000000000E-003    2.545656961059931E-013
 -7.899999999999999E-003    3.435058701256075E-013
 -7.800000000000000E-003    4.122842087137773E-013
 -7.699999999999999E-003    4.513632524477148E-013
 -7.599999999999999E-003    4.528003573152704E-013
 -7.499999999999999E-003    4.112304366983213E-013
 -7.399999999999999E-003    3.247225119295160E-013
 -7.299999999999999E-003    1.954099645717217E-013
 -7.199999999999999E-003    2.980459434292194E-014
 -7.100000000000000E-003   -1.612755397650193E-013
 -6.999999999999999E-003   -3.632052022604115E-013
 -6.899999999999999E-003   -5.584815870443188E-013
 -6.800000000000000E-003   -7.280464944140806E-013
 -6.699999999999999E-003   -8.529199114711384E-013
 -6.599999999999999E-003   -9.160230487512803E-013
 -6.499999999999999E-003   -9.040365549696009E-013
 -6.399999999999999E-003   -8.091166686816373E-013
 -6.299999999999999E-003   -6.302861106211569E-013
 -6.199999999999999E-003   -3.743248549861606E-013
 -6.100000000000000E-003   -5.601651179724570E-014
 -5.999999999999999E-003    3.023496643136262E-013
 -5.899999999999999E-003    6.722580833153990E-013
 -5.800000000000000E-003    1.020993451925438E-012
 -5.699999999999999E-003    1.314301688000623E-012
 -5.599999999999999E-003    1.519497650792945E-012
 -5.499999999999999E-003    1.608766015508499E-012
 -5.399999999999999E-003    1.562353642777868E-012
 -5.299999999999999E-003    1.371327001975064E-012
 -5.199999999999999E-003    1.039575468155671E-012
 -5.099999999999999E-003    5.847786427881805E-013
 -4.999999999999999E-003    3.812630603268828E-014
 -4.899999999999999E-003   -5.573189406225034E-013
 -4.799999999999999E-003   -1.149604216531813E-012
 -4.699999999999999E-003   -1.682066345883918E-012
 -4.599999999999999E-003   -2.098423787224352E-012
 -4.499999999999999E-003   -2.348375996765503E-012
 -4.399999999999999E-003   -2.393198802695930E-012
 -4.299999999999999E-003   -2.210781329197289E-012
 -4.199999999999999E-003   -1.799531337730192E-012
 -4.099999999999999E-003   -1.180633064726063E-012
 -3.999999999999999E-003   -3.982473058727166E-013
 -3.899999999999999E-003    4.825934665156710E-013
 -3.799999999999999E-003    1.380435070493789E-012
 -3.699999999999999E-003    2.204005553443697E-012
 -3.599999999999999E-003    2.860536904047370E-012
 -3.499999999999999E-003    3.265149111196498E-012
 -3.399999999999999E-003    3.350452588839938E-012
 -3.299999999999999E-003    3.075412822848456E-012
 -3.199999999999999E-003    2.432487882166000E-012
 -3.099999999999999E-003    1.452108024668211E-012
 -2.999999999999999E-003    2.037418545873500E-013
 -2.899999999999999E-003   -1.206946892227071E-012
 -2.799999999999999E-003   -2.645001674455696E-012
 -2.699999999999999E-003   -3.956886761624821E-012
 -2.599999999999999E-003   -4.984345394924957E-012
 -2.499999999999999E-003   -5.580330498794794E-012
 -2.399999999999999E-003   -5.625616572193295E-012
 -2.299999999999999E-003   -5.044463146977068E-012
 -2.199999999999999E-003   -3.817614593989100E-012
 -2.099999999999999E-003   -1.991004944457212E-012
 -1.999999999999999E-003    3.212068607452403E-013
 -1.899999999999999E-003    2.940229580480064E-012
 -1.799999999999999E-003    5.633238427188372E-012
 -1.699999999999999E-003    8.130691646977762E-012
 -1.599999999999999E-003    1.014935948722282E-011
 -1.499999999999999E-003    1.141937085543633E-011
 -1.399999999999999E-003    1.171298961661624E-011
 -1.299999999999999E-003    1.087240827063717E-011
 -1.199999999999999E-003    8.833637671719943E-012
 -1.099999999999999E-003    5.643688295902117E-012
 -9.999999999999989E-004    1.468577142967725E-012
 -8.999999999999990E-004   -3.409617427182473E-012
 -7.999999999999990E-004   -8.607523422973935E-012
 -6.999999999999989E-004   -1.366683955707581E-011
 -5.999999999999990E-004   -1.809088048170559E-011
 -4.999999999999989E-004   -2.138872212569398E-011
 -3.999999999999989E-004   -2.312334632507742E-011
 -2.999999999999989E-004   -2.295942695919679E-011
 -1.999999999999989E-004   -2.070600132283052E-011
 -9.999999999999892E-005   -1.634930331437591E-011
  1.084202172485504E-018   -1.007158618915148E-011
  1.000000000000011E-004   -2.252724852739129E-012
  2.000000000000011E-004    6.547182210652824E-012
  3.000000000000011E-004    1.562426921740804E-011
  4.000000000000011E-004    2.418459175381765E-011
  5.000000000000011E-004    3.141136268413553E-011
  6.000000000000011E-004    3.654030549517134E-011
  7.000000000000011E-004    3.893652045214342E-011
  8.000000000000011E-004    3.816539856559457E-011
  9.000000000000012E-004    3.405014814973410E-011
  1.000000000000001E-003    2.670916219125599E-011
  1.100000000000001E-003    1.656789372538338E-011
  1.200000000000001E-003    4.341952592275197E-012
  1.300000000000001E-003   -9.009196015171647E-012
  1.400000000000001E-003   -2.235575464390414E-011
  1.500000000000001E-003   -3.449319428682259E-011
  1.600000000000001E-003   -4.425227582268534E-011
  1.700000000000001E-003   -5.061362677507503E-011
  1.800000000000001E-003   -5.281597900042653E-011
  1.900000000000001E-003   -5.044675164373938E-011
  2.000000000000001E-003   -4.350472666240732E-011
  2.100000000000001E-003   -3.242646758867337E-011
  2.200000000000001E-003   -1.807121755112928E-011
  2.300000000000001E-003   -1.662744891648890E-012
  2.400000000000001E-003    1.530912601861759E-011
  2.500000000000001E-003    3.122032565004412E-011
  2.600000000000001E-003    4.446674662502909E-011
  2.700000000000001E-003    5.362687606912529E-011
  2.800000000000001E-003    5.761699032066518E-011
  2.900000000000001E-003    5.582255810785019E-011
  3.000000000000001E-003    4.819078166049932E-011
  3.100000000000001E-003    3.527201183898053E-011
  3.200000000000001E-003    1.820209069654013E-011
  3.300000000000001E-003   -1.376871236115442E-012
  3.400000000000001E-003   -2.145366451234154E-011
  3.500000000000001E-003   -3.983326855550085E-011
  3.600000000000001E-003   -5.435474910909946E-011
  3.700000000000001E-003   -6.312180614724919E-011
  3.800000000000001E-003   -6.472310771430561E-011
  3.900000000000001E-003   -5.841894998023447E-011
  4.000000000000001E-003   -4.427243234916180E-011
  4.100000000000001E-003   -2.320734015542209E-011
  4.200000000000001E-003    3.018901276433846E-012
  4.300000000000001E-003    3.193105137406191E-011
  4.400000000000001E-003    6.053575791419195E-011
  4.500000000000001E-003    8.559118180042870E-011
  4.600000000000002E-003    1.039246677787161E-010
  4.700000000000001E-003    1.127696731259760E-010
  4.800000000000001E-003    1.100891947643501E-010
  4.900000000000002E-003    9.485189864708403E-011
  5.000000000000001E-003    6.722909530435425E-011
  5.100000000000001E-003    2.868636946205274E-011
  5.200000000000001E-003   -1.804763302033999E-011
  5.300000000000002E-003   -6.914189645661179E-011
  5.400000000000001E-003   -1.199473803084732E-010
  5.500000000000001E-003   -1.653862713397643E-010
  5.600000000000002E-003   -2.004158536864652E-010
  5.700000000000001E-003   -2.205266681522668E-010
  5.800000000000001E-003   -2.222288601658139E-010
  5.900000000000002E-003   -2.034776220627518E-010
  6.000000000000001E-003   -1.639920377949652E-010
  6.100000000000001E-003   -1.054280966040783E-010
  6.200000000000002E-003   -3.137843712304309E-011
  6.300000000000002E-003    5.281346461389712E-011
  6.400000000000001E-003    1.404200835358587E-010
  6.500000000000001E-003    2.238548785610934E-010
  6.600000000000002E-003    2.953160165192407E-010
  6.700000000000001E-003    3.474956556989119E-010
  6.800000000000001E-003    3.742908254106449E-010
  6.900000000000002E-003    3.714491618694155E-010
  7.000000000000001E-003    3.370835363345297E-010
  7.100000000000001E-003    2.719987817587979E-010
  7.200000000000002E-003    1.797884218144866E-010
  7.300000000000002E-003    6.667811906769958E-011
  7.400000000000001E-003   -5.888389691008438E-011
  7.500000000000001E-003   -1.868654460623952E-010
  7.600000000000002E-003   -3.064710340782604E-010
  7.700000000000001E-003   -4.070769565082816E-010
  7.800000000000001E-003   -4.791993772741613E-010
  7.900000000000001E-003   -5.154064058371090E-010
  8.000000000000002E-003   -5.110853117723165E-010
  8.100000000000001E-003   -4.649860501457363E-010
  8.200000000000001E-003   -3.794788666334105E-010
  8.300000000000002E-003   -2.604885549452282E-010
  8.400000000000001E-003   -1.170965210587832E-010
  8.500000000000002E-003    3.916680084720665E-011
  8.600000000000002E-003    1.952859479041581E-010
  8.700000000000001E-003    3.379006706555352E-010
  8.800000000000002E-003    4.545214861736411E-010
  8.900000000000002E-003    5.347083586611202E-010
  9.000000000000001E-003    5.710981696182333E-010
  9.100000000000002E-003    5.601766806349830E-010
  9.200000000000002E-003    5.027103224694719E-010
  9.300000000000001E-003    4.037826913519391E-010
  9.400000000000002E-003    2.724164795627304E-010
  9.500000000000001E-003    1.208009188197689E-010
  9.600000000000001E-003   -3.681572349183185E-011
  9.700000000000002E-003   -1.854735638529965E-010
  9.800000000000001E-003   -3.109659456370889E-010
  9.900000000000001E-003   -4.012814671964870E-010
  1.000000000000000E-002   -4.478800249126090E-010
  1.010000000000000E-002   -4.466675881779749E-010
  1.020000000000000E-002   -3.985597123730586E-010
  1.030000000000000E-002   -3.095578971283836E-010
  1.040000000000000E-002   -1.903079843874402E-010
  1.050000000000000E-002   -5.515968456098603E-011
  1.060000000000000E-002    7.920347820783239E-011
  1.070000000000000E-002    1.954478716205306E-010
  1.080000000000000E-002    2.774342484773613E-010
  1.090000000000000E-002    3.120456784440257E-010
  1.100000000000000E-002    2.908138978415084E-010
  1.110000000000000E-002    2.111679922595701E-010
  1.120000000000000E-002    7.715747675412075E-011
  1.130000000000000E-002   -1.004552787934665E-010
  1.140000000000000E-002   -3.047825261375884E-010
  1.150000000000000E-002   -5.140636905213975E-010
  1.160000000000000E-002   -7.035027001427408E-010
  1.170000000000000E-002   -8.475475605020260E-010
  1.180000000000000E-002   -9.224194114309152E-010
  1.190000000000000E-002   -9.086614525357537E-010
  1.200000000000000E-002   -7.934641024877821E-010
  1.210000000000000E-002   -5.725281405396835E-010
  1.220000000000000E-002   -2.512596606338771E-010
  1.230000000000000E-002    1.548589683835997E-010
  1.240000000000000E-002    6.208093659151023E-010
  1.250000000000000E-002    1.113493569579177E-009
  1.260000000000000E-002    1.594028250447767E-009
  1.270000000000000E-002    2.020712777300924E-009
  1.280000000000000E-002    2.352439931879878E-009
  1.290000000000000E-002    2.552261653682965E-009
  1.300000000000000E-002    2.590797189022382E-009
  1.310000000000000E-002    2.449165793373222E-009
  1.320000000000000E-002    2.121161778236048E-009
  1.330000000000000E-002    1.614441021334784E-009
  1.340000000000000E-002    9.505717067214032E-010
  1.350000000000000E-002    1.639005799446380E-010
  1.360000000000000E-002   -7.007073321311821E-010
  1.370000000000000E-002   -1.591091651809936E-009
  1.380000000000000E-002   -2.451723275220052E-009
  1.390000000000000E-002   -3.228001096760352E-009
  1.400000000000000E-002   -3.870539863710960E-009
  1.410000000000000E-002   -4.339056360903099E-009
  1.420000000000000E-002   -4.605492026881011E-009
  1.430000000000000E-002   -4.656062010449516E-009
  1.440000000000000E-002   -4.492020346295310E-009
  1.450000000000000E-002   -4.129044520749743E-009
  1.460000000000000E-002   -3.595272051170549E-009
  1.470000000000000E-002   -2.928154577147770E-009
  1.480000000000000E-002   -2.170417533689704E-009
  1.490000000000000E-002   -1.365508475928630E-009
  1.500000000000000E-002   -5.529864195092776E-010
  1.510000000000000E-002    2.356743996306848E-010
  1.520000000000000E-002    9.804135438523327E-010
  1.530000000000000E-002    1.674658855476999E-009
  1.540000000000000E-002    2.325867347726688E-009
  1.550000000000000E-002    2.954395127916071E-009
  1.560000000000000E-002    3.590712894945249E-009
  1.570000000000000E-002    4.271159430332546E-009
  1.580000000000000E-002    5.032574082075554E-009
  1.590000000000000E-002    5.906281889249521E-009
  1.600000000000000E-002    6.912003868609210E-009
  1.610000000000000E-002    8.052299475545884E-009
  1.620000000000000E-002    9.308142032422173E-009
  1.630000000000000E-002    1.063615382949375E-008
  1.640000000000000E-002    1.196790854787793E-008
  1.650000000000000E-002    1.321154483408284E-008
  1.660000000000000E-002    1.425572061362914E-008
  1.670000000000000E-002    1.497575870936708E-008
  1.680000000000000E-002    1.524160207530429E-008
  1.690000000000000E-002    1.492703849602299E-008
  1.700000000000000E-002    1.391951372106349E-008
  1.710000000000000E-002    1.212977644623614E-008
  1.720000000000000E-002    9.500583020076437E-009
  1.730000000000000E-002    6.013770852443003E-009
  1.740000000000000E-002    1.695103987361671E-009
  1.750000000000000E-002   -3.383486890150312E-009
  1.760000000000000E-002   -9.104445601851726E-009
  1.770000000000000E-002   -1.530783007929473E-008
  1.780000000000000E-002   -2.179691534401561E-008
  1.790000000000000E-002   -2.834561559249045E-008
  1.800000000000000E-002   -3.470699292816907E-008
  1.810000000000000E-002   -4.062200947884234E-008
  1.820000000000000E-002   -4.582764550568199E-008
  1.830000000000000E-002   -5.006354471297616E-008
  1.840000000000000E-002   -5.307651033262248E-008
  1.850000000000000E-002   -5.462230863717941E-008
  1.860000000000000E-002   -5.446457445252669E-008
  1.870000000000000E-002   -5.237082251469008E-008