 -4.000000000000000E-002    0.000000000000000E+000
 -3.990000000000000E-002    0.000000000000000E+000
 -3.980000000000000E-002    0.000000000000000E+000
 -3.970000000000000E-002    0.000000000000000E+000
 -3.960000000000000E-002    0.000000000000000E+000
 -3.950000000000000E-002    0.000000000000000E+000
 -3.940000000000000E-002    0.000000000000000E+000
 -3.930000000000000E-002    0.000000000000000E+000
 -3.920000000000000E-002    0.000000000000000E+000
 -3.910000000000000E-002    0.000000000000000E+000
 -3.900000000000000E-002    0.000000000000000E+000
 -3.890000000000000E-002    0.000000000000000E+000
 -3.880000000000000E-002    0.000000000000000E+000
 -3.870000000000000E-002    0.000000000000000E+000
 -3.860000000000000E-002    0.000000000000000E+000
 -3.850000000000000E-002    0.000000000000000E+000
 -3.840000000000000E-002    0.000000000000000E+000
 -3.830000000000000E-002    0.000000000000000E+000
 -3.820000000000000E-002    0.000000000000000E+000
 -3.810000000000000E-002    0.000000000000000E+000
 -3.800000000000000E-002    0.000000000000000E+000
 -3.790000000000000E-002    0.000000000000000E+000
 -3.780000000000000E-002    0.000000000000000E+000
 -3.770000000000000E-002    0.000000000000000E+000
 -3.760000000000000E-002    0.000000000000000E+000
 -3.750000000000000E-002    0.000000000000000E+000
 -3.740000000000000E-002    0.000000000000000E+000
 -3.730000000000000E-002    0.000000000000000E+000
 -3.720000000000000E-002    0.000000000000000E+000
 -3.710000000000000E-002    0.000000000000000E+000
 -3.700000000000000E-002    0.000000000000000E+000
 -3.690000000000000E-002    0.000000000000000E+000
 -3.680000000000000E-002    0.000000000000000E+000
 -3.670000000000000E-002    0.000000000000000E+000
 -3.660000000000000E-002    0.000000000000000E+000
 -3.650000000000000E-002    0.000000000000000E+000
 -3.640000000000000E-002    0.000000000000000E+000
 -3.630000000000000E-002    0.000000000000000E+000
 -3.620000000000000E-002    0.000000000000000E+000
 -3.610000000000000E-002    0.000000000000000E+000
 -3.600000000000000E-002    0.000000000000000E+000
 -3.590000000000000E-002    0.000000000000000E+000
 -3.580000000000000E-002    0.000000000000000E+000
 -3.570000000000000E-002    0.000000000000000E+000
 -3.560000000000000E-002    0.000000000000000E+000
 -3.550000000000000E-002    0.000000000000000E+000
 -3.540000000000000E-002    0.000000000000000E+000
 -3.530000000000000E-002    0.000000000000000E+000
 -3.520000000000000E-002    0.000000000000000E+000
 -3.510000000000000E-002    0.000000000000000E+000
 -3.500000000000000E-002    0.000000000000000E+000
 -3.490000000000000E-002    0.000000000000000E+000
 -3.480000000000000E-002    0.000000000000000E+000
 -3.470000000000000E-002    0.000000000000000E+000
 -3.460000000000000E-002    0.000000000000000E+000
 -3.450000000000000E-002    0.000000000000000E+000
 -3.440000000000000E-002    0.000000000000000E+000
 -3.430000000000000E-002    0.000000000000000E+000
 -3.420000000000000E-002    0.000000000000000E+000
 -3.410000000000000E-002    0.000000000000000E+000
 -3.400000000000000E-002    0.000000000000000E+000
 -3.390000000000000E-002    0.000000000000000E+000
 -3.380000000000000E-002    0.000000000000000E+000
 -3.370000000000000E-002    0.000000000000000E+000
 -3.360000000000000E-002    0.000000000000000E+000
 -3.350000000000000E-002    0.000000000000000E+000
 -3.340000000000000E-002    0.000000000000000E+000
 -3.330000000000000E-002    0.000000000000000E+000
 -3.320000000000000E-002    0.000000000000000E+000
 -3.310000000000000E-002    0.000000000000000E+000
 -3.300000000000000E-002    0.000000000000000E+000
 -3.290000000000000E-002    0.000000000000000E+000
 -3.280000000000000E-002    0.000000000000000E+000
 -3.270000000000000E-002    0.000000000000000E+000
 -3.260000000000000E-002    0.000000000000000E+000
 -3.250000000000000E-002    0.000000000000000E+000
 -3.240000000000000E-002    0.000000000000000E+000
 -3.230000000000000E-002    0.000000000000000E+000
 -3.220000000000000E-002    0.000000000000000E+000
 -3.210000000000000E-002    0.000000000000000E+000
 -3.200000000000000E-002    0.000000000000000E+000
 -3.190000000000000E-002    0.000000000000000E+000
 -3.180000000000000E-002    0.000000000000000E+000
 -3.170000000000000E-002    0.000000000000000E+000
 -3.160000000000000E-002    0.000000000000000E+000
 -3.150000000000000E-002    0.000000000000000E+000
 -3.140000000000000E-002    0.000000000000000E+000
 -3.130000000000000E-002    0.000000000000000E+000
 -3.120000000000000E-002    0.000000000000000E+000
 -3.110000000000000E-002    0.000000000000000E+000
 -3.100000000000000E-002    0.000000000000000E+000
 -3.090000000000000E-002    0.000000000000000E+000
 -3.080000000000000E-002    0.000000000000000E+000
 -3.070000000000000E-002    0.000000000000000E+000
 -3.060000000000000E-002    0.000000000000000E+000
 -3.050000000000000E-002    0.000000000000000E+000
 -3.040000000000000E-002    0.000000000000000E+000
 -3.030000000000000E-002    0.000000000000000E+000
 -3.020000000000000E-002    0.000000000000000E+000
 -3.010000000000000E-002    0.000000000000000E+000
 -3.000000000000000E-002    0.000000000000000E+000
 -2.990000000000000E-002    0.000000000000000E+000
 -2.980000000000000E-002    0.000000000000000E+000
 -2.970000000000000E-002    0.000000000000000E+000
 -2.960000000000000E-002    0.000000000000000E+000
 -2.950000000000000E-002    0.000000000000000E+000
 -2.940000000000000E-002    0.000000000000000E+000
 -2.930000000000000E-002    0.000000000000000E+000
 -2.920000000000000E-002    0.000000000000000E+000
 -2.910000000000000E-002    0.000000000000000E+000
 -2.900000000000000E-002    0.000000000000000E+000
 -2.890000000000000E-002    0.000000000000000E+000
 -2.880000000000000E-002    0.000000000000000E+000
 -2.870000000000000E-002    0.000000000000000E+000
 -2.860000000000000E-002    0.000000000000000E+000
 -2.850000000000000E-002    0.000000000000000E+000
 -2.840000000000000E-002    0.000000000000000E+000
 -2.830000000000000E-002    0.000000000000000E+000
 -2.820000000000000E-002    0.000000000000000E+000
 -2.810000000000000E-002    0.000000000000000E+000
 -2.800000000000000E-002    0.000000000000000E+000
 -2.790000000000000E-002    0.000000000000000E+000
 -2.780000000000000E-002    0.000000000000000E+000
 -2.770000000000000E-002    0.000000000000000E+000
 -2.760000000000000E-002    0.000000000000000E+000
 -2.750000000000000E-002    0.000000000000000E+000
 -2.740000000000000E-002    0.000000000000000E+000
 -2.730000000000000E-002    0.000000000000000E+000
 -2.720000000000000E-002    0.000000000000000E+000
 -2.710000000000000E-002    0.000000000000000E+000
 -2.700000000000000E-002    0.000000000000000E+000
 -2.690000000000000E-002    0.000000000000000E+000
 -2.680000000000000E-002    0.000000000000000E+000
 -2.670000000000000E-002    0.000000000000000E+000
 -2.660000000000000E-002    0.000000000000000E+000
 -2.650000000000000E-002    0.000000000000000E+000
 -2.640000000000000E-002    0.000000000000000E+000
 -2.630000000000000E-002    0.000000000000000E+000
 -2.620000000000000E-002    0.000000000000000E+000
 -2.610000000000000E-002    0.000000000000000E+000
 -2.600000000000000E-002    0.000000000000000E+000
 -2.590000000000000E-002    0.000000000000000E+000
 -2.580000000000000E-002    0.000000000000000E+000
 -2.570000000000000E-002    0.000000000000000E+000
 -2.560000000000000E-002    0.000000000000000E+000
 -2.550000000000000E-002    0.000000000000000E+000
 -2.540000000000000E-002    0.000000000000000E+000
 -2.530000000000000E-002    0.000000000000000E+000
 -2.520000000000000E-002    0.000000000000000E+000
 -2.510000000000000E-002    0.000000000000000E+000
 -2.500000000000000E-002    0.000000000000000E+000
 -2.490000000000000E-002    0.000000000000000E+000
 -2.480000000000000E-002    0.000000000000000E+000
 -2.470000000000000E-002    0.000000000000000E+000
 -2.460000000000000E-002    0.000000000000000E+000
 -2.450000000000000E-002    0.000000000000000E+000
 -2.440000000000000E-002    0.000000000000000E+000
 -2.430000000000000E-002    0.000000000000000E+000
 -2.420000000000000E-002    0.000000000000000E+000
 -2.410000000000000E-002    0.000000000000000E+000
 -2.400000000000000E-002    0.000000000000000E+000
 -2.390000000000000E-002    0.000000000000000E+000
 -2.380000000000000E-002    0.000000000000000E+000
 -2.370000000000000E-002    0.000000000000000E+000
 -2.360000000000000E-002    0.000000000000000E+000
 -2.350000000000000E-002    0.000000000000000E+000
 -2.340000000000000E-002    0.000000000000000E+000
 -2.330000000000000E-002    0.000000000000000E+000
 -2.320000000000000E-002    0.000000000000000E+000
 -2.310000000000000E-002    0.000000000000000E+000
 -2.300000000000000E-002    0.000000000000000E+000
 -2.290000000000000E-002    0.000000000000000E+000
 -2.280000000000000E-002    0.000000000000000E+000
 -2.270000000000000E-002    0.000000000000000E+000
 -2.260000000000000E-002    0.000000000000000E+000
 -2.250000000000000E-002    0.000000000000000E+000
 -2.240000000000000E-002    0.000000000000000E+000
 -2.230000000000000E-002    0.000000000000000E+000
 -2.220000000000000E-002    0.000000000000000E+000
 -2.210000000000000E-002    0.000000000000000E+000
 -2.200000000000000E-002    0.000000000000000E+000
 -2.190000000000000E-002    0.000000000000000E+000
 -2.180000000000000E-002    0.000000000000000E+000
 -2.170000000000000E-002    0.000000000000000E+000
 -2.160000000000000E-002    0.000000000000000E+000
 -2.150000000000000E-002    0.000000000000000E+000
 -2.140000000000000E-002    0.000000000000000E+000
 -2.130000000000000E-002    0.000000000000000E+000
 -2.120000000000000E-002    0.000000000000000E+000
 -2.110000000000000E-002    0.000000000000000E+000
 -2.100000000000000E-002    0.000000000000000E+000
 -2.090000000000000E-002    0.000000000000000E+000
 -2.080000000000000E-002    0.000000000000000E+000
 -2.070000000000000E-002    0.000000000000000E+000
 -2.060000000000000E-002    0.000000000000000E+000
 -2.050000000000000E-002    0.000000000000000E+000
 -2.040000000000000E-002    0.000000000000000E+000
 -2.030000000000000E-002    0.000000000000000E+000
 -2.020000000000000E-002    0.000000000000000E+000
 -2.010000000000000E-002    0.000000000000000E+000
 -2.000000000000000E-002    0.000000000000000E+000
 -1.990000000000000E-002    0.000000000000000E+000
 -1.980000000000000E-002    0.000000000000000E+000
 -1.970000000000000E-002    0.000000000000000E+000
 -1.960000000000000E-002    0.000000000000000E+000
 -1.950000000000000E-002    0.000000000000000E+000
 -1.940000000000000E-002    0.000000000000000E+000
 -1.930000000000000E-002    0.000000000000000E+000
 -1.920000000000000E-002    0.000000000000000E+000
 -1.910000000000000E-002    0.000000000000000E+000
 -1.900000000000000E-002    0.000000000000000E+000
 -1.890000000000000E-002    0.000000000000000E+000
 -1.880000000000000E-002    0.000000000000000E+000
 -1.870000000000000E-002    0.000000000000000E+000
 -1.860000000000000E-002    0.000000000000000E+000
 -1.850000000000000E-002    0.000000000000000E+000
 -1.840000000000000E-002    0.000000000000000E+000
 -1.830000000000000E-002    0.000000000000000E+000
 -1.820000000000000E-002    0.000000000000000E+000
 -1.810000000000000E-002    0.000000000000000E+000
 -1.800000000000000E-002    0.000000000000000E+000
 -1.790000000000000E-002    0.000000000000000E+000
 -1.780000000000000E-002    0.000000000000000E+000
 -1.770000000000000E-002    0.000000000000000E+000
 -1.760000000000000E-002    0.000000000000000E+000
 -1.750000000000000E-002    0.000000000000000E+000
 -1.740000000000000E-002    0.000000000000000E+000
 -1.730000000000000E-002    0.000000000000000E+000
 -1.720000000000000E-002    0.000000000000000E+000
 -1.710000000000000E-002    0.000000000000000E+000
 -1.700000000000000E-002    0.000000000000000E+000
 -1.690000000000000E-002    0.000000000000000E+000
 -1.680000000000000E-002    0.000000000000000E+000
 -1.670000000000000E-002    0.000000000000000E+000
 -1.660000000000000E-002    0.000000000000000E+000
 -1.650000000000000E-002    0.000000000000000E+000
 -1.640000000000000E-002    0.000000000000000E+000
 -1.630000000000000E-002    0.000000000000000E+000
 -1.620000000000000E-002    0.000000000000000E+000
 -1.610000000000000E-002    1.924390591266381E-047
 -1.600000000000000E-002    3.848781182532762E-047
 -1.590000000000000E-002    5.773171773799143E-047
 -1.580000000000000E-002    5.773171773799143E-047
 -1.570000000000000E-002    3.848781182532762E-047
 -1.560000000000000E-002   -6.414635304221270E-048
 -1.550000000000000E-002   -7.056098834643397E-047
 -1.540000000000000E-002   -2.822439533857359E-047
 -1.530000000000000E-002   -7.569269658981098E-047
 -1.520000000000000E-002   -4.233659300786038E-047
 -1.510000000000000E-002   -2.180976003435232E-047
 -1.500000000000000E-002    2.437561415604082E-047
 -1.490000000000000E-002    1.541514599556498E-046
 -1.480000000000000E-002    3.669566599079671E-046
 -1.470000000000000E-002    3.659529865144830E-047
 -1.460000000000000E-002   -2.149463944370633E-046
 -1.450000000000000E-002   -4.290829901067522E-046
 -1.440000000000000E-002   -5.970342115860479E-046
 -1.430000000000000E-002   -9.636784353483741E-046
 -1.420000000000000E-002   -2.720349760836365E-046
 -1.410000000000000E-002   -3.920690023464887E-046
 -1.400000000000000E-002   -4.885614424541556E-046
 -1.390000000000000E-002    3.072902983677987E-046
 -1.380000000000000E-002    1.183942214789460E-045
 -1.370000000000000E-002    2.505718375045660E-045
 -1.360000000000000E-002    4.518861201591552E-045
 -1.350000000000000E-002    6.217295421071941E-045
 -1.340000000000000E-002    7.314093371203676E-045
 -1.330000000000000E-002    7.949926041522217E-045
 -1.320000000000000E-002    7.329609071814828E-045
 -1.310000000000000E-002    4.121949759204496E-045
 -1.300000000000000E-002   -1.107632656723294E-045
 -1.290000000000000E-002   -9.056292527363304E-045
 -1.280000000000000E-002   -2.035615653260457E-044
 -1.270000000000000E-002   -3.376040204018501E-044
 -1.260000000000000E-002   -4.870537725943147E-044
 -1.250000000000000E-002   -6.341374538944136E-044
 -1.240000000000000E-002   -7.491727418568244E-044
 -1.230000000000000E-002   -7.834592047805652E-044
 -1.220000000000000E-002   -7.034593463483288E-044
 -1.210000000000000E-002   -4.486123735181751E-044
 -1.200000000000000E-002    1.482256049165155E-045
 -1.190000000000000E-002    7.367524144816863E-044
 -1.180000000000000E-002    1.716058038452396E-043
 -1.170000000000000E-002    2.921566884210359E-043
 -1.160000000000000E-002    4.250794723614184E-043
 -1.150000000000000E-002    5.562900580168725E-043
 -1.140000000000000E-002    6.606710229941040E-043
 -1.130000000000000E-002    7.072816977950468E-043
 -1.120000000000000E-002    6.582932324248498E-043
 -1.110000000000000E-002    4.720724811847490E-043
 -1.100000000000000E-002    1.105571841084557E-043
 -1.090000000000000E-002   -4.558157065560813E-043
 -1.080000000000000E-002   -1.237157395276891E-042
 -1.070000000000000E-002   -2.210395807316633E-042
 -1.060000000000000E-002   -3.311129906972126E-042
 -1.050000000000000E-002   -4.420782396443651E-042
 -1.040000000000000E-002   -5.360687834767745E-042
 -1.030000000000000E-002   -5.891737012917006E-042
 -1.020000000000000E-002   -5.722508846480389E-042
 -1.010000000000000E-002   -4.535492074421084E-042
 -1.000000000000000E-002   -2.023859650283621E-042
 -9.899999999999999E-003    2.054553968094629E-042
 -9.800000000000000E-003    7.805816323041637E-042
 -9.699999999999999E-003    1.511322065162266E-041
 -9.599999999999999E-003    2.355610481809001E-041
 -9.500000000000000E-003    3.232863259538228E-041
 -9.399999999999999E-003    4.018927906501729E-041
 -9.299999999999999E-003    4.545065719135829E-041
 -9.200000000000000E-003    4.604266045246169E-041
 -9.099999999999999E-003    3.965961027157486E-041
 -8.999999999999999E-003    2.401876781427412E-041
 -8.900000000000000E-003   -2.769883698934122E-042
 -8.799999999999999E-003   -4.172357617379620E-041
 -8.699999999999999E-003   -9.242537656107454E-041
 -8.600000000000000E-003   -1.524337154260724E-040
 -8.499999999999999E-003   -2.167340780706323E-040
 -8.399999999999999E-003   -2.773594863632845E-040
 -8.300000000000000E-003   -3.232844603481851E-040
 -8.199999999999999E-003   -3.407534265184869E-040
 -8.100000000000000E-003   -3.141809429250298E-040
 -8.000000000000000E-003   -2.277261327399406E-040
 -7.899999999999999E-003   -6.761466331525145E-041
 -7.800000000000000E-003    1.748507638747477E-040
 -7.699999999999999E-003    4.997172834426459E-040
 -7.599999999999999E-003    8.945810336310716E-040
 -7.499999999999999E-003    1.331023875146252E-039
 -7.399999999999999E-003    1.761927949299881E-039
 -7.299999999999999E-003    2.120470151186217E-039
 -7.199999999999999E-003    2.321644510752092E-039
 -7.100000000000000E-003    2.267168054557574E-039
 -6.999999999999999E-003    1.854465588900152E-039
 -6.899999999999999E-003    9.900960472732266E-040
 -6.800000000000000E-003   -3.925204918152988E-040
 -6.699999999999999E-003   -2.311921302467391E-039
 -6.599999999999999E-003   -4.715675916057714E-039
 -6.499999999999999E-003   -7.458405035566562E-039
 -6.399999999999999E-003   -1.028435701774637E-038
 -6.299999999999999E-003   -1.281899458265919E-038
 -6.199999999999999E-003   -1.457450326889373E-038
 -6.100000000000000E-003   -1.497405307794578E-038
 -5.999999999999999E-003   -1.339888312460221E-038
 -5.899999999999999E-003   -9.260499807692678E-039
 -5.800000000000000E-003   -2.097590464572174E-039
 -5.699999999999999E-003    8.306499399515842E-039
 -5.599999999999999E-003    2.179459181055782E-038
 -5.499999999999999E-003    3.770870207835741E-038
 -5.399999999999999E-003    5.478438278485186E-038
 -5.299999999999999E-003    7.108989006117141E-038
 -5.199999999999999E-003    8.403624121671195E-038
 -5.099999999999999E-003    9.048417782858187E-038
 -4.999999999999999E-003    8.697033778560151E-038
 -4.899999999999999E-003    7.006629998495260E-038
 -4.799999999999999E-003    3.687046935640095E-038
 -4.699999999999999E-003   -1.438568087260790E-038
 -4.599999999999999E-003   -8.365913182807691E-038
 -4.499999999999999E-003   -1.684122626505028E-037
 -4.399999999999999E-003   -2.630187337400299E-037
 -4.299999999999999E-003   -3.583741959941736E-037
 -4.199999999999999E-003   -4.418418572537003E-037
 -4.099999999999999E-003   -4.976634260529896E-037
 -3.999999999999999E-003   -5.079497269577828E-037
 -3.899999999999999E-003   -4.543255125412001E-037
 -3.799999999999999E-003   -3.202405641398934E-037
 -3.699999999999999E-003   -9.386972099315167E-038
 -3.599999999999999E-003    2.285812069306530E-037
 -3.499999999999999E-003    6.394709222021164E-037
 -3.399999999999999E-003    1.116645778624549E-036
 -3.299999999999999E-003    1.621224685888831E-036
 -3.199999999999999E-003    2.096845896518038E-036
 -3.099999999999999E-003    2.470987019845956E-036
 -2.999999999999999E-003    2.658903886385428E-036
 -2.899999999999999E-003    2.570559257550278E-036
 -2.799999999999999E-003    2.120638285421756E-036
 -2.699999999999999E-003    1.241372302063618E-036
 -2.599999999999999E-003   -1.025947021627100E-037
 -2.499999999999999E-003   -1.898575947965020E-036
 -2.399999999999999E-003   -4.071271808919505E-036
 -2.299999999999999E-003   -6.471535650428185E-036
 -2.199999999999999E-003   -8.871067541409086E-036
 -2.099999999999999E-003   -1.096567829246043E-035
 -1.999999999999999E-003   -1.238949970576948E-035
 -1.899999999999999E-003   -1.274182379808757E-035
 -1.799999999999999E-003   -1.162715599645485E-035
 -1.699999999999999E-003   -8.707424604798288E-036
 -1.599999999999999E-003   -3.763496134889995E-036
 -1.499999999999999E-003    3.239158950409727E-036
 -1.399999999999999E-003    1.208782412660691E-035
 -1.299999999999999E-003    2.227200221675002E-035
 -1.199999999999999E-003    3.295530827573737E-035
 -1.099999999999999E-003    4.298031704772545E-035
 -9.999999999999989E-004    5.091580210115767E-035
 -8.999999999999990E-004    5.515322128686608E-035
 -7.999999999999990E-004    5.405474660795226E-035
 -6.999999999999989E-004    4.614934895056809E-035
 -5.999999999999990E-004    3.036589276500108E-035
 -4.999999999999989E-004    6.284293859147644E-036
 -3.999999999999989E-004   -2.562223693299500E-035
 -2.999999999999989E-004   -6.378756554465656E-035
 -1.999999999999989E-004   -1.054335996298601E-034
 -9.999999999999892E-005   -1.465701188827366E-034
  1.084202172485504E-018   -1.821472496976625E-034
  1.000000000000011E-004   -2.063845807777408E-034
  2.000000000000011E-004   -2.132836321927223E-034
  3.000000000000011E-004   -1.973094064773288E-034
  4.000000000000011E-004   -1.541996793545262E-034
  5.000000000000011E-004   -8.183334570608555E-035
  6.000000000000011E-004    1.893828047058046E-035
  7.000000000000011E-004    1.436144176946659E-034
  8.000000000000011E-004    2.836513793278708E-034
  9.000000000000012E-004    4.264789334056768E-034
  1.000000000000001E-003    5.560339337908455E-034
  1.100000000000001E-003    6.538762996367225E-034
  1.200000000000001E-003    7.008960275072259E-034
  1.300000000000001E-003    6.795386859994204E-034
  1.400000000000001E-003    5.763914604740298E-034
  1.500000000000001E-003    3.848785499651030E-034
  1.600000000000001E-003    1.077349504443019E-034
  1.700000000000001E-003   -2.411308312249425E-034
  1.800000000000001E-003   -6.357929027386583E-034
  1.900000000000001E-003   -1.038858078059443E-033
  2.000000000000001E-003   -1.403693572053596E-033
  2.100000000000001E-003   -1.678448941939460E-033
  2.200000000000001E-003   -1.811777875150222E-033
  2.300000000000001E-003   -1.759890572117737E-033
  2.400000000000001E-003   -1.494282245236176E-033
  2.500000000000001E-003   -1.009207924311202E-033
  2.600000000000001E-003   -3.277574847689684E-034
  2.700000000000001E-003    4.947244579000326E-034
  2.800000000000001E-003    1.371094610262410E-033
  2.900000000000001E-003    2.187716457677350E-033
  3.000000000000001E-003    2.815167841589800E-033
  3.100000000000001E-003    3.124221324550756E-033
  3.200000000000001E-003    3.006177575288301E-033
  3.300000000000001E-003    2.395677192987076E-033
  3.400000000000001E-003    1.293195717933069E-033
  3.500000000000001E-003   -2.163398755802074E-034
  3.600000000000001E-003   -1.952891531704612E-033
  3.700000000000001E-003   -3.642679977197446E-033
  3.800000000000001E-003   -4.935085353112470E-033
  3.900000000000001E-003   -5.437329301797996E-033
  4.000000000000001E-003   -4.767109609680897E-033
  4.100000000000001E-003   -2.620772576139328E-033
  4.200000000000001E-003    1.148587563108821E-033
  4.300000000000001E-003    6.451942018522229E-033
  4.400000000000001E-003    1.289595250147780E-032
  4.500000000000001E-003    1.973942445842522E-032
  4.600000000000002E-003    2.588945446712190E-032
  4.700000000000001E-003    2.995104259339801E-032
  4.800000000000001E-003    3.034044659753086E-032
  4.900000000000002E-003    2.546644062403811E-032
  5.000000000000001E-003    1.397516433311065E-032
  5.100000000000001E-003   -4.956588083602971E-033
  5.200000000000001E-003   -3.130646063439453E-032
  5.300000000000002E-003   -6.390889582222016E-032
  5.400000000000001E-003   -1.002234079130990E-031
  5.500000000000001E-003   -1.362236914862409E-031
  5.600000000000002E-003   -1.664632389017729E-031
  5.700000000000001E-003   -1.843656112527318E-031
  5.800000000000001E-003   -1.827712640007307E-031
  5.900000000000002E-003   -1.547483849272209E-031
  6.000000000000001E-003   -9.463939801931425E-032
  6.100000000000001E-003    7.256727385482311E-034
  6.200000000000002E-003    1.307619686141342E-031
  6.300000000000002E-003    2.899642741923526E-031
  6.400000000000001E-003    4.670333714824337E-031
  6.500000000000001E-003    6.445034975031727E-031
  6.600000000000002E-003    7.990758176367209E-031
  6.700000000000001E-003    9.028339171704936E-031
  6.800000000000001E-003    9.254496169049031E-031
  6.900000000000002E-003    8.373904494066226E-031
  7.000000000000001E-003    6.140148961608486E-031
  7.100000000000001E-003    2.402856616199883E-031
  7.200000000000002E-003   -2.843261012125408E-031
  7.300000000000002E-003   -9.413227610691786E-031
  7.400000000000001E-003   -1.689746388272001E-030
  7.500000000000001E-003   -2.464590322564392E-030
  7.600000000000002E-003   -3.177797225130565E-030
  7.700000000000001E-003   -3.722472883400623E-030
  7.800000000000001E-003   -3.980706207040912E-030
  7.900000000000001E-003   -3.835050974861063E-030
  8.000000000000002E-003   -3.183259207010418E-030
  8.100000000000001E-003   -1.955344943579379E-030
  8.200000000000001E-003   -1.314960448891094E-031
  8.300000000000002E-003    2.241159730947474E-030
  8.400000000000001E-003    5.035347784286156E-030
  8.500000000000002E-003    8.036620448733527E-030
  8.600000000000002E-003    1.094508553493650E-029
  8.700000000000001E-003    1.338807780868215E-029
  8.800000000000002E-003    1.494520503445141E-029
  8.900000000000002E-003    1.518603603541114E-029
  9.000000000000001E-003    1.371922176336936E-029
  9.100000000000002E-003    1.025013633615638E-029
  9.200000000000002E-003    4.642247547069692E-030
  9.300000000000001E-003   -3.024228853980671E-030
  9.400000000000002E-003   -1.240423709523951E-029
  9.500000000000001E-003   -2.285893566144492E-029
  9.600000000000001E-003   -3.345439598359286E-029
  9.700000000000002E-003   -4.299525096693392E-029
  9.800000000000001E-003   -5.009829673805251E-029
  9.900000000000001E-003   -5.330736038607506E-029
  1.000000000000000E-002   -5.124630083756280E-029
  1.010000000000000E-002   -4.280143382987984E-029
  1.020000000000000E-002   -2.731900691355220E-029
  1.030000000000000E-002   -4.797972240373381E-030
  1.040000000000000E-002    2.394607267833521E-029
  1.050000000000000E-002    5.717249554771999E-029
  1.060000000000000E-002    9.218930882769923E-029
  1.070000000000000E-002    1.254322593474428E-028
  1.080000000000000E-002    1.526657948632615E-028
  1.090000000000000E-002    1.693117448985922E-028
  1.100000000000000E-002    1.708978897485955E-028
  1.110000000000000E-002    1.536023474278557E-028
  1.120000000000000E-002    1.148527108459947E-028
  1.130000000000000E-002    5.392251817594178E-029
  1.140000000000000E-002   -2.754583217168094E-029
  1.150000000000000E-002   -1.251703112566928E-028
  1.160000000000000E-002   -2.316899044896738E-028
  1.170000000000000E-002   -3.371274265884841E-028
  1.180000000000000E-002   -4.293053526641780E-028
  1.190000000000000E-002   -4.947368473965359E-028
  1.200000000000000E-002   -5.198739863500996E-028
  1.210000000000000E-002   -4.926498084598304E-028
  1.220000000000000E-002   -4.042014378480755E-028
  1.230000000000000E-002   -2.506151319299743E-028
  1.240000000000000E-002   -3.449429152133590E-029
  1.250000000000000E-002    2.338708860825781E-028
  1.260000000000000E-002    5.359585807076620E-028
  1.270000000000000E-002    8.452976287210917E-028
  1.280000000000000E-002    1.128727983487222E-027
  1.290000000000000E-002    1.348711233138029E-027
  1.300000000000000E-002    1.466653576730045E-027
  1.310000000000000E-002    1.447078875559581E-027
  1.320000000000000E-002    1.262355521791679E-027
  1.330000000000000E-002    8.975485234045230E-028
  1.340000000000000E-002    3.548656217845182E-028
  1.350000000000000E-002   -3.429075532336338E-028
  1.360000000000000E-002   -1.150595301092974E-027
  1.370000000000000E-002   -2.001001566016553E-027
  1.380000000000000E-002   -2.807883126466642E-027
  1.390000000000000E-002   -3.471736887174904E-027
  1.400000000000000E-002   -3.888327219327149E-027
  1.410000000000000E-002   -3.959548779504910E-027
  1.420000000000000E-002   -3.605865900801497E-027
  1.430000000000000E-002   -2.779210913554234E-027
  1.440000000000000E-002   -1.474966721826952E-027
  1.450000000000000E-002    2.585493113562942E-028
  1.460000000000000E-002    2.314705219485438E-027
  1.470000000000000E-002    4.528744240448419E-027
  1.480000000000000E-002    6.684665479366473E-027
  1.490000000000000E-002    8.529373566320180E-027
  1.500000000000000E-002    9.793940866156507E-027
  1.510000000000000E-002    1.022098542363940E-026
  1.520000000000000E-002    9.596245811452918E-027
  1.530000000000000E-002    7.781561983609304E-027
  1.540000000000000E-002    4.745744848121615E-027
  1.550000000000000E-002    5.893587230889665E-028
  1.560000000000000E-002   -4.440651684055155E-027
  1.570000000000000E-002   -9.950195936538256E-027
  1.580000000000000E-002   -1.541398150373008E-026
  1.590000000000000E-002   -2.020960735397838E-026
  1.600000000000000E-002   -2.366947643803793E-026
  1.610000000000000E-002   -2.514804302251364E-026
  1.620000000000000E-002   -2.409963158123284E-026
  1.630000000000000E-002   -2.015993865752255E-026
  1.640000000000000E-002   -1.322254741121606E-026
  1.650000000000000E-002   -3.500605028676736E-027
  1.660000000000000E-002    8.436238943073393E-027
  1.670000000000000E-002    2.165876100822028E-026
  1.680000000000000E-002    3.491577055574273E-026
  1.690000000000000E-002    4.671588390735773E-026
  1.700000000000000E-002    5.545255418672019E-026
  1.710000000000000E-002    5.956606491456240E-026
  1.720000000000000E-002    5.773090831705413E-026
  1.730000000000000E-002    4.905171996665036E-026
  1.740000000000000E-002    3.324670073372474E-026
  1.750000000000000E-002    1.079495060284452E-026
  1.760000000000000E-002   -1.697614675297701E-026
  1.770000000000000E-002   -4.788491810169377E-026
  1.780000000000000E-002   -7.898683522285242E-026
  1.790000000000000E-002   -1.067710579686833E-025
  1.800000000000000E-002   -1.274590963844053E-025
  1.810000000000000E-002   -1.373901408587619E-025
  1.820000000000000E-002   -1.334645208742431E-025
  1.830000000000000E-002   -1.136048058867854E-025
  1.840000000000000E-002   -7.718426741395390E-026
  1.850000000000000E-002   -2.536698148060924E-026
  1.860000000000000E-002    3.869644127393988E-026
  1.870000000000000E-002    1.098669237473527E-025