 -4.000000000000000E-002    0.000000000000000E+000
 -3.990000000000000E-002    0.000000000000000E+000
 -3.980000000000000E-002    0.000000000000000E+000
 -3.970000000000000E-002    0.000000000000000E+000
 -3.960000000000000E-002    0.000000000000000E+000
 -3.950000000000000E-002    0.000000000000000E+000
 -3.940000000000000E-002    0.000000000000000E+000
 -3.930000000000000E-002    0.000000000000000E+000
 -3.920000000000000E-002    0.000000000000000E+000
 -3.910000000000000E-002    0.000000000000000E+000
 -3.900000000000000E-002    0.000000000000000E+000
 -3.890000000000000E-002    0.000000000000000E+000
 -3.880000000000000E-002    0.000000000000000E+000
 -3.870000000000000E-002    0.000000000000000E+000
 -3.860000000000000E-002    0.000000000000000E+000
 -3.850000000000000E-002    0.000000000000000E+000
 -3.840000000000000E-002    0.000000000000000E+000
 -3.830000000000000E-002    0.000000000000000E+000
 -3.820000000000000E-002    0.000000000000000E+000
 -3.810000000000000E-002    0.000000000000000E+000
 -3.800000000000000E-002    0.000000000000000E+000
 -3.790000000000000E-002    0.000000000000000E+000
 -3.780000000000000E-002    0.000000000000000E+000
 -3.770000000000000E-002    0.000000000000000E+000
 -3.760000000000000E-002    0.000000000000000E+000
 -3.750000000000000E-002    0.000000000000000E+000
 -3.740000000000000E-002    0.000000000000000E+000
 -3.730000000000000E-002    0.000000000000000E+000
 -3.720000000000000E-002    0.000000000000000E+000
 -3.710000000000000E-002    0.000000000000000E+000
 -3.700000000000000E-002    0.000000000000000E+000
 -3.690000000000000E-002    0.000000000000000E+000
 -3.680000000000000E-002    0.000000000000000E+000
 -3.670000000000000E-002    0.000000000000000E+000
 -3.660000000000000E-002    0.000000000000000E+000
 -3.650000000000000E-002    0.000000000000000E+000
 -3.640000000000000E-002    0.000000000000000E+000
 -3.630000000000000E-002    0.000000000000000E+000
 -3.620000000000000E-002    0.000000000000000E+000
 -3.610000000000000E-002    0.000000000000000E+000
 -3.600000000000000E-002    0.000000000000000E+000
 -3.590000000000000E-002    0.000000000000000E+000
 -3.580000000000000E-002    0.000000000000000E+000
 -3.570000000000000E-002    0.000000000000000E+000
 -3.560000000000000E-002    0.000000000000000E+000
 -3.550000000000000E-002    0.000000000000000E+000
 -3.540000000000000E-002    0.000000000000000E+000
 -3.530000000000000E-002    0.000000000000000E+000
 -3.520000000000000E-002    0.000000000000000E+000
 -3.510000000000000E-002    0.000000000000000E+000
 -3.500000000000000E-002    0.000000000000000E+000
 -3.490000000000000E-002    0.000000000000000E+000
 -3.480000000000000E-002    0.000000000000000E+000
 -3.470000000000000E-002    0.000000000000000E+000
 -3.460000000000000E-002    0.000000000000000E+000
 -3.450000000000000E-002    0.000000000000000E+000
 -3.440000000000000E-002    0.000000000000000E+000
 -3.430000000000000E-002    0.000000000000000E+000
 -3.420000000000000E-002    0.000000000000000E+000
 -3.410000000000000E-002    0.000000000000000E+000
 -3.400000000000000E-002    0.000000000000000E+000
 -3.390000000000000E-002    0.000000000000000E+000
 -3.380000000000000E-002    0.000000000000000E+000
 -3.370000000000000E-002    0.000000000000000E+000
 -3.360000000000000E-002    0.000000000000000E+000
 -3.350000000000000E-002    0.000000000000000E+000
 -3.340000000000000E-002    0.000000000000000E+000
 -3.330000000000000E-002    0.000000000000000E+000
 -3.320000000000000E-002    0.000000000000000E+000
 -3.310000000000000E-002    0.000000000000000E+000
 -3.300000000000000E-002    0.000000000000000E+000
 -3.290000000000000E-002    0.000000000000000E+000
 -3.280000000000000E-002    0.000000000000000E+000
 -3.270000000000000E-002    0.000000000000000E+000
 -3.260000000000000E-002    0.000000000000000E+000
 -3.250000000000000E-002    0.000000000000000E+000
 -3.240000000000000E-002    0.000000000000000E+000
 -3.230000000000000E-002    0.000000000000000E+000
 -3.220000000000000E-002    0.000000000000000E+000
 -3.210000000000000E-002    0.000000000000000E+000
 -3.200000000000000E-002    0.000000000000000E+000
 -3.190000000000000E-002    0.000000000000000E+000
 -3.180000000000000E-002    0.000000000000000E+000
 -3.170000000000000E-002    0.000000000000000E+000
 -3.160000000000000E-002    0.000000000000000E+000
 -3.150000000000000E-002    0.000000000000000E+000
 -3.140000000000000E-002    0.000000000000000E+000
 -3.130000000000000E-002    0.000000000000000E+000
 -3.120000000000000E-002    0.000000000000000E+000
 -3.110000000000000E-002    0.000000000000000E+000
 -3.100000000000000E-002    0.000000000000000E+000
 -3.090000000000000E-002    0.000000000000000E+000
 -3.080000000000000E-002   -1.924390591266381E-047
 -3.070000000000000E-002   -3.848781182532762E-047
 -3.060000000000000E-002   -3.848781182532762E-047
 -3.050000000000000E-002   -3.848781182532762E-047
 -3.040000000000000E-002   -1.282927060844254E-047
 -3.030000000000000E-002    2.221465941803953E-046
 -3.020000000000000E-002    7.667083059413770E-046
 -3.010000000000000E-002    1.691416853020937E-045
 -3.000000000000000E-002    3.135228783298932E-045
 -2.990000000000000E-002    5.072285342904140E-045
 -2.980000000000000E-002    7.476927990619673E-045
 -2.970000000000000E-002    1.006579053814678E-044
 -2.960000000000000E-002    1.095742820583988E-044
 -2.950000000000000E-002    9.480136027811507E-045
 -2.940000000000000E-002    3.164563880752630E-045
 -2.930000000000000E-002   -1.283220552251601E-044
 -2.920000000000000E-002   -4.258734867652560E-044
 -2.910000000000000E-002   -9.179763963562849E-044
 -2.900000000000000E-002   -1.663247281452618E-043
 -2.890000000000000E-002   -2.704813977852545E-043
 -2.880000000000000E-002   -4.023507098433957E-043
 -2.870000000000000E-002   -5.502748981549188E-043
 -2.860000000000000E-002   -6.851896689003696E-043
 -2.850000000000000E-002   -7.507668253429788E-043
 -2.840000000000000E-002   -6.556788092933234E-043
 -2.830000000000000E-002   -2.631375820669908E-043
 -2.820000000000000E-002    6.096425841001525E-043
 -2.810000000000000E-002    2.185816409548537E-042
 -2.800000000000000E-002    4.704255102470496E-042
 -2.790000000000000E-002    8.362002938322254E-042
 -2.780000000000000E-002    1.322367907801781E-041
 -2.770000000000000E-002    1.907771409420334E-041
 -2.760000000000000E-002    2.524335419286177E-041
 -2.750000000000000E-002    3.032754687506243E-041
 -2.740000000000000E-002    3.196349974919748E-041
 -2.730000000000000E-002    2.657417459124323E-041
 -2.720000000000000E-002    9.255240563588773E-042
 -2.710000000000000E-002   -2.609773289276346E-041
 -2.700000000000000E-002   -8.624657503096540E-041
 -2.690000000000000E-002   -1.774359970229229E-040
 -2.680000000000000E-002   -3.033821614213850E-040
 -2.670000000000000E-002   -4.622306549565627E-040
 -2.660000000000000E-002   -6.424247226191942E-040
 -2.650000000000000E-002   -8.176319557167976E-040
 -2.640000000000000E-002   -9.412197757032980E-040
 -2.630000000000000E-002   -9.412735188404576E-040
 -2.620000000000000E-002   -7.177766936927374E-040
 -2.610000000000000E-002   -1.442732005277196E-040
 -2.600000000000000E-002    9.229720928671791E-040
 -2.590000000000000E-002    2.624816843296652E-039
 -2.580000000000000E-002    5.064583594680456E-039
 -2.570000000000000E-002    8.256172787908277E-039
 -2.560000000000000E-002    1.205421083685922E-038
 -2.550000000000000E-002    1.606904166324301E-038
 -2.540000000000000E-002    1.957479246081526E-038
 -2.530000000000000E-002    2.142607480818961E-038
 -2.520000000000000E-002    2.000784519451703E-038
 -2.510000000000000E-002    1.325254038587435E-038
 -2.500000000000000E-002   -1.232722382802400E-039
 -2.490000000000000E-002   -2.588100642316417E-038
 -2.480000000000000E-002   -6.267643113321083E-038
 -2.470000000000000E-002   -1.124280759420662E-037
 -2.460000000000000E-002   -1.738024625908357E-037
 -2.450000000000000E-002   -2.421583837858356E-037
 -2.440000000000000E-002   -3.082976598305866E-037
 -2.430000000000000E-002   -3.573360817053392E-037
 -2.420000000000000E-002   -3.680044611138949E-037
 -2.410000000000000E-002   -3.127974599219007E-037
 -2.400000000000000E-002   -1.594764343874357E-037
 -2.390000000000000E-002    1.255270033480663E-037
 -2.380000000000000E-002    5.713064001515733E-037
 -2.370000000000000E-002    1.193950219902943E-036
 -2.360000000000000E-002    1.985308151846966E-036
 -2.350000000000000E-002    2.899625490891417E-036
 -2.340000000000000E-002    3.839380076097181E-036
 -2.330000000000000E-002    4.642601427862828E-036
 -2.320000000000000E-002    5.075008131578732E-036
 -2.310000000000000E-002    4.831306863873091E-036
 -2.300000000000000E-002    3.550747413028278E-036
 -2.290000000000000E-002    8.522147468158987E-037
 -2.280000000000000E-002   -3.606571900062522E-036
 -2.270000000000000E-002   -1.004318638408043E-035
 -2.260000000000000E-002   -1.843897332348619E-035
 -2.250000000000000E-002   -2.840829454838802E-035
 -2.240000000000000E-002   -3.906212163446514E-035
 -2.230000000000000E-002   -4.888802342445532E-035
 -2.220000000000000E-002   -5.567762844262274E-035
 -2.210000000000000E-002   -5.654061139344881E-035
 -2.200000000000000E-002   -4.804940403083757E-035
 -2.190000000000000E-002   -2.655843937559726E-035
 -2.180000000000000E-002    1.126684457992232E-035
 -2.170000000000000E-002    6.769550842744148E-035
 -2.160000000000000E-002    1.429679144215674E-034
 -2.150000000000000E-002    2.341867703317462E-034
 -2.140000000000000E-002    3.341838865412018E-034
 -2.130000000000000E-002    4.305505176562265E-034
 -2.120000000000000E-002    5.050852546595372E-034
 -2.110000000000000E-002    5.339679535529107E-034
 -2.100000000000000E-002    4.889938964624629E-034
 -2.090000000000000E-002    3.401833466410271E-034
 -2.080000000000000E-002    5.999572198728602E-035
 -2.070000000000000E-002   -3.707889864998255E-034
 -2.060000000000000E-002   -9.557185991379402E-034
 -2.050000000000000E-002   -1.674393460062583E-033
 -2.040000000000000E-002   -2.474237406852652E-033
 -2.030000000000000E-002   -3.263739643856477E-033
 -2.020000000000000E-002   -3.909018997953545E-033
 -2.010000000000000E-002   -4.235867107450482E-033
 -2.000000000000000E-002   -4.039506705945422E-033
 -1.990000000000000E-002   -3.104035629074079E-033
 -1.980000000000000E-002   -1.232800018453250E-033
 -1.970000000000000E-002    1.710334331056852E-033
 -1.960000000000000E-002    5.750687774092448E-033
 -1.950000000000000E-002    1.074769962438359E-032
 -1.940000000000000E-002    1.634206324380805E-032
 -1.930000000000000E-002    2.191481203564627E-032
 -1.920000000000000E-002    2.657048701002818E-032
 -1.910000000000000E-002    2.915792158819140E-032
 -1.900000000000000E-002    2.834195250263813E-032
 -1.890000000000000E-002    2.273681503627208E-032
 -1.880000000000000E-002    1.110652951735106E-032
 -1.870000000000000E-002   -7.371109191359982E-033
 -1.860000000000000E-002   -3.279222111416072E-032
 -1.850000000000000E-002   -6.419600360783995E-032
 -1.840000000000000E-002   -9.926097230226097E-032
 -1.830000000000000E-002   -1.340889796886568E-031
 -1.820000000000000E-002   -1.631491912557383E-031
 -1.810000000000000E-002   -1.794589774582679E-031
 -1.800000000000000E-002   -1.750724487516913E-031
 -1.790000000000000E-002   -1.419278440201342E-031
 -1.780000000000000E-002   -7.306813400132922E-032
 -1.770000000000000E-002    3.580449213752135E-032
 -1.760000000000000E-002    1.845492754012660E-031
 -1.750000000000000E-002    3.667725330505627E-031
 -1.740000000000000E-002    5.682513081636999E-031
 -1.730000000000000E-002    7.659409321739061E-031
 -1.720000000000000E-002    9.279605789166440E-031
 -1.710000000000000E-002    1.014954034864297E-030
 -1.700000000000000E-002    9.831656028836008E-031
 -1.690000000000000E-002    7.894365153901391E-031
 -1.680000000000000E-002    3.981069096094700E-031
 -1.670000000000000E-002   -2.104966888350674E-031
 -1.660000000000000E-002   -1.030682197731623E-030
 -1.650000000000000E-002   -2.022226113734712E-030
 -1.640000000000000E-002   -3.102923855913305E-030
 -1.630000000000000E-002   -4.144678110046442E-030
 -1.620000000000000E-002   -4.975098976479742E-030
 -1.610000000000000E-002   -5.386500614643734E-030
 -1.600000000000000E-002   -5.153759911766277E-030
 -1.590000000000000E-002   -4.061693021430114E-030
 -1.580000000000000E-002   -1.941398375790417E-030
 -1.570000000000000E-002    1.286573358597564E-030
 -1.560000000000000E-002    5.566206286340126E-030
 -1.550000000000000E-002    1.066307825979394E-029
 -1.540000000000000E-002    1.613214090344685E-029
 -1.530000000000000E-002    2.130508196453451E-029
 -1.520000000000000E-002    2.530645335459774E-029
 -1.510000000000000E-002    2.710674745219055E-029
 -1.500000000000000E-002    2.561807526611301E-029
 -1.490000000000000E-002    1.983370858552767E-029
 -1.480000000000000E-002    9.006643392482517E-030
 -1.470000000000000E-002   -7.145238115749885E-030
 -1.460000000000000E-002   -2.822831551751901E-029
 -1.450000000000000E-002   -5.298588668141064E-029
 -1.440000000000000E-002   -7.917047836580744E-029
 -1.430000000000000E-002   -1.035159020656286E-028
 -1.420000000000000E-002   -1.218485863927530E-028
 -1.410000000000000E-002   -1.293709812606821E-028
 -1.400000000000000E-002   -1.211360041915503E-028
 -1.390000000000000E-002   -9.270999367078361E-029
 -1.380000000000000E-002   -4.099306287329634E-029
 -1.370000000000000E-002    3.486801297300904E-029
 -1.360000000000000E-002    1.325750441905034E-028
 -1.350000000000000E-002    2.459158502782305E-028
 -1.340000000000000E-002    3.643027890028130E-028
 -1.330000000000000E-002    4.727815461188194E-028
 -1.320000000000000E-002    5.526683556022514E-028
 -1.310000000000000E-002    5.829362305193109E-028
 -1.300000000000000E-002    5.424029850474740E-028
 -1.290000000000000E-002    4.126759831211556E-028
 -1.280000000000000E-002    1.816850182910327E-028
 -1.270000000000000E-002   -1.525053447935770E-028
 -1.260000000000000E-002   -5.780540001989101E-028
 -1.250000000000000E-002   -1.066445192519719E-027
 -1.240000000000000E-002   -1.570987892189065E-027
 -1.230000000000000E-002   -2.027379698645086E-027
 -1.220000000000000E-002   -2.356924819971219E-027
 -1.210000000000000E-002   -2.472809473527970E-027
 -1.200000000000000E-002   -2.289535340582717E-027
 -1.190000000000000E-002   -1.735195810850536E-027
 -1.180000000000000E-002   -7.657842479162098E-028
 -1.170000000000000E-002    6.198237883966277E-028
 -1.160000000000000E-002    2.366089647474237E-027
 -1.150000000000000E-002    4.350528848702363E-027
 -1.140000000000000E-002    6.379449465653501E-027
 -1.130000000000000E-002    8.192177423355526E-027
 -1.120000000000000E-002    9.475817210041303E-027
 -1.110000000000000E-002    9.891757519424035E-027
 -1.100000000000000E-002    9.113879920052309E-027
 -1.090000000000000E-002    6.876786804822070E-027
 -1.080000000000000E-002    3.030479144136614E-027
 -1.070000000000000E-002   -2.404068947352178E-027
 -1.060000000000000E-002   -9.185770810741801E-027
 -1.050000000000000E-002   -1.681938306552791E-026
 -1.040000000000000E-002   -2.454572229151010E-026
 -1.030000000000000E-002   -3.136470342531794E-026
 -1.020000000000000E-002   -3.609781853546233E-026
 -1.010000000000000E-002   -3.749323207198297E-026
 -1.000000000000000E-002   -3.437178180710807E-026
 -9.899999999999999E-003   -2.580612326863387E-026
 -9.800000000000000E-003   -1.131849974239065E-026
 -9.699999999999999E-003    8.924150980489262E-027
 -9.599999999999999E-003    3.394476057620737E-026
 -9.500000000000000E-003    6.185117978323484E-026
 -9.399999999999999E-003    8.982313072550462E-026
 -9.299999999999999E-003    1.142190598549085E-025
 -9.200000000000000E-003    1.308227093606331E-025
 -9.099999999999999E-003    1.352360279446105E-025
 -8.999999999999999E-003    1.234072989247312E-025
 -8.900000000000000E-003    9.226209093174903E-026
 -8.799999999999999E-003    4.038198325945509E-026
 -8.699999999999999E-003   -3.134585037336647E-026
 -8.600000000000000E-003   -1.192022593598781E-025
 -8.499999999999999E-003   -2.163367267809957E-025
 -8.399999999999999E-003   -3.127968048837544E-025
 -8.300000000000000E-003   -3.959726780328234E-025
 -8.199999999999999E-003   -4.515112395866882E-025
 -8.100000000000000E-003   -4.647068971640556E-025
 -8.000000000000000E-003   -4.223154677528987E-025
 -7.899999999999999E-003   -3.146664853956677E-025
 -7.800000000000000E-003   -1.378776265592821E-025
 -7.699999999999999E-003    1.040915302063874E-025
 -7.599999999999999E-003    3.978575798778622E-025
 -7.499999999999999E-003    7.198345365047910E-025
 -7.399999999999999E-003    1.036571507430959E-024
 -7.299999999999999E-003    1.306456323419079E-024
 -7.199999999999999E-003    1.482920597929215E-024
 -7.100000000000000E-003    1.519121174859693E-024
 -6.999999999999999E-003    1.373873851972608E-024
 -6.899999999999999E-003    1.018394491979205E-024
 -6.800000000000000E-003    4.431823283858693E-025
 -6.699999999999999E-003   -3.358071690866327E-025
 -6.599999999999999E-003   -1.272679002398305E-024
 -6.499999999999999E-003   -2.289812358692334E-024
 -6.399999999999999E-003   -3.279686311110748E-024
 -6.299999999999999E-003   -4.110993555255616E-024
 -6.199999999999999E-003   -4.639336795357660E-024
 -6.100000000000000E-003   -4.722280051952164E-024
 -5.999999999999999E-003   -4.237915881991024E-024
 -5.899999999999999E-003   -3.105440169206076E-024
 -5.800000000000000E-003   -1.305600820818889E-024
 -5.699999999999999E-003    1.101626677356558E-024
 -5.599999999999999E-003    3.965077365111889E-024
 -5.499999999999999E-003    7.039079320960621E-024
 -5.399999999999999E-003    9.991310550493337E-024
 -5.299999999999999E-003    1.242356302242277E-023
 -5.199999999999999E-003    1.390589227076213E-023
 -5.099999999999999E-003    1.402306390633278E-023
 -4.999999999999999E-003    1.243036041844351E-023
 -4.899999999999999E-003    8.913916150078292E-024
 -4.799999999999999E-003    3.449024138669968E-024
 -4.699999999999999E-003   -3.751447022954058E-024
 -4.599999999999999E-003   -1.220700987249442E-023
 -4.499999999999999E-003   -2.116603499324121E-023
 -4.399999999999999E-003   -2.963547250090888E-023
 -4.299999999999999E-003   -3.644789767081620E-023
 -4.199999999999999E-003   -4.036622857932877E-023
 -4.099999999999999E-003   -4.022175058167997E-023
 -3.999999999999999E-003   -3.507590074442566E-023
 -3.899999999999999E-003   -2.439105407748397E-023
 -3.799999999999999E-003   -8.190970051165912E-024
 -3.699999999999999E-003    1.281154008610560E-023
 -3.599999999999999E-003    3.714326105489148E-023
 -3.499999999999999E-003    6.257737814374822E-023
 -3.399999999999999E-003    8.623548883986407E-023
 -3.299999999999999E-003    1.047938591671867E-022
 -3.199999999999999E-003    1.147919951590609E-022
 -3.099999999999999E-003    1.130284060670131E-022
 -2.999999999999999E-003    9.701417795299876E-023
 -2.899999999999999E-003    6.544127996054164E-023
 -2.799999999999999E-003    1.861087533907879E-023
 -2.699999999999999E-003   -4.124010272635165E-023
 -2.599999999999999E-003   -1.097771057967658E-022
 -2.499999999999999E-003   -1.806274115714832E-022
 -2.399999999999999E-003   -2.457024686604261E-022
 -2.299999999999999E-003   -2.958016546765178E-022
 -2.199999999999999E-003   -3.214852806708160E-022
 -2.099999999999999E-003   -3.141689591490337E-022
 -1.999999999999999E-003   -2.673538575633070E-022
 -1.899999999999999E-003   -1.778724701104053E-022
 -1.799999999999999E-003   -4.700130294986203E-023
 -1.699999999999999E-003    1.187234294525239E-022
 -1.599999999999999E-003    3.071499201320051E-022
 -1.499999999999999E-003    5.007563741564236E-022
 -1.399999999999999E-003    6.775965173889575E-022
 -1.299999999999999E-003    8.129790595516853E-022
 -1.199999999999999E-003    8.818341644109643E-022
 -1.099999999999999E-003    8.616260814480269E-022
 -9.999999999999989E-004    7.355761066998429E-022
 -8.999999999999990E-004    4.958738800291323E-022
 -7.999999999999990E-004    1.464896496177476E-022
 -6.999999999999989E-004   -2.948322029659870E-022
 -5.999999999999990E-004   -7.958046481560052E-022
 -4.999999999999989E-004   -1.310397858230698E-021
 -3.999999999999989E-004   -1.781431976071418E-021
 -2.999999999999989E-004   -2.145019033126533E-021
 -1.999999999999989E-004   -2.336700116787625E-021
 -9.999999999999892E-005   -2.298890812404094E-021
  1.084202172485504E-018   -1.989015454276752E-021
  1.000000000000011E-004   -1.387505279019139E-021
  2.000000000000011E-004   -5.046881219000176E-022
  3.000000000000011E-004    6.144617599404352E-022
  4.000000000000011E-004    1.888695461594589E-021
  5.000000000000011E-004    3.202783658296585E-021
  6.000000000000011E-004    4.414230830752550E-021
  7.000000000000011E-004    5.364475599321519E-021
  8.000000000000011E-004    5.894129886451611E-021
  9.000000000000012E-004    5.861250964923774E-021
  1.000000000000001E-003    5.161084564939008E-021
  1.100000000000001E-003    3.745251185647880E-021
  1.200000000000001E-003    1.638032299580241E-021
  1.300000000000001E-003   -1.052693068874429E-021
  1.400000000000001E-003   -4.132139464274161E-021
  1.500000000000001E-003   -7.324745261571449E-021
  1.600000000000001E-003   -1.029078314006917E-020
  1.700000000000001E-003   -1.265346306613983E-020
  1.800000000000001E-003   -1.403530803519030E-020
  1.900000000000001E-003   -1.410128844007165E-020
  2.000000000000001E-003   -1.260493876750470E-020
  2.100000000000001E-003   -9.432658020509656E-021
  2.200000000000001E-003   -4.640726172879987E-021
  2.300000000000001E-003    1.520564823531093E-021
  2.400000000000001E-003    8.600771418816840E-021
  2.500000000000001E-003    1.596508746493397E-020
  2.600000000000001E-003    2.283414681324274E-020
  2.700000000000001E-003    2.834750664707809E-020
  2.800000000000001E-003    3.164767153291150E-020
  2.900000000000001E-003    3.197857214602293E-020
  3.000000000000001E-003    2.878968885809041E-020
  3.100000000000001E-003    2.183476495790513E-020
  3.200000000000001E-003    1.125280651813876E-020
  3.300000000000001E-003   -2.381079312649205E-021
  3.400000000000001E-003   -1.804609327408867E-020
  3.500000000000001E-003   -3.431564892468559E-020
  3.600000000000001E-003   -4.945071585230481E-020
  3.700000000000001E-003   -6.154504781401568E-020
  3.800000000000001E-003   -6.871448784831713E-020
  3.900000000000001E-003   -6.931609874316588E-020
  4.000000000000001E-003   -6.217701945933632E-020
  4.100000000000001E-003   -4.680836769685069E-020
  4.200000000000001E-003   -2.357707136975300E-020
  4.300000000000001E-003    6.191245373798916E-021
  4.400000000000001E-003    4.020180582885206E-020
  4.500000000000001E-003    7.528945344861700E-020
  4.600000000000002E-003    1.076337263395593E-019
  4.700000000000001E-003    1.330851195019815E-019
  4.800000000000001E-003    1.475837878693609E-019
  4.900000000000002E-003    1.476382705319483E-019
  5.000000000000001E-003    1.308194089272606E-019
  5.100000000000001E-003    9.621554899429889E-020
  5.200000000000001E-003    4.479060263689349E-020
  5.300000000000002E-003   -2.041209059349269E-020
  5.400000000000001E-003   -9.426893591640564E-020
  5.500000000000001E-003   -1.698119091040775E-019
  5.600000000000002E-003   -2.387133425381878E-019
  5.700000000000001E-003   -2.920054785081381E-019
  5.800000000000001E-003   -3.209917247678799E-019
  5.900000000000002E-003   -3.182777119476213E-019
  6.000000000000001E-003   -2.788246212422054E-019
  6.100000000000001E-003   -2.009095319535685E-019
  6.200000000000002E-003   -8.686880433521622E-020
  6.300000000000002E-003    5.649468054547110E-020
  6.400000000000001E-003    2.179409181926677E-019
  6.500000000000001E-003    3.823260265063645E-019
  6.600000000000002E-003    5.316608989995889E-019
  6.700000000000001E-003    6.466609572489616E-019
  6.800000000000001E-003    7.086917995976414E-019
  6.900000000000002E-003    7.019567111491498E-019
  7.000000000000001E-003    6.157194610018640E-019
  7.100000000000001E-003    4.463209399097430E-019
  7.200000000000002E-003    1.987307755367599E-019
  7.300000000000002E-003   -1.126110642627018E-019
  7.400000000000001E-003   -4.638687970355730E-019
  7.500000000000001E-003   -8.229368495940058E-019
  7.600000000000002E-003   -1.151657576555663E-018
  7.700000000000001E-003   -1.409055572829361E-018
  7.800000000000001E-003   -1.555389746229229E-018
  7.900000000000001E-003   -1.556703455794547E-018
  8.000000000000002E-003   -1.389448232358523E-018
  8.100000000000001E-003   -1.044685471096298E-018
  8.200000000000001E-003   -5.313398505996933E-019
  8.300000000000002E-003    1.219961900381120E-019
  8.400000000000001E-003    8.671242617297362E-019
  8.500000000000002E-003    1.638443794311876E-018
  8.600000000000002E-003    2.357380325133236E-018
  8.700000000000001E-003    2.938890304731687E-018
  8.800000000000002E-003    3.299645193166467E-018
  8.900000000000002E-003    3.367257213953812E-018
  9.000000000000001E-003    3.089700355328737E-018
  9.100000000000002E-003    2.443936652154668E-018
  9.200000000000002E-003    1.442697812460749E-018
  9.300000000000001E-003    1.384212726259085E-019
  9.400000000000002E-003   -1.376499030335199E-018
  9.500000000000001E-003   -2.973708332410932E-018
  9.600000000000001E-003   -4.497316295031880E-018
  9.700000000000002E-003   -5.776483282785165E-018
  9.800000000000001E-003   -6.641413857271350E-018
  9.900000000000001E-003   -6.941528477274908E-018
  1.000000000000000E-002   -6.564174705039317E-018
  1.010000000000000E-002   -5.451956408373675E-018
  1.020000000000000E-002   -3.616631376519635E-018
  1.030000000000000E-002   -1.147612263417334E-018
  1.040000000000000E-002    1.786588548052876E-018
  1.050000000000000E-002    4.945104348433768E-018
  1.060000000000000E-002    8.030070143087729E-018
  1.070000000000000E-002    1.071014116716875E-017
  1.080000000000000E-002    1.265079169824299E-017
  1.090000000000000E-002    1.354910710395071E-017
  1.100000000000000E-002    1.316998778156034E-017
  1.110000000000000E-002    1.138010702507179E-017
  1.120000000000000E-002    8.175724769045753E-018
  1.130000000000000E-002    3.700568393944585E-018
  1.140000000000000E-002   -1.749442753935077E-018
  1.150000000000000E-002   -7.736903068383838E-018
  1.160000000000000E-002   -1.370998684259547E-017
  1.170000000000000E-002   -1.904518500692273E-017
  1.180000000000000E-002   -2.310329585043764E-017
  1.190000000000000E-002   -2.529448033810755E-017
  1.200000000000000E-002   -2.514672436253775E-017
  1.210000000000000E-002   -2.237092088344801E-017
  1.220000000000000E-002   -1.691523703510680E-017
  1.230000000000000E-002   -9.001626976394341E-018
  1.240000000000000E-002    8.617035010700949E-019
  1.250000000000000E-002    1.189634704010016E-017
  1.260000000000000E-002    2.310028566273397E-017
  1.270000000000000E-002    3.332408973545819E-017
  1.280000000000000E-002    4.137253160623345E-017
  1.290000000000000E-002    4.612419913096200E-017
  1.300000000000000E-002    4.665883099378618E-017
  1.310000000000000E-002    4.237995943569113E-017
  1.320000000000000E-002    3.311932165621269E-017
  1.330000000000000E-002    1.920968563287368E-017
  1.340000000000000E-002    1.514373728442629E-018
  1.350000000000000E-002   -1.859521973975177E-017
  1.360000000000000E-002   -3.931840852358620E-017
  1.370000000000000E-002   -5.855923766806129E-017
  1.380000000000000E-002   -7.410870858288916E-017
  1.390000000000000E-002   -8.386224102674282E-017
  1.400000000000000E-002   -8.605395979422334E-017
  1.410000000000000E-002   -7.948538096882142E-017
  1.420000000000000E-002   -6.372369955316294E-017
  1.430000000000000E-002   -3.924500504861044E-017
  1.440000000000000E-002   -7.500378695451860E-018
  1.450000000000000E-002    2.911189326412068E-017
  1.460000000000000E-002    6.737697300508145E-017
  1.470000000000000E-002    1.034963334350758E-016
  1.480000000000000E-002    1.334113562581326E-016
  1.490000000000000E-002    1.531952318023909E-016
  1.500000000000000E-002    1.594806925977189E-016
  1.510000000000000E-002    1.498833583665316E-016
  1.520000000000000E-002    1.233756612823417E-016
  1.530000000000000E-002    8.056615151927210E-017
  1.540000000000000E-002    2.384289689038063E-017
  1.550000000000000E-002   -4.265097418209260E-017
  1.560000000000000E-002   -1.132282324437273E-016
  1.570000000000000E-002   -1.810562328743780E-016
  1.580000000000000E-002   -2.387252183381341E-016
  1.590000000000000E-002   -2.789480115654225E-016
  1.600000000000000E-002   -2.953345698064288E-016
  1.610000000000000E-002   -2.831697341168104E-016
  1.620000000000000E-002   -2.401134534198346E-016
  1.630000000000000E-002   -1.667409171452702E-016
  1.640000000000000E-002   -6.684626022894928E-017
  1.650000000000000E-002    5.255110606750493E-017
  1.660000000000000E-002    1.815348637686135E-016
  1.670000000000000E-002    3.079621414483687E-016
  1.680000000000000E-002    4.184480535614355E-016
  1.690000000000000E-002    4.996008371274053E-016
  1.700000000000000E-002    5.394096177131373E-016
  1.710000000000000E-002    5.286591231816457E-016
  1.720000000000000E-002    4.622277164060876E-016
  1.730000000000000E-002    3.401192386694716E-016
  1.740000000000000E-002    1.680890060450684E-016
  1.750000000000000E-002   -4.225045731552687E-017
  1.760000000000000E-002   -2.739183539322887E-016
  1.770000000000000E-002   -5.056703963138878E-016
  1.780000000000000E-002   -7.136793593561030E-016
  1.790000000000000E-002   -8.736864657076859E-016
  1.800000000000000E-002   -9.634566365079245E-016
  1.810000000000000E-002   -9.653199959865876E-016
  1.820000000000000E-002   -8.685451995822983E-016
  1.830000000000000E-002   -6.712791681524034E-016
  1.840000000000000E-002   -3.817989631085237E-016
  1.850000000000000E-002   -1.886468552287220E-017
  1.860000000000000E-002    3.889708829596297E-016
  1.870000000000000E-002    8.051481096158299E-016