 -4.000000000000000E-002    0.000000000000000E+000
 -3.990000000000000E-002    0.000000000000000E+000
 -3.980000000000000E-002    0.000000000000000E+000
 -3.970000000000000E-002    0.000000000000000E+000
 -3.960000000000000E-002    0.000000000000000E+000
 -3.950000000000000E-002    0.000000000000000E+000
 -3.940000000000000E-002    0.000000000000000E+000
 -3.930000000000000E-002    0.000000000000000E+000
 -3.920000000000000E-002    0.000000000000000E+000
 -3.910000000000000E-002    0.000000000000000E+000
 -3.900000000000000E-002    0.000000000000000E+000
 -3.890000000000000E-002    0.000000000000000E+000
 -3.880000000000000E-002    0.000000000000000E+000
 -3.870000000000000E-002    0.000000000000000E+000
 -3.860000000000000E-002    0.000000000000000E+000
 -3.850000000000000E-002    0.000000000000000E+000
 -3.840000000000000E-002    0.000000000000000E+000
 -3.830000000000000E-002    0.000000000000000E+000
 -3.820000000000000E-002    0.000000000000000E+000
 -3.810000000000000E-002    0.000000000000000E+000
 -3.800000000000000E-002    0.000000000000000E+000
 -3.790000000000000E-002    0.000000000000000E+000
 -3.780000000000000E-002    0.000000000000000E+000
 -3.770000000000000E-002    0.000000000000000E+000
 -3.760000000000000E-002    0.000000000000000E+000
 -3.750000000000000E-002    0.000000000000000E+000
 -3.740000000000000E-002    0.000000000000000E+000
 -3.730000000000000E-002    0.000000000000000E+000
 -3.720000000000000E-002    0.000000000000000E+000
 -3.710000000000000E-002    0.000000000000000E+000
 -3.700000000000000E-002    0.000000000000000E+000
 -3.690000000000000E-002    0.000000000000000E+000
 -3.680000000000000E-002    0.000000000000000E+000
 -3.670000000000000E-002    0.000000000000000E+000
 -3.660000000000000E-002    0.000000000000000E+000
 -3.650000000000000E-002    0.000000000000000E+000
 -3.640000000000000E-002    0.000000000000000E+000
 -3.630000000000000E-002    0.000000000000000E+000
 -3.620000000000000E-002    0.000000000000000E+000
 -3.610000000000000E-002    0.000000000000000E+000
 -3.600000000000000E-002    0.000000000000000E+000
 -3.590000000000000E-002    0.000000000000000E+000
 -3.580000000000000E-002    0.000000000000000E+000
 -3.570000000000000E-002    0.000000000000000E+000
 -3.560000000000000E-002    0.000000000000000E+000
 -3.550000000000000E-002    0.000000000000000E+000
 -3.540000000000000E-002    0.000000000000000E+000
 -3.530000000000000E-002    0.000000000000000E+000
 -3.520000000000000E-002    0.000000000000000E+000
 -3.510000000000000E-002    0.000000000000000E+000
 -3.500000000000000E-002    0.000000000000000E+000
 -3.490000000000000E-002    0.000000000000000E+000
 -3.480000000000000E-002    0.000000000000000E+000
 -3.470000000000000E-002    0.000000000000000E+000
 -3.460000000000000E-002    0.000000000000000E+000
 -3.450000000000000E-002    0.000000000000000E+000
 -3.440000000000000E-002    0.000000000000000E+000
 -3.430000000000000E-002    0.000000000000000E+000
 -3.420000000000000E-002    0.000000000000000E+000
 -3.410000000000000E-002    0.000000000000000E+000
 -3.400000000000000E-002    0.000000000000000E+000
 -3.390000000000000E-002    0.000000000000000E+000
 -3.380000000000000E-002    0.000000000000000E+000
 -3.370000000000000E-002    0.000000000000000E+000
 -3.360000000000000E-002    0.000000000000000E+000
 -3.350000000000000E-002    0.000000000000000E+000
 -3.340000000000000E-002    0.000000000000000E+000
 -3.330000000000000E-002    0.000000000000000E+000
 -3.320000000000000E-002    0.000000000000000E+000
 -3.310000000000000E-002    0.000000000000000E+000
 -3.300000000000000E-002    0.000000000000000E+000
 -3.290000000000000E-002    0.000000000000000E+000
 -3.280000000000000E-002    0.000000000000000E+000
 -3.270000000000000E-002    0.000000000000000E+000
 -3.260000000000000E-002    0.000000000000000E+000
 -3.250000000000000E-002    0.000000000000000E+000
 -3.240000000000000E-002    0.000000000000000E+000
 -3.230000000000000E-002    0.000000000000000E+000
 -3.220000000000000E-002    0.000000000000000E+000
 -3.210000000000000E-002    0.000000000000000E+000
 -3.200000000000000E-002    0.000000000000000E+000
 -3.190000000000000E-002    0.000000000000000E+000
 -3.180000000000000E-002    0.000000000000000E+000
 -3.170000000000000E-002    0.000000000000000E+000
 -3.160000000000000E-002    0.000000000000000E+000
 -3.150000000000000E-002    0.000000000000000E+000
 -3.140000000000000E-002    0.000000000000000E+000
 -3.130000000000000E-002    0.000000000000000E+000
 -3.120000000000000E-002    0.000000000000000E+000
 -3.110000000000000E-002    0.000000000000000E+000
 -3.100000000000000E-002    0.000000000000000E+000
 -3.090000000000000E-002    0.000000000000000E+000
 -3.080000000000000E-002    0.000000000000000E+000
 -3.070000000000000E-002    0.000000000000000E+000
 -3.060000000000000E-002    0.000000000000000E+000
 -3.050000000000000E-002    0.000000000000000E+000
 -3.040000000000000E-002    0.000000000000000E+000
 -3.030000000000000E-002    0.000000000000000E+000
 -3.020000000000000E-002    0.000000000000000E+000
 -3.010000000000000E-002    0.000000000000000E+000
 -3.000000000000000E-002    0.000000000000000E+000
 -2.990000000000000E-002    0.000000000000000E+000
 -2.980000000000000E-002    0.000000000000000E+000
 -2.970000000000000E-002    0.000000000000000E+000
 -2.960000000000000E-002    0.000000000000000E+000
 -2.950000000000000E-002    0.000000000000000E+000
 -2.940000000000000E-002    0.000000000000000E+000
 -2.930000000000000E-002    0.000000000000000E+000
 -2.920000000000000E-002    0.000000000000000E+000
 -2.910000000000000E-002    0.000000000000000E+000
 -2.900000000000000E-002    0.000000000000000E+000
 -2.890000000000000E-002    0.000000000000000E+000
 -2.880000000000000E-002    0.000000000000000E+000
 -2.870000000000000E-002    0.000000000000000E+000
 -2.860000000000000E-002    0.000000000000000E+000
 -2.850000000000000E-002    0.000000000000000E+000
 -2.840000000000000E-002    0.000000000000000E+000
 -2.830000000000000E-002    0.000000000000000E+000
 -2.820000000000000E-002    0.000000000000000E+000
 -2.810000000000000E-002    0.000000000000000E+000
 -2.800000000000000E-002    0.000000000000000E+000
 -2.790000000000000E-002    0.000000000000000E+000
 -2.780000000000000E-002    0.000000000000000E+000
 -2.770000000000000E-002    0.000000000000000E+000
 -2.760000000000000E-002    0.000000000000000E+000
 -2.750000000000000E-002    0.000000000000000E+000
 -2.740000000000000E-002    0.000000000000000E+000
 -2.730000000000000E-002    0.000000000000000E+000
 -2.720000000000000E-002    0.000000000000000E+000
 -2.710000000000000E-002    0.000000000000000E+000
 -2.700000000000000E-002    0.000000000000000E+000
 -2.690000000000000E-002    0.000000000000000E+000
 -2.680000000000000E-002    0.000000000000000E+000
 -2.670000000000000E-002    0.000000000000000E+000
 -2.660000000000000E-002    0.000000000000000E+000
 -2.650000000000000E-002    0.000000000000000E+000
 -2.640000000000000E-002    0.000000000000000E+000
 -2.630000000000000E-002    0.000000000000000E+000
 -2.620000000000000E-002    0.000000000000000E+000
 -2.610000000000000E-002    0.000000000000000E+000
 -2.600000000000000E-002    0.000000000000000E+000
 -2.590000000000000E-002    0.000000000000000E+000
 -2.580000000000000E-002    0.000000000000000E+000
 -2.570000000000000E-002    0.000000000000000E+000
 -2.560000000000000E-002    0.000000000000000E+000
 -2.550000000000000E-002    0.000000000000000E+000
 -2.540000000000000E-002    0.000000000000000E+000
 -2.530000000000000E-002    0.000000000000000E+000
 -2.520000000000000E-002    0.000000000000000E+000
 -2.510000000000000E-002    0.000000000000000E+000
 -2.500000000000000E-002    0.000000000000000E+000
 -2.490000000000000E-002    0.000000000000000E+000
 -2.480000000000000E-002    0.000000000000000E+000
 -2.470000000000000E-002    0.000000000000000E+000
 -2.460000000000000E-002    0.000000000000000E+000
 -2.450000000000000E-002    0.000000000000000E+000
 -2.440000000000000E-002    0.000000000000000E+000
 -2.430000000000000E-002    0.000000000000000E+000
 -2.420000000000000E-002    0.000000000000000E+000
 -2.410000000000000E-002    0.000000000000000E+000
 -2.400000000000000E-002    0.000000000000000E+000
 -2.390000000000000E-002    0.000000000000000E+000
 -2.380000000000000E-002    0.000000000000000E+000
 -2.370000000000000E-002    0.000000000000000E+000
 -2.360000000000000E-002    0.000000000000000E+000
 -2.350000000000000E-002    0.000000000000000E+000
 -2.340000000000000E-002    0.000000000000000E+000
 -2.330000000000000E-002    0.000000000000000E+000
 -2.320000000000000E-002    0.000000000000000E+000
 -2.310000000000000E-002    0.000000000000000E+000
 -2.300000000000000E-002    0.000000000000000E+000
 -2.290000000000000E-002    0.000000000000000E+000
 -2.280000000000000E-002    0.000000000000000E+000
 -2.270000000000000E-002    0.000000000000000E+000
 -2.260000000000000E-002    0.000000000000000E+000
 -2.250000000000000E-002    0.000000000000000E+000
 -2.240000000000000E-002    0.000000000000000E+000
 -2.230000000000000E-002    0.000000000000000E+000
 -2.220000000000000E-002    0.000000000000000E+000
 -2.210000000000000E-002    0.000000000000000E+000
 -2.200000000000000E-002    0.000000000000000E+000
 -2.190000000000000E-002    0.000000000000000E+000
 -2.180000000000000E-002    0.000000000000000E+000
 -2.170000000000000E-002    0.000000000000000E+000
 -2.160000000000000E-002    0.000000000000000E+000
 -2.150000000000000E-002    0.000000000000000E+000
 -2.140000000000000E-002    0.000000000000000E+000
 -2.130000000000000E-002    0.000000000000000E+000
 -2.120000000000000E-002    0.000000000000000E+000
 -2.110000000000000E-002    0.000000000000000E+000
 -2.100000000000000E-002    0.000000000000000E+000
 -2.090000000000000E-002    0.000000000000000E+000
 -2.080000000000000E-002    0.000000000000000E+000
 -2.070000000000000E-002    0.000000000000000E+000
 -2.060000000000000E-002    0.000000000000000E+000
 -2.050000000000000E-002    0.000000000000000E+000
 -2.040000000000000E-002    0.000000000000000E+000
 -2.030000000000000E-002    0.000000000000000E+000
 -2.020000000000000E-002    0.000000000000000E+000
 -2.010000000000000E-002    0.000000000000000E+000
 -2.000000000000000E-002    0.000000000000000E+000
 -1.990000000000000E-002    0.000000000000000E+000
 -1.980000000000000E-002    0.000000000000000E+000
 -1.970000000000000E-002    0.000000000000000E+000
 -1.960000000000000E-002    0.000000000000000E+000
 -1.950000000000000E-002    0.000000000000000E+000
 -1.940000000000000E-002    0.000000000000000E+000
 -1.930000000000000E-002    0.000000000000000E+000
 -1.920000000000000E-002    0.000000000000000E+000
 -1.910000000000000E-002    0.000000000000000E+000
 -1.900000000000000E-002    0.000000000000000E+000
 -1.890000000000000E-002    0.000000000000000E+000
 -1.880000000000000E-002    0.000000000000000E+000
 -1.870000000000000E-002    0.000000000000000E+000
 -1.860000000000000E-002    0.000000000000000E+000
 -1.850000000000000E-002    0.000000000000000E+000
 -1.840000000000000E-002    0.000000000000000E+000
 -1.830000000000000E-002    0.000000000000000E+000
 -1.820000000000000E-002    0.000000000000000E+000
 -1.810000000000000E-002    0.000000000000000E+000
 -1.800000000000000E-002    0.000000000000000E+000
 -1.790000000000000E-002    0.000000000000000E+000
 -1.780000000000000E-002    0.000000000000000E+000
 -1.770000000000000E-002    0.000000000000000E+000
 -1.760000000000000E-002    0.000000000000000E+000
 -1.750000000000000E-002    0.000000000000000E+000
 -1.740000000000000E-002    0.000000000000000E+000
 -1.730000000000000E-002    0.000000000000000E+000
 -1.720000000000000E-002    0.000000000000000E+000
 -1.710000000000000E-002    0.000000000000000E+000
 -1.700000000000000E-002    0.000000000000000E+000
 -1.690000000000000E-002    0.000000000000000E+000
 -1.680000000000000E-002    0.000000000000000E+000
 -1.670000000000000E-002    0.000000000000000E+000
 -1.660000000000000E-002    0.000000000000000E+000
 -1.650000000000000E-002    0.000000000000000E+000
 -1.640000000000000E-002    0.000000000000000E+000
 -1.630000000000000E-002    0.000000000000000E+000
 -1.620000000000000E-002    0.000000000000000E+000
 -1.610000000000000E-002    0.000000000000000E+000
 -1.600000000000000E-002    0.000000000000000E+000
 -1.590000000000000E-002    0.000000000000000E+000
 -1.580000000000000E-002    0.000000000000000E+000
 -1.570000000000000E-002    0.000000000000000E+000
 -1.560000000000000E-002    0.000000000000000E+000
 -1.550000000000000E-002    0.000000000000000E+000
 -1.540000000000000E-002    0.000000000000000E+000
 -1.530000000000000E-002    0.000000000000000E+000
 -1.520000000000000E-002    0.000000000000000E+000
 -1.510000000000000E-002    0.000000000000000E+000
 -1.500000000000000E-002    0.000000000000000E+000
 -1.490000000000000E-002    0.000000000000000E+000
 -1.480000000000000E-002    0.000000000000000E+000
 -1.470000000000000E-002    0.000000000000000E+000
 -1.460000000000000E-002    0.000000000000000E+000
 -1.450000000000000E-002    0.000000000000000E+000
 -1.440000000000000E-002    0.000000000000000E+000
 -1.430000000000000E-002    0.000000000000000E+000
 -1.420000000000000E-002    0.000000000000000E+000
 -1.410000000000000E-002    0.000000000000000E+000
 -1.400000000000000E-002    0.000000000000000E+000
 -1.390000000000000E-002    0.000000000000000E+000
 -1.380000000000000E-002    0.000000000000000E+000
 -1.370000000000000E-002    0.000000000000000E+000
 -1.360000000000000E-002    0.000000000000000E+000
 -1.350000000000000E-002    0.000000000000000E+000
 -1.340000000000000E-002    0.000000000000000E+000
 -1.330000000000000E-002    0.000000000000000E+000
 -1.320000000000000E-002    0.000000000000000E+000
 -1.310000000000000E-002    0.000000000000000E+000
 -1.300000000000000E-002    0.000000000000000E+000
 -1.290000000000000E-002    0.000000000000000E+000
 -1.280000000000000E-002    0.000000000000000E+000
 -1.270000000000000E-002    0.000000000000000E+000
 -1.260000000000000E-002    0.000000000000000E+000
 -1.250000000000000E-002    0.000000000000000E+000
 -1.240000000000000E-002    0.000000000000000E+000
 -1.230000000000000E-002    0.000000000000000E+000
 -1.220000000000000E-002    0.000000000000000E+000
 -1.210000000000000E-002    0.000000000000000E+000
 -1.200000000000000E-002    0.000000000000000E+000
 -1.190000000000000E-002    0.000000000000000E+000
 -1.180000000000000E-002    0.000000000000000E+000
 -1.170000000000000E-002    0.000000000000000E+000
 -1.160000000000000E-002    0.000000000000000E+000
 -1.150000000000000E-002    0.000000000000000E+000
 -1.140000000000000E-002    0.000000000000000E+000
 -1.130000000000000E-002    0.000000000000000E+000
 -1.120000000000000E-002    0.000000000000000E+000
 -1.110000000000000E-002    0.000000000000000E+000
 -1.100000000000000E-002    0.000000000000000E+000
 -1.090000000000000E-002    0.000000000000000E+000
 -1.080000000000000E-002    0.000000000000000E+000
 -1.070000000000000E-002    0.000000000000000E+000
 -1.060000000000000E-002    0.000000000000000E+000
 -1.050000000000000E-002    0.000000000000000E+000
 -1.040000000000000E-002    0.000000000000000E+000
 -1.030000000000000E-002    0.000000000000000E+000
 -1.020000000000000E-002    0.000000000000000E+000
 -1.010000000000000E-002    0.000000000000000E+000
 -1.000000000000000E-002    0.000000000000000E+000
 -9.899999999999999E-003    0.000000000000000E+000
 -9.800000000000000E-003    0.000000000000000E+000
 -9.699999999999999E-003    0.000000000000000E+000
 -9.599999999999999E-003    0.000000000000000E+000
 -9.500000000000000E-003    0.000000000000000E+000
 -9.399999999999999E-003    0.000000000000000E+000
 -9.299999999999999E-003    0.000000000000000E+000
 -9.200000000000000E-003    0.000000000000000E+000
 -9.099999999999999E-003    0.000000000000000E+000
 -8.999999999999999E-003    0.000000000000000E+000
 -8.900000000000000E-003    0.000000000000000E+000
 -8.799999999999999E-003    0.000000000000000E+000
 -8.699999999999999E-003    0.000000000000000E+000
 -8.600000000000000E-003    0.000000000000000E+000
 -8.499999999999999E-003    0.000000000000000E+000
 -8.399999999999999E-003    0.000000000000000E+000
 -8.300000000000000E-003    0.000000000000000E+000
 -8.199999999999999E-003    0.000000000000000E+000
 -8.100000000000000E-003    0.000000000000000E+000
 -8.000000000000000E-003    0.000000000000000E+000
 -7.899999999999999E-003    0.000000000000000E+000
 -7.800000000000000E-003    0.000000000000000E+000
 -7.699999999999999E-003    0.000000000000000E+000
 -7.599999999999999E-003    0.000000000000000E+000
 -7.499999999999999E-003    0.000000000000000E+000
 -7.399999999999999E-003    0.000000000000000E+000
 -7.299999999999999E-003    0.000000000000000E+000
 -7.199999999999999E-003    0.000000000000000E+000
 -7.100000000000000E-003    0.000000000000000E+000
 -6.999999999999999E-003    0.000000000000000E+000
 -6.899999999999999E-003    0.000000000000000E+000
 -6.800000000000000E-003    0.000000000000000E+000
 -6.699999999999999E-003    0.000000000000000E+000
 -6.599999999999999E-003    0.000000000000000E+000
 -6.499999999999999E-003    0.000000000000000E+000
 -6.399999999999999E-003    0.000000000000000E+000
 -6.299999999999999E-003    0.000000000000000E+000
 -6.199999999999999E-003    0.000000000000000E+000
 -6.100000000000000E-003    0.000000000000000E+000
 -5.999999999999999E-003    0.000000000000000E+000
 -5.899999999999999E-003    0.000000000000000E+000
 -5.800000000000000E-003    0.000000000000000E+000
 -5.699999999999999E-003    0.000000000000000E+000
 -5.599999999999999E-003    0.000000000000000E+000
 -5.499999999999999E-003    0.000000000000000E+000
 -5.399999999999999E-003    0.000000000000000E+000
 -5.299999999999999E-003    0.000000000000000E+000
 -5.199999999999999E-003    0.000000000000000E+000
 -5.099999999999999E-003    0.000000000000000E+000
 -4.999999999999999E-003    0.000000000000000E+000
 -4.899999999999999E-003    0.000000000000000E+000
 -4.799999999999999E-003    6.414635304221270E-048
 -4.699999999999999E-003    6.414635304221270E-048
 -4.599999999999999E-003    6.414635304221270E-048
 -4.499999999999999E-003    6.414635304221270E-048
 -4.399999999999999E-003    0.000000000000000E+000
 -4.299999999999999E-003   -4.276423536147513E-048
 -4.199999999999999E-003    9.835774133139280E-048
 -4.099999999999999E-003    1.753333649820480E-047
 -3.999999999999999E-003    2.309268709519657E-047
 -3.899999999999999E-003    2.217066483652061E-047
 -3.799999999999999E-003    2.559180366543862E-047
 -3.699999999999999E-003    8.419371969402116E-048
 -3.599999999999999E-003    3.060234026749714E-048
 -3.499999999999999E-003   -1.854884353134154E-046
 -3.399999999999999E-003   -3.482723053787386E-046
 -3.299999999999999E-003   -5.218411888808130E-046
 -3.199999999999999E-003   -6.645530853711789E-046
 -3.099999999999999E-003   -6.640047984953857E-046
 -2.999999999999999E-003   -6.802156874262358E-046
 -2.899999999999999E-003   -5.108965375345129E-046
 -2.799999999999999E-003   -2.037969867414618E-046
 -2.699999999999999E-003    2.991755874930773E-046
 -2.599999999999999E-003    1.291087589495455E-045
 -2.499999999999999E-003    2.124144587676777E-045
 -2.399999999999999E-003    2.620104732120842E-045
 -2.299999999999999E-003    3.202006603177251E-045
 -2.199999999999999E-003    3.824816361616208E-045
 -2.099999999999999E-003    4.327178848092485E-045
 -1.999999999999999E-003    5.153007550150645E-045
 -1.899999999999999E-003    5.198446523097900E-045
 -1.799999999999999E-003    4.940525107970341E-045
 -1.699999999999999E-003    3.636445006006011E-045
 -1.599999999999999E-003    7.997093940095795E-046
 -1.499999999999999E-003   -3.422211858668095E-045
 -1.399999999999999E-003   -9.114327713897394E-045
 -1.299999999999999E-003   -1.521583259135130E-044
 -1.199999999999999E-003   -2.207157846317860E-044
 -1.099999999999999E-003   -2.895243594244420E-044
 -9.999999999999989E-004   -3.315011327461082E-044
 -8.999999999999990E-004   -3.593158297345950E-044
 -7.999999999999990E-004   -3.396329145636183E-044
 -6.999999999999989E-004   -2.663274397707357E-044
 -5.999999999999990E-004   -1.304086097595032E-044
 -4.999999999999989E-004    7.232025928067021E-045
 -3.999999999999989E-004    3.529778300760957E-044
 -2.999999999999989E-004    7.016697993432839E-044
 -1.999999999999989E-004    1.101062784688991E-043
 -9.999999999999892E-005    1.501540198363125E-043
  1.084202172485504E-018    1.864377438887881E-043
  1.000000000000011E-004    2.120260142318894E-043
  2.000000000000011E-004    2.175581296008106E-043
  3.000000000000011E-004    1.956374287041638E-043
  4.000000000000011E-004    1.385074053376611E-043
  5.000000000000011E-004    4.003425489427734E-044
  6.000000000000011E-004   -1.036471855040726E-043
  7.000000000000011E-004   -2.902831556845622E-043
  8.000000000000011E-004   -5.118820591569518E-043
  9.000000000000012E-004   -7.526150568486648E-043
  1.000000000000001E-003   -9.859741760550008E-043
  1.100000000000001E-003   -1.179139967597958E-042
  1.200000000000001E-003   -1.288649958884566E-042
  1.300000000000001E-003   -1.268509687972588E-042
  1.400000000000001E-003   -1.071215524356798E-042
  1.500000000000001E-003   -6.536056816833209E-043
  1.600000000000001E-003    1.201262370019353E-044
  1.700000000000001E-003    9.313170938602437E-043
  1.800000000000001E-003    2.078378996532608E-042
  1.900000000000001E-003    3.388043511356009E-042
  2.000000000000001E-003    4.748795687521379E-042
  2.100000000000001E-003    5.998008341460692E-042
  2.200000000000001E-003    6.930928057432222E-042
  2.300000000000001E-003    7.306063487352964E-042
  2.400000000000001E-003    6.868070546445146E-042
  2.500000000000001E-003    5.373935635072105E-042
  2.600000000000001E-003    2.629049641738541E-042
  2.700000000000001E-003   -1.467391217007348E-042
  2.800000000000001E-003   -6.875868969194788E-042
  2.900000000000001E-003   -1.337178146697435E-041
  3.000000000000001E-003   -2.050752517666579E-041
  3.100000000000001E-003   -2.759102555652263E-041
  3.200000000000001E-003   -3.369054483846380E-041
  3.300000000000001E-003   -3.766708056178076E-041
  3.400000000000001E-003   -3.825443173731901E-041
  3.500000000000001E-003   -3.417400757681929E-041
  3.600000000000001E-003   -2.429854169586481E-041
  3.700000000000001E-003   -7.850972531976341E-042
  3.800000000000001E-003    1.537544837664679E-041
  3.900000000000001E-003    4.478748363010323E-041
  4.000000000000001E-003    7.879841688256352E-041
  4.100000000000001E-003    1.146868476206982E-040
  4.200000000000001E-003    1.485557635641461E-040
  4.300000000000001E-003    1.754336584614836E-040
  4.400000000000001E-003    1.895442038257393E-040
  4.500000000000001E-003    1.847717164669650E-040
  4.600000000000002E-003    1.553239716772798E-040
  4.700000000000001E-003    9.658213168598199E-041
  4.800000000000001E-003    6.076436893619359E-042
  4.900000000000002E-003   -1.154857633141329E-040
  5.000000000000001E-003   -2.632624919500484E-040
  5.100000000000001E-003   -4.275212602170160E-040
  5.200000000000001E-003   -5.932702607871804E-040
  5.300000000000002E-003   -7.404298279053431E-040
  5.400000000000001E-003   -8.447098925586634E-040
  5.500000000000001E-003   -8.792975747755423E-040
  5.600000000000002E-003   -8.174081192614469E-040
  5.700000000000001E-003   -6.356518137414836E-040
  5.800000000000001E-003   -3.180357488371533E-040
  5.900000000000002E-003    1.396937772134432E-040
  6.000000000000001E-003    7.258185592121213E-040
  6.100000000000001E-003    1.409096059365827E-039
  6.200000000000002E-003    2.136544219926524E-039
  6.300000000000002E-003    2.833253767452913E-039
  6.400000000000001E-003    3.404896705493549E-039
  6.500000000000001E-003    3.743409998449370E-039
  6.600000000000002E-003    3.736137555298805E-039
  6.700000000000001E-003    3.278320214903474E-039
  6.800000000000001E-003    2.288375092816560E-039
  6.900000000000002E-003    7.248981671931820E-040
  7.000000000000001E-003   -1.396224687384276E-039
  7.100000000000001E-003   -3.986704111566014E-039
  7.200000000000002E-003   -6.875207705315280E-039
  7.300000000000002E-003   -9.803824674768361E-039
  7.400000000000001E-003   -1.243417014312791E-038
  7.500000000000001E-003   -1.436515139868552E-038
  7.600000000000002E-003   -1.516358647079843E-038
  7.700000000000001E-003   -1.440755082644909E-038
  7.800000000000001E-003   -1.174073493254885E-038
  7.900000000000001E-003   -6.934226859036453E-039
  8.000000000000002E-003    4.982836136385505E-041
  8.100000000000001E-003    9.000024696421059E-039
  8.200000000000001E-003    1.941161575515181E-038
  8.300000000000002E-003    3.046595823419987E-038
  8.400000000000001E-003    4.104241450959900E-038
  8.500000000000002E-003    4.977021978401327E-038
  8.600000000000002E-003    5.512476757965820E-038
  8.700000000000001E-003    5.556852688102717E-038
  8.800000000000002E-003    4.973132116338506E-038
  8.900000000000002E-003    3.661829057894337E-038
  9.000000000000001E-003    1.582755903043134E-038
  9.100000000000002E-003   -1.224659921962894E-038
  9.200000000000002E-003   -4.625361596715142E-038
  9.300000000000001E-003   -8.380035545906577E-038
  9.400000000000002E-003   -1.214679997063946E-037
  9.500000000000001E-003   -1.549567879812455E-037
  9.600000000000001E-003   -1.793728673202883E-037
  9.700000000000002E-003   -1.896581900232540E-037
  9.800000000000001E-003   -1.811467996109215E-037
  9.900000000000001E-003   -1.502107502790671E-037
  1.000000000000000E-002   -9.493856678210761E-038
  1.010000000000000E-002   -1.577192779764757E-038
  1.020000000000000E-002    8.398754460265360E-038
  1.030000000000000E-002    1.978941941039939E-037
  1.040000000000000E-002    3.163842108238629E-037
  1.050000000000000E-002    4.271808549131702E-037
  1.060000000000000E-002    5.161171367579156E-037
  1.070000000000000E-002    5.683709555727211E-037
  1.080000000000000E-002    5.700555600072037E-037
  1.090000000000000E-002    5.100473871529121E-037
  1.100000000000000E-002    3.818810079494408E-037
  1.110000000000000E-002    1.854912619906087E-037
  1.120000000000000E-002   -7.144718265185253E-038
  1.130000000000000E-002   -3.728343444780113E-037
  1.140000000000000E-002   -6.943392923323304E-037
  1.150000000000000E-002   -1.004631928668952E-036
  1.160000000000000E-002   -1.267715421027952E-036
  1.170000000000000E-002   -1.446285458288654E-036
  1.180000000000000E-002   -1.505900748210997E-036
  1.190000000000000E-002   -1.419587956120255E-036
  1.200000000000000E-002   -1.172373543424380E-036
  1.210000000000000E-002   -7.651377451623440E-037
  1.220000000000000E-002   -2.171494630935247E-037
  1.230000000000000E-002    4.333085659001069E-037
  1.240000000000000E-002    1.130675797425250E-036
  1.250000000000000E-002    1.806423056084348E-036
  1.260000000000000E-002    2.385826423142302E-036
  1.270000000000000E-002    2.796716721530627E-036
  1.280000000000000E-002    2.979331567371489E-036
  1.290000000000000E-002    2.896025752616213E-036
  1.300000000000000E-002    2.539374159616375E-036
  1.310000000000000E-002    1.937081656838700E-036
  1.320000000000000E-002    1.152287388054974E-036
  1.330000000000000E-002    2.782106930306056E-037
  1.340000000000000E-002   -5.732341215157450E-037
  1.350000000000000E-002   -1.288351553909895E-036
  1.360000000000000E-002   -1.772583716118926E-036
  1.370000000000000E-002   -1.972816593249078E-036
  1.380000000000000E-002   -1.897543948281472E-036
  1.390000000000000E-002   -1.630689907182640E-036
  1.400000000000000E-002   -1.334813815284738E-036
  1.410000000000000E-002   -1.239907506454749E-036
  1.420000000000000E-002   -1.615342373828887E-036
  1.430000000000000E-002   -2.724533305858889E-036
  1.440000000000000E-002   -4.764797819586354E-036
  1.450000000000000E-002   -7.798002692010290E-036
  1.460000000000000E-002   -1.168104363958283E-035
  1.470000000000000E-002   -1.600808969921208E-035
  1.480000000000000E-002   -2.007853286473273E-035
  1.490000000000000E-002   -2.290487125514925E-035
  1.500000000000000E-002   -2.327323758703689E-035
  1.510000000000000E-002   -1.986477222831412E-035
  1.520000000000000E-002   -1.143940290776036E-035
  1.530000000000000E-002    2.925839742608697E-036
  1.540000000000000E-002    2.356276786098436E-035
  1.550000000000000E-002    4.993270233098792E-035
  1.560000000000000E-002    8.038304452793701E-035
  1.570000000000000E-002    1.119891611013342E-034
  1.580000000000000E-002    1.405333281480838E-034
  1.590000000000000E-002    1.606704567639005E-034
  1.600000000000000E-002    1.663166753134274E-034
  1.610000000000000E-002    1.512778027962702E-034
  1.620000000000000E-002    1.101039573622980E-034
  1.630000000000000E-002    3.912067034645073E-035
  1.640000000000000E-002   -6.245430665931855E-035
  1.650000000000000E-002   -1.914390336647971E-034
  1.660000000000000E-002   -3.398254189022335E-034
  1.670000000000000E-002   -4.943124093198007E-034
  1.680000000000000E-002   -6.364213431292494E-034
  1.690000000000000E-002   -7.433561419748066E-034
  1.700000000000000E-002   -7.897173306630696E-034
  1.710000000000000E-002   -7.500934495622603E-034
  1.720000000000000E-002   -6.024423561550088E-034
  1.730000000000000E-002   -3.320407962714333E-034
  1.740000000000000E-002    6.435974484214633E-035
  1.750000000000000E-002    5.746655040009846E-034
  1.760000000000000E-002    1.168458860025374E-033
  1.770000000000000E-002    1.795553036471314E-033
  1.780000000000000E-002    2.386713143895272E-033
  1.790000000000000E-002    2.857063146570342E-033
  1.800000000000000E-002    3.112492666258815E-033
  1.810000000000000E-002    3.059064204383917E-033
  1.820000000000000E-002    2.615038490249313E-033
  1.830000000000000E-002    1.724675729475652E-033
  1.840000000000000E-002    3.725243306143643E-034
  1.850000000000000E-002   -1.403511806483601E-033
  1.860000000000000E-002   -3.502332844542472E-033
  1.870000000000000E-002   -5.755152328641625E-033