 -4.000000000000000E-002    0.000000000000000E+000
 -3.990000000000000E-002    0.000000000000000E+000
 -3.980000000000000E-002    0.000000000000000E+000
 -3.970000000000000E-002    0.000000000000000E+000
 -3.960000000000000E-002    0.000000000000000E+000
 -3.950000000000000E-002    0.000000000000000E+000
 -3.940000000000000E-002    0.000000000000000E+000
 -3.930000000000000E-002    0.000000000000000E+000
 -3.920000000000000E-002    0.000000000000000E+000
 -3.910000000000000E-002    0.000000000000000E+000
 -3.900000000000000E-002    0.000000000000000E+000
 -3.890000000000000E-002    2.356942660866981E-038
 -3.880000000000000E-002    5.086359645839473E-037
 -3.870000000000000E-002    5.691029488407766E-036
 -3.860000000000000E-002    4.392885020265992E-035
 -3.850000000000000E-002    2.626464173024896E-034
 -3.840000000000000E-002    1.294878320925002E-033
 -3.830000000000000E-002    5.472465149650970E-033
 -3.820000000000000E-002    2.035017144704401E-032
 -3.810000000000000E-002    6.782422275979755E-032
 -3.800000000000000E-002    2.053180255374596E-031
 -3.790000000000000E-002    5.700330466037220E-031
 -3.780000000000000E-002    1.461378026742902E-030
 -3.770000000000000E-002    3.474408828311053E-030
 -3.760000000000000E-002    7.673702509221558E-030
 -3.750000000000000E-002    1.572264129260409E-029
 -3.740000000000000E-002    2.970365083453325E-029
 -3.730000000000000E-002    5.099715529697075E-029
 -3.720000000000000E-002    7.691102505326628E-029
 -3.710000000000000E-002    9.264604623646532E-029
 -3.700000000000000E-002    5.453871997360169E-029
 -3.690000000000000E-002   -1.415892399909678E-028
 -3.680000000000000E-002   -7.153629508282298E-028
 -3.670000000000000E-002   -2.089790320532983E-027
 -3.660000000000000E-002   -5.020378521507363E-027
 -3.650000000000000E-002   -1.076605394751305E-026
 -3.640000000000000E-002   -2.128387017454046E-026
 -3.630000000000000E-002   -3.939378102692475E-026
 -3.620000000000000E-002   -6.879995363428552E-026
 -3.610000000000000E-002   -1.137658988541863E-025
 -3.600000000000000E-002   -1.781216789121166E-025
 -3.590000000000000E-002   -2.631438482121054E-025
 -3.580000000000000E-002   -3.637197317233344E-025
 -3.570000000000000E-002   -4.621410083368644E-025
 -3.560000000000000E-002   -5.189594233629460E-025
 -3.550000000000000E-002   -4.606983059506042E-025
 -3.540000000000000E-002   -1.649983641136929E-025
 -3.530000000000000E-002    5.548246525021785E-025
 -3.520000000000000E-002    1.961738842452602E-024
 -3.510000000000000E-002    4.396510855266782E-024
 -3.500000000000000E-002    8.258323636808062E-024
 -3.490000000000000E-002    1.395042445737523E-023
 -3.480000000000000E-002    2.177367169993850E-023
 -3.470000000000000E-002    3.175003096830086E-023
 -3.460000000000000E-002    4.336093812714757E-023
 -3.450000000000000E-002    5.519462108006628E-023
 -3.440000000000000E-002    6.451411849484125E-023
 -3.430000000000000E-002    6.678621931453673E-023
 -3.420000000000000E-002    5.525082947687860E-023
 -3.410000000000000E-002    2.066150755433280E-023
 -3.400000000000000E-002   -4.861767835363187E-023
 -3.390000000000000E-002   -1.659179950819714E-022
 -3.380000000000000E-002   -3.446991815239752E-022
 -3.370000000000000E-002   -5.958300880598246E-022
 -3.360000000000000E-002   -9.234945748726423E-022
 -3.350000000000000E-002   -1.319637232407821E-021
 -3.340000000000000E-002   -1.757107399511910E-021
 -3.330000000000000E-002   -2.182016601211678E-021
 -3.320000000000000E-002   -2.506298595686863E-021
 -3.310000000000000E-002   -2.602014791741773E-021
 -3.300000000000000E-002   -2.299530031074951E-021
 -3.290000000000000E-002   -1.392191538027842E-021
 -3.280000000000000E-002    3.496119523079493E-022
 -3.270000000000000E-002    3.152153504641257E-021
 -3.260000000000000E-002    7.197742275069677E-021
 -3.250000000000000E-002    1.256902429952394E-020
 -3.240000000000000E-002    1.917976633048327E-020
 -3.230000000000000E-002    2.669686347533835E-020
 -3.220000000000000E-002    3.446216815779045E-020
 -3.210000000000000E-002    4.142714172455473E-020
 -3.200000000000000E-002    4.611739126216386E-020
 -3.190000000000000E-002    4.664750489955427E-020
 -3.180000000000000E-002    4.080789683766122E-020
 -3.170000000000000E-002    2.624331539907629E-020
 -3.160000000000000E-002    7.373621123587280E-022
 -3.150000000000000E-002   -3.739424237454174E-020
 -3.140000000000000E-002   -8.881433511167102E-020
 -3.130000000000000E-002   -1.526131204910095E-019
 -3.120000000000000E-002   -2.257533207908094E-019
 -3.110000000000000E-002   -3.025954016416075E-019
 -3.100000000000000E-002   -3.746084458590850E-019
 -3.090000000000000E-002   -4.303878683978524E-019
 -3.080000000000000E-002   -4.560993832873870E-019
 -3.070000000000000E-002   -4.364545148867959E-019
 -3.060000000000000E-002   -3.562793054233342E-019
 -3.050000000000000E-002   -2.026696397628869E-019
 -3.040000000000000E-002    3.236141092574309E-020
 -3.030000000000000E-002    3.489563173647211E-019
 -3.020000000000000E-002    7.365361646666490E-019
 -3.010000000000000E-002    1.171422252249666E-018
 -3.000000000000000E-002    1.615493427126524E-018
 -2.990000000000000E-002    2.016456971732422E-018
 -2.980000000000000E-002    2.310272719553651E-018
 -2.970000000000000E-002    2.426140185369644E-018
 -2.960000000000000E-002    2.294218113909443E-018
 -2.950000000000000E-002    1.855881516014719E-018
 -2.940000000000000E-002    1.075888647508083E-018
 -2.930000000000000E-002   -4.470231493036563E-020
 -2.920000000000000E-002   -1.456534197395175E-018
 -2.910000000000000E-002   -3.052984204836369E-018
 -2.900000000000000E-002   -4.666613784168681E-018
 -2.890000000000000E-002   -6.073454339707488E-018
 -2.880000000000000E-002   -7.007186798871761E-018
 -2.870000000000000E-002   -7.184503398043744E-018
 -2.860000000000000E-002   -6.341766178947930E-018
 -2.850000000000000E-002   -4.281359387640653E-018
 -2.840000000000000E-002   -9.242683634569647E-019
 -2.830000000000000E-002    3.636721232112891E-018
 -2.820000000000000E-002    9.090769714789315E-018
 -2.810000000000000E-002    1.487871526988188E-017
 -2.800000000000000E-002    2.018852805852508E-017
 -2.790000000000000E-002    2.398576663113983E-017
 -2.780000000000000E-002    2.508629857641352E-017
 -2.770000000000000E-002    2.227503973239054E-017
 -2.760000000000000E-002    1.446914584854042E-017
 -2.750000000000000E-002    9.174547882247190E-019
 -2.740000000000000E-002   -1.857960030501623E-017
 -2.730000000000000E-002   -4.345299154396592E-017
 -2.720000000000000E-002   -7.218142143886273E-017
 -2.710000000000000E-002   -1.021760076648220E-016
 -2.700000000000000E-002   -1.297698038660160E-016
 -2.690000000000000E-002   -1.503457906433165E-016
 -2.680000000000000E-002   -1.586286384607615E-016
 -2.670000000000000E-002   -1.491513328195381E-016
 -2.660000000000000E-002   -1.168886378944590E-016
 -2.650000000000000E-002   -5.802561186913556E-017
 -2.640000000000000E-002    2.919694602168244E-017
 -2.630000000000000E-002    1.436441815749815E-016
 -2.620000000000000E-002    2.805619746829357E-016
 -2.610000000000000E-002    4.310857631203975E-016
 -2.600000000000000E-002    5.821069091778768E-016
 -2.590000000000000E-002    7.166100444231731E-016
 -2.580000000000000E-002    8.145646036768927E-016
 -2.570000000000000E-002    8.544107728397166E-016
 -2.560000000000000E-002    8.151144348819254E-016
 -2.550000000000000E-002    6.786943716488393E-016
 -2.540000000000000E-002    4.330431385094924E-016
 -2.530000000000000E-002    7.478422823915353E-017
 -2.520000000000000E-002   -3.881565143169082E-016
 -2.510000000000000E-002   -9.346320857392800E-016
 -2.500000000000000E-002   -1.529380779683692E-015
 -2.490000000000000E-002   -2.123499592021045E-015
 -2.480000000000000E-002   -2.656546995134219E-015
 -2.470000000000000E-002   -3.060399424857032E-015
 -2.460000000000000E-002   -3.264823626399505E-015
 -2.450000000000000E-002   -3.204508912033223E-015
 -2.440000000000000E-002   -2.827093559419207E-015
 -2.430000000000000E-002   -2.101496118691584E-015
 -2.420000000000000E-002   -1.025691051832340E-015
 -2.410000000000000E-002    3.670494955871531E-016
 -2.400000000000000E-002    2.004456746827944E-015
 -2.390000000000000E-002    3.775023424058444E-015
 -2.380000000000000E-002    5.531949659605284E-015
 -2.370000000000000E-002    7.101654185640802E-015
 -2.360000000000000E-002    8.296807542340492E-015
 -2.350000000000000E-002    8.933336917718549E-015
 -2.340000000000000E-002    8.850285117000064E-015
 -2.330000000000000E-002    7.930894888776106E-015
 -2.320000000000000E-002    6.122839940330372E-015
 -2.310000000000000E-002    3.455243476904822E-015
 -2.300000000000000E-002    5.003858414565159E-017
 -2.290000000000000E-002   -3.874577409961349E-015
 -2.280000000000000E-002   -8.010396938686957E-015
 -2.270000000000000E-002   -1.197619120093144E-014
 -2.260000000000000E-002   -1.534547699842204E-014
 -2.250000000000000E-002   -1.768393881872341E-014
 -2.240000000000000E-002   -1.859409435323612E-014
 -2.230000000000000E-002   -1.776363776439690E-014
 -2.220000000000000E-002   -1.501281109562917E-014
 -2.210000000000000E-002   -1.033555823902838E-014
 -2.200000000000000E-002   -3.928934375305392E-015
 -2.190000000000000E-002    3.794354196814520E-015
 -2.180000000000000E-002    1.221446551447182E-014
 -2.170000000000000E-002    2.053652976137844E-014
 -2.160000000000000E-002    2.784685991197002E-014
 -2.150000000000000E-002    3.319109545989419E-014
 -2.140000000000000E-002    3.566957286204999E-014
 -2.130000000000000E-002    3.454250974951380E-014
 -2.120000000000000E-002    2.933531042248890E-014
 -2.110000000000000E-002    1.993288853794491E-014
 -2.100000000000000E-002    6.651122765810669E-015
 -2.090000000000000E-002   -9.725710142927891E-015
 -2.080000000000000E-002   -2.795098682914531E-014
 -2.070000000000000E-002   -4.637146105462802E-014
 -2.060000000000000E-002   -6.303465117266730E-014
 -2.050000000000000E-002   -7.584490333721329E-014
 -2.040000000000000E-002   -8.275922917587972E-014
 -2.030000000000000E-002   -8.200887035887461E-014
 -2.020000000000000E-002   -7.232754214592095E-014
 -2.010000000000000E-002   -5.316371157523463E-014
 -2.000000000000000E-002   -2.485258810863254E-014
 -1.990000000000000E-002    1.127596138767393E-014
 -1.980000000000000E-002    5.287454319104679E-014
 -1.970000000000000E-002    9.665545539600189E-014
 -1.960000000000000E-002    1.385752959814747E-013
 -1.950000000000000E-002    1.741241673375901E-013
 -1.940000000000000E-002    1.987063139913872E-013
 -1.930000000000000E-002    2.080863978302119E-013
 -1.920000000000000E-002    1.988673377370739E-013
 -1.910000000000000E-002    1.689556504753918E-013
 -1.900000000000000E-002    1.179663244686311E-013
 -1.890000000000000E-002    4.751810007232935E-014
 -1.880000000000000E-002   -3.862621608375593E-014
 -1.870000000000000E-002   -1.346100541626917E-013
 -1.860000000000000E-002   -2.327468668418443E-013
 -1.850000000000000E-002   -3.240013457335473E-013
 -1.840000000000000E-002   -3.986715779126638E-013
 -1.830000000000000E-002   -4.472335363603376E-013
 -1.820000000000000E-002   -4.612878900202082E-013
 -1.810000000000000E-002   -4.345311496387923E-013
 -1.800000000000000E-002   -3.636594999512738E-013
 -1.790000000000000E-002   -2.491082959183868E-013
 -1.780000000000000E-002   -9.553269320412611E-014
 -1.770000000000000E-002    8.805228076967395E-014
 -1.760000000000000E-002    2.885327708781773E-013
 -1.750000000000000E-002    4.893869452332757E-013
 -1.740000000000000E-002    6.717970303490495E-013
 -1.730000000000000E-002    8.161320580658963E-013
 -1.720000000000000E-002    9.037081975912195E-013
 -1.710000000000000E-002    9.186938202084894E-013
 -1.700000000000000E-002    8.499954120910900E-013
 -1.690000000000000E-002    6.929410549310605E-013
 -1.680000000000000E-002    4.505724840560075E-013
 -1.670000000000000E-002    1.343704768610921E-013
 -1.660000000000000E-002   -2.357298391972219E-013
 -1.650000000000000E-002   -6.321282577076526E-013
 -1.640000000000000E-002   -1.021180796052694E-012
 -1.630000000000000E-002   -1.365606605402953E-012
 -1.620000000000000E-002   -1.627550097924493E-012
 -1.610000000000000E-002   -1.772087105297220E-012
 -1.600000000000000E-002   -1.770898882139127E-012
 -1.590000000000000E-002   -1.605779252436928E-012
 -1.580000000000000E-002   -1.271619921014330E-012
 -1.570000000000000E-002   -7.785207509820938E-013
 -1.560000000000000E-002   -1.527133378333271E-013
 -1.550000000000000E-002    5.639409562870669E-013
 -1.540000000000000E-002    1.316005093504939E-012
 -1.530000000000000E-002    2.038067390593545E-012
 -1.520000000000000E-002    2.659735444542513E-012
 -1.510000000000000E-002    3.111712336459871E-012
 -1.500000000000000E-002    3.332499880911493E-012
 -1.490000000000000E-002    3.275160238912953E-012
 -1.480000000000000E-002    2.913490932357998E-012
 -1.470000000000000E-002    2.246941500692862E-012
 -1.460000000000000E-002    1.303647923098101E-012
 -1.450000000000000E-002    1.410646961200262E-013
 -1.440000000000000E-002   -1.156153690708997E-012
 -1.430000000000000E-002   -2.481145304092694E-012
 -1.420000000000000E-002   -3.712559179598948E-012
 -1.410000000000000E-002   -4.724575718524270E-012
 -1.400000000000000E-002   -5.398516272315381E-012
 -1.390000000000000E-002   -5.635105524904234E-012
 -1.380000000000000E-002   -5.366258521592943E-012
 -1.370000000000000E-002   -4.565187262538843E-012
 -1.360000000000000E-002   -3.253644086946895E-012
 -1.350000000000000E-002   -1.505258433440929E-012
 -1.340000000000000E-002    5.558112056901509E-013
 -1.330000000000000E-002    2.761323283703624E-012
 -1.320000000000000E-002    4.910442651372883E-012
 -1.310000000000000E-002    6.785741394598089E-012
 -1.300000000000000E-002    8.172643193837291E-012
 -1.290000000000000E-002    8.880800612089743E-012
 -1.280000000000000E-002    8.765527341218335E-012
 -1.270000000000000E-002    7.747182950688557E-012
 -1.260000000000000E-002    5.826378874735821E-012
 -1.250000000000000E-002    3.093032386626530E-012
 -1.240000000000000E-002   -2.723121368116970E-013
 -1.230000000000000E-002   -4.005892284210136E-012
 -1.220000000000000E-002   -7.777123038728985E-012
 -1.210000000000000E-002   -1.121338248474509E-011
 -1.200000000000000E-002   -1.393167635633324E-011
 -1.190000000000000E-002   -1.557486949515289E-011
 -1.180000000000000E-002   -1.584943555870958E-011
 -1.170000000000000E-002   -1.456121189589409E-011
 -1.160000000000000E-002   -1.164545893673200E-011
 -1.150000000000000E-002   -7.187682486206789E-012
 -1.140000000000000E-002   -1.432192897092484E-012
 -1.130000000000000E-002    5.223742335874369E-012
 -1.120000000000000E-002    1.225110325147524E-011
 -1.110000000000000E-002    1.902526730797413E-011
 -1.100000000000000E-002    2.487517918178732E-011
 -1.090000000000000E-002    2.914213749484673E-011
 -1.080000000000000E-002    3.124353440072697E-011
 -1.070000000000000E-002    3.073592557801292E-011
 -1.060000000000000E-002    2.737131073061399E-011
 -1.050000000000000E-002    2.114053679875130E-011
 -1.040000000000000E-002    1.229839841622796E-011
 -1.030000000000000E-002    1.366237877383609E-012
 -1.020000000000000E-002   -1.089037126253252E-011
 -1.010000000000000E-002   -2.350915620489108E-011
 -1.000000000000000E-002   -3.540172713433594E-011
 -9.899999999999999E-003   -4.544261324061196E-011
 -9.800000000000000E-003   -5.257005281430706E-011
 -9.699999999999999E-003   -5.588995988134058E-011
 -9.599999999999999E-003   -5.477347141699993E-011
 -9.500000000000000E-003   -4.893821636195998E-011
 -9.399999999999999E-003   -3.850413142191177E-011
 -9.299999999999999E-003   -2.401622074442566E-011
 -9.200000000000000E-003   -6.429302662359416E-012
 -9.099999999999999E-003    1.294712081901777E-011
 -8.999999999999999E-003    3.254202658066793E-011
 -8.900000000000000E-003    5.064828446039072E-011
 -8.799999999999999E-003    6.557111998416637E-011
 -8.699999999999999E-003    7.578723854056716E-011
 -8.600000000000000E-003    8.010025829839622E-011
 -8.499999999999999E-003    7.777723388853062E-011
 -8.399999999999999E-003    6.865157497147066E-011
 -8.300000000000000E-003    5.317970179318825E-011
 -8.199999999999999E-003    3.244231981212725E-011
 -8.100000000000000E-003    8.085651059754375E-012
 -8.000000000000000E-003   -1.779636673839812E-011
 -7.899999999999999E-003   -4.283233229670415E-011
 -7.800000000000000E-003   -6.458354737576014E-011
 -7.699999999999999E-003   -8.077694489666355E-011
 -7.599999999999999E-003   -8.953974234459044E-011
 -7.499999999999999E-003   -8.961303015720282E-011
 -7.399999999999999E-003   -8.052171040407428E-011
 -7.299999999999999E-003   -6.268050232121478E-011
 -7.199999999999999E-003   -3.742054821243173E-011
 -7.100000000000000E-003   -6.927350095318869E-012
 -6.999999999999999E-003    2.591090617372643E-011
 -6.899999999999999E-003    5.773723068512620E-011
 -6.800000000000000E-003    8.502555926477955E-011
 -6.699999999999999E-003    1.044224163932014E-010
 -6.599999999999999E-003    1.131002044733961E-010
 -6.499999999999999E-003    1.090884519996231E-010
 -6.399999999999999E-003    9.154851924426916E-011
 -6.299999999999999E-003    6.096004442808449E-011
 -6.199999999999999E-003    1.919340440433792E-011
 -6.100000000000000E-003   -3.054864633739884E-011
 -5.999999999999999E-003   -8.392545701397502E-011
 -5.899999999999999E-003   -1.357816969662603E-010
 -5.800000000000000E-003   -1.805787299513905E-010
 -5.699999999999999E-003   -2.129012595631379E-010
 -5.599999999999999E-003   -2.279967687926464E-010
 -5.499999999999999E-003   -2.222981121765071E-010
 -5.399999999999999E-003   -1.938775143800944E-010
 -5.299999999999999E-003   -1.427829786697779E-010
 -5.199999999999999E-003   -7.121460207363884E-011
 -5.099999999999999E-003    1.648841190268383E-011
 -4.999999999999999E-003    1.140643976777141E-010
 -4.899999999999999E-003    2.137450916885899E-010
 -4.799999999999999E-003    3.068469041947734E-010
 -4.699999999999999E-003    3.844948750897888E-010
 -4.599999999999999E-003    4.384215813739092E-010
 -4.499999999999999E-003    4.617706195384413E-010
 -4.399999999999999E-003    4.498298676027143E-010
 -4.299999999999999E-003    4.006198528996892E-010
 -4.199999999999999E-003    3.152720628105767E-010
 -4.099999999999999E-003    1.981464192468894E-010
 -3.999999999999999E-003    5.665912803938011E-011
 -3.899999999999999E-003   -9.918271609135740E-011
 -3.799999999999999E-003   -2.575158165113480E-010
 -3.699999999999999E-003   -4.055730802084247E-010
 -3.599999999999999E-003   -5.307781377252837E-010
 -3.499999999999999E-003   -6.218885548795261E-010
 -3.399999999999999E-003   -6.700823877255155E-010
 -3.299999999999999E-003   -6.698823930419220E-010
 -3.199999999999999E-003   -6.198206399025590E-010
 -3.099999999999999E-003   -5.227650144322075E-010
 -2.999999999999999E-003   -3.858564326422376E-010
 -2.899999999999999E-003   -2.200400331561348E-010
 -2.799999999999999E-003   -3.921198935296173E-011
 -2.699999999999999E-003    1.409594186227637E-010
 -2.599999999999999E-003    3.044435487805842E-010
 -2.499999999999999E-003    4.363651057340334E-010
 -2.399999999999999E-003    5.244907928409408E-010
 -2.299999999999999E-003    5.605376204279929E-010
 -2.199999999999999E-003    5.411670977984424E-010
 -2.099999999999999E-003    4.685497722820683E-010
 -1.999999999999999E-003    3.504199335336003E-010
 -1.899999999999999E-003    1.995856203664927E-010
 -1.799999999999999E-003    3.290910025957710E-011
 -1.699999999999999E-003   -1.301742392635738E-010
 -1.599999999999999E-003   -2.694815086811408E-010
 -1.499999999999999E-003   -3.660956628593755E-010
 -1.399999999999999E-003   -4.043811403897199E-010
 -1.299999999999999E-003   -3.738059312223755E-010
 -1.199999999999999E-003   -2.703808093224539E-010
 -1.099999999999999E-003   -9.755291440778159E-011
 -9.999999999999989E-004    1.335665947624806E-010
 -8.999999999999990E-004    4.047031101370177E-010
 -7.999999999999990E-004    6.916436572920211E-010
 -6.999999999999989E-004    9.661123357716502E-010
 -5.999999999999990E-004    1.198155433403493E-009
 -4.999999999999989E-004    1.358838427719391E-009
 -3.999999999999989E-004    1.423017103030220E-009
 -2.999999999999989E-004    1.371924069741829E-009
 -1.999999999999989E-004    1.195316921564379E-009
 -9.999999999999892E-005    8.929617405631000E-010
  1.084202172485504E-018    4.752796484059549E-010
  1.000000000000011E-004   -3.694658460182312E-011
  2.000000000000011E-004   -6.138222432488475E-010
  3.000000000000011E-004   -1.218472347321763E-009
  4.000000000000011E-004   -1.809894803655290E-009
  5.000000000000011E-004   -2.346293852260248E-009
  6.000000000000011E-004   -2.788598234847827E-009
  7.000000000000011E-004   -3.103836805118746E-009
  8.000000000000011E-004   -3.268041125581546E-009
  9.000000000000012E-004   -3.268379716996646E-009
  1.000000000000001E-003   -3.104285738697714E-009
  1.100000000000001E-003   -2.787429937370178E-009
  1.200000000000001E-003   -2.340499838837528E-009
  1.300000000000001E-003   -1.794857347311050E-009
  1.400000000000001E-003   -1.187265269661631E-009
  1.500000000000001E-003   -5.559742213547379E-010
  1.600000000000001E-003    6.346054363176464E-011
  1.700000000000001E-003    6.422145531402462E-010
  1.800000000000001E-003    1.161658120680655E-009
  1.900000000000001E-003    1.615855468714143E-009
  2.000000000000001E-003    2.012780609762534E-009
  2.100000000000001E-003    2.374039006046585E-009
  2.200000000000001E-003    2.733016860233212E-009
  2.300000000000001E-003    3.131533163562322E-009
  2.400000000000001E-003    3.615214782727570E-009
  2.500000000000001E-003    4.227958943693857E-009
  2.600000000000001E-003    5.005956094854401E-009
  2.700000000000001E-003    5.971818501276761E-009
  2.800000000000001E-003    7.129385067432144E-009
  2.900000000000001E-003    8.459753602776710E-009
  3.000000000000001E-003    9.919002630236395E-009
  3.100000000000001E-003    1.143795321144838E-008
  3.200000000000001E-003    1.292414483549318E-008
  3.300000000000001E-003    1.426603032324382E-008
  3.400000000000001E-003    1.533918035216858E-008
  3.500000000000001E-003    1.601413272286862E-008
  3.600000000000001E-003    1.616533161538596E-008
  3.700000000000001E-003    1.568051632069914E-008
  3.800000000000001E-003    1.446984870637209E-008
  3.900000000000001E-003    1.247406803494756E-008
  4.000000000000001E-003    9.671039434113213E-009
  4.100000000000001E-003    6.080193280262846E-009
  4.200000000000001E-003    1.764494967537671E-009
  4.300000000000001E-003   -3.170137694959020E-009
  4.400000000000001E-003   -8.577884307188792E-009
  4.500000000000001E-003   -1.427820642179477E-008
  4.600000000000002E-003   -2.006261392084978E-008
  4.700000000000001E-003   -2.570234305356846E-008
  4.800000000000001E-003   -3.095614626268515E-008
  4.900000000000002E-003   -3.557742025519517E-008
  5.000000000000001E-003   -3.931986718669824E-008
  5.100000000000001E-003   -4.194115857718794E-008
  5.200000000000001E-003   -4.320404101937078E-008
  5.300000000000002E-003   -4.287482705641598E-008
  5.400000000000001E-003   -4.071925830405578E-008
  5.500000000000001E-003   -3.649601879690560E-008
  5.600000000000002E-003   -2.994863999713785E-008
  5.700000000000001E-003   -2.079648305296722E-008
  5.800000000000001E-003   -8.725549068867534E-009
  5.900000000000002E-003    6.619724197717482E-009
  6.000000000000001E-003    2.564280167168141E-008
  6.100000000000001E-003    4.879905237839215E-008
  6.200000000000002E-003    7.659650150168795E-008
  6.300000000000002E-003    1.095934228829213E-007
  6.400000000000001E-003    1.483924646944531E-007
  6.500000000000001E-003    1.936321376481679E-007
  6.600000000000002E-003    2.459759809731054E-007
  6.700000000000001E-003    3.061004215740769E-007
  6.800000000000001E-003    3.746827822697197E-007
  6.900000000000002E-003    4.523902078958288E-007
  7.000000000000001E-003    5.398708305642154E-007
  7.100000000000001E-003    6.377482710975415E-007
  7.200000000000002E-003    7.466202930058855E-007
  7.300000000000002E-003    8.670619952760193E-007
  7.400000000000001E-003    9.996334226628279E-007
  7.500000000000001E-003    1.144891975568010E-006
  7.600000000000002E-003    1.303407456163030E-006
  7.700000000000001E-003    1.475780807905101E-006
  7.800000000000001E-003    1.662663209239963E-006
  7.900000000000001E-003    1.864775048501818E-006
  8.000000000000002E-003    2.082923650138832E-006
  8.100000000000001E-003    2.318016692169396E-006
  8.200000000000001E-003    2.571072992473343E-006
  8.300000000000002E-003    2.843226467270933E-006
  8.400000000000001E-003    3.135726927096465E-006
  8.500000000000002E-003    3.449933819026103E-006
  8.600000000000002E-003    3.787306508766479E-006
  8.700000000000001E-003    4.149390801610233E-006
  8.800000000000002E-003    4.537804889677152E-006
  8.900000000000002E-003    4.954222951161598E-006
  9.000000000000001E-003    5.400362438988168E-006
  9.100000000000002E-003    5.877972283959641E-006
  9.200000000000002E-003    6.388829811483775E-006
  9.300000000000001E-003    6.934739185531958E-006
  9.400000000000002E-003    7.517538240460380E-006
  9.500000000000001E-003    8.139113653152324E-006
  9.600000000000001E-003    8.801417804767792E-006
  9.700000000000002E-003    9.506493605247044E-006
  9.800000000000001E-003    1.025650367790347E-005
  9.900000000000001E-003    1.105375596898699E-005
  1.000000000000000E-002    1.190073434120696E-005
  1.010000000000000E-002    1.280012419354127E-005
  1.020000000000000E-002    1.375483207109453E-005
  1.030000000000000E-002    1.476800257679469E-005
  1.040000000000000E-002    1.584302630526874E-005
  1.050000000000000E-002    1.698354219058602E-005
  1.060000000000000E-002    1.819342979256113E-005
  1.070000000000000E-002    1.947680793451589E-005
  1.080000000000000E-002    2.083800898802613E-005
  1.090000000000000E-002    2.228157504667700E-005
  1.100000000000000E-002    2.381223560089336E-005
  1.110000000000000E-002    2.543489958822052E-005
  1.120000000000000E-002    2.715464856235588E-005
  1.130000000000000E-002    2.897673463747965E-005
  1.140000000000000E-002    3.090659541329577E-005
  1.150000000000000E-002    3.294986591732557E-005
  1.160000000000000E-002    3.511240938935901E-005
  1.170000000000000E-002    3.740034239052616E-005
  1.180000000000000E-002    3.982008668682492E-005
  1.190000000000000E-002    4.237840423982904E-005
  1.200000000000000E-002    4.508243668953939E-005
  1.210000000000000E-002    4.793975404576768E-005
  1.220000000000000E-002    5.095839922447986E-005
  1.230000000000000E-002    5.414690707548396E-005
  1.240000000000000E-002    5.751433656498728E-005
  1.250000000000000E-002    6.107027923397997E-005
  1.260000000000000E-002    6.482487252312688E-005
  1.270000000000000E-002    6.878879066781637E-005
  1.280000000000000E-002    7.297325724036495E-005
  1.290000000000000E-002    7.738999771425723E-005
  1.300000000000000E-002    8.205127468999733E-005
  1.310000000000000E-002    8.696984713112858E-005
  1.320000000000000E-002    9.215897660352635E-005
  1.330000000000000E-002    9.763243679581407E-005
  1.340000000000000E-002    1.034045270760836E-004
  1.350000000000000E-002    1.094900878339579E-004
  1.360000000000000E-002    1.159045586095332E-004
  1.370000000000000E-002    1.226640173066662E-004
  1.380000000000000E-002    1.297852436054609E-004
  1.390000000000000E-002    1.372857769202820E-004
  1.400000000000000E-002    1.451839830288018E-004
  1.410000000000000E-002    1.534991467610981E-004
  1.420000000000000E-002    1.622515243028327E-004
  1.430000000000000E-002    1.714623843855609E-004
  1.440000000000000E-002    1.811540996746670E-004
  1.450000000000000E-002    1.913501599814254E-004
  1.460000000000000E-002    2.020752068497195E-004
  1.470000000000000E-002    2.133550715454526E-004
  1.480000000000000E-002    2.252167363559576E-004
  1.490000000000000E-002    2.376884098788199E-004
  1.500000000000000E-002    2.507994570873907E-004
  1.510000000000000E-002    2.645804192570434E-004
  1.520000000000000E-002    2.790630319687026E-004
  1.530000000000000E-002    2.942802114969670E-004
  1.540000000000000E-002    3.102660957071934E-004
  1.550000000000000E-002    3.270560649234565E-004
  1.560000000000000E-002    3.446867609363802E-004
  1.570000000000000E-002    3.631961923763891E-004
  1.580000000000000E-002    3.826238033029048E-004
  1.590000000000000E-002    4.030105210796202E-004
  1.600000000000000E-002    4.243988584382598E-004
  1.610000000000000E-002    4.468330837706261E-004
  1.620000000000000E-002    4.703592245792638E-004
  1.630000000000000E-002    4.950252227276652E-004
  1.640000000000000E-002    5.208809873916852E-004
  1.650000000000000E-002    5.479785265638785E-004
  1.660000000000000E-002    5.763719142004727E-004
  1.670000000000000E-002    6.061174886936012E-004
  1.680000000000000E-002    6.372738297726648E-004
  1.690000000000000E-002    6.699016717995979E-004
  1.700000000000000E-002    7.040641998372535E-004
  1.710000000000000E-002    7.398268689717568E-004
  1.720000000000000E-002    7.772574286812779E-004
  1.730000000000000E-002    8.164259793173360E-004
  1.740000000000000E-002    8.574050682058717E-004
  1.750000000000000E-002    9.002697188981821E-004
  1.760000000000000E-002    9.450972796141198E-004
  1.770000000000000E-002    9.919678882910027E-004
  1.780000000000000E-002    1.040964204585104E-003
  1.790000000000000E-002    1.092171626541125E-003
  1.800000000000000E-002    1.145678460667656E-003
  1.810000000000000E-002    1.201575953498171E-003
  1.820000000000000E-002    1.259958444472108E-003
  1.830000000000000E-002    1.320923520946691E-003
  1.840000000000000E-002    1.384571955950448E-003
  1.850000000000000E-002    1.451008111424641E-003
  1.860000000000000E-002    1.520339778959345E-003
  1.870000000000000E-002    1.592678383709329E-003