 -4.000000000000000E-002    0.000000000000000E+000
 -3.990000000000000E-002    0.000000000000000E+000
 -3.980000000000000E-002    0.000000000000000E+000
 -3.970000000000000E-002    0.000000000000000E+000
 -3.960000000000000E-002    0.000000000000000E+000
 -3.950000000000000E-002    0.000000000000000E+000
 -3.940000000000000E-002    0.000000000000000E+000
 -3.930000000000000E-002    0.000000000000000E+000
 -3.920000000000000E-002    0.000000000000000E+000
 -3.910000000000000E-002    0.000000000000000E+000
 -3.900000000000000E-002    0.000000000000000E+000
 -3.890000000000000E-002    0.000000000000000E+000
 -3.880000000000000E-002    0.000000000000000E+000
 -3.870000000000000E-002    0.000000000000000E+000
 -3.860000000000000E-002    0.000000000000000E+000
 -3.850000000000000E-002    0.000000000000000E+000
 -3.840000000000000E-002    0.000000000000000E+000
 -3.830000000000000E-002    0.000000000000000E+000
 -3.820000000000000E-002    0.000000000000000E+000
 -3.810000000000000E-002    0.000000000000000E+000
 -3.800000000000000E-002    0.000000000000000E+000
 -3.790000000000000E-002    0.000000000000000E+000
 -3.780000000000000E-002    0.000000000000000E+000
 -3.770000000000000E-002    0.000000000000000E+000
 -3.760000000000000E-002    0.000000000000000E+000
 -3.750000000000000E-002    0.000000000000000E+000
 -3.740000000000000E-002    0.000000000000000E+000
 -3.730000000000000E-002    0.000000000000000E+000
 -3.720000000000000E-002    0.000000000000000E+000
 -3.710000000000000E-002    0.000000000000000E+000
 -3.700000000000000E-002    0.000000000000000E+000
 -3.690000000000000E-002    0.000000000000000E+000
 -3.680000000000000E-002    0.000000000000000E+000
 -3.670000000000000E-002    0.000000000000000E+000
 -3.660000000000000E-002    0.000000000000000E+000
 -3.650000000000000E-002    0.000000000000000E+000
 -3.640000000000000E-002    0.000000000000000E+000
 -3.630000000000000E-002    0.000000000000000E+000
 -3.620000000000000E-002    0.000000000000000E+000
 -3.610000000000000E-002    0.000000000000000E+000
 -3.600000000000000E-002    0.000000000000000E+000
 -3.590000000000000E-002    0.000000000000000E+000
 -3.580000000000000E-002    0.000000000000000E+000
 -3.570000000000000E-002    0.000000000000000E+000
 -3.560000000000000E-002    0.000000000000000E+000
 -3.550000000000000E-002    0.000000000000000E+000
 -3.540000000000000E-002    0.000000000000000E+000
 -3.530000000000000E-002    0.000000000000000E+000
 -3.520000000000000E-002    0.000000000000000E+000
 -3.510000000000000E-002    0.000000000000000E+000
 -3.500000000000000E-002    0.000000000000000E+000
 -3.490000000000000E-002    0.000000000000000E+000
 -3.480000000000000E-002    0.000000000000000E+000
 -3.470000000000000E-002    0.000000000000000E+000
 -3.460000000000000E-002    0.000000000000000E+000
 -3.450000000000000E-002    0.000000000000000E+000
 -3.440000000000000E-002    0.000000000000000E+000
 -3.430000000000000E-002    0.000000000000000E+000
 -3.420000000000000E-002    0.000000000000000E+000
 -3.410000000000000E-002    0.000000000000000E+000
 -3.400000000000000E-002    0.000000000000000E+000
 -3.390000000000000E-002    0.000000000000000E+000
 -3.380000000000000E-002    0.000000000000000E+000
 -3.370000000000000E-002    0.000000000000000E+000
 -3.360000000000000E-002    0.000000000000000E+000
 -3.350000000000000E-002    0.000000000000000E+000
 -3.340000000000000E-002    0.000000000000000E+000
 -3.330000000000000E-002    0.000000000000000E+000
 -3.320000000000000E-002    0.000000000000000E+000
 -3.310000000000000E-002    0.000000000000000E+000
 -3.300000000000000E-002    0.000000000000000E+000
 -3.290000000000000E-002    0.000000000000000E+000
 -3.280000000000000E-002    0.000000000000000E+000
 -3.270000000000000E-002    0.000000000000000E+000
 -3.260000000000000E-002    0.000000000000000E+000
 -3.250000000000000E-002    0.000000000000000E+000
 -3.240000000000000E-002    0.000000000000000E+000
 -3.230000000000000E-002    0.000000000000000E+000
 -3.220000000000000E-002    0.000000000000000E+000
 -3.210000000000000E-002    0.000000000000000E+000
 -3.200000000000000E-002    0.000000000000000E+000
 -3.190000000000000E-002    0.000000000000000E+000
 -3.180000000000000E-002    0.000000000000000E+000
 -3.170000000000000E-002    0.000000000000000E+000
 -3.160000000000000E-002    0.000000000000000E+000
 -3.150000000000000E-002    0.000000000000000E+000
 -3.140000000000000E-002    0.000000000000000E+000
 -3.130000000000000E-002    0.000000000000000E+000
 -3.120000000000000E-002    0.000000000000000E+000
 -3.110000000000000E-002    0.000000000000000E+000
 -3.100000000000000E-002    0.000000000000000E+000
 -3.090000000000000E-002    0.000000000000000E+000
 -3.080000000000000E-002    0.000000000000000E+000
 -3.070000000000000E-002    0.000000000000000E+000
 -3.060000000000000E-002    0.000000000000000E+000
 -3.050000000000000E-002    0.000000000000000E+000
 -3.040000000000000E-002    0.000000000000000E+000
 -3.030000000000000E-002    0.000000000000000E+000
 -3.020000000000000E-002    0.000000000000000E+000
 -3.010000000000000E-002    0.000000000000000E+000
 -3.000000000000000E-002    0.000000000000000E+000
 -2.990000000000000E-002    0.000000000000000E+000
 -2.980000000000000E-002    0.000000000000000E+000
 -2.970000000000000E-002    0.000000000000000E+000
 -2.960000000000000E-002    0.000000000000000E+000
 -2.950000000000000E-002    0.000000000000000E+000
 -2.940000000000000E-002    0.000000000000000E+000
 -2.930000000000000E-002    0.000000000000000E+000
 -2.920000000000000E-002    0.000000000000000E+000
 -2.910000000000000E-002    0.000000000000000E+000
 -2.900000000000000E-002    0.000000000000000E+000
 -2.890000000000000E-002    0.000000000000000E+000
 -2.880000000000000E-002    0.000000000000000E+000
 -2.870000000000000E-002    0.000000000000000E+000
 -2.860000000000000E-002    0.000000000000000E+000
 -2.850000000000000E-002    0.000000000000000E+000
 -2.840000000000000E-002    0.000000000000000E+000
 -2.830000000000000E-002    0.000000000000000E+000
 -2.820000000000000E-002    0.000000000000000E+000
 -2.810000000000000E-002    0.000000000000000E+000
 -2.800000000000000E-002    0.000000000000000E+000
 -2.790000000000000E-002    0.000000000000000E+000
 -2.780000000000000E-002    0.000000000000000E+000
 -2.770000000000000E-002    0.000000000000000E+000
 -2.760000000000000E-002    0.000000000000000E+000
 -2.750000000000000E-002    0.000000000000000E+000
 -2.740000000000000E-002    0.000000000000000E+000
 -2.730000000000000E-002    0.000000000000000E+000
 -2.720000000000000E-002    0.000000000000000E+000
 -2.710000000000000E-002    0.000000000000000E+000
 -2.700000000000000E-002    0.000000000000000E+000
 -2.690000000000000E-002    0.000000000000000E+000
 -2.680000000000000E-002    0.000000000000000E+000
 -2.670000000000000E-002    0.000000000000000E+000
 -2.660000000000000E-002    0.000000000000000E+000
 -2.650000000000000E-002    0.000000000000000E+000
 -2.640000000000000E-002    0.000000000000000E+000
 -2.630000000000000E-002    0.000000000000000E+000
 -2.620000000000000E-002    0.000000000000000E+000
 -2.610000000000000E-002    0.000000000000000E+000
 -2.600000000000000E-002    0.000000000000000E+000
 -2.590000000000000E-002    0.000000000000000E+000
 -2.580000000000000E-002    0.000000000000000E+000
 -2.570000000000000E-002    0.000000000000000E+000
 -2.560000000000000E-002    0.000000000000000E+000
 -2.550000000000000E-002    0.000000000000000E+000
 -2.540000000000000E-002    0.000000000000000E+000
 -2.530000000000000E-002    1.708295117466251E-046
 -2.520000000000000E-002    3.609029294059141E-046
 -2.510000000000000E-002    7.410497647244920E-046
 -2.500000000000000E-002    1.095538058826185E-045
 -2.490000000000000E-002    1.614641442024621E-045
 -2.480000000000000E-002    2.127330189918836E-045
 -2.470000000000000E-002    2.575872584770838E-045
 -2.460000000000000E-002    2.524755714991407E-045
 -2.450000000000000E-002    6.891354047340438E-046
 -2.440000000000000E-002   -2.071193452602879E-045
 -2.430000000000000E-002   -6.223816945129688E-045
 -2.420000000000000E-002   -1.217066445115438E-044
 -2.410000000000000E-002   -2.111726609845038E-044
 -2.400000000000000E-002   -3.124571387939606E-044
 -2.390000000000000E-002   -4.369621489971976E-044
 -2.380000000000000E-002   -5.564432116608728E-044
 -2.370000000000000E-002   -6.449010922427372E-044
 -2.360000000000000E-002   -6.557655272562980E-044
 -2.350000000000000E-002   -5.282394087235435E-044
 -2.340000000000000E-002   -1.786122418593209E-044
 -2.330000000000000E-002    4.758362892795372E-044
 -2.320000000000000E-002    1.512944052436959E-043
 -2.310000000000000E-002    2.993595085969885E-043
 -2.300000000000000E-002    4.921760324853354E-043
 -2.290000000000000E-002    7.211967024760970E-043
 -2.280000000000000E-002    9.623193275044607E-043
 -2.270000000000000E-002    1.172339328534003E-042
 -2.260000000000000E-002    1.285110414950000E-042
 -2.250000000000000E-002    1.207088105100347E-042
 -2.240000000000000E-002    8.204925775741147E-043
 -2.230000000000000E-002   -9.885943546066614E-045
 -2.220000000000000E-002   -1.419494689889878E-042
 -2.210000000000000E-002   -3.514939179791888E-042
 -2.200000000000000E-002   -6.335248482754373E-042
 -2.190000000000000E-002   -9.798871363155770E-042
 -2.180000000000000E-002   -1.363642153601247E-041
 -2.170000000000000E-002   -1.732593826576683E-041
 -2.160000000000000E-002   -2.003402676560142E-041
 -2.150000000000000E-002   -2.057969867929892E-041
 -2.140000000000000E-002   -1.744567959932921E-041
 -2.130000000000000E-002   -8.869744283476031E-042
 -2.120000000000000E-002    6.965662259988433E-042
 -2.110000000000000E-002    3.161225919236843E-041
 -2.100000000000000E-002    6.588236723582448E-041
 -2.090000000000000E-002    1.092424245355398E-040
 -2.080000000000000E-002    1.590852287861696E-040
 -2.070000000000000E-002    2.099692501768027E-040
 -2.060000000000000E-002    2.529438690468307E-040
 -2.050000000000000E-002    2.751442378054799E-040
 -2.040000000000000E-002    2.598893509638031E-040
 -2.030000000000000E-002    1.875654163648007E-040
 -2.020000000000000E-002    3.757083529820013E-041
 -2.010000000000000E-002   -2.084176474255482E-040
 -2.000000000000000E-002   -5.617336178792445E-040
 -1.990000000000000E-002   -1.020604119462651E-039
 -1.980000000000000E-002   -1.562990966762703E-039
 -1.970000000000000E-002   -2.139129348196009E-039
 -1.960000000000000E-002   -2.664964464799083E-039
 -1.950000000000000E-002   -3.018209093478294E-039
 -1.940000000000000E-002   -3.039171437673846E-039
 -1.930000000000000E-002   -2.538816772637064E-039
 -1.920000000000000E-002   -1.316524214145076E-039
 -1.910000000000000E-002    8.104475907747710E-040
 -1.900000000000000E-002    3.964832987504764E-039
 -1.890000000000000E-002    8.155380048796882E-039
 -1.880000000000000E-002    1.321444196398752E-038
 -1.870000000000000E-002    1.873381806110295E-038
 -1.860000000000000E-002    2.400934926722060E-038
 -1.850000000000000E-002    2.800864774129152E-038
 -1.840000000000000E-002    2.937958229389586E-038
 -1.830000000000000E-002    2.651898307416314E-038
 -1.820000000000000E-002    1.772021873616693E-038
 -1.810000000000000E-002    1.413859438843276E-039
 -1.800000000000000E-002   -2.349359086025740E-038
 -1.790000000000000E-002   -5.719257987923215E-038
 -1.780000000000000E-002   -9.848498058030392E-038
 -1.770000000000000E-002   -1.442950433404867E-037
 -1.760000000000000E-002   -1.892593786471315E-037
 -1.750000000000000E-002   -2.255051163360886E-037
 -1.740000000000000E-002   -2.427459358190001E-037
 -1.730000000000000E-002   -2.288336587716587E-037
 -1.720000000000000E-002   -1.708911053414430E-037
 -1.710000000000000E-002   -5.711233343756718E-038
 -1.700000000000000E-002    1.207563333607427E-037
 -1.690000000000000E-002    3.643510968571658E-037
 -1.680000000000000E-002    6.652822869436543E-037
 -1.670000000000000E-002    1.001794974190499E-036
 -1.660000000000000E-002    1.336091279921727E-036
 -1.650000000000000E-002    1.613069903051424E-036
 -1.640000000000000E-002    1.761349284387271E-036
 -1.630000000000000E-002    1.697454267225626E-036
 -1.620000000000000E-002    1.333919354899357E-036
 -1.610000000000000E-002    5.917484642765162E-037
 -1.600000000000000E-002   -5.828550231894950E-037
 -1.590000000000000E-002   -2.198323188143305E-036
 -1.580000000000000E-002   -4.195905488673381E-036
 -1.570000000000000E-002   -6.429045116090005E-036
 -1.560000000000000E-002   -8.647868766111423E-036
 -1.550000000000000E-002   -1.049359559095905E-035
 -1.540000000000000E-002   -1.150815454886681E-035
 -1.530000000000000E-002   -1.116412212783950E-035
 -1.520000000000000E-002   -8.918993930016344E-036
 -1.510000000000000E-002   -4.295559670851644E-036
 -1.500000000000000E-002    3.013327882786328E-036
 -1.490000000000000E-002    1.302202576142448E-035
 -1.480000000000000E-002    2.532352138737571E-035
 -1.470000000000000E-002    3.897321952018046E-035
 -1.460000000000000E-002    5.240907824776513E-035
 -1.450000000000000E-002    6.343635236113890E-035
 -1.440000000000000E-002    6.930668603164712E-035
 -1.430000000000000E-002    6.691864586098587E-035
 -1.420000000000000E-002    5.315861361100560E-035
 -1.410000000000000E-002    2.538628672314451E-035
 -1.400000000000000E-002   -1.795220916694357E-035
 -1.390000000000000E-002   -7.662810210094931E-035
 -1.380000000000000E-002   -1.479266727523758E-034
 -1.370000000000000E-002   -2.260451007763443E-034
 -1.360000000000000E-002   -3.017279670923067E-034
 -1.350000000000000E-002   -3.622947605468824E-034
 -1.340000000000000E-002   -3.922142685711674E-034
 -1.330000000000000E-002   -3.743572412398520E-034
 -1.320000000000000E-002   -2.920043156836662E-034
 -1.310000000000000E-002   -1.315991766114301E-034
 -1.300000000000000E-002    1.138845942787169E-034
 -1.290000000000000E-002    4.412422351206071E-034
 -1.280000000000000E-002    8.334442642506056E-034
 -1.270000000000000E-002    1.256749981459804E-033
 -1.260000000000000E-002    1.659253323208110E-033
 -1.250000000000000E-002    1.971646998377361E-033
 -1.240000000000000E-002    2.110955000747774E-033
 -1.230000000000000E-002    1.987813987581201E-033
 -1.220000000000000E-002    1.517564457788859E-033
 -1.210000000000000E-002    6.349249334960261E-034
 -1.200000000000000E-002   -6.886135888609540E-034
 -1.190000000000000E-002   -2.426281047673611E-033
 -1.180000000000000E-002   -4.478800304846878E-033
 -1.170000000000000E-002   -6.661537636860230E-033
 -1.160000000000000E-002   -8.699638199822990E-033
 -1.150000000000000E-002   -1.023489232516756E-032
 -1.140000000000000E-002   -1.084770812868862E-032
 -1.130000000000000E-002   -1.009653510831070E-032
 -1.120000000000000E-002   -7.575329774308274E-033
 -1.110000000000000E-002   -2.987149026761315E-033
 -1.100000000000000E-002    3.771167432994406E-033
 -1.090000000000000E-002    1.252177268166725E-032
 -1.080000000000000E-002    2.272810416205837E-032
 -1.070000000000000E-002    3.344171872351673E-032
 -1.060000000000000E-002    4.329047055194333E-032
 -1.050000000000000E-002    5.052479887636877E-032
 -1.040000000000000E-002    5.313625463069251E-032
 -1.030000000000000E-002    4.905677825039715E-032
 -1.020000000000000E-002    3.643837451902168E-032
 -1.010000000000000E-002    1.400082434777888E-032
 -1.000000000000000E-002   -1.857933005042113E-032
 -9.899999999999999E-003   -6.028071635530487E-032
 -9.800000000000000E-003   -1.084069163238229E-031
 -9.699999999999999E-003   -1.583824701734830E-031
 -9.599999999999999E-003   -2.037488114879580E-031
 -9.500000000000000E-003   -2.364303465219117E-031
 -9.399999999999999E-003   -2.473258983490324E-031
 -9.299999999999999E-003   -2.272523867927021E-031
 -9.200000000000000E-003   -1.682260074708690E-031
 -9.099999999999999E-003   -6.501228692490688E-032
 -8.999999999999999E-003    8.318576836288207E-032
 -8.900000000000000E-003    2.710962671419587E-031
 -8.799999999999999E-003    4.860561120280821E-031
 -8.699999999999999E-003    7.072905942676026E-031
 -8.600000000000000E-003    9.060994794861923E-031
 -8.499999999999999E-003    1.047225827592470E-030
 -8.399999999999999E-003    1.091607292444957E-030
 -8.300000000000000E-003    1.000578302488312E-030
 -8.199999999999999E-003    7.414077299840409E-031
 -8.100000000000000E-003    2.938299623583881E-031
 -8.000000000000000E-003   -3.430247807168659E-031
 -7.899999999999999E-003   -1.144145588594185E-030
 -7.800000000000000E-003   -2.053656154696190E-030
 -7.699999999999999E-003   -2.982512929816658E-030
 -7.599999999999999E-003   -3.810071701010266E-030
 -7.499999999999999E-003   -4.390546725194896E-030
 -7.399999999999999E-003   -4.565020222043194E-030
 -7.299999999999999E-003   -4.179101848377787E-030
 -7.199999999999999E-003   -3.105570770521471E-030
 -7.100000000000000E-003   -1.270434219190368E-030
 -6.999999999999999E-003    1.320132161905307E-030
 -6.899999999999999E-003    4.555411584419922E-030
 -6.800000000000000E-003    8.202503882439330E-030
 -6.699999999999999E-003    1.189993351982207E-029
 -6.599999999999999E-003    1.516686961065145E-029
 -6.499999999999999E-003    1.743149044628491E-029
 -6.399999999999999E-003    1.808047938747543E-029
 -6.299999999999999E-003    1.652931734407864E-029
 -6.199999999999999E-003    1.231009420129594E-029
 -6.100000000000000E-003    5.170135336858703E-030
 -5.999999999999999E-003   -4.828734161377223E-030
 -5.899999999999999E-003   -1.722362979342652E-029
 -5.800000000000000E-003   -3.109232890128941E-029
 -5.699999999999999E-003   -4.503963370735517E-029
 -5.599999999999999E-003   -5.724348371596088E-029
 -5.499999999999999E-003   -6.557226335262362E-029
 -5.399999999999999E-003   -6.777840345323801E-029
 -5.299999999999999E-003   -6.176451371118277E-029
 -5.199999999999999E-003   -4.590732780029619E-029
 -5.099999999999999E-003   -1.941258566207416E-029
 -4.999999999999999E-003    1.733795131431341E-029
 -4.899999999999999E-003    6.249639242075324E-029
 -4.799999999999999E-003    1.125708956471206E-028
 -4.699999999999999E-003    1.624163397972387E-028
 -4.599999999999999E-003    2.054429470062829E-028
 -4.499999999999999E-003    2.340770204165855E-028
 -4.399999999999999E-003    2.404838750244614E-028
 -4.299999999999999E-003    2.175303130976879E-028
 -4.199999999999999E-003    1.599258005216879E-028
 -4.099999999999999E-003    6.543994069290169E-029
 -3.999999999999999E-003   -6.394464271758229E-029
 -3.899999999999999E-003   -2.211159460616618E-028
 -3.799999999999999E-003   -3.933407715644913E-028
 -3.699999999999999E-003   -5.623807613780283E-028
 -3.599999999999999E-003   -7.053692748505666E-028
 -3.499999999999999E-003   -7.965424988593580E-028
 -3.399999999999999E-003   -8.098298680192835E-028
 -3.299999999999999E-003   -7.221960640025200E-028
 -3.199999999999999E-003   -5.174967433942858E-028
 -3.099999999999999E-003   -1.904771194273228E-028
 -2.999999999999999E-003    2.495768461392376E-028
 -2.899999999999999E-003    7.761123313508760E-028
 -2.799999999999999E-003    1.344118935995091E-027
 -2.699999999999999E-003    1.891044921157964E-027
 -2.599999999999999E-003    2.340266641034856E-027
 -2.499999999999999E-003    2.607337969988411E-027
 -2.399999999999999E-003    2.608940213851354E-027
 -2.299999999999999E-003    2.274075254539783E-027
 -2.199999999999999E-003    1.556625176704898E-027
 -2.099999999999999E-003    4.479916716149624E-028
 -1.999999999999999E-003   -1.011825376196966E-027
 -1.899999999999999E-003   -2.726575485637758E-027
 -1.799999999999999E-003   -4.541438241756000E-027
 -1.699999999999999E-003   -6.247742920987321E-027
 -1.599999999999999E-003   -7.595955028849907E-027
 -1.499999999999999E-003   -8.317398627075505E-027
 -1.399999999999999E-003   -8.154150370080297E-027
 -1.299999999999999E-003   -6.895340142838191E-027
 -1.199999999999999E-003   -4.416787206969505E-027
 -1.099999999999999E-003   -7.196767572570461E-028
 -9.999999999999989E-004    4.037000146371385E-027
 -8.999999999999990E-004    9.516067886863586E-027
 -7.999999999999990E-004    1.519958978238029E-026
 -6.999999999999989E-004    2.040899964068482E-026
 -5.999999999999990E-004    2.435115024139240E-026
 -4.999999999999989E-004    2.619093552822898E-026
 -3.999999999999989E-004    2.514788439319736E-026
 -2.999999999999989E-004    2.061037445197693E-026
 -1.999999999999989E-004    1.225720411985931E-026
 -9.999999999999892E-005    1.727845011120736E-028
  1.084202172485504E-018   -1.506046345705368E-026
  1.000000000000011E-004   -3.231004894764882E-026
  2.000000000000011E-004   -4.989847390183094E-026
  3.000000000000011E-004   -6.567903304471540E-026
  4.000000000000011E-004   -7.719029017124184E-026
  5.000000000000011E-004   -8.188910576500472E-026
  6.000000000000011E-004   -7.745205513722160E-026
  7.000000000000011E-004   -6.212378895982226E-026
  8.000000000000011E-004   -3.507985838296622E-026
  9.000000000000012E-004    3.238465590470282E-027
  1.000000000000001E-003    5.086641910505721E-026
  1.100000000000001E-003    1.041862967525520E-025
  1.200000000000001E-003    1.579737943481973E-025
  1.300000000000001E-003    2.056568441037121E-025
  1.400000000000001E-003    2.398056539077747E-025
  1.500000000000001E-003    2.528482271876689E-025
  1.600000000000001E-003    2.379758677073620E-025
  1.700000000000001E-003    1.901709476086302E-025
  1.800000000000001E-003    1.072581842226892E-025
  1.900000000000001E-003   -9.145906027000771E-027
  2.000000000000001E-003   -1.529270392810899E-025
  2.100000000000001E-003   -3.131553902512850E-025
  2.200000000000001E-003   -4.742861072387968E-025
  2.300000000000001E-003   -6.169739295885690E-025
  2.400000000000001E-003   -7.195443556055544E-025
  2.500000000000001E-003   -7.600916365525974E-025
  2.600000000000001E-003   -7.190903888067852E-025
  2.700000000000001E-003   -5.823181970809667E-025
  2.800000000000001E-003   -3.438023298473341E-025
  2.900000000000001E-003   -8.435874168386741E-027
  3.000000000000001E-003    4.061306060530277E-025
  3.100000000000001E-003    8.687159328221903E-025
  3.200000000000001E-003    1.335298279088875E-024
  3.300000000000001E-003    1.751411156936845E-024
  3.400000000000001E-003    2.056333853486028E-024
  3.500000000000001E-003    2.188966538186853E-024
  3.600000000000001E-003    2.095049653059850E-024
  3.700000000000001E-003    1.735150378134094E-024
  3.800000000000001E-003    1.092621432466116E-024
  3.900000000000001E-003    1.805653970565137E-025
  4.000000000000001E-003   -9.532475186790698E-025
  4.100000000000001E-003   -2.224540497649541E-024
  4.200000000000001E-003   -3.514651519749035E-024
  4.300000000000001E-003   -4.677205145679688E-024
  4.400000000000001E-003   -5.549505657330008E-024
  4.500000000000001E-003   -5.968283190715417E-024
  4.600000000000002E-003   -5.788832171390323E-024
  4.700000000000001E-003   -4.905964510842070E-024
  4.800000000000001E-003   -3.274658396428953E-024
  4.900000000000002E-003   -9.278763772397190E-025
  5.000000000000001E-003    2.011154149493093E-024
  5.100000000000001E-003    5.324803833925956E-024
  5.200000000000001E-003    8.707207632508124E-024
  5.300000000000002E-003    1.178211284481383E-023
  5.400000000000001E-003    1.413266384394589E-023
  5.500000000000001E-003    1.534200868608566E-023
  5.600000000000002E-003    1.504209393630932E-023
  5.700000000000001E-003    1.296651788030712E-023
  5.800000000000001E-003    9.001976674260891E-024
  5.900000000000002E-003    3.231944189892529E-024
  6.000000000000001E-003   -4.034140174083411E-024
  6.100000000000001E-003   -1.225249715178953E-023
  6.200000000000002E-003   -2.066253928528958E-023
  6.300000000000002E-003   -2.833334087501287E-023
  6.400000000000001E-003   -3.423920270802919E-023
  6.500000000000001E-003   -3.736108436045850E-023
  6.600000000000002E-003   -3.680693174922908E-023
  6.700000000000001E-003   -3.194035636450495E-023
  6.800000000000001E-003   -2.250408608446843E-023
  6.900000000000002E-003   -8.722596744603970E-024
  7.000000000000001E-003    8.632193833566407E-024
  7.100000000000001E-003    2.822699360786040E-023
  7.200000000000002E-003    4.821651078479214E-023
  7.300000000000002E-003    6.636235480258435E-023
  7.400000000000001E-003    8.022065198722869E-023
  7.500000000000001E-003    8.738924306735440E-023
  7.600000000000002E-003    8.579660714087304E-023
  7.700000000000001E-003    7.400624652686819E-023
  7.800000000000001E-003    5.150357042726447E-023
  7.900000000000001E-003    1.892817198938322E-023
  8.000000000000002E-003   -2.178611232298514E-023
  8.100000000000001E-003   -6.739712547273530E-023
  8.200000000000001E-003   -1.134913934105929E-022
  8.300000000000002E-003   -1.547842290303402E-022
  8.400000000000001E-003   -1.855778302116142E-022
  8.500000000000002E-003   -2.003527544198752E-022
  8.600000000000002E-003   -1.944476765928378E-022
  8.700000000000001E-003   -1.647639458414468E-022
  8.800000000000002E-003   -1.104163818703711E-022
  8.900000000000002E-003   -3.324402091148462E-023
  9.000000000000001E-003    6.190496665780766E-023
  9.100000000000002E-003    1.671891453207029E-022
  9.200000000000002E-003    2.721436012079014E-022
  9.300000000000001E-003    3.644248567361481E-022
  9.400000000000002E-003    4.309120399545648E-022
  9.500000000000001E-003    4.590998268947652E-022
  9.600000000000001E-003    4.386732304115747E-022
  9.700000000000002E-003    3.631125838785755E-022
  9.800000000000001E-003    2.311463584177973E-022
  9.900000000000001E-003    4.785452814767135E-023
  1.000000000000000E-002   -1.747696980478423E-022
  1.010000000000000E-002   -4.179627893616128E-022
  1.020000000000000E-002   -6.571486469649870E-022
  1.030000000000000E-002   -8.637456185340810E-022
  1.040000000000000E-002   -1.007764607052749E-021
  1.050000000000000E-002   -1.061037362593047E-021
  1.060000000000000E-002   -1.000812017729989E-021
  1.070000000000000E-002   -8.133639493808515E-022
  1.080000000000000E-002   -4.972058228375566E-022
  1.090000000000000E-002   -6.545370438641414E-023
  1.100000000000000E-002    4.530740669297887E-022
  1.110000000000000E-002    1.014375352326194E-021
  1.120000000000000E-002    1.561626004934230E-021
  1.130000000000000E-002    2.029434562032281E-021
  1.140000000000000E-002    2.349833096661820E-021
  1.150000000000000E-002    2.459617287488317E-021
  1.160000000000000E-002    2.308426866906329E-021
  1.170000000000000E-002    1.866768409992617E-021
  1.180000000000000E-002    1.133049365931446E-021
  1.190000000000000E-002    1.386483852300815E-022
  1.200000000000000E-002   -1.049898661985238E-021
  1.210000000000000E-002   -2.332340880206151E-021
  1.220000000000000E-002   -3.580241263492650E-021
  1.230000000000000E-002   -4.646660978746557E-021
  1.240000000000000E-002   -5.379605409225008E-021
  1.250000000000000E-002   -5.638341005474790E-021
  1.260000000000000E-002   -5.311218545171186E-021
  1.270000000000000E-002   -4.333237359711293E-021
  1.280000000000000E-002   -2.701313996549310E-021
  1.290000000000000E-002   -4.851470301128657E-022
  1.300000000000000E-002    2.168289099005272E-021
  1.310000000000000E-002    5.038188574673352E-021
  1.320000000000000E-002    7.842231437484667E-021
  1.330000000000000E-002    1.025785261394578E-020
  1.340000000000000E-002    1.195155523703844E-020
  1.350000000000000E-002    1.261429704126534E-020
  1.360000000000000E-002    1.199997472328966E-020
  1.370000000000000E-002    9.963209057486707E-021
  1.380000000000000E-002    6.492077399096137E-021
  1.390000000000000E-002    1.731321426839069E-021
  1.400000000000000E-002   -4.008103618999195E-021
  1.410000000000000E-002   -1.025641080021986E-020
  1.420000000000000E-002   -1.641119241238904E-020
  1.430000000000000E-002   -2.178255458890494E-020
  1.440000000000000E-002   -2.565518907159498E-020
  1.450000000000000E-002   -2.736317740677832E-020
  1.460000000000000E-002   -2.637124342678581E-020
  1.470000000000000E-002   -2.235447291715840E-020
  1.480000000000000E-002   -1.526743416390935E-020
  1.490000000000000E-002   -5.393377661305251E-021
  1.500000000000000E-002    6.635031307155693E-021
  1.510000000000000E-002    1.985018285286771E-020
  1.520000000000000E-002    3.300306643077761E-020
  1.530000000000000E-002    4.465604447934922E-020
  1.540000000000000E-002    5.331070642334775E-020
  1.550000000000000E-002    5.756213176435471E-020
  1.560000000000000E-002    5.626665540233012E-020
  1.570000000000000E-002    4.870679058539095E-020
  1.580000000000000E-002    3.473477203951475E-020
  1.590000000000000E-002    1.487574065921518E-020
  1.600000000000000E-002   -9.626853623060584E-021
  1.610000000000000E-002   -3.683732210919685E-020
  1.620000000000000E-002   -6.423317745274308E-020
  1.630000000000000E-002   -8.889036389503290E-020
  1.640000000000000E-002   -1.077399606854084E-019
  1.650000000000000E-002   -1.178790361899675E-019
  1.660000000000000E-002   -1.169098142783439E-019
  1.670000000000000E-002   -1.032744372528252E-019
  1.680000000000000E-002   -7.654819494731920E-020
  1.690000000000000E-002   -3.765325942313891E-020
  1.700000000000000E-002    1.104199212344136E-020
  1.710000000000000E-002    6.576563506676025E-020
  1.720000000000000E-002    1.215428758129366E-019
  1.730000000000000E-002    1.725560883732219E-019
  1.740000000000000E-002    2.126483028997649E-019
  1.750000000000000E-002    2.359364022558508E-019
  1.760000000000000E-002    2.374835374517552E-019
  1.770000000000000E-002    2.139666045349530E-019
  1.780000000000000E-002    1.642659633440978E-019
  1.790000000000000E-002    8.990262847056735E-020
  1.800000000000000E-002   -4.746072119790704E-021
  1.810000000000000E-002   -1.125071066891064E-019
  1.820000000000000E-002   -2.237813557240709E-019
  1.830000000000000E-002   -3.272261199315324E-019
  1.840000000000000E-002   -4.107213820522008E-019
  1.850000000000000E-002   -4.625558913771088E-019
  1.860000000000000E-002   -4.727364178574655E-019
  1.870000000000000E-002   -4.342969052732058E-019