 -4.000000000000000E-002    0.000000000000000E+000
 -3.990000000000000E-002    0.000000000000000E+000
 -3.980000000000000E-002    0.000000000000000E+000
 -3.970000000000000E-002    0.000000000000000E+000
 -3.960000000000000E-002    0.000000000000000E+000
 -3.950000000000000E-002    0.000000000000000E+000
 -3.940000000000000E-002    0.000000000000000E+000
 -3.930000000000000E-002    0.000000000000000E+000
 -3.920000000000000E-002    0.000000000000000E+000
 -3.910000000000000E-002    0.000000000000000E+000
 -3.900000000000000E-002    0.000000000000000E+000
 -3.890000000000000E-002    0.000000000000000E+000
 -3.880000000000000E-002    0.000000000000000E+000
 -3.870000000000000E-002    0.000000000000000E+000
 -3.860000000000000E-002    0.000000000000000E+000
 -3.850000000000000E-002    0.000000000000000E+000
 -3.840000000000000E-002    0.000000000000000E+000
 -3.830000000000000E-002    0.000000000000000E+000
 -3.820000000000000E-002    0.000000000000000E+000
 -3.810000000000000E-002    0.000000000000000E+000
 -3.800000000000000E-002    0.000000000000000E+000
 -3.790000000000000E-002    0.000000000000000E+000
 -3.780000000000000E-002    0.000000000000000E+000
 -3.770000000000000E-002    0.000000000000000E+000
 -3.760000000000000E-002    0.000000000000000E+000
 -3.750000000000000E-002    0.000000000000000E+000
 -3.740000000000000E-002    0.000000000000000E+000
 -3.730000000000000E-002    0.000000000000000E+000
 -3.720000000000000E-002    0.000000000000000E+000
 -3.710000000000000E-002    0.000000000000000E+000
 -3.700000000000000E-002    0.000000000000000E+000
 -3.690000000000000E-002    0.000000000000000E+000
 -3.680000000000000E-002    0.000000000000000E+000
 -3.670000000000000E-002    0.000000000000000E+000
 -3.660000000000000E-002    0.000000000000000E+000
 -3.650000000000000E-002    0.000000000000000E+000
 -3.640000000000000E-002    0.000000000000000E+000
 -3.630000000000000E-002    0.000000000000000E+000
 -3.620000000000000E-002    0.000000000000000E+000
 -3.610000000000000E-002    0.000000000000000E+000
 -3.600000000000000E-002    0.000000000000000E+000
 -3.590000000000000E-002    0.000000000000000E+000
 -3.580000000000000E-002    0.000000000000000E+000
 -3.570000000000000E-002    0.000000000000000E+000
 -3.560000000000000E-002   -1.924390591266381E-047
 -3.550000000000000E-002   -3.848781182532762E-047
 -3.540000000000000E-002   -8.980489425909777E-048
 -3.530000000000000E-002   -1.796097885181955E-047
 -3.520000000000000E-002   -1.361904811038303E-046
 -3.510000000000000E-002   -2.565854121688508E-048
 -3.500000000000000E-002    2.659663269034393E-046
 -3.490000000000000E-002    1.029861215196916E-046
 -3.480000000000000E-002    6.076741865533195E-046
 -3.470000000000000E-002    1.591095535339886E-045
 -3.460000000000000E-002    4.997130193844028E-045
 -3.450000000000000E-002    1.099294159686338E-044
 -3.440000000000000E-002    2.225223415811541E-044
 -3.430000000000000E-002    4.373797210554840E-044
 -3.420000000000000E-002    8.290780525731242E-044
 -3.410000000000000E-002    1.490718827031877E-043
 -3.400000000000000E-002    2.522879573456368E-043
 -3.390000000000000E-002    3.990072504874436E-043
 -3.380000000000000E-002    5.847230856054629E-043
 -3.370000000000000E-002    7.707844039985142E-043
 -3.360000000000000E-002    8.466979147766650E-043
 -3.350000000000000E-002    5.693799844738951E-043
 -3.340000000000000E-002   -5.310435591083552E-043
 -3.330000000000000E-002   -3.286657667718473E-042
 -3.320000000000000E-002   -9.050078421164232E-042
 -3.310000000000000E-002   -1.986245727962498E-041
 -3.300000000000000E-002   -3.854665184392617E-041
 -3.290000000000000E-002   -6.858384474031474E-041
 -3.280000000000000E-002   -1.135416607814221E-040
 -3.270000000000000E-002   -1.756624028767210E-040
 -3.260000000000000E-002   -2.530816499330942E-040
 -3.250000000000000E-002   -3.349929577772025E-040
 -3.240000000000000E-002   -3.940186035163327E-040
 -3.230000000000000E-002   -3.751588310390826E-040
 -3.220000000000000E-002   -1.812082610201605E-040
 -3.210000000000000E-002    3.443378748119265E-040
 -3.200000000000000E-002    1.433835933065929E-039
 -3.190000000000000E-002    3.405137957480321E-039
 -3.180000000000000E-002    6.653190094862322E-039
 -3.170000000000000E-002    1.160612604927918E-038
 -3.160000000000000E-002    1.862101450430427E-038
 -3.150000000000000E-002    2.778706499149504E-038
 -3.140000000000000E-002    3.859910892235893E-038
 -3.130000000000000E-002    4.946544933753830E-038
 -3.120000000000000E-002    5.702754805732864E-038
 -3.110000000000000E-002    5.530112407734977E-038
 -3.100000000000000E-002    3.471038286705721E-038
 -3.090000000000000E-002   -1.881359462645034E-038
 -3.080000000000000E-002   -1.243533243728457E-037
 -3.070000000000000E-002   -3.056321111084807E-037
 -3.060000000000000E-002   -5.890035514761748E-037
 -3.050000000000000E-002   -9.988079828200330E-037
 -3.040000000000000E-002   -1.548898495748886E-036
 -3.030000000000000E-002   -2.229048927742194E-036
 -3.020000000000000E-002   -2.985155452893444E-036
 -3.010000000000000E-002   -3.692735911825049E-036
 -3.000000000000000E-002   -4.124502607620898E-036
 -2.990000000000000E-002   -3.914933753790774E-036
 -2.980000000000000E-002   -2.527931320546823E-036
 -2.970000000000000E-002    7.619033142193383E-037
 -2.960000000000000E-002    6.858461206824511E-036
 -2.950000000000000E-002    1.678171309299590E-035
 -2.940000000000000E-002    3.152596129896415E-035
 -2.930000000000000E-002    5.180697242701558E-035
 -2.920000000000000E-002    7.766696661425023E-035
 -2.910000000000000E-002    1.079137406349327E-034
 -2.900000000000000E-002    1.393903247946532E-034
 -2.890000000000000E-002    1.661061399378772E-034
 -2.880000000000000E-002    1.783159349913196E-034
 -2.870000000000000E-002    1.617088263908015E-034
 -2.860000000000000E-002    9.696909789851617E-035
 -2.850000000000000E-002   -3.991740560956593E-035
 -2.840000000000000E-002   -2.761211685519344E-034
 -2.830000000000000E-002   -6.386127875028036E-034
 -2.820000000000000E-002   -1.148379082719875E-033
 -2.810000000000000E-002   -1.811675694424526E-033
 -2.800000000000000E-002   -2.608027442207935E-033
 -2.790000000000000E-002   -3.475163605211717E-033
 -2.780000000000000E-002   -4.291847242049742E-033
 -2.770000000000000E-002   -4.860650299010315E-033
 -2.760000000000000E-002   -4.894157181596890E-033
 -2.750000000000000E-002   -4.009722456541577E-033
 -2.740000000000000E-002   -1.739603216811625E-033
 -2.730000000000000E-002    2.435281911563799E-033
 -2.720000000000000E-002    9.018987131855787E-033
 -2.710000000000000E-002    1.839343516205849E-032
 -2.700000000000000E-002    3.066506573326515E-032
 -2.690000000000000E-002    4.546551693657696E-032
 -2.680000000000000E-002    6.171593601395135E-032
 -2.670000000000000E-002    7.737757398803229E-032
 -2.660000000000000E-002    8.922829317508645E-032
 -2.650000000000000E-002    9.272408028621675E-032
 -2.640000000000000E-002    8.202405688085717E-032
 -2.630000000000000E-002    5.027454206227195E-032
 -2.620000000000000E-002   -9.745773381904775E-033
 -2.610000000000000E-002   -1.045241631436557E-031
 -2.600000000000000E-002   -2.381926557288044E-031
 -2.590000000000000E-002   -4.103845427646431E-031
 -2.580000000000000E-002   -6.136636194424272E-031
 -2.570000000000000E-002   -8.307589566085839E-031
 -2.560000000000000E-002   -1.032006211999379E-030
 -2.550000000000000E-002   -1.173585257697633E-030
 -2.540000000000000E-002   -1.197338815454365E-030
 -2.530000000000000E-002   -1.033090721415083E-030
 -2.520000000000000E-002   -6.044385165234507E-031
 -2.510000000000000E-002    1.611037669349914E-031
 -2.500000000000000E-002    1.317063087606864E-030
 -2.490000000000000E-002    2.878128218948537E-030
 -2.480000000000000E-002    4.796385337530634E-030
 -2.470000000000000E-002    6.935897578337768E-030
 -2.460000000000000E-002    9.049313404851763E-030
 -2.450000000000000E-002    1.076182361868626E-029
 -2.440000000000000E-002    1.156926317255160E-029
 -2.430000000000000E-002    1.085824098157325E-029
 -2.420000000000000E-002    7.956242014430219E-030
 -2.410000000000000E-002    2.218571795725969E-030
 -2.400000000000000E-002   -6.844149385652657E-030
 -2.390000000000000E-002   -1.939944221698910E-029
 -2.380000000000000E-002   -3.509673704232793E-029
 -2.370000000000000E-002   -5.286059754080045E-029
 -2.360000000000000E-002   -7.070458084718855E-029
 -2.350000000000000E-002   -8.560848676410848E-029
 -2.340000000000000E-002   -9.351272050935948E-029
 -2.330000000000000E-002   -8.948975749208067E-029
 -2.320000000000000E-002   -6.815145283339397E-029
 -2.310000000000000E-002   -2.433974459401584E-029
 -2.300000000000000E-002    4.587711159797234E-029
 -2.290000000000000E-002    1.439222402367353E-028
 -2.280000000000000E-002    2.672198080280697E-028
 -2.270000000000000E-002    4.076469363240497E-028
 -2.260000000000000E-002    5.501604285692734E-028
 -2.250000000000000E-002    6.719120137099942E-028
 -2.240000000000000E-002    7.422335295239607E-028
 -2.230000000000000E-002    7.239080187236114E-028
 -2.220000000000000E-002    5.761249900214190E-028
 -2.210000000000000E-002    2.594253093454013E-028
 -2.200000000000000E-002   -2.572416938845849E-028
 -2.190000000000000E-002   -9.875177936127193E-028
 -2.180000000000000E-002   -1.917244819577901E-027
 -2.170000000000000E-002   -2.993718475716289E-027
 -2.160000000000000E-002   -4.116137851141743E-027
 -2.150000000000000E-002   -5.129308000129192E-027
 -2.140000000000000E-002   -5.823036507975363E-027
 -2.130000000000000E-002   -5.939854434717576E-027
 -2.120000000000000E-002   -5.193517914836851E-027
 -2.110000000000000E-002   -3.300134814877171E-027
 -2.100000000000000E-002   -2.260517461850842E-029
 -2.090000000000000E-002    4.772742239827925E-027
 -2.080000000000000E-002    1.105073307220502E-026
 -2.070000000000000E-002    1.853937289123678E-026
 -2.060000000000000E-002    2.666850972055276E-026
 -2.050000000000000E-002    3.452715565555243E-026
 -2.040000000000000E-002    4.085353282616118E-026
 -2.030000000000000E-002    4.407280995106905E-026
 -2.020000000000000E-002    4.239641507279799E-026
 -2.010000000000000E-002    3.399307887721484E-026
 -2.000000000000000E-002    1.723540673303031E-026
 -1.990000000000000E-002   -8.984144445626382E-027
 -1.980000000000000E-002   -4.488629228545662E-026
 -1.970000000000000E-002   -8.942032143304456E-026
 -1.960000000000000E-002   -1.399103294359674E-025
 -1.950000000000000E-002   -1.917951309865293E-025
 -1.940000000000000E-002   -2.385348990266856E-025
 -1.930000000000000E-002   -2.717609092199510E-025
 -1.920000000000000E-002   -2.817387123598457E-025
 -1.910000000000000E-002   -2.581964346589463E-025
 -1.900000000000000E-002   -1.915359618210928E-025
 -1.890000000000000E-002   -7.439861887600442E-026
 -1.880000000000000E-002    9.650602977705956E-026
 -1.870000000000000E-002    3.184673328136653E-025
 -1.860000000000000E-002    5.809690614710440E-025
 -1.850000000000000E-002    8.643088226867757E-025
 -1.840000000000000E-002    1.138982717925541E-024
 -1.830000000000000E-002    1.366189562179367E-024
 -1.820000000000000E-002    1.499772249798732E-024
 -1.810000000000000E-002    1.489831916909480E-024
 -1.800000000000000E-002    1.288087192292746E-024
 -1.790000000000000E-002    8.548455919513627E-025
 -1.780000000000000E-002    1.671797618890653E-025
 -1.770000000000000E-002   -7.724020021137278E-025
 -1.760000000000000E-002   -1.927801002249245E-024
 -1.750000000000000E-002   -3.222970047894665E-024
 -1.740000000000000E-002   -4.538805459466762E-024
 -1.730000000000000E-002   -5.714770829743567E-024
 -1.720000000000000E-002   -6.556569966992676E-024
 -1.710000000000000E-002   -6.850802576906130E-024
 -1.700000000000000E-002   -6.386850690611063E-024
 -1.690000000000000E-002   -4.985378003016782E-024
 -1.680000000000000E-002   -2.531700858113346E-024
 -1.670000000000000E-002    9.889145072347349E-025
 -1.660000000000000E-002    5.458149140630227E-024
 -1.650000000000000E-002    1.059885837193613E-023
 -1.640000000000000E-002    1.596234356874998E-023
 -1.630000000000000E-002    2.093443178114625E-023
 -1.620000000000000E-002    2.476529667249956E-023
 -1.610000000000000E-002    2.662636471666009E-023
 -1.600000000000000E-002    2.569489857838316E-023
 -1.590000000000000E-002    2.126345419494102E-023
 -1.580000000000000E-002    1.286707385634458E-023
 -1.570000000000000E-002    4.166258676269731E-025
 -1.560000000000000E-002   -1.567759515084716E-023
 -1.550000000000000E-002   -3.441136456781702E-023
 -1.540000000000000E-002   -5.414234336716555E-023
 -1.530000000000000E-002   -7.261694498115850E-023
 -1.520000000000000E-002   -8.708570792748469E-023
 -1.510000000000000E-002   -9.451782366474634E-023
 -1.500000000000000E-002   -9.191563676632192E-023
 -1.490000000000000E-002   -7.671646295381439E-023
 -1.480000000000000E-002   -4.725432408733944E-023
 -1.470000000000000E-002   -3.237831065016832E-024
 -1.460000000000000E-002    5.381387976641173E-023
 -1.450000000000000E-002    1.202466319427017E-022
 -1.440000000000000E-002    1.901327415529708E-022
 -1.430000000000000E-002    2.553897210689463E-022
 -1.420000000000000E-002    3.062139553309699E-022
 -1.410000000000000E-002    3.318619753101117E-022
 -1.400000000000000E-002    3.217753626740139E-022
 -1.390000000000000E-002    2.670000554234665E-022
 -1.380000000000000E-002    1.617972761166985E-022
 -1.370000000000000E-002    5.291609723669879E-024
 -1.360000000000000E-002   -1.970472741628815E-022
 -1.350000000000000E-002   -4.323264530553421E-022
 -1.340000000000000E-002   -6.798054556821777E-022
 -1.330000000000000E-002   -9.113593581448035E-022
 -1.320000000000000E-002   -1.093012843592072E-021
 -1.310000000000000E-002   -1.187641177509465E-021
 -1.300000000000000E-002   -1.158806150720361E-021
 -1.290000000000000E-002   -9.755487249218083E-022
 -1.280000000000000E-002   -6.177825424807555E-022
 -1.270000000000000E-002   -8.176753770231950E-023
 -1.260000000000000E-002    6.150080411756616E-022
 -1.250000000000000E-002    1.430308732669385E-021
 -1.240000000000000E-002    2.295796399926579E-021
 -1.230000000000000E-002    3.118574550100010E-021
 -1.220000000000000E-002    3.786190763218390E-021
 -1.210000000000000E-002    4.175372105842765E-021
 -1.200000000000000E-002    4.164356437696713E-021
 -1.190000000000000E-002    3.648216627780664E-021
 -1.180000000000000E-002    2.556033608292669E-021
 -1.170000000000000E-002    8.682649898325774E-022
 -1.160000000000000E-002   -1.367785333756296E-021
 -1.150000000000000E-002   -4.026776935455250E-021
 -1.140000000000000E-002   -6.900849209701707E-021
 -1.130000000000000E-002   -9.704061932344518E-021
 -1.120000000000000E-002   -1.208739555824691E-020
 -1.110000000000000E-002   -1.366505785590051E-020
 -1.100000000000000E-002   -1.405163621528200E-020
 -1.090000000000000E-002   -1.290819465419114E-020
 -1.080000000000000E-002   -9.993868915186009E-021
 -1.070000000000000E-002   -5.218008710017544E-021
 -1.060000000000000E-002    1.313286236185439E-021
 -1.050000000000000E-002    9.263177604851542E-021
 -1.040000000000000E-002    1.804966960070080E-020
 -1.030000000000000E-002    2.685704079348575E-020
 -1.020000000000000E-002    3.467771014651090E-020
 -1.010000000000000E-002    4.038649349799617E-020
 -1.000000000000000E-002    4.284580821883243E-020
 -9.899999999999999E-003    4.103614857702956E-020
 -9.800000000000000E-003    3.420206002717925E-020
 -9.699999999999999E-003    2.199960600534373E-020
 -9.599999999999999E-003    4.628112906170346E-021
 -9.500000000000000E-003   -1.707298009746679E-020
 -9.399999999999999E-003   -4.158137757906778E-020
 -9.299999999999999E-003   -6.672022267411344E-020
 -9.200000000000000E-003   -8.976951985846071E-020
 -9.099999999999999E-003   -1.076656238559113E-019
 -8.999999999999999E-003   -1.172839411335118E-019
 -8.900000000000000E-003   -1.157893610043778E-019
 -8.799999999999999E-003   -1.010274727711065E-019
 -8.699999999999999E-003   -7.191867803775191E-020
 -8.600000000000000E-003   -2.880946547954654E-020
 -8.499999999999999E-003    2.626986856335905E-020
 -8.399999999999999E-003    8.949103593188414E-020
 -8.300000000000000E-003    1.553007017561346E-019
 -8.199999999999999E-003    2.167107450523698E-019
 -8.100000000000000E-003    2.658168209254780E-019
 -8.000000000000000E-003    2.945309650430765E-019
 -7.899999999999999E-003    2.954860445176093E-019
 -7.800000000000000E-003    2.630407739719840E-019
 -7.699999999999999E-003    1.942870165572309E-019
 -7.599999999999999E-003    8.994183413178165E-020
 -7.499999999999999E-003   -4.500473814824078E-020
 -7.399999999999999E-003   -2.010115608717471E-019
 -7.299999999999999E-003   -3.641851461991078E-019
 -7.199999999999999E-003   -5.170281776746868E-019
 -7.100000000000000E-003   -6.397599604835950E-019
 -6.999999999999999E-003   -7.121687173206104E-019
 -6.899999999999999E-003   -7.158841475230429E-019
 -6.800000000000000E-003   -6.368874762936662E-019
 -6.699999999999999E-003   -4.680134691127545E-019
 -6.599999999999999E-003   -2.111488311356469E-019
 -6.499999999999999E-003    1.211896623328309E-019
 -6.399999999999999E-003    5.052025530306508E-019
 -6.299999999999999E-003    9.063403548577503E-019
 -6.199999999999999E-003    1.281189886668045E-018
 -6.100000000000000E-003    1.580761940497492E-018
 -5.999999999999999E-003    1.755068859995853E-018
 -5.899999999999999E-003    1.758714719355201E-018
 -5.800000000000000E-003    1.557046562183208E-018
 -5.699999999999999E-003    1.132264298599715E-018
 -5.599999999999999E-003    4.887764294315382E-019
 -5.499999999999999E-003   -3.429575448309702E-019
 -5.399999999999999E-003   -1.304831733395097E-018
 -5.299999999999999E-003   -2.312354079518237E-018
 -5.199999999999999E-003   -3.259163970991576E-018
 -5.099999999999999E-003   -4.024900827148212E-018
 -4.999999999999999E-003   -4.486168997203356E-018
 -4.899999999999999E-003   -4.529923843884792E-018
 -4.799999999999999E-003   -4.068218486613432E-018
 -4.699999999999999E-003   -3.052897729062623E-018
 -4.599999999999999E-003   -1.488566935799776E-018
 -4.499999999999999E-003    5.579424113649255E-019
 -4.399999999999999E-003    2.953312033984237E-018
 -4.299999999999999E-003    5.500112347108355E-018
 -4.199999999999999E-003    7.946745807420996E-018
 -4.099999999999999E-003    1.000522850027813E-017
 -3.999999999999999E-003    1.137621891461178E-017
 -3.899999999999999E-003    1.177982376972765E-017
 -3.799999999999999E-003    1.098979232624559E-017
 -3.699999999999999E-003    8.867905589725281E-018
 -3.599999999999999E-003    5.394821289539114E-018
 -3.499999999999999E-003    6.933536022830271E-019
 -3.399999999999999E-003   -4.959673964125560E-018
 -3.299999999999999E-003   -1.113625839539832E-017
 -3.199999999999999E-003   -1.727694842671022E-017
 -3.099999999999999E-003   -2.272815593783560E-017
 -2.999999999999999E-003   -2.679599230286016E-017
 -2.899999999999999E-003   -2.881350969618191E-017
 -2.799999999999999E-003   -2.821630577627304E-017
 -2.699999999999999E-003   -2.461967590002249E-017
 -2.599999999999999E-003   -1.788924841054200E-017
 -2.499999999999999E-003   -8.196380314304804E-018
 -2.399999999999999E-003    3.950066488790373E-018
 -2.299999999999999E-003    1.770281654407721E-017
 -2.199999999999999E-003    3.191115007803239E-017
 -2.099999999999999E-003    4.519364931131800E-017
 -1.999999999999999E-003    5.604692144027291E-017
 -1.899999999999999E-003    6.298419579597633E-017
 -1.799999999999999E-003    6.469365952428518E-017
 -1.699999999999999E-003    6.020265703108161E-017
 -1.599999999999999E-003    4.903104216677187E-017
 -1.499999999999999E-003    3.131571763994743E-017
 -1.399999999999999E-003    7.888725036855300E-018
 -1.299999999999999E-003   -1.970643350561776E-017
 -1.199999999999999E-003   -4.927125856072038E-017
 -1.099999999999999E-003   -7.808614674008322E-017
 -9.999999999999989E-004   -1.031189913956117E-016
 -8.999999999999990E-004   -1.212972837431408E-016
 -7.999999999999990E-004   -1.298236909140799E-016
 -6.999999999999989E-004   -1.265082888916774E-016
 -5.999999999999990E-004   -1.100839270667954E-016
 -4.999999999999989E-004   -8.046903359881510E-017
 -3.999999999999989E-004   -3.894208716071403E-017
 -2.999999999999989E-004    1.180337631180117E-017
 -1.999999999999989E-004    6.774621122338151E-017
 -9.999999999999892E-005    1.237784379027832E-016
  1.084202172485504E-018    1.740952807928222E-016
  1.000000000000011E-004    2.127140478064096E-016
  2.000000000000011E-004    2.340843331541739E-016
  3.000000000000011E-004    2.337371573732540E-016
  4.000000000000011E-004    2.089092200980710E-016
  5.000000000000011E-004    1.590714979052325E-016
  6.000000000000011E-004    8.629248174098704E-017
  7.000000000000011E-004   -4.626374672634237E-018
  8.000000000000011E-004   -1.062893486207983E-016
  9.000000000000012E-004   -2.091430117105101E-016
  1.000000000000001E-003   -3.022054669931658E-016
  1.100000000000001E-003   -3.740512822455045E-016
  1.200000000000001E-003   -4.139822656839087E-016
  1.300000000000001E-003   -4.132846692510578E-016
  1.400000000000001E-003   -3.664500710468938E-016
  1.500000000000001E-003   -2.722236394683237E-016
  1.600000000000001E-003   -1.343433897766866E-016
  1.700000000000001E-003    3.815265878952955E-017
  1.800000000000001E-003    2.311454035387554E-016
  1.900000000000001E-003    4.262308093595105E-016
  2.000000000000001E-003    6.020898175772305E-016
  2.100000000000001E-003    7.363671322584404E-016
  2.200000000000001E-003    8.079311403818924E-016
  2.300000000000001E-003    7.993280586652614E-016
  2.400000000000001E-003    6.991973173442115E-016
  2.500000000000001E-003    5.043856995852097E-016
  2.600000000000001E-003    2.214942244150091E-016
  2.700000000000001E-003   -1.323869089387189E-016
  2.800000000000001E-003   -5.299478500167208E-016
  2.900000000000001E-003   -9.350479992102071E-016
  3.000000000000001E-003   -1.305235407391924E-015
  3.100000000000001E-003   -1.595293316219331E-015
  3.200000000000001E-003   -1.761588096511538E-015
  3.300000000000001E-003   -1.766876667394481E-015
  3.400000000000001E-003   -1.585137611061538E-015
  3.500000000000001E-003   -1.205927911869348E-015
  3.600000000000001E-003   -6.377467394379671E-016
  3.700000000000001E-003    9.007994855912459E-017
  3.800000000000001E-003    9.273930030094429E-016
  3.900000000000001E-003    1.805333640945878E-015
  4.000000000000001E-003    2.640692897816139E-015
  4.100000000000001E-003    3.342333392381572E-015
  4.200000000000001E-003    3.819312850189768E-015
  4.300000000000001E-003    3.990113434874774E-015
  4.400000000000001E-003    3.792182261470145E-015
  4.500000000000001E-003    3.190866006468534E-015
  4.600000000000002E-003    2.186744496786577E-015
  4.700000000000001E-003    8.204141045638066E-016
  4.800000000000001E-003   -8.260984944603058E-016
  4.900000000000002E-003   -2.631882390025965E-015
  5.000000000000001E-003   -4.443903116945858E-015
  5.100000000000001E-003   -6.087853956511965E-015
  5.200000000000001E-003   -7.382534932171936E-015
  5.300000000000002E-003   -8.156772878820502E-015
  5.400000000000001E-003   -8.267519944348076E-015
  5.500000000000001E-003   -7.617468472110114E-015
  5.600000000000002E-003   -6.170371763299191E-015
  5.700000000000001E-003   -3.962252082579128E-015
  5.800000000000001E-003   -1.106877286704492E-015
  5.900000000000002E-003    2.205746373809367E-015
  6.000000000000001E-003    5.718573734982635E-015
  6.100000000000001E-003    9.124425036407168E-015
  6.200000000000002E-003    1.208985557258184E-014
  6.300000000000002E-003    1.428444627790335E-014
  6.400000000000001E-003    1.541326537609096E-014
  6.500000000000001E-003    1.524963546164382E-014
  6.600000000000002E-003    1.366501467213487E-014
  6.700000000000001E-003    1.065265804808728E-014
  6.800000000000001E-003    6.342003434007043E-015
  6.900000000000002E-003    1.001275778168980E-015
  7.000000000000001E-003   -4.973301785946169E-015
  7.100000000000001E-003   -1.108214556653396E-014
  7.200000000000002E-003   -1.675991704128277E-014
  7.300000000000002E-003   -2.142379603456448E-014
  7.400000000000001E-003   -2.452881945724660E-014
  7.500000000000001E-003   -2.562552170071509E-014
  7.600000000000002E-003   -2.441435942937623E-014
  7.700000000000001E-003   -2.079109802051681E-014
  7.800000000000001E-003   -1.487761505912316E-014
  7.900000000000001E-003   -7.033369206341863E-015
  8.000000000000002E-003    2.155724820186187E-015
  8.100000000000001E-003    1.191239774061962E-014
  8.200000000000001E-003    2.132618293643190E-014
  8.300000000000002E-003    2.943127134548396E-014
  8.400000000000001E-003    3.529830290885114E-014
  8.500000000000002E-003    3.813229692488516E-014
  8.600000000000002E-003    3.736739088346741E-014
  8.700000000000001E-003    3.274837277093525E-014
  8.800000000000002E-003    2.438919464772384E-014
  8.900000000000002E-003    1.279993493202204E-014
  9.000000000000001E-003   -1.124032016632462E-015
  9.100000000000002E-003   -1.615375583059910E-014
  9.200000000000002E-003   -3.081848042513270E-014
  9.300000000000001E-003   -4.353251345093516E-014
  9.400000000000002E-003   -5.274790245932709E-014
  9.500000000000001E-003   -5.712010282192350E-014
  9.600000000000001E-003   -5.567092890732388E-014
  9.700000000000002E-003   -4.793152948671931E-014
  9.800000000000001E-003   -3.404840186116754E-014
  9.900000000000001E-003   -1.483719823844860E-014
  1.000000000000000E-002    8.227132784040939E-015
  1.010000000000000E-002    3.309008246252858E-014
  1.020000000000000E-002    5.726695684499781E-014
  1.030000000000000E-002    7.805417950687162E-014
  1.040000000000000E-002    9.278786047950393E-014
  1.050000000000000E-002    9.912807781183050E-014
  1.060000000000000E-002    9.534241504365390E-014
  1.070000000000000E-002    8.055926322750600E-014
  1.080000000000000E-002    5.496117623236245E-014
  1.090000000000000E-002    1.989139748242150E-014
  1.100000000000000E-002   -2.214745268332400E-014
  1.110000000000000E-002   -6.761479955603140E-014
  1.120000000000000E-002   -1.121749240467328E-013
  1.130000000000000E-002   -1.510500688035446E-013
  1.140000000000000E-002   -1.794602524981121E-013
  1.150000000000000E-002   -1.931143506465002E-013
  1.160000000000000E-002   -1.887082398323395E-013
  1.170000000000000E-002   -1.643795088918371E-013
  1.180000000000000E-002   -1.200674811812159E-013
  1.190000000000000E-002   -5.773123034227047E-014
  1.200000000000000E-002    1.861282236736877E-014
  1.210000000000000E-002    1.030576333299722E-013
  1.220000000000000E-002    1.881823894775539E-013
  1.230000000000000E-002    2.656245666683274E-013
  1.240000000000000E-002    3.268109718107355E-013
  1.250000000000000E-002    3.637910395671153E-013
  1.260000000000000E-002    3.700993366805775E-013
  1.270000000000000E-002    3.415638960358065E-013
  1.280000000000000E-002    2.769728047377308E-013
  1.290000000000000E-002    1.785168864571615E-013
  1.300000000000000E-002    5.194038856429197E-014
  1.310000000000000E-002   -9.364613536019066E-014
  1.320000000000000E-002   -2.463076011660875E-013
  1.330000000000000E-002   -3.921629072861080E-013
  1.340000000000000E-002   -5.165474712845703E-013
  1.350000000000000E-002   -6.053723295374369E-013
  1.360000000000000E-002   -6.465638084251643E-013
  1.370000000000000E-002   -6.314483255054100E-013
  1.380000000000000E-002   -5.559390781146079E-013
  1.390000000000000E-002   -4.213857718193903E-013
  1.400000000000000E-002   -2.349702106070992E-013
  1.410000000000000E-002   -9.564042094862610E-015
  1.420000000000000E-002    2.369894006431979E-013
  1.430000000000000E-002    4.831530070581104E-013
  1.440000000000000E-002    7.054587235640158E-013
  1.450000000000000E-002    8.806266418177897E-013
  1.460000000000000E-002    9.878612133516165E-013
  1.470000000000000E-002    1.011113565495690E-012
  1.480000000000000E-002    9.410798222338175E-013
  1.490000000000000E-002    7.767131444756314E-013
  1.500000000000000E-002    5.260529335293503E-013
  1.510000000000000E-002    2.062274446781976E-013
  1.520000000000000E-002   -1.574453504911476E-013
  1.530000000000000E-002   -5.332496632871284E-013
  1.540000000000000E-002   -8.856564060081989E-013
  1.550000000000000E-002   -1.178512859591808E-012
  1.560000000000000E-002   -1.378569851434294E-012
  1.570000000000000E-002   -1.459024429261613E-012
  1.580000000000000E-002   -1.402722722945772E-012
  1.590000000000000E-002   -1.204672439014136E-012
  1.600000000000000E-002   -8.735527868974612E-013
  1.610000000000000E-002   -4.319839066564387E-013
  1.620000000000000E-002    8.457856251869629E-014
  1.630000000000000E-002    6.303303215469704E-013
  1.640000000000000E-002    1.152854106802511E-012
  1.650000000000000E-002    1.597834831078360E-012
  1.660000000000000E-002    1.914361978858386E-012
  1.670000000000000E-002    2.060333103579317E-012
  1.680000000000000E-002    2.007425132120038E-012
  1.690000000000000E-002    1.745089936086550E-012
  1.700000000000000E-002    1.283093491656227E-012
  1.710000000000000E-002    6.522152021586044E-013
  1.720000000000000E-002   -9.711525894832524E-014
  1.730000000000000E-002   -8.982800811534949E-013
  1.740000000000000E-002   -1.673860807293442E-012
  1.750000000000000E-002   -2.342566974621338E-012
  1.760000000000000E-002   -2.827135355232037E-012
  1.770000000000000E-002   -3.062481294756590E-012
  1.780000000000000E-002   -3.003300360043394E-012
  1.790000000000000E-002   -2.630304858404467E-012
  1.800000000000000E-002   -1.954354793378589E-012
  1.810000000000000E-002   -1.017888289677479E-012
  1.820000000000000E-002    1.067138567858771E-013
  1.830000000000000E-002    1.321919733442641E-012
  1.840000000000000E-002    2.512767462114705E-012
  1.850000000000000E-002    3.556982796587922E-012
  1.860000000000000E-002    4.336665201258253E-012
  1.870000000000000E-002    4.750500761550688E-012