 -4.000000000000000E-002    0.000000000000000E+000
 -3.990000000000000E-002    0.000000000000000E+000
 -3.980000000000000E-002    0.000000000000000E+000
 -3.970000000000000E-002    0.000000000000000E+000
 -3.960000000000000E-002    0.000000000000000E+000
 -3.950000000000000E-002    0.000000000000000E+000
 -3.940000000000000E-002    0.000000000000000E+000
 -3.930000000000000E-002    0.000000000000000E+000
 -3.920000000000000E-002    0.000000000000000E+000
 -3.910000000000000E-002    0.000000000000000E+000
 -3.900000000000000E-002    0.000000000000000E+000
 -3.890000000000000E-002    0.000000000000000E+000
 -3.880000000000000E-002    0.000000000000000E+000
 -3.870000000000000E-002    0.000000000000000E+000
 -3.860000000000000E-002    0.000000000000000E+000
 -3.850000000000000E-002    0.000000000000000E+000
 -3.840000000000000E-002    0.000000000000000E+000
 -3.830000000000000E-002    0.000000000000000E+000
 -3.820000000000000E-002    0.000000000000000E+000
 -3.810000000000000E-002    0.000000000000000E+000
 -3.800000000000000E-002    0.000000000000000E+000
 -3.790000000000000E-002    0.000000000000000E+000
 -3.780000000000000E-002    0.000000000000000E+000
 -3.770000000000000E-002    0.000000000000000E+000
 -3.760000000000000E-002    0.000000000000000E+000
 -3.750000000000000E-002    0.000000000000000E+000
 -3.740000000000000E-002    0.000000000000000E+000
 -3.730000000000000E-002    0.000000000000000E+000
 -3.720000000000000E-002    0.000000000000000E+000
 -3.710000000000000E-002    0.000000000000000E+000
 -3.700000000000000E-002    0.000000000000000E+000
 -3.690000000000000E-002    0.000000000000000E+000
 -3.680000000000000E-002    0.000000000000000E+000
 -3.670000000000000E-002    0.000000000000000E+000
 -3.660000000000000E-002    0.000000000000000E+000
 -3.650000000000000E-002    0.000000000000000E+000
 -3.640000000000000E-002    0.000000000000000E+000
 -3.630000000000000E-002    0.000000000000000E+000
 -3.620000000000000E-002    0.000000000000000E+000
 -3.610000000000000E-002    0.000000000000000E+000
 -3.600000000000000E-002    0.000000000000000E+000
 -3.590000000000000E-002    0.000000000000000E+000
 -3.580000000000000E-002    0.000000000000000E+000
 -3.570000000000000E-002    0.000000000000000E+000
 -3.560000000000000E-002    0.000000000000000E+000
 -3.550000000000000E-002    0.000000000000000E+000
 -3.540000000000000E-002    0.000000000000000E+000
 -3.530000000000000E-002    0.000000000000000E+000
 -3.520000000000000E-002    0.000000000000000E+000
 -3.510000000000000E-002    0.000000000000000E+000
 -3.500000000000000E-002    0.000000000000000E+000
 -3.490000000000000E-002    0.000000000000000E+000
 -3.480000000000000E-002    0.000000000000000E+000
 -3.470000000000000E-002    0.000000000000000E+000
 -3.460000000000000E-002    0.000000000000000E+000
 -3.450000000000000E-002    0.000000000000000E+000
 -3.440000000000000E-002    0.000000000000000E+000
 -3.430000000000000E-002    0.000000000000000E+000
 -3.420000000000000E-002    0.000000000000000E+000
 -3.410000000000000E-002    0.000000000000000E+000
 -3.400000000000000E-002    0.000000000000000E+000
 -3.390000000000000E-002    0.000000000000000E+000
 -3.380000000000000E-002    0.000000000000000E+000
 -3.370000000000000E-002    0.000000000000000E+000
 -3.360000000000000E-002    0.000000000000000E+000
 -3.350000000000000E-002    0.000000000000000E+000
 -3.340000000000000E-002    0.000000000000000E+000
 -3.330000000000000E-002    0.000000000000000E+000
 -3.320000000000000E-002    0.000000000000000E+000
 -3.310000000000000E-002    0.000000000000000E+000
 -3.300000000000000E-002    0.000000000000000E+000
 -3.290000000000000E-002    0.000000000000000E+000
 -3.280000000000000E-002    0.000000000000000E+000
 -3.270000000000000E-002    0.000000000000000E+000
 -3.260000000000000E-002    0.000000000000000E+000
 -3.250000000000000E-002    0.000000000000000E+000
 -3.240000000000000E-002    0.000000000000000E+000
 -3.230000000000000E-002    0.000000000000000E+000
 -3.220000000000000E-002    0.000000000000000E+000
 -3.210000000000000E-002    0.000000000000000E+000
 -3.200000000000000E-002    0.000000000000000E+000
 -3.190000000000000E-002    0.000000000000000E+000
 -3.180000000000000E-002    0.000000000000000E+000
 -3.170000000000000E-002    0.000000000000000E+000
 -3.160000000000000E-002    0.000000000000000E+000
 -3.150000000000000E-002    0.000000000000000E+000
 -3.140000000000000E-002    0.000000000000000E+000
 -3.130000000000000E-002    0.000000000000000E+000
 -3.120000000000000E-002    0.000000000000000E+000
 -3.110000000000000E-002    0.000000000000000E+000
 -3.100000000000000E-002    0.000000000000000E+000
 -3.090000000000000E-002    0.000000000000000E+000
 -3.080000000000000E-002    0.000000000000000E+000
 -3.070000000000000E-002    0.000000000000000E+000
 -3.060000000000000E-002    0.000000000000000E+000
 -3.050000000000000E-002    0.000000000000000E+000
 -3.040000000000000E-002    0.000000000000000E+000
 -3.030000000000000E-002    0.000000000000000E+000
 -3.020000000000000E-002    0.000000000000000E+000
 -3.010000000000000E-002    0.000000000000000E+000
 -3.000000000000000E-002    0.000000000000000E+000
 -2.990000000000000E-002    0.000000000000000E+000
 -2.980000000000000E-002    0.000000000000000E+000
 -2.970000000000000E-002    0.000000000000000E+000
 -2.960000000000000E-002    0.000000000000000E+000
 -2.950000000000000E-002    0.000000000000000E+000
 -2.940000000000000E-002    0.000000000000000E+000
 -2.930000000000000E-002    0.000000000000000E+000
 -2.920000000000000E-002    0.000000000000000E+000
 -2.910000000000000E-002    0.000000000000000E+000
 -2.900000000000000E-002    0.000000000000000E+000
 -2.890000000000000E-002    0.000000000000000E+000
 -2.880000000000000E-002    0.000000000000000E+000
 -2.870000000000000E-002    0.000000000000000E+000
 -2.860000000000000E-002    0.000000000000000E+000
 -2.850000000000000E-002    0.000000000000000E+000
 -2.840000000000000E-002    0.000000000000000E+000
 -2.830000000000000E-002    0.000000000000000E+000
 -2.820000000000000E-002    0.000000000000000E+000
 -2.810000000000000E-002    0.000000000000000E+000
 -2.800000000000000E-002    0.000000000000000E+000
 -2.790000000000000E-002    0.000000000000000E+000
 -2.780000000000000E-002    0.000000000000000E+000
 -2.770000000000000E-002    0.000000000000000E+000
 -2.760000000000000E-002    0.000000000000000E+000
 -2.750000000000000E-002    0.000000000000000E+000
 -2.740000000000000E-002    0.000000000000000E+000
 -2.730000000000000E-002    0.000000000000000E+000
 -2.720000000000000E-002    0.000000000000000E+000
 -2.710000000000000E-002    0.000000000000000E+000
 -2.700000000000000E-002    0.000000000000000E+000
 -2.690000000000000E-002    0.000000000000000E+000
 -2.680000000000000E-002    0.000000000000000E+000
 -2.670000000000000E-002    0.000000000000000E+000
 -2.660000000000000E-002    0.000000000000000E+000
 -2.650000000000000E-002    0.000000000000000E+000
 -2.640000000000000E-002    0.000000000000000E+000
 -2.630000000000000E-002    0.000000000000000E+000
 -2.620000000000000E-002    0.000000000000000E+000
 -2.610000000000000E-002    0.000000000000000E+000
 -2.600000000000000E-002    0.000000000000000E+000
 -2.590000000000000E-002    0.000000000000000E+000
 -2.580000000000000E-002    0.000000000000000E+000
 -2.570000000000000E-002    0.000000000000000E+000
 -2.560000000000000E-002    0.000000000000000E+000
 -2.550000000000000E-002    0.000000000000000E+000
 -2.540000000000000E-002    0.000000000000000E+000
 -2.530000000000000E-002    0.000000000000000E+000
 -2.520000000000000E-002    0.000000000000000E+000
 -2.510000000000000E-002    0.000000000000000E+000
 -2.500000000000000E-002    0.000000000000000E+000
 -2.490000000000000E-002    0.000000000000000E+000
 -2.480000000000000E-002    0.000000000000000E+000
 -2.470000000000000E-002    0.000000000000000E+000
 -2.460000000000000E-002    0.000000000000000E+000
 -2.450000000000000E-002    0.000000000000000E+000
 -2.440000000000000E-002    0.000000000000000E+000
 -2.430000000000000E-002    0.000000000000000E+000
 -2.420000000000000E-002    0.000000000000000E+000
 -2.410000000000000E-002    0.000000000000000E+000
 -2.400000000000000E-002    0.000000000000000E+000
 -2.390000000000000E-002    0.000000000000000E+000
 -2.380000000000000E-002    0.000000000000000E+000
 -2.370000000000000E-002    0.000000000000000E+000
 -2.360000000000000E-002    0.000000000000000E+000
 -2.350000000000000E-002    0.000000000000000E+000
 -2.340000000000000E-002    0.000000000000000E+000
 -2.330000000000000E-002    0.000000000000000E+000
 -2.320000000000000E-002    0.000000000000000E+000
 -2.310000000000000E-002    0.000000000000000E+000
 -2.300000000000000E-002    0.000000000000000E+000
 -2.290000000000000E-002    0.000000000000000E+000
 -2.280000000000000E-002    0.000000000000000E+000
 -2.270000000000000E-002    0.000000000000000E+000
 -2.260000000000000E-002    0.000000000000000E+000
 -2.250000000000000E-002    0.000000000000000E+000
 -2.240000000000000E-002    0.000000000000000E+000
 -2.230000000000000E-002    0.000000000000000E+000
 -2.220000000000000E-002    0.000000000000000E+000
 -2.210000000000000E-002    0.000000000000000E+000
 -2.200000000000000E-002    0.000000000000000E+000
 -2.190000000000000E-002    0.000000000000000E+000
 -2.180000000000000E-002    0.000000000000000E+000
 -2.170000000000000E-002    0.000000000000000E+000
 -2.160000000000000E-002    0.000000000000000E+000
 -2.150000000000000E-002    0.000000000000000E+000
 -2.140000000000000E-002    0.000000000000000E+000
 -2.130000000000000E-002    0.000000000000000E+000
 -2.120000000000000E-002   -6.414635304221270E-048
 -2.110000000000000E-002   -1.282927060844254E-047
 -2.100000000000000E-002   -1.282927060844254E-047
 -2.090000000000000E-002   -1.282927060844254E-047
 -2.080000000000000E-002   -6.414635304221270E-048
 -2.070000000000000E-002    8.552847072295026E-048
 -2.060000000000000E-002   -1.197398590121304E-047
 -2.050000000000000E-002   -1.111870119398353E-047
 -2.040000000000000E-002    2.632591673134963E-048
 -2.030000000000000E-002   -8.486109520848571E-048
 -2.020000000000000E-002   -2.174302248290586E-047
 -2.010000000000000E-002   -2.108795043001572E-047
 -2.000000000000000E-002   -1.701173954820758E-047
 -1.990000000000000E-002    6.675224969476908E-047
 -1.980000000000000E-002    1.036362721879520E-046
 -1.970000000000000E-002    1.264080970118482E-046
 -1.960000000000000E-002    2.714188974181167E-046
 -1.950000000000000E-002    4.259045671553563E-046
 -1.940000000000000E-002    6.114474365586437E-046
 -1.930000000000000E-002    7.078004412248557E-046
 -1.920000000000000E-002    6.520082835788884E-046
 -1.910000000000000E-002    4.538523087587916E-046
 -1.900000000000000E-002   -3.538408425755079E-046
 -1.890000000000000E-002   -1.392620507866105E-045
 -1.880000000000000E-002   -2.245754411196580E-045
 -1.870000000000000E-002   -3.280236923363795E-045
 -1.860000000000000E-002   -3.907195595669351E-045
 -1.850000000000000E-002   -4.698584052905891E-045
 -1.840000000000000E-002   -5.458463578129193E-045
 -1.830000000000000E-002   -5.605309918096431E-045
 -1.820000000000000E-002   -4.599901702975216E-045
 -1.810000000000000E-002   -3.131005662741245E-045
 -1.800000000000000E-002   -6.146853726957718E-046
 -1.790000000000000E-002    3.225883727415761E-045
 -1.780000000000000E-002    9.674497325560342E-045
 -1.770000000000000E-002    1.738736594367108E-044
 -1.760000000000000E-002    2.636870656588414E-044
 -1.750000000000000E-002    3.527359919233385E-044
 -1.740000000000000E-002    4.263899646826961E-044
 -1.730000000000000E-002    4.630199631427280E-044
 -1.720000000000000E-002    4.334513883123487E-044
 -1.710000000000000E-002    3.142706211501195E-044
 -1.700000000000000E-002    6.460991442793170E-045
 -1.690000000000000E-002   -3.302294254162601E-044
 -1.680000000000000E-002   -8.873229198037883E-044
 -1.670000000000000E-002   -1.607616395622261E-043
 -1.660000000000000E-002   -2.438578057853877E-043
 -1.650000000000000E-002   -3.308422071309040E-043
 -1.640000000000000E-002   -4.073482411249179E-043
 -1.630000000000000E-002   -4.536557759675163E-043
 -1.620000000000000E-002   -4.446227684148211E-043
 -1.610000000000000E-002   -3.517627469602941E-043
 -1.600000000000000E-002   -1.445056130204884E-043
 -1.590000000000000E-002    2.032710946156260E-043
 -1.580000000000000E-002    7.077390233174624E-043
 -1.570000000000000E-002    1.364436651814834E-042
 -1.560000000000000E-002    2.140207280059819E-042
 -1.550000000000000E-002    2.963031527873622E-042
 -1.540000000000000E-002    3.712482706454927E-042
 -1.530000000000000E-002    4.217542653427112E-042
 -1.520000000000000E-002    4.258315095775465E-042
 -1.510000000000000E-002    3.577973303679105E-042
 -1.500000000000000E-002    1.910870127311248E-042
 -1.490000000000000E-002   -9.825360848241585E-043
 -1.480000000000000E-002   -5.250636097163361E-042
 -1.470000000000000E-002   -1.088360884103347E-041
 -1.460000000000000E-002   -1.763208992118157E-041
 -1.450000000000000E-002   -2.492468758902639E-041
 -1.440000000000000E-002   -3.180128646063773E-041
 -1.430000000000000E-002   -3.687349872312436E-041
 -1.420000000000000E-002   -3.834767130519436E-041
 -1.410000000000000E-002   -3.411998465838619E-041
 -1.400000000000000E-002   -2.197508932458081E-041
 -1.390000000000000E-002    9.343203904946486E-044
 -1.380000000000000E-002    3.344634605064960E-041
 -1.370000000000000E-002    7.824018232761756E-041
 -1.360000000000000E-002    1.328067421691131E-040
 -1.350000000000000E-002    1.930253161415678E-040
 -1.340000000000000E-002    2.517959293676220E-040
 -1.330000000000000E-002    2.987488707216684E-040
 -1.320000000000000E-002    3.203573019472413E-040
 -1.310000000000000E-002    3.006198940420261E-040
 -1.300000000000000E-002    2.224863556767715E-040
 -1.290000000000000E-002    7.013102190285678E-041
 -1.280000000000000E-002   -1.678815356252244E-040
 -1.270000000000000E-002   -4.946471270570312E-040
 -1.260000000000000E-002   -9.004558913059723E-040
 -1.250000000000000E-002   -1.358296966722846E-039
 -1.240000000000000E-002   -1.820050810029201E-039
 -1.230000000000000E-002   -2.214299643056738E-039
 -1.220000000000000E-002   -2.446860441767871E-039
 -1.210000000000000E-002   -2.405208390483239E-039
 -1.200000000000000E-002   -1.967854469684552E-039
 -1.190000000000000E-002   -1.019459167283467E-039
 -1.180000000000000E-002    5.281522864084478E-040
 -1.170000000000000E-002    2.709721067965645E-039
 -1.160000000000000E-002    5.476856098406613E-039
 -1.150000000000000E-002    8.668032709498773E-039
 -1.140000000000000E-002    1.198291849235214E-038
 -1.130000000000000E-002    1.496695223027342E-038
 -1.120000000000000E-002    1.701316474639420E-038
 -1.110000000000000E-002    1.738848591769444E-038
 -1.100000000000000E-002    1.529122563288518E-038
 -1.090000000000000E-002    9.944350913583313E-039
 -1.080000000000000E-002    7.256097560621146E-040
 -1.070000000000000E-002   -1.266961972256158E-038
 -1.060000000000000E-002   -3.004392479435796E-038
 -1.050000000000000E-002   -5.051094537493709E-038
 -1.040000000000000E-002   -7.233365801374792E-038
 -1.030000000000000E-002   -9.282332310963258E-038
 -1.020000000000000E-002   -1.083401858608957E-037
 -1.010000000000000E-002   -1.144387302308224E-037
 -1.000000000000000E-002   -1.061961746239946E-037
 -9.899999999999999E-003   -7.875050559013052E-038
 -9.800000000000000E-003   -2.805439439158482E-038
 -9.699999999999999E-003    4.817975711704748E-038
 -9.599999999999999E-003    1.494068804417553E-037
 -9.500000000000000E-003    2.711573093624667E-037
 -9.399999999999999E-003    4.040815128271191E-037
 -9.299999999999999E-003    5.333295550107867E-037
 -9.200000000000000E-003    6.384945041755027E-037
 -9.099999999999999E-003    6.943551582954582E-037
 -8.999999999999999E-003    6.726288992521463E-037
 -8.900000000000000E-003    5.448811434100390E-037
 -8.799999999999999E-003    2.866211969908437E-037
 -8.699999999999999E-003   -1.175471622174204E-037
 -8.600000000000000E-003   -6.680590647823658E-037
 -8.499999999999999E-003   -1.344387016681899E-036
 -8.399999999999999E-003   -2.099725045872301E-036
 -8.300000000000000E-003   -2.857405751552732E-036
 -8.199999999999999E-003   -3.510240850803843E-036
 -8.100000000000000E-003   -3.924016466151761E-036
 -8.000000000000000E-003   -3.946226014895480E-036
 -7.899999999999999E-003   -3.420804275424007E-036
 -7.800000000000000E-003   -2.209011744600646E-036
 -7.699999999999999E-003   -2.158188001669876E-037
 -7.599999999999999E-003    2.579925452906182E-036
 -7.499999999999999E-003    6.094420036332909E-036
 -7.399999999999999E-003    1.011103490811483E-035
 -7.299999999999999E-003    1.426079180663469E-035
 -7.199999999999999E-003    1.801708799409529E-035
 -7.100000000000000E-003    2.071064321335396E-035
 -6.999999999999999E-003    2.157005796439581E-035
 -6.899999999999999E-003    1.979157487127405E-035
 -6.800000000000000E-003    1.463895612961743E-035
 -6.699999999999999E-003    5.570322151185496E-036
 -6.599999999999999E-003   -7.616028884612338E-036
 -6.499999999999999E-003   -2.463038057361829E-035
 -6.399999999999999E-003   -4.455410164130731E-035
 -6.299999999999999E-003   -6.573985932988061E-035
 -6.199999999999999E-003   -8.577677766478198E-035
 -6.100000000000000E-003   -1.015483272941699E-034
 -5.999999999999999E-003   -1.094073982631739E-034
 -5.899999999999999E-003   -1.054854113939977E-034
 -5.800000000000000E-003   -8.613941294497219E-035
 -5.699999999999999E-003   -4.852382837035449E-035
 -5.599999999999999E-003    8.748978440617321E-036
 -5.499999999999999E-003    8.491887837116097E-035
 -5.399999999999999E-003    1.764433246600663E-034
 -5.299999999999999E-003    2.765227800365669E-034
 -5.199999999999999E-003    3.749048073746118E-034
 -5.099999999999999E-003    4.580868115240333E-034
 -4.999999999999999E-003    5.100233655632851E-034
 -4.899999999999999E-003    5.134102345275791E-034
 -4.799999999999999E-003    4.515618509324455E-034
 -4.699999999999999E-003    3.108250261402665E-034
 -4.599999999999999E-003    8.337959475463314E-035
 -4.499999999999999E-003   -2.298239830382254E-034
 -4.399999999999999E-003   -6.163403604749513E-034
 -4.299999999999999E-003   -1.050150743913667E-033
 -4.199999999999999E-003   -1.490716946968118E-033
 -4.099999999999999E-003   -1.883653580081023E-033
 -3.999999999999999E-003   -2.163445558375967E-033
 -3.899999999999999E-003   -2.258491038295917E-033
 -3.799999999999999E-003   -2.098531839928320E-033
 -3.699999999999999E-003   -1.624231286223890E-033
 -3.599999999999999E-003   -7.982896676304865E-034
 -3.499999999999999E-003    3.828953522084737E-034
 -3.399999999999999E-003    1.878411243972698E-033
 -3.299999999999999E-003    3.594540974605874E-033
 -3.199999999999999E-003    5.380881318655301E-033
 -3.099999999999999E-003    7.032715409763315E-033
 -2.999999999999999E-003    8.301230158955757E-033
 -2.899999999999999E-003    8.912568324559517E-033
 -2.799999999999999E-003    8.595870616293460E-033
 -2.699999999999999E-003    7.119251413697379E-033
 -2.599999999999999E-003    4.331328566299090E-033
 -2.499999999999999E-003    2.044206654930764E-034
 -2.399999999999999E-003   -5.125801001208284E-033
 -2.299999999999999E-003   -1.133051764339839E-032
 -2.199999999999999E-003   -1.787467097750813E-032
 -2.099999999999999E-003   -2.402721885978611E-032
 -1.999999999999999E-003   -2.890009557914775E-032
 -1.899999999999999E-003   -3.151914644102211E-032
 -1.799999999999999E-003   -3.092681390178714E-032
 -1.699999999999999E-003   -2.631194003535627E-032
 -1.599999999999999E-003   -1.715736550237722E-032
 -1.499999999999999E-003   -3.390588935489301E-033
 -1.399999999999999E-003    1.448176887035020E-032
 -1.299999999999999E-003    3.527837048839828E-032
 -1.199999999999999E-003    5.711035606145134E-032
 -1.099999999999999E-003    7.743376919415700E-032
 -9.999999999999989E-004    9.320440452472121E-032
 -8.999999999999990E-004    1.011435536580555E-031
 -7.999999999999990E-004    9.811035651085245E-032
 -6.999999999999989E-004    8.156083821688028E-032
 -5.999999999999990E-004    5.005608371790601E-032
 -4.999999999999989E-004    3.764842408538458E-033
 -3.999999999999989E-004   -5.510956031836207E-032
 -2.999999999999989E-004   -1.220572457323212E-031
 -1.999999999999989E-004   -1.902268525483249E-031
 -9.999999999999892E-005   -2.506995394774837E-031
  1.084202172485504E-018   -2.931231466090915E-031
  1.000000000000011E-004   -3.067239111555927E-031
  2.000000000000011E-004   -2.816651218812153E-031
  3.000000000000011E-004   -2.106667803136811E-031
  4.000000000000011E-004   -9.074005714087711E-032
  5.000000000000011E-004    7.516809734454695E-032
  6.000000000000011E-004    2.768710137332985E-031
  7.000000000000011E-004    4.962560671415044E-031
  8.000000000000011E-004    7.074897468981951E-031
  9.000000000000012E-004    8.783424970423178E-031
  1.000000000000001E-003    9.727808391707588E-031
  1.100000000000001E-003    9.548357238026963E-031
  1.200000000000001E-003    7.935965664439928E-031
  1.300000000000001E-003    4.689727686735241E-031
  1.400000000000001E-003   -2.233398640987282E-032
  1.500000000000001E-003   -6.613983229356526E-031
  1.600000000000001E-003   -1.403073851239851E-030
  1.700000000000001E-003   -2.174387757240584E-030
  1.800000000000001E-003   -2.876244190108037E-030
  1.900000000000001E-003   -3.389159731305361E-030
  2.000000000000001E-003   -3.583445033954569E-030
  2.100000000000001E-003   -3.333751188779137E-030
  2.200000000000001E-003   -2.537302277574129E-030
  2.300000000000001E-003   -1.134454526930912E-030
  2.400000000000001E-003    8.704796091291720E-031
  2.500000000000001E-003    3.390825081431114E-030
  2.600000000000001E-003    6.244675919046441E-030
  2.700000000000001E-003    9.150869690988045E-030
  2.800000000000001E-003    1.173684603428455E-029
  2.900000000000001E-003    1.356076012745177E-029
  3.000000000000001E-003    1.414905228887877E-029
  3.100000000000001E-003    1.304894148875227E-029
  3.200000000000001E-003    9.893295053413071E-030
  3.300000000000001E-003    4.472991134753938E-030
  3.400000000000001E-003   -3.190467350254819E-030
  3.500000000000001E-003   -1.278128664581726E-029
  3.600000000000001E-003   -2.364531887247572E-029
  3.700000000000001E-003   -3.477670499260078E-029
  3.800000000000001E-003   -4.484534963770634E-029
  3.900000000000001E-003   -5.227306150844856E-029
  4.000000000000001E-003   -5.536212588521572E-029
  4.100000000000001E-003   -5.247432814884005E-029
  4.200000000000001E-003   -4.225191645545134E-029
  4.300000000000001E-003   -2.386406352300721E-029
  4.400000000000001E-003    2.744979263067646E-030
  4.500000000000001E-003    3.663640432028100E-029
  4.600000000000002E-003    7.572087983276471E-029
  4.700000000000001E-003    1.167022206936721E-028
  4.800000000000001E-003    1.551541698922952E-028
  4.900000000000002E-003    1.857555424744258E-028
  5.000000000000001E-003    2.026966256447172E-028
  5.100000000000001E-003    2.002518573231149E-028
  5.200000000000001E-003    1.734917468129286E-028
  5.300000000000002E-003    1.190836552248842E-028
  5.400000000000001E-003    3.610729960369602E-029
  5.500000000000001E-003   -7.321038426899410E-029
  5.600000000000002E-003   -2.029496211423455E-028
  5.700000000000001E-003   -3.432548513392309E-028
  5.800000000000001E-003   -4.805004391939418E-028
  5.900000000000002E-003   -5.979460291166918E-028
  6.000000000000001E-003   -6.769252787708058E-028
  6.100000000000001E-003   -6.985590514515621E-028
  6.200000000000002E-003   -6.459160416501524E-028
  6.300000000000002E-003   -5.064746336017581E-028
  6.400000000000001E-003   -2.746681300242211E-028
  6.500000000000001E-003    4.576931882963886E-029
  6.600000000000002E-003    4.399800319956960E-028
  6.700000000000001E-003    8.810239007952685E-028
  6.800000000000001E-003    1.330102065540252E-027
  6.900000000000002E-003    1.738214214793433E-027
  7.000000000000001E-003    2.049397198180298E-027
  7.100000000000001E-003    2.205530166547949E-027
  7.200000000000002E-003    2.152514335223202E-027
  7.300000000000002E-003    1.847419010407737E-027
  7.400000000000001E-003    1.265987994549299E-027
  7.500000000000001E-003    4.097098744669911E-028
  7.600000000000002E-003   -6.884682049127246E-028
  7.700000000000001E-003   -1.960753412374669E-027
  7.800000000000001E-003   -3.304364249222141E-027
  7.900000000000001E-003   -4.585385801212097E-027
  8.000000000000002E-003   -5.647047334323740E-027
  8.100000000000001E-003   -6.322476489229190E-027
  8.200000000000001E-003   -6.451414913305515E-027
  8.300000000000002E-003   -5.899860333432446E-027
  8.400000000000001E-003   -4.580988860120833E-027
  8.500000000000002E-003   -2.475234316092463E-027
  8.600000000000002E-003    3.529779072035732E-028
  8.700000000000001E-003    3.744487563996763E-027
  8.800000000000002E-003    7.443171885607677E-027
  8.900000000000002E-003    1.110430632604093E-026
  9.000000000000001E-003    1.431479629962483E-026
  9.100000000000002E-003    1.662548343409021E-026
  9.200000000000002E-003    1.759431394409881E-026
  9.300000000000001E-003    1.683775168282637E-026
  9.400000000000002E-003    1.408616674524073E-026
  9.500000000000001E-003    9.237741955777314E-027
  9.600000000000001E-003    2.404353820494916E-027
  9.700000000000002E-003   -6.057478369278328E-027
  9.800000000000001E-003   -1.553717846179574E-026
  9.900000000000001E-003   -2.518772872316844E-026
  1.000000000000000E-002   -3.397378785655665E-026
  1.010000000000000E-002   -4.075093005633931E-026
  1.020000000000000E-002   -4.437328504295362E-026
  1.030000000000000E-002   -4.382274703882828E-026
  1.040000000000000E-002   -3.834946002277702E-026
  1.050000000000000E-002   -2.760950366940680E-026
  1.060000000000000E-002   -1.178350000697087E-026
  1.070000000000000E-002    8.341305424461064E-027
  1.080000000000000E-002    3.134212356019743E-026
  1.090000000000000E-002    5.519867797737472E-026
  1.100000000000000E-002    7.740700357895224E-026
  1.110000000000000E-002    9.517062352649274E-026
  1.120000000000000E-002    1.056624066763185E-025
  1.130000000000000E-002    1.063404483276770E-025
  1.140000000000000E-002    9.529220652816482E-026
  1.150000000000000E-002    7.157258319467881E-026
  1.160000000000000E-002    3.549591428668400E-026
  1.170000000000000E-002   -1.116085789442525E-026
  1.180000000000000E-002   -6.508440698068895E-026
  1.190000000000000E-002   -1.215137525511286E-025
  1.200000000000000E-002   -1.745124318678901E-025
  1.210000000000000E-002   -2.174282016655558E-025
  1.220000000000000E-002   -2.435218354672298E-025
  1.230000000000000E-002   -2.467254360184454E-025
  1.240000000000000E-002   -2.224663648666672E-025
  1.250000000000000E-002   -1.684739961322740E-025
  1.260000000000000E-002   -8.547243956867464E-026
  1.270000000000000E-002    2.234262637261990E-026
  1.280000000000000E-002    1.471395954641292E-025
  1.290000000000000E-002    2.776763954068192E-025
  1.300000000000000E-002    3.999642880787356E-025
  1.310000000000000E-002    4.983742871654007E-025
  1.320000000000000E-002    5.571420348098879E-025
  1.330000000000000E-002    5.621697975351539E-025
  1.340000000000000E-002    5.029739734021264E-025
  1.350000000000000E-002    3.745764607359435E-025
  1.360000000000000E-002    1.791106733835988E-025
  1.370000000000000E-002   -7.309857355554982E-026
  1.380000000000000E-002   -3.632063676394567E-025
  1.390000000000000E-002   -6.644484277207901E-025
  1.400000000000000E-002   -9.437755532116952E-025
  1.410000000000000E-002   -1.164527089915347E-024
  1.420000000000000E-002   -1.290023196774803E-024
  1.430000000000000E-002   -1.287833153179431E-024
  1.440000000000000E-002   -1.134347433188818E-024
  1.450000000000000E-002   -8.191782008610179E-025
  1.460000000000000E-002   -3.488451019149474E-025
  1.470000000000000E-002    2.508161166284056E-025
  1.480000000000000E-002    9.340418667539829E-025
  1.490000000000000E-002    1.636731610089283E-024
  1.500000000000000E-002    2.280465386172896E-024
  1.510000000000000E-002    2.778939667737316E-024
  1.520000000000000E-002    3.046517195851056E-024
  1.530000000000000E-002    3.008302561426485E-024
  1.540000000000000E-002    2.610848618690617E-024
  1.550000000000000E-002    1.832381468881832E-024
  1.560000000000000E-002    6.912642580588951E-025
  1.570000000000000E-002   -7.486080253356732E-025
  1.580000000000000E-002   -2.376663327544758E-024
  1.590000000000000E-002   -4.039695691100675E-024
  1.600000000000000E-002   -5.551574061684554E-024
  1.610000000000000E-002   -6.708558594994004E-024
  1.620000000000000E-002   -7.309485452127956E-024
  1.630000000000000E-002   -7.179407950279563E-024
  1.640000000000000E-002   -6.194611680175104E-024
  1.650000000000000E-002   -4.306377991728246E-024
  1.660000000000000E-002   -1.560552351107531E-024
  1.670000000000000E-002    1.890104039274730E-024
  1.680000000000000E-002    5.783505650706764E-024
  1.690000000000000E-002    9.757882311528990E-024
  1.700000000000000E-002    1.337457141168567E-023
  1.710000000000000E-002    1.615373739425216E-023
  1.720000000000000E-002    1.762135616836473E-023
  1.730000000000000E-002    1.736413419215965E-023
  1.740000000000000E-002    1.508756015008084E-023
  1.750000000000000E-002    1.067111036207773E-023
  1.760000000000000E-002    4.213820339896046E-024
  1.770000000000000E-002   -3.936691700348237E-024
  1.780000000000000E-002   -1.317794613887628E-023
  1.790000000000000E-002   -2.267395175949378E-023
  1.800000000000000E-002   -3.140663695050553E-023
  1.810000000000000E-002   -3.825701590555607E-023
  1.820000000000000E-002   -4.211227489108350E-023
  1.830000000000000E-002   -4.199135362135676E-023
  1.840000000000000E-002   -3.717824400980846E-023
  1.850000000000000E-002   -2.734948133260394E-023
  1.860000000000000E-002   -1.268052418197155E-023
  1.870000000000000E-002    6.084543642771597E-024