 -4.000000000000000E-002    0.000000000000000E+000
 -3.990000000000000E-002    0.000000000000000E+000
 -3.980000000000000E-002    0.000000000000000E+000
 -3.970000000000000E-002    0.000000000000000E+000
 -3.960000000000000E-002    0.000000000000000E+000
 -3.950000000000000E-002    0.000000000000000E+000
 -3.940000000000000E-002    0.000000000000000E+000
 -3.930000000000000E-002    0.000000000000000E+000
 -3.920000000000000E-002    0.000000000000000E+000
 -3.910000000000000E-002    0.000000000000000E+000
 -3.900000000000000E-002    0.000000000000000E+000
 -3.890000000000000E-002    0.000000000000000E+000
 -3.880000000000000E-002    0.000000000000000E+000
 -3.870000000000000E-002    0.000000000000000E+000
 -3.860000000000000E-002    0.000000000000000E+000
 -3.850000000000000E-002    0.000000000000000E+000
 -3.840000000000000E-002    0.000000000000000E+000
 -3.830000000000000E-002    0.000000000000000E+000
 -3.820000000000000E-002    0.000000000000000E+000
 -3.810000000000000E-002    0.000000000000000E+000
 -3.800000000000000E-002    0.000000000000000E+000
 -3.790000000000000E-002    0.000000000000000E+000
 -3.780000000000000E-002    0.000000000000000E+000
 -3.770000000000000E-002    0.000000000000000E+000
 -3.760000000000000E-002    0.000000000000000E+000
 -3.750000000000000E-002    0.000000000000000E+000
 -3.740000000000000E-002    0.000000000000000E+000
 -3.730000000000000E-002    0.000000000000000E+000
 -3.720000000000000E-002    0.000000000000000E+000
 -3.710000000000000E-002    0.000000000000000E+000
 -3.700000000000000E-002    0.000000000000000E+000
 -3.690000000000000E-002    0.000000000000000E+000
 -3.680000000000000E-002    0.000000000000000E+000
 -3.670000000000000E-002    0.000000000000000E+000
 -3.660000000000000E-002    0.000000000000000E+000
 -3.650000000000000E-002    0.000000000000000E+000
 -3.640000000000000E-002    0.000000000000000E+000
 -3.630000000000000E-002    0.000000000000000E+000
 -3.620000000000000E-002    0.000000000000000E+000
 -3.610000000000000E-002    0.000000000000000E+000
 -3.600000000000000E-002    0.000000000000000E+000
 -3.590000000000000E-002    0.000000000000000E+000
 -3.580000000000000E-002    0.000000000000000E+000
 -3.570000000000000E-002    0.000000000000000E+000
 -3.560000000000000E-002    0.000000000000000E+000
 -3.550000000000000E-002    0.000000000000000E+000
 -3.540000000000000E-002    0.000000000000000E+000
 -3.530000000000000E-002    0.000000000000000E+000
 -3.520000000000000E-002    0.000000000000000E+000
 -3.510000000000000E-002    0.000000000000000E+000
 -3.500000000000000E-002    0.000000000000000E+000
 -3.490000000000000E-002    0.000000000000000E+000
 -3.480000000000000E-002    0.000000000000000E+000
 -3.470000000000000E-002    0.000000000000000E+000
 -3.460000000000000E-002    0.000000000000000E+000
 -3.450000000000000E-002    0.000000000000000E+000
 -3.440000000000000E-002    0.000000000000000E+000
 -3.430000000000000E-002    0.000000000000000E+000
 -3.420000000000000E-002    0.000000000000000E+000
 -3.410000000000000E-002    0.000000000000000E+000
 -3.400000000000000E-002    0.000000000000000E+000
 -3.390000000000000E-002    0.000000000000000E+000
 -3.380000000000000E-002    0.000000000000000E+000
 -3.370000000000000E-002    0.000000000000000E+000
 -3.360000000000000E-002    0.000000000000000E+000
 -3.350000000000000E-002    0.000000000000000E+000
 -3.340000000000000E-002    0.000000000000000E+000
 -3.330000000000000E-002    0.000000000000000E+000
 -3.320000000000000E-002    0.000000000000000E+000
 -3.310000000000000E-002    0.000000000000000E+000
 -3.300000000000000E-002    0.000000000000000E+000
 -3.290000000000000E-002    0.000000000000000E+000
 -3.280000000000000E-002    0.000000000000000E+000
 -3.270000000000000E-002    0.000000000000000E+000
 -3.260000000000000E-002    0.000000000000000E+000
 -3.250000000000000E-002    0.000000000000000E+000
 -3.240000000000000E-002    0.000000000000000E+000
 -3.230000000000000E-002    0.000000000000000E+000
 -3.220000000000000E-002    0.000000000000000E+000
 -3.210000000000000E-002    0.000000000000000E+000
 -3.200000000000000E-002    0.000000000000000E+000
 -3.190000000000000E-002    0.000000000000000E+000
 -3.180000000000000E-002    0.000000000000000E+000
 -3.170000000000000E-002    0.000000000000000E+000
 -3.160000000000000E-002    0.000000000000000E+000
 -3.150000000000000E-002    0.000000000000000E+000
 -3.140000000000000E-002    0.000000000000000E+000
 -3.130000000000000E-002    0.000000000000000E+000
 -3.120000000000000E-002    0.000000000000000E+000
 -3.110000000000000E-002    0.000000000000000E+000
 -3.100000000000000E-002    0.000000000000000E+000
 -3.090000000000000E-002    0.000000000000000E+000
 -3.080000000000000E-002    0.000000000000000E+000
 -3.070000000000000E-002    0.000000000000000E+000
 -3.060000000000000E-002    0.000000000000000E+000
 -3.050000000000000E-002    0.000000000000000E+000
 -3.040000000000000E-002    0.000000000000000E+000
 -3.030000000000000E-002    0.000000000000000E+000
 -3.020000000000000E-002    0.000000000000000E+000
 -3.010000000000000E-002    0.000000000000000E+000
 -3.000000000000000E-002    0.000000000000000E+000
 -2.990000000000000E-002    0.000000000000000E+000
 -2.980000000000000E-002    0.000000000000000E+000
 -2.970000000000000E-002    0.000000000000000E+000
 -2.960000000000000E-002    0.000000000000000E+000
 -2.950000000000000E-002    0.000000000000000E+000
 -2.940000000000000E-002    0.000000000000000E+000
 -2.930000000000000E-002    0.000000000000000E+000
 -2.920000000000000E-002    0.000000000000000E+000
 -2.910000000000000E-002    0.000000000000000E+000
 -2.900000000000000E-002    0.000000000000000E+000
 -2.890000000000000E-002    0.000000000000000E+000
 -2.880000000000000E-002    0.000000000000000E+000
 -2.870000000000000E-002    0.000000000000000E+000
 -2.860000000000000E-002    0.000000000000000E+000
 -2.850000000000000E-002    0.000000000000000E+000
 -2.840000000000000E-002    0.000000000000000E+000
 -2.830000000000000E-002    0.000000000000000E+000
 -2.820000000000000E-002    0.000000000000000E+000
 -2.810000000000000E-002    0.000000000000000E+000
 -2.800000000000000E-002    0.000000000000000E+000
 -2.790000000000000E-002    0.000000000000000E+000
 -2.780000000000000E-002    0.000000000000000E+000
 -2.770000000000000E-002    0.000000000000000E+000
 -2.760000000000000E-002    0.000000000000000E+000
 -2.750000000000000E-002    0.000000000000000E+000
 -2.740000000000000E-002    0.000000000000000E+000
 -2.730000000000000E-002    0.000000000000000E+000
 -2.720000000000000E-002    0.000000000000000E+000
 -2.710000000000000E-002    0.000000000000000E+000
 -2.700000000000000E-002    0.000000000000000E+000
 -2.690000000000000E-002    0.000000000000000E+000
 -2.680000000000000E-002    0.000000000000000E+000
 -2.670000000000000E-002    0.000000000000000E+000
 -2.660000000000000E-002    0.000000000000000E+000
 -2.650000000000000E-002    0.000000000000000E+000
 -2.640000000000000E-002    0.000000000000000E+000
 -2.630000000000000E-002    0.000000000000000E+000
 -2.620000000000000E-002    0.000000000000000E+000
 -2.610000000000000E-002    0.000000000000000E+000
 -2.600000000000000E-002    0.000000000000000E+000
 -2.590000000000000E-002    0.000000000000000E+000
 -2.580000000000000E-002    0.000000000000000E+000
 -2.570000000000000E-002    0.000000000000000E+000
 -2.560000000000000E-002    0.000000000000000E+000
 -2.550000000000000E-002    0.000000000000000E+000
 -2.540000000000000E-002    0.000000000000000E+000
 -2.530000000000000E-002    0.000000000000000E+000
 -2.520000000000000E-002    0.000000000000000E+000
 -2.510000000000000E-002    0.000000000000000E+000
 -2.500000000000000E-002    0.000000000000000E+000
 -2.490000000000000E-002    0.000000000000000E+000
 -2.480000000000000E-002    0.000000000000000E+000
 -2.470000000000000E-002    0.000000000000000E+000
 -2.460000000000000E-002    0.000000000000000E+000
 -2.450000000000000E-002    0.000000000000000E+000
 -2.440000000000000E-002    0.000000000000000E+000
 -2.430000000000000E-002    0.000000000000000E+000
 -2.420000000000000E-002    0.000000000000000E+000
 -2.410000000000000E-002    0.000000000000000E+000
 -2.400000000000000E-002    0.000000000000000E+000
 -2.390000000000000E-002    0.000000000000000E+000
 -2.380000000000000E-002    0.000000000000000E+000
 -2.370000000000000E-002    0.000000000000000E+000
 -2.360000000000000E-002    0.000000000000000E+000
 -2.350000000000000E-002    0.000000000000000E+000
 -2.340000000000000E-002    0.000000000000000E+000
 -2.330000000000000E-002    0.000000000000000E+000
 -2.320000000000000E-002    0.000000000000000E+000
 -2.310000000000000E-002    0.000000000000000E+000
 -2.300000000000000E-002    0.000000000000000E+000
 -2.290000000000000E-002    0.000000000000000E+000
 -2.280000000000000E-002    0.000000000000000E+000
 -2.270000000000000E-002    0.000000000000000E+000
 -2.260000000000000E-002    0.000000000000000E+000
 -2.250000000000000E-002    0.000000000000000E+000
 -2.240000000000000E-002    0.000000000000000E+000
 -2.230000000000000E-002    0.000000000000000E+000
 -2.220000000000000E-002    0.000000000000000E+000
 -2.210000000000000E-002    0.000000000000000E+000
 -2.200000000000000E-002    0.000000000000000E+000
 -2.190000000000000E-002    0.000000000000000E+000
 -2.180000000000000E-002    0.000000000000000E+000
 -2.170000000000000E-002    0.000000000000000E+000
 -2.160000000000000E-002    0.000000000000000E+000
 -2.150000000000000E-002    0.000000000000000E+000
 -2.140000000000000E-002    0.000000000000000E+000
 -2.130000000000000E-002    0.000000000000000E+000
 -2.120000000000000E-002    0.000000000000000E+000
 -2.110000000000000E-002    0.000000000000000E+000
 -2.100000000000000E-002    0.000000000000000E+000
 -2.090000000000000E-002    0.000000000000000E+000
 -2.080000000000000E-002    0.000000000000000E+000
 -2.070000000000000E-002    0.000000000000000E+000
 -2.060000000000000E-002    0.000000000000000E+000
 -2.050000000000000E-002    0.000000000000000E+000
 -2.040000000000000E-002    0.000000000000000E+000
 -2.030000000000000E-002    0.000000000000000E+000
 -2.020000000000000E-002    0.000000000000000E+000
 -2.010000000000000E-002    0.000000000000000E+000
 -2.000000000000000E-002    0.000000000000000E+000
 -1.990000000000000E-002    0.000000000000000E+000
 -1.980000000000000E-002    0.000000000000000E+000
 -1.970000000000000E-002    0.000000000000000E+000
 -1.960000000000000E-002    0.000000000000000E+000
 -1.950000000000000E-002    0.000000000000000E+000
 -1.940000000000000E-002    0.000000000000000E+000
 -1.930000000000000E-002    0.000000000000000E+000
 -1.920000000000000E-002    0.000000000000000E+000
 -1.910000000000000E-002    0.000000000000000E+000
 -1.900000000000000E-002    0.000000000000000E+000
 -1.890000000000000E-002    0.000000000000000E+000
 -1.880000000000000E-002    0.000000000000000E+000
 -1.870000000000000E-002    0.000000000000000E+000
 -1.860000000000000E-002    0.000000000000000E+000
 -1.850000000000000E-002    0.000000000000000E+000
 -1.840000000000000E-002    0.000000000000000E+000
 -1.830000000000000E-002    0.000000000000000E+000
 -1.820000000000000E-002    0.000000000000000E+000
 -1.810000000000000E-002    0.000000000000000E+000
 -1.800000000000000E-002    0.000000000000000E+000
 -1.790000000000000E-002    0.000000000000000E+000
 -1.780000000000000E-002    0.000000000000000E+000
 -1.770000000000000E-002    0.000000000000000E+000
 -1.760000000000000E-002    0.000000000000000E+000
 -1.750000000000000E-002    0.000000000000000E+000
 -1.740000000000000E-002    0.000000000000000E+000
 -1.730000000000000E-002    0.000000000000000E+000
 -1.720000000000000E-002    0.000000000000000E+000
 -1.710000000000000E-002    0.000000000000000E+000
 -1.700000000000000E-002    0.000000000000000E+000
 -1.690000000000000E-002    0.000000000000000E+000
 -1.680000000000000E-002    0.000000000000000E+000
 -1.670000000000000E-002    0.000000000000000E+000
 -1.660000000000000E-002    0.000000000000000E+000
 -1.650000000000000E-002    0.000000000000000E+000
 -1.640000000000000E-002    0.000000000000000E+000
 -1.630000000000000E-002    0.000000000000000E+000
 -1.620000000000000E-002    0.000000000000000E+000
 -1.610000000000000E-002    0.000000000000000E+000
 -1.600000000000000E-002    0.000000000000000E+000
 -1.590000000000000E-002    0.000000000000000E+000
 -1.580000000000000E-002    0.000000000000000E+000
 -1.570000000000000E-002    0.000000000000000E+000
 -1.560000000000000E-002    0.000000000000000E+000
 -1.550000000000000E-002    0.000000000000000E+000
 -1.540000000000000E-002    0.000000000000000E+000
 -1.530000000000000E-002    0.000000000000000E+000
 -1.520000000000000E-002    0.000000000000000E+000
 -1.510000000000000E-002    0.000000000000000E+000
 -1.500000000000000E-002    0.000000000000000E+000
 -1.490000000000000E-002    0.000000000000000E+000
 -1.480000000000000E-002    0.000000000000000E+000
 -1.470000000000000E-002    0.000000000000000E+000
 -1.460000000000000E-002    0.000000000000000E+000
 -1.450000000000000E-002    0.000000000000000E+000
 -1.440000000000000E-002    0.000000000000000E+000
 -1.430000000000000E-002    0.000000000000000E+000
 -1.420000000000000E-002    0.000000000000000E+000
 -1.410000000000000E-002    0.000000000000000E+000
 -1.400000000000000E-002    0.000000000000000E+000
 -1.390000000000000E-002    0.000000000000000E+000
 -1.380000000000000E-002    0.000000000000000E+000
 -1.370000000000000E-002    0.000000000000000E+000
 -1.360000000000000E-002    0.000000000000000E+000
 -1.350000000000000E-002    0.000000000000000E+000
 -1.340000000000000E-002    0.000000000000000E+000
 -1.330000000000000E-002    0.000000000000000E+000
 -1.320000000000000E-002    0.000000000000000E+000
 -1.310000000000000E-002    0.000000000000000E+000
 -1.300000000000000E-002    0.000000000000000E+000
 -1.290000000000000E-002    0.000000000000000E+000
 -1.280000000000000E-002    0.000000000000000E+000
 -1.270000000000000E-002    0.000000000000000E+000
 -1.260000000000000E-002    0.000000000000000E+000
 -1.250000000000000E-002    0.000000000000000E+000
 -1.240000000000000E-002    0.000000000000000E+000
 -1.230000000000000E-002    0.000000000000000E+000
 -1.220000000000000E-002    0.000000000000000E+000
 -1.210000000000000E-002    0.000000000000000E+000
 -1.200000000000000E-002    0.000000000000000E+000
 -1.190000000000000E-002    0.000000000000000E+000
 -1.180000000000000E-002    0.000000000000000E+000
 -1.170000000000000E-002    0.000000000000000E+000
 -1.160000000000000E-002    0.000000000000000E+000
 -1.150000000000000E-002    0.000000000000000E+000
 -1.140000000000000E-002    0.000000000000000E+000
 -1.130000000000000E-002    0.000000000000000E+000
 -1.120000000000000E-002    0.000000000000000E+000
 -1.110000000000000E-002    0.000000000000000E+000
 -1.100000000000000E-002    0.000000000000000E+000
 -1.090000000000000E-002    0.000000000000000E+000
 -1.080000000000000E-002    0.000000000000000E+000
 -1.070000000000000E-002    0.000000000000000E+000
 -1.060000000000000E-002    0.000000000000000E+000
 -1.050000000000000E-002    0.000000000000000E+000
 -1.040000000000000E-002    0.000000000000000E+000
 -1.030000000000000E-002    0.000000000000000E+000
 -1.020000000000000E-002    0.000000000000000E+000
 -1.010000000000000E-002    0.000000000000000E+000
 -1.000000000000000E-002    0.000000000000000E+000
 -9.899999999999999E-003    0.000000000000000E+000
 -9.800000000000000E-003    0.000000000000000E+000
 -9.699999999999999E-003    0.000000000000000E+000
 -9.599999999999999E-003    0.000000000000000E+000
 -9.500000000000000E-003    0.000000000000000E+000
 -9.399999999999999E-003    0.000000000000000E+000
 -9.299999999999999E-003    0.000000000000000E+000
 -9.200000000000000E-003    0.000000000000000E+000
 -9.099999999999999E-003    0.000000000000000E+000
 -8.999999999999999E-003    0.000000000000000E+000
 -8.900000000000000E-003    0.000000000000000E+000
 -8.799999999999999E-003    0.000000000000000E+000
 -8.699999999999999E-003    0.000000000000000E+000
 -8.600000000000000E-003    0.000000000000000E+000
 -8.499999999999999E-003    0.000000000000000E+000
 -8.399999999999999E-003    0.000000000000000E+000
 -8.300000000000000E-003    0.000000000000000E+000
 -8.199999999999999E-003    0.000000000000000E+000
 -8.100000000000000E-003    0.000000000000000E+000
 -8.000000000000000E-003    0.000000000000000E+000
 -7.899999999999999E-003    0.000000000000000E+000
 -7.800000000000000E-003    0.000000000000000E+000
 -7.699999999999999E-003    0.000000000000000E+000
 -7.599999999999999E-003    0.000000000000000E+000
 -7.499999999999999E-003    0.000000000000000E+000
 -7.399999999999999E-003    0.000000000000000E+000
 -7.299999999999999E-003    0.000000000000000E+000
 -7.199999999999999E-003    0.000000000000000E+000
 -7.100000000000000E-003    0.000000000000000E+000
 -6.999999999999999E-003    0.000000000000000E+000
 -6.899999999999999E-003    6.414635304221270E-048
 -6.800000000000000E-003    6.414635304221270E-048
 -6.699999999999999E-003    6.414635304221270E-048
 -6.599999999999999E-003    6.414635304221270E-048
 -6.499999999999999E-003    0.000000000000000E+000
 -6.399999999999999E-003   -8.552847072295026E-048
 -6.299999999999999E-003   -7.191065295872467E-047
 -6.199999999999999E-003   -1.438213059174493E-046
 -6.100000000000000E-003   -2.157319588761740E-046
 -5.999999999999999E-003   -2.812279765306774E-046
 -5.899999999999999E-003   -3.381711471128858E-046
 -5.800000000000000E-003   -3.801468353185779E-046
 -5.699999999999999E-003   -3.351776506375825E-046
 -5.599999999999999E-003   -1.504633709209460E-046
 -5.499999999999999E-003    1.211957816823780E-046
 -5.399999999999999E-003    5.046030636820449E-046
 -5.299999999999999E-003    1.008311322150350E-045
 -5.199999999999999E-003    1.545242209097713E-045
 -5.099999999999999E-003    2.087665709090621E-045
 -4.999999999999999E-003    2.552846635227088E-045
 -4.899999999999999E-003    2.803311579342439E-045
 -4.799999999999999E-003    2.473184518027348E-045
 -4.699999999999999E-003    1.813599848819495E-045
 -4.599999999999999E-003    2.215474286792238E-047
 -4.499999999999999E-003   -1.211944871748864E-045
 -4.399999999999999E-003   -3.018321822001140E-045
 -4.299999999999999E-003   -5.485445729094717E-045
 -4.199999999999999E-003   -8.077693772280149E-045
 -4.099999999999999E-003   -1.158505096116651E-044
 -3.999999999999999E-003   -1.417773404406685E-044
 -3.899999999999999E-003   -1.640622109552104E-044
 -3.799999999999999E-003   -1.720910641416864E-044
 -3.699999999999999E-003   -1.587591535850769E-044
 -3.599999999999999E-003   -1.044273699519907E-044
 -3.499999999999999E-003   -9.419722230877685E-046
 -3.399999999999999E-003    1.196270369127233E-044
 -3.299999999999999E-003    2.761115391446168E-044
 -3.199999999999999E-003    4.652138136840162E-044
 -3.099999999999999E-003    6.706403709998347E-044
 -2.999999999999999E-003    8.468512392770427E-044
 -2.899999999999999E-003    9.785648163449657E-044
 -2.799999999999999E-003    1.017548258708445E-043
 -2.699999999999999E-003    9.178349072526866E-044
 -2.599999999999999E-003    6.468333714643534E-044
 -2.499999999999999E-003    1.716755721738498E-044
 -2.399999999999999E-003   -5.280284196316796E-044
 -2.299999999999999E-003   -1.443962239659394E-043
 -2.199999999999999E-003   -2.531807502724152E-043
 -2.099999999999999E-003   -3.679996734474029E-043
 -1.999999999999999E-003   -4.763701575953925E-043
 -1.899999999999999E-003   -5.605307487180075E-043
 -1.799999999999999E-003   -5.976958040377565E-043
 -1.699999999999999E-003   -5.652542399457751E-043
 -1.599999999999999E-003   -4.384519953368647E-043
 -1.499999999999999E-003   -2.000505053244418E-043
 -1.399999999999999E-003    1.599513548004989E-043
 -1.299999999999999E-003    6.380217644948954E-043
 -1.199999999999999E-003    1.213158325441564E-042
 -1.099999999999999E-003    1.842234416953018E-042
 -9.999999999999989E-004    2.456316849117208E-042
 -8.999999999999990E-004    2.964180470661386E-042
 -7.999999999999990E-004    3.254611375488986E-042
 -6.999999999999989E-004    3.205731452623228E-042
 -5.999999999999990E-004    2.697491372301791E-042
 -4.999999999999989E-004    1.625226877001749E-042
 -3.999999999999989E-004   -7.259972526178263E-044
 -2.999999999999989E-004   -2.395434294486866E-042
 -1.999999999999989E-004   -5.256870100735905E-042
 -9.999999999999892E-005   -8.465458586483616E-042
  1.084202172485504E-018   -1.171262505183693E-041
  1.000000000000011E-004   -1.457210357855327E-041
  2.000000000000011E-004   -1.651817808275992E-041
  3.000000000000011E-004   -1.696009130739679E-041
  4.000000000000011E-004   -1.529875644941615E-041
  5.000000000000011E-004   -1.100631925951045E-041
  6.000000000000011E-004   -3.719235766488851E-042
  7.000000000000011E-004    6.651021590902949E-042
  8.000000000000011E-004    1.981660620955561E-041
  9.000000000000012E-004    3.501634535527205E-041
  1.000000000000001E-003    5.095931095072128E-041
  1.100000000000001E-003    6.581285083406339E-041
  1.200000000000001E-003    7.726407582579842E-041
  1.300000000000001E-003    8.265915464774695E-041
  1.400000000000001E-003    7.924175226125489E-041
  1.500000000000001E-003    6.447535686806243E-041
  1.600000000000001E-003    3.645345662596035E-041
  1.700000000000001E-003   -5.651745197204843E-042
  1.800000000000001E-003   -6.112385551405131E-041
  1.900000000000001E-003   -1.272942367646188E-040
  2.000000000000001E-003   -1.992578510591836E-040
  2.100000000000001E-003   -2.697833548259820E-040
  2.200000000000001E-003   -3.294994296805765E-040
  2.300000000000001E-003   -3.674119754482059E-040
  2.400000000000001E-003   -3.717971717352891E-040
  2.500000000000001E-003   -3.314588698073148E-040
  2.600000000000001E-003   -2.373112300194086E-040
  2.700000000000001E-003   -8.417674868316183E-041
  2.800000000000001E-003    1.273631292430759E-040
  2.900000000000001E-003    3.892933455428828E-040
  3.000000000000001E-003    6.849189690430215E-040
  3.100000000000001E-003    9.883449722580511E-040
  3.200000000000001E-003    1.264954934067757E-039
  3.300000000000001E-003    1.473124290901353E-039
  3.400000000000001E-003    1.567303457024491E-039
  3.500000000000001E-003    1.502477852725750E-039
  3.600000000000001E-003    1.239842101160776E-039
  3.700000000000001E-003    7.533159294079320E-040
  3.800000000000001E-003    3.631432260472930E-041
  3.900000000000001E-003   -8.919804671568542E-040
  4.000000000000001E-003   -1.981781193598509E-039
  4.100000000000001E-003   -3.150276705524618E-039
  4.200000000000001E-003   -4.282578106805041E-039
  4.300000000000001E-003   -5.236820029271079E-039
  4.400000000000001E-003   -5.853875810266996E-039
  4.500000000000001E-003   -5.971711471371999E-039
  4.600000000000002E-003   -5.443802616037048E-039
  4.700000000000001E-003   -4.160404844681504E-039
  4.800000000000001E-003   -2.070803843473439E-039
  4.900000000000002E-003    7.959410731637062E-040
  5.000000000000001E-003    4.314632899047825E-039
  5.100000000000001E-003    8.255027025228470E-039
  5.200000000000001E-003    1.228321672889819E-038
  5.300000000000002E-003    1.597559488107533E-038
  5.400000000000001E-003    1.884659685686052E-038
  5.500000000000001E-003    2.039001590778936E-038
  5.600000000000002E-003    2.013194231391067E-038
  5.700000000000001E-003    1.769145469431508E-038
  5.800000000000001E-003    1.284341243638428E-038
  5.900000000000002E-003    5.576161614462330E-039
  6.000000000000001E-003   -3.863882934851600E-039
  6.100000000000001E-003   -1.494886477576697E-038
  6.200000000000002E-003   -2.687433311173830E-038
  6.300000000000002E-003   -3.859711544277724E-038
  6.400000000000001E-003   -4.890770588085138E-038
  6.500000000000001E-003   -5.653435166763470E-038
  6.600000000000002E-003   -6.027135392204885E-038
  6.700000000000001E-003   -5.911936654372667E-038
  6.800000000000001E-003   -5.242157376539782E-038
  6.900000000000002E-003   -3.997726677535297E-038
  7.000000000000001E-003   -2.211415362490329E-038
  7.100000000000001E-003    2.965686689050074E-040
  7.200000000000002E-003    2.589270601023084E-038
  7.300000000000002E-003    5.294287101187595E-038
  7.400000000000001E-003    7.952836498418042E-038
  7.500000000000001E-003    1.037643408763260E-037
  7.600000000000002E-003    1.240279238786336E-037
  7.700000000000001E-003    1.391525844410926E-037
  7.800000000000001E-003    1.485444490128243E-037
  7.900000000000001E-003    1.521795177452372E-037
  8.000000000000002E-003    1.504526959407821E-037
  8.100000000000001E-003    1.438701524691941E-037
  8.200000000000001E-003    1.326057596842044E-037
  8.300000000000002E-003    1.159770546322683E-037
  8.400000000000001E-003    9.193275277410898E-038
  8.500000000000002E-003    5.667609890720810E-038
  8.600000000000002E-003    4.570001250504718E-039
  8.700000000000001E-003   -7.152803619017803E-038
  8.800000000000002E-003   -1.793747804293688E-037
  8.900000000000002E-003   -3.258225409595311E-037
  9.000000000000001E-003   -5.146855099272443E-037
  9.100000000000002E-003   -7.441208910435509E-037
  9.200000000000002E-003   -1.003790531069661E-036
  9.300000000000001E-003   -1.272213010184792E-036
  9.400000000000002E-003   -1.514847442153189E-036
  9.500000000000001E-003   -1.683537963257224E-036
  9.600000000000001E-003   -1.717977508908311E-036
  9.700000000000002E-003   -1.549769875431352E-036
  9.800000000000001E-003   -1.109493567050191E-036
  9.900000000000001E-003   -3.368457612343100E-037
  1.000000000000000E-002    8.064898181422815E-037
  1.010000000000000E-002    2.322151331702093E-036
  1.020000000000000E-002    4.160083905248305E-036
  1.030000000000000E-002    6.205286322516627E-036
  1.040000000000000E-002    8.268888553857838E-036
  1.050000000000000E-002    1.008641805331746E-035
  1.060000000000000E-002    1.132607086138902E-035
  1.070000000000000E-002    1.160936759647334E-035
  1.080000000000000E-002    1.054563496336103E-035
  1.090000000000000E-002    7.780331401005026E-036
  1.100000000000000E-002    3.055310972663697E-036
  1.110000000000000E-002   -3.723133656676858E-036
  1.120000000000000E-002   -1.241509518987297E-035
  1.130000000000000E-002   -2.258561643681585E-035
  1.140000000000000E-002   -3.346181691996006E-035
  1.150000000000000E-002   -4.392031092185331E-035
  1.160000000000000E-002   -5.251636247010210E-035
  1.170000000000000E-002   -5.756433472638931E-035
  1.180000000000000E-002   -5.727522093002085E-035
  1.190000000000000E-002   -4.995129884908955E-035
  1.200000000000000E-002   -3.423055754071141E-035
  1.210000000000000E-002   -9.364753103674747E-036
  1.220000000000000E-002    2.449424651451782E-035
  1.230000000000000E-002    6.603400556247168E-035
  1.240000000000000E-002    1.125881131384383E-034
  1.250000000000000E-002    1.600543685939840E-034
  1.260000000000000E-002    2.029685789252622E-034
  1.270000000000000E-002    2.347707565051888E-034
  1.280000000000000E-002    2.482869752224877E-034
  1.290000000000000E-002    2.364296110837913E-034
  1.300000000000000E-002    1.930923926981431E-034
  1.310000000000000E-002    1.141844385359991E-034
  1.320000000000000E-002   -1.284672995353373E-036
  1.330000000000000E-002   -1.501892986521171E-034
  1.340000000000000E-002   -3.244862754892153E-034
  1.350000000000000E-002   -5.107877845392120E-034
  1.360000000000000E-002   -6.904650935048662E-034
  1.370000000000000E-002   -8.404196771252159E-034
  1.380000000000000E-002   -9.346118467596538E-034
  1.390000000000000E-002   -9.463691916084258E-034
  1.400000000000000E-002   -8.514082234571659E-034
  1.410000000000000E-002   -6.313947762126269E-034
  1.420000000000000E-002   -2.777591932303767E-034
  1.430000000000000E-002    2.046286828400492E-034
  1.440000000000000E-002    7.944058175994202E-034
  1.450000000000000E-002    1.451817906388423E-033
  1.460000000000000E-002    2.118513577286039E-033
  1.470000000000000E-002    2.719502238615396E-033
  1.480000000000000E-002    3.167608843270067E-033
  1.490000000000000E-002    3.370549101758314E-033
  1.500000000000000E-002    3.240456578398524E-033
  1.510000000000000E-002    2.705364243708623E-033
  1.520000000000000E-002    1.721772955882478E-033
  1.530000000000000E-002    2.870913618485773E-034
  1.540000000000000E-002   -1.549563036253969E-033
  1.550000000000000E-002   -3.679902646284402E-033
  1.560000000000000E-002   -5.934076199736006E-033
  1.570000000000000E-002   -8.084898474313513E-033
  1.580000000000000E-002   -9.859877274046525E-033
  1.590000000000000E-002   -1.096154644673917E-032
  1.600000000000000E-002   -1.109579126935023E-032
  1.610000000000000E-002   -1.000679747038743E-032
  1.620000000000000E-002   -7.516164328394193E-033
  1.630000000000000E-002   -3.562581812914241E-033
  1.640000000000000E-002    1.762403056219635E-033
  1.650000000000000E-002    8.187702538394196E-033
  1.660000000000000E-002    1.525039134512175E-032
  1.670000000000000E-002    2.230270904371483E-032
  1.680000000000000E-002    2.854217396258477E-032
  1.690000000000000E-002    3.306683166408379E-032
  1.700000000000000E-002    3.495517895053793E-032
  1.710000000000000E-002    3.336732579581643E-032
  1.720000000000000E-002    2.766064394446350E-032
  1.730000000000000E-002    1.750988907549224E-032
  1.740000000000000E-002    3.018889892226364E-033
  1.750000000000000E-002   -1.519109053498112E-032
  1.760000000000000E-002   -3.593200832174776E-032
  1.770000000000000E-002   -5.745344177614395E-032
  1.780000000000000E-002   -7.751265164367800E-032
  1.790000000000000E-002   -9.351728840865968E-032
  1.800000000000000E-002   -1.027409219823867E-031
  1.810000000000000E-002   -1.026031005255531E-031
  1.820000000000000E-002   -9.099638193484953E-032
  1.830000000000000E-002   -6.663323691129860E-032
  1.840000000000000E-002   -2.937730568091903E-032
  1.850000000000000E-002    1.948254140737230E-032
  1.860000000000000E-002    7.705978993410104E-032
  1.870000000000000E-002    1.388419674724903E-031