 -4.000000000000000E-002    0.000000000000000E+000
 -3.990000000000000E-002    0.000000000000000E+000
 -3.980000000000000E-002    0.000000000000000E+000
 -3.970000000000000E-002    0.000000000000000E+000
 -3.960000000000000E-002    0.000000000000000E+000
 -3.950000000000000E-002    8.072077737838474E-020
 -3.940000000000000E-002    8.070640290164750E-019
 -3.930000000000000E-002    4.309953505961370E-018
 -3.920000000000000E-002    1.623484584050716E-017
 -3.910000000000000E-002    4.805806283182025E-017
 -3.900000000000000E-002    1.179723661213707E-016
 -3.890000000000000E-002    2.468366520179699E-016
 -3.880000000000000E-002    4.441641192654454E-016
 -3.870000000000000E-002    6.787330030632034E-016
 -3.860000000000000E-002    8.302477670717642E-016
 -3.850000000000000E-002    6.234747172269258E-016
 -3.840000000000000E-002   -4.452690166133292E-016
 -3.830000000000000E-002   -3.168217827194393E-015
 -3.820000000000000E-002   -8.639918018049588E-015
 -3.810000000000000E-002   -1.818247436852015E-014
 -3.800000000000000E-002   -3.313772008493087E-014
 -3.790000000000000E-002   -5.449056269553596E-014
 -3.780000000000000E-002   -8.231112625830129E-014
 -3.770000000000000E-002   -1.150422753033480E-013
 -3.760000000000000E-002   -1.487114379794264E-013
 -3.750000000000000E-002   -1.762045883284290E-013
 -3.740000000000000E-002   -1.867955479485281E-013
 -3.730000000000000E-002   -1.661608948486355E-013
 -3.720000000000000E-002   -9.711518198009074E-014
 -3.710000000000000E-002    3.874136660248662E-014
 -3.700000000000000E-002    2.583685224417497E-013
 -3.690000000000000E-002    5.736847084695614E-013
 -3.680000000000000E-002    9.872775968820193E-013
 -3.670000000000000E-002    1.487907454932831E-012
 -3.660000000000000E-002    2.046494810265987E-012
 -3.650000000000000E-002    2.613439831106195E-012
 -3.640000000000000E-002    3.118179376536132E-012
 -3.630000000000000E-002    3.471806028041885E-012
 -3.620000000000000E-002    3.573328477293343E-012
 -3.610000000000000E-002    3.319734220323462E-012
 -3.600000000000000E-002    2.619458552071302E-012
 -3.590000000000000E-002    1.408206181249262E-012
 -3.580000000000000E-002   -3.345818818746767E-013
 -3.570000000000000E-002   -2.570888569670790E-012
 -3.560000000000000E-002   -5.193521848045906E-012
 -3.550000000000000E-002   -8.022393230636660E-012
 -3.540000000000000E-002   -1.080993103831506E-011
 -3.530000000000000E-002   -1.325706878610871E-011
 -3.520000000000000E-002   -1.504002405486801E-011
 -3.510000000000000E-002   -1.584654669090848E-011
 -3.500000000000000E-002   -1.541864437474443E-011
 -3.490000000000000E-002   -1.359718507011839E-011
 -3.480000000000000E-002   -1.036254502402403E-011
 -3.470000000000000E-002   -5.864776734175768E-012
 -3.460000000000000E-002   -4.369628297782341E-013
 -3.450000000000000E-002    5.413518029136709E-012
 -3.440000000000000E-002    1.103898948964520E-011
 -3.430000000000000E-002    1.571103277514596E-011
 -3.420000000000000E-002    1.870238672379157E-011
 -3.410000000000000E-002    1.938431815346257E-011
 -3.400000000000000E-002    1.732922756913973E-011
 -3.390000000000000E-002    1.240573622340510E-011
 -3.380000000000000E-002    4.852292791548684E-012
 -3.370000000000000E-002   -4.684123083051550E-012
 -3.360000000000000E-002   -1.515521036437969E-011
 -3.350000000000000E-002   -2.517118317840193E-011
 -3.340000000000000E-002   -3.311410308717640E-011
 -3.330000000000000E-002   -3.729872650410429E-011
 -3.320000000000000E-002   -3.616790015978756E-011
 -3.310000000000000E-002   -2.850317816855702E-011
 -3.300000000000000E-002   -1.362678297685434E-011
 -3.290000000000000E-002    8.431159295945513E-012
 -3.280000000000000E-002    3.682513908998902E-011
 -3.270000000000000E-002    6.986725257548435E-011
 -3.260000000000000E-002    1.050938993875460E-010
 -3.250000000000000E-002    1.394292682965270E-010
 -3.240000000000000E-002    1.694372287226029E-010
 -3.230000000000000E-002    1.916415102070032E-010
 -3.220000000000000E-002    2.028835881826743E-010
 -3.210000000000000E-002    2.006802488595789E-010
 -3.200000000000000E-002    1.835392756522332E-010
 -3.190000000000000E-002    1.511930945482664E-010
 -3.180000000000000E-002    1.047167802679031E-010
 -3.170000000000000E-002    4.650785766129025E-011
 -3.160000000000000E-002   -1.987959185008906E-011
 -3.150000000000000E-002   -9.003737685314189E-011
 -3.140000000000000E-002   -1.591162804539607E-010
 -3.130000000000000E-002   -2.223089846671928E-010
 -3.120000000000000E-002   -2.753518717219526E-010
 -3.110000000000000E-002   -3.149894055860095E-010
 -3.100000000000000E-002   -3.393467140106793E-010
 -3.090000000000000E-002   -3.481644296167522E-010
 -3.080000000000000E-002   -3.428634928306260E-010
 -3.070000000000000E-002   -3.264260982780179E-010
 -3.060000000000000E-002   -3.030995835206865E-010
 -3.050000000000000E-002   -2.779487608321568E-010
 -3.040000000000000E-002   -2.563003681359020E-010
 -3.030000000000000E-002   -2.431339591138367E-010
 -3.020000000000000E-002   -2.424792380769852E-010
 -3.010000000000000E-002   -2.568782071381244E-010
 -3.000000000000000E-002   -2.869625505704694E-010
 -2.990000000000000E-002   -3.311829240001772E-010
 -2.980000000000000E-002   -3.857119778790601E-010
 -2.970000000000000E-002   -4.445255326138678E-010
 -2.960000000000000E-002   -4.996519277103113E-010
 -2.950000000000000E-002   -5.415696782424344E-010
 -2.940000000000000E-002   -5.597265960445223E-010
 -2.930000000000000E-002   -5.431537063633753E-010
 -2.920000000000000E-002   -4.811495697601312E-010
 -2.910000000000000E-002   -3.640155886464259E-010
 -2.900000000000000E-002   -1.838277273762332E-010
 -2.890000000000000E-002    6.477041999036788E-011
 -2.880000000000000E-002    3.837708454824771E-010
 -2.870000000000000E-002    7.710296170235570E-010
 -2.860000000000000E-002    1.219567301197514E-009
 -2.850000000000000E-002    1.717003893940036E-009
 -2.840000000000000E-002    2.245215861959082E-009
 -2.830000000000000E-002    2.780312575849870E-009
 -2.820000000000000E-002    3.293036468612944E-009
 -2.810000000000000E-002    3.749678103872432E-009
 -2.800000000000000E-002    4.113569268263130E-009
 -2.790000000000000E-002    4.347163982592432E-009
 -2.780000000000000E-002    4.414653629046901E-009
 -2.770000000000000E-002    4.284981328779751E-009
 -2.760000000000000E-002    3.935037758530884E-009
 -2.750000000000000E-002    3.352748639148653E-009
 -2.740000000000000E-002    2.539711316228641E-009
 -2.730000000000000E-002    1.513015319574582E-009
 -2.720000000000000E-002    3.059108418606708E-010
 -2.710000000000000E-002   -1.032946590999719E-009
 -2.700000000000000E-002   -2.441821580298672E-009
 -2.690000000000000E-002   -3.849784919499804E-009
 -2.680000000000000E-002   -5.181966524158891E-009
 -2.670000000000000E-002   -6.365783241289122E-009
 -2.660000000000000E-002   -7.337582909548069E-009
 -2.650000000000000E-002   -8.049010682625718E-009
 -2.640000000000000E-002   -8.472338548877409E-009
 -2.630000000000000E-002   -8.604030680135332E-009
 -2.620000000000000E-002   -8.465912827714400E-009
 -2.610000000000000E-002   -8.103546414478225E-009
 -2.600000000000000E-002   -7.581674565035579E-009
 -2.590000000000000E-002   -6.976962270748408E-009
 -2.580000000000000E-002   -6.368602021243202E-009
 -2.570000000000000E-002   -5.827686049892659E-009
 -2.560000000000000E-002   -5.406514453258073E-009
 -2.550000000000000E-002   -5.129138668875394E-009
 -2.540000000000000E-002   -4.984462537560951E-009
 -2.530000000000000E-002   -4.923047284772344E-009
 -2.520000000000000E-002   -4.858459622654946E-009
 -2.510000000000000E-002   -4.673538651721430E-009
 -2.500000000000000E-002   -4.231413104516837E-009
 -2.490000000000000E-002   -3.390497054125801E-009
 -2.480000000000000E-002   -2.022142935424968E-009
 -2.470000000000000E-002   -2.916329086078886E-011
 -2.460000000000000E-002    2.636865216915288E-009
 -2.450000000000000E-002    5.961659252262302E-009
 -2.440000000000000E-002    9.859638216803864E-009
 -2.430000000000000E-002    1.417222564690894E-008
 -2.420000000000000E-002    1.867395789469287E-008
 -2.410000000000000E-002    2.308646936979377E-008
 -2.400000000000000E-002    2.709956377155665E-008
 -2.390000000000000E-002    3.039767600725324E-008
 -2.380000000000000E-002    3.268929004310131E-008
 -2.370000000000000E-002    3.373633632370686E-008
 -2.360000000000000E-002    3.338037702820617E-008
 -2.350000000000000E-002    3.156250817814231E-008
 -2.340000000000000E-002    2.833438257260436E-008
 -2.330000000000000E-002    2.385858838798304E-008
 -2.320000000000000E-002    1.839769958114393E-008
 -2.310000000000000E-002    1.229251096144750E-008
 -2.300000000000000E-002    5.931245156394921E-009
 -2.290000000000000E-002   -2.873893304469748E-010
 -2.280000000000000E-002   -5.993562640685602E-009
 -2.270000000000000E-002   -1.088390871738741E-008
 -2.260000000000000E-002   -1.475311576805927E-008
 -2.250000000000000E-002   -1.751578196670803E-008
 -2.240000000000000E-002   -1.921570109468480E-008
 -2.230000000000000E-002   -2.002103823726110E-008
 -2.220000000000000E-002   -2.020535162368559E-008
 -2.210000000000000E-002   -2.011604970272945E-008
 -2.200000000000000E-002   -2.013331948177733E-008
 -2.190000000000000E-002   -2.062375981493165E-008
 -2.180000000000000E-002   -2.189373596463103E-008
 -2.170000000000000E-002   -2.414768109907917E-008
 -2.160000000000000E-002   -2.745619416727663E-008
 -2.150000000000000E-002   -3.173786994566480E-008
 -2.140000000000000E-002   -3.675737477064366E-008
 -2.130000000000000E-002   -4.214054536890043E-008
 -2.120000000000000E-002   -4.740538839471378E-008
 -2.110000000000000E-002   -5.200604112989400E-008
 -2.100000000000000E-002   -5.538522144770219E-008
 -2.090000000000000E-002   -5.702959247360707E-008
 -2.080000000000000E-002   -5.652199635610372E-008
 -2.070000000000000E-002   -5.358468845901925E-008
 -2.060000000000000E-002   -4.810850841263167E-008
 -2.050000000000000E-002   -4.016440792881416E-008
 -2.040000000000000E-002   -2.999552861844592E-008
 -2.030000000000000E-002   -1.799014233943090E-008
 -2.020000000000000E-002   -4.637827257865467E-009
 -2.010000000000000E-002    9.526919416014623E-009
 -2.000000000000000E-002    2.398802470117265E-008
 -1.990000000000000E-002    3.831172554451702E-008
 -1.980000000000000E-002    5.220448827362466E-008
 -1.970000000000000E-002    6.555909496577897E-008
 -1.960000000000000E-002    7.848415927682221E-008
 -1.950000000000000E-002    9.131423571809203E-008
 -1.940000000000000E-002    1.045995317912377E-007
 -1.930000000000000E-002    1.190766174272850E-007
 -1.920000000000000E-002    1.356232482420222E-007
 -1.910000000000000E-002    1.552021634356100E-007
 -1.900000000000000E-002    1.787997898557355E-007
 -1.890000000000000E-002    2.073661089178483E-007
 -1.880000000000000E-002    2.417618988849643E-007
 -1.870000000000000E-002    2.827183008026941E-007
 -1.860000000000000E-002    3.308128797945983E-007
 -1.850000000000000E-002    3.864638380663856E-007
 -1.840000000000000E-002    4.499429141622601E-007
 -1.830000000000000E-002    5.214048654692270E-007
 -1.820000000000000E-002    6.009308583211959E-007
 -1.810000000000000E-002    6.885806544000441E-007
 -1.800000000000000E-002    7.844486914194246E-007
 -1.790000000000000E-002    8.887191619485298E-007
 -1.780000000000000E-002    1.001714158284535E-006
 -1.770000000000000E-002    1.123932192896356E-006
 -1.760000000000000E-002    1.256072932609864E-006
 -1.750000000000000E-002    1.399046558325615E-006
 -1.740000000000000E-002    1.553968841157186E-006
 -1.730000000000000E-002    1.722141699255627E-006
 -1.720000000000000E-002    1.905021492782689E-006
 -1.710000000000000E-002    2.104178736610267E-006
 -1.700000000000000E-002    2.321251447007956E-006
 -1.690000000000000E-002    2.557897410398039E-006
 -1.680000000000000E-002    2.815747345434503E-006
 -1.670000000000000E-002    3.096362658067273E-006
 -1.660000000000000E-002    3.401201794078695E-006
 -1.650000000000000E-002    3.731595509894889E-006
 -1.640000000000000E-002    4.088734717689547E-006
 -1.630000000000000E-002    4.473670536447047E-006
 -1.620000000000000E-002    4.887327452669323E-006
 -1.610000000000000E-002    5.330530759538835E-006
 -1.600000000000000E-002    5.804045324726921E-006
 -1.590000000000000E-002    6.308624994908842E-006
 -1.580000000000000E-002    6.845072187754650E-006
 -1.570000000000000E-002    7.414299800547498E-006
 -1.560000000000000E-002    8.017395959682180E-006
 -1.550000000000000E-002    8.655686494035161E-006
 -1.540000000000000E-002    9.330788122013168E-006
 -1.530000000000000E-002    1.004464697238577E-005
 -1.520000000000000E-002    1.079956641264811E-005
 -1.510000000000000E-002    1.159820949370881E-005
 -1.500000000000000E-002    1.244358254681158E-005
 -1.490000000000000E-002    1.333899502845739E-005
 -1.480000000000000E-002    1.428800428100051E-005
 -1.470000000000000E-002    1.529433853094526E-005
 -1.460000000000000E-002    1.636181818779776E-005
 -1.450000000000000E-002    1.749427271956010E-005
 -1.440000000000000E-002    1.869546555534481E-005
 -1.430000000000000E-002    1.996903986107418E-005
 -1.420000000000000E-002    2.131848514890768E-005
 -1.410000000000000E-002    2.274713653389327E-005
 -1.400000000000000E-002    2.425820971959414E-005
 -1.390000000000000E-002    2.585487255537153E-005
 -1.380000000000000E-002    2.754033874303063E-005
 -1.370000000000000E-002    2.931800002054470E-005
 -1.360000000000000E-002    3.119156580928752E-005
 -1.350000000000000E-002    3.316519850435827E-005
 -1.340000000000000E-002    3.524364691521432E-005
 -1.330000000000000E-002    3.743234985674614E-005
 -1.320000000000000E-002    3.973750810923316E-005
 -1.310000000000000E-002    4.216610343418289E-005
 -1.300000000000000E-002    4.472588487297745E-005
 -1.290000000000000E-002    4.742529311111357E-005
 -1.280000000000000E-002    5.027336327150410E-005
 -1.270000000000000E-002    5.327958358680747E-005
 -1.260000000000000E-002    5.645373285233921E-005
 -1.250000000000000E-002    5.980574429576340E-005
 -1.240000000000000E-002    6.334557921841337E-005
 -1.230000000000000E-002    6.708311625887526E-005
 -1.220000000000000E-002    7.102810764373167E-005
 -1.210000000000000E-002    7.519019836470187E-005
 -1.200000000000000E-002    7.957898183043448E-005
 -1.190000000000000E-002    8.420410736109828E-005
 -1.180000000000000E-002    8.907546560537799E-005
 -1.170000000000000E-002    9.420335319500519E-005
 -1.160000000000000E-002    9.959870022063403E-005
 -1.150000000000000E-002    1.052732483529904E-004
 -1.140000000000000E-002    1.112397476133609E-004
 -1.130000000000000E-002    1.175120747624326E-004
 -1.120000000000000E-002    1.241052919350902E-004
 -1.110000000000000E-002    1.310357090067974E-004
 -1.100000000000000E-002    1.383208228501226E-004
 -1.090000000000000E-002    1.459792432674124E-004
 -1.080000000000000E-002    1.540305893945821E-004
 -1.070000000000000E-002    1.624953015533192E-004
 -1.060000000000000E-002    1.713945669184320E-004
 -1.050000000000000E-002    1.807501686888721E-004
 -1.040000000000000E-002    1.905843931280912E-004
 -1.030000000000000E-002    2.009200291325621E-004
 -1.020000000000000E-002    2.117803288925726E-004
 -1.010000000000000E-002    2.231891187107590E-004
 -1.000000000000000E-002    2.351709172404301E-004
 -9.899999999999999E-003    2.477511086703812E-004
 -9.800000000000000E-003    2.609560829320919E-004
 -9.699999999999999E-003    2.748134557674786E-004
 -9.599999999999999E-003    2.893522567235047E-004
 -9.500000000000000E-003    3.046030184778772E-004
 -9.399999999999999E-003    3.205979748892638E-004
 -9.299999999999999E-003    3.373710312923660E-004
 -9.200000000000000E-003    3.549578271797656E-004
 -9.099999999999999E-003    3.733956538747088E-004
 -8.999999999999999E-003    3.927233928955887E-004
 -8.900000000000000E-003    4.129813993300348E-004
 -8.799999999999999E-003    4.342113938312934E-004
 -8.699999999999999E-003    4.564564093769738E-004
 -8.600000000000000E-003    4.797606117598580E-004
 -8.499999999999999E-003    5.041693282142134E-004
 -8.399999999999999E-003    5.297289987481889E-004
 -8.300000000000000E-003    5.564872100190752E-004
 -8.199999999999999E-003    5.844928263884901E-004
 -8.100000000000000E-003    6.137961433491470E-004
 -8.000000000000000E-003    6.444488290247601E-004
 -7.899999999999999E-003    6.765043393311585E-004
 -7.800000000000000E-003    7.100179842074652E-004
 -7.699999999999999E-003    7.450469772120944E-004
 -7.599999999999999E-003    7.816507071419816E-004
 -7.499999999999999E-003    8.198907980505477E-004
 -7.399999999999999E-003    8.598311516281359E-004
 -7.299999999999999E-003    9.015378542398060E-004
 -7.199999999999999E-003    9.450795392082061E-004
 -7.100000000000000E-003    9.905270631772650E-004
 -6.999999999999999E-003    1.037953584090164E-003
 -6.899999999999999E-003    1.087434610226585E-003
 -6.800000000000000E-003    1.139047831503673E-003
 -6.699999999999999E-003    1.192873233161753E-003
 -6.599999999999999E-003    1.248993062899830E-003
 -6.499999999999999E-003    1.307491901798854E-003
 -6.399999999999999E-003    1.368456649710157E-003
 -6.299999999999999E-003    1.431976543496532E-003
 -6.199999999999999E-003    1.498143402603313E-003
 -6.100000000000000E-003    1.567051592128867E-003
 -5.999999999999999E-003    1.638798116866836E-003
 -5.899999999999999E-003    1.713482751098873E-003
 -5.800000000000000E-003    1.791207897552502E-003
 -5.699999999999999E-003    1.872078985739425E-003
 -5.599999999999999E-003    1.956204488368986E-003
 -5.499999999999999E-003    2.043695743299411E-003
 -5.399999999999999E-003    2.134667414920209E-003
 -5.299999999999999E-003    2.229237268906914E-003
 -5.199999999999999E-003    2.327526334900906E-003
 -5.099999999999999E-003    2.429658782266444E-003
 -4.999999999999999E-003    2.535762422556263E-003
 -4.899999999999999E-003    2.645968357040600E-003
 -4.799999999999999E-003    2.760411088850549E-003
 -4.699999999999999E-003    2.879228349759704E-003
 -4.599999999999999E-003    3.002561374211342E-003
 -4.499999999999999E-003    3.130554674069132E-003
 -4.399999999999999E-003    3.263356012459605E-003
 -4.299999999999999E-003    3.401116335860843E-003
 -4.199999999999999E-003    3.543989744690233E-003
 -4.099999999999999E-003    3.692133059534055E-003
 -3.999999999999999E-003    3.845706792941802E-003
 -3.899999999999999E-003    4.004873926757890E-003
 -3.799999999999999E-003    4.169800480587852E-003
 -3.699999999999999E-003    4.340655929779971E-003
 -3.599999999999999E-003    4.517612318027466E-003
 -3.499999999999999E-003    4.700845405136126E-003
 -3.399999999999999E-003    4.890534139542340E-003
 -3.299999999999999E-003    5.086860823997114E-003
 -3.199999999999999E-003    5.290010965860821E-003
 -3.099999999999999E-003    5.500173650741015E-003
 -2.999999999999999E-003    5.717541829793705E-003
 -2.899999999999999E-003    5.942312127890524E-003
 -2.799999999999999E-003    6.174683798702889E-003
 -2.699999999999999E-003    6.414859592635957E-003
 -2.599999999999999E-003    6.663046413503778E-003
 -2.499999999999999E-003    6.919452608030598E-003
 -2.399999999999999E-003    7.184289520637788E-003
 -2.299999999999999E-003    7.457770776984174E-003
 -2.199999999999999E-003    7.740113234584318E-003
 -2.099999999999999E-003    8.031535626099262E-003
 -1.999999999999999E-003    8.332257415484649E-003
 -1.899999999999999E-003    8.642500679425607E-003
 -1.799999999999999E-003    8.962489297832063E-003
 -1.699999999999999E-003    9.292449402200935E-003
 -1.599999999999999E-003    9.632609062150122E-003
 -1.499999999999999E-003    9.983196573315221E-003
 -1.399999999999999E-003    1.034444367654421E-002
 -1.299999999999999E-003    1.071658336391192E-002
 -1.199999999999999E-003    1.109984880979984E-002
 -1.099999999999999E-003    1.149447637478576E-002
 -9.999999999999989E-004    1.190070197077227E-002
 -8.999999999999990E-004    1.231876279835050E-002
 -7.999999999999990E-004    1.274889544472688E-002
 -6.999999999999989E-004    1.319133837777299E-002
 -5.999999999999990E-004    1.364632662704948E-002
 -4.999999999999989E-004    1.411409668723290E-002
 -3.999999999999989E-004    1.459488344496476E-002
 -2.999999999999989E-004    1.508891801315156E-002
 -1.999999999999989E-004    1.559643300861825E-002
 -9.999999999999892E-005    1.611765623395931E-002
  1.084202172485504E-018    1.665281589526415E-002
  1.000000000000011E-004    1.720213531116212E-002
  2.000000000000011E-004    1.776583799589515E-002
  3.000000000000011E-004    1.834414495223628E-002
  4.000000000000011E-004    1.893727426269911E-002
  5.000000000000011E-004    1.954543844224713E-002
  6.000000000000011E-004    2.016884977586179E-002
  7.000000000000011E-004    2.080771560420175E-002
  8.000000000000011E-004    2.146223895642197E-002
  9.000000000000012E-004    2.213261762784538E-002
  1.000000000000001E-003    2.281904694244694E-002
  1.100000000000001E-003    2.352171154562688E-002
  1.200000000000001E-003    2.424079451846375E-002
  1.300000000000001E-003    2.497646885709943E-002
  1.400000000000001E-003    2.572890117776522E-002
  1.500000000000001E-003    2.649824833394098E-002
  1.600000000000001E-003    2.728466269015149E-002
  1.700000000000001E-003    2.808828361982129E-002
  1.800000000000001E-003    2.890924606560089E-002
  1.900000000000001E-003    2.974767304712791E-002
  2.000000000000001E-003    3.060368095976313E-002
  2.100000000000001E-003    3.147737459390100E-002
  2.200000000000001E-003    3.236885307000430E-002
  2.300000000000001E-003    3.327820543751966E-002
  2.400000000000001E-003    3.420550679189967E-002
  2.500000000000001E-003    3.515082612017480E-002
  2.600000000000001E-003    3.611421939557864E-002
  2.700000000000001E-003    3.709573009743454E-002
  2.800000000000001E-003    3.809538745866725E-002
  2.900000000000001E-003    3.911320714971239E-002
  3.000000000000001E-003    4.014919379247612E-002
  3.100000000000001E-003    4.120333681430627E-002
  3.200000000000001E-003    4.227560461351717E-002
  3.300000000000001E-003    4.336595715092820E-002
  3.400000000000001E-003    4.447433041368713E-002
  3.500000000000001E-003    4.560064953168263E-002
  3.600000000000001E-003    4.674482525258798E-002
  3.700000000000001E-003    4.790674200090431E-002
  3.800000000000001E-003    4.908627403566705E-002
  3.900000000000001E-003    5.028327912528958E-002
  4.000000000000001E-003    5.149759733515272E-002
  4.100000000000001E-003    5.272904670895165E-002
  4.200000000000001E-003    5.397743014631128E-002
  4.300000000000001E-003    5.524253145413902E-002
  4.400000000000001E-003    5.652411577971565E-002
  4.500000000000001E-003    5.782192485916243E-002
  4.600000000000002E-003    5.913567787052966E-002
  4.700000000000001E-003    6.046508290468456E-002
  4.800000000000001E-003    6.180981241402008E-002
  4.900000000000002E-003    6.316952825451118E-002
  5.000000000000001E-003    6.454386049370317E-002
  5.100000000000001E-003    6.593241814666326E-002
  5.200000000000001E-003    6.733478651405166E-002
  5.300000000000002E-003    6.875053218185234E-002
  5.400000000000001E-003    7.017919335315019E-002
  5.500000000000001E-003    7.162028727139488E-002
  5.600000000000002E-003    7.307331155636269E-002
  5.700000000000001E-003    7.453774089014958E-002
  5.800000000000001E-003    7.601302419710561E-002
  5.900000000000002E-003    7.749858687663633E-002
  6.000000000000001E-003    7.899383203002788E-002
  6.100000000000001E-003    8.049813886371632E-002
  6.200000000000002E-003    8.201086391195028E-002
  6.300000000000002E-003    8.353133773264967E-002
  6.400000000000001E-003    8.505887193136116E-002
  6.500000000000001E-003    8.659274714796442E-002
  6.600000000000002E-003    8.813222514428641E-002
  6.700000000000001E-003    8.967653496524688E-002
  6.800000000000001E-003    9.122489117927540E-002
  6.900000000000002E-003    9.277646854541925E-002
  7.000000000000001E-003    9.433043756404624E-002
  7.100000000000001E-003    9.588593210252697E-002
  7.200000000000002E-003    9.744206966529470E-002
  7.300000000000002E-003    9.899794202608383E-002
  7.400000000000001E-003    0.100552628777374     
  7.500000000000001E-003    0.102105181612656     
  7.600000000000002E-003    0.103654629335996     
  7.700000000000001E-003    0.105199987319120     
  7.800000000000001E-003    0.106740246890342     
  7.900000000000001E-003    0.108274376640612     
  8.000000000000002E-003    0.109801337553386     
  8.100000000000001E-003    0.111320073059293     
  8.200000000000001E-003    0.112829489937448     
  8.300000000000002E-003    0.114328493575570     
  8.400000000000001E-003    0.115815968534461     
  8.500000000000002E-003    0.117290779926366     
  8.600000000000002E-003    0.118751778600390     
  8.700000000000001E-003    0.120197807400616     
  8.800000000000002E-003    0.121627694288498     
  8.900000000000002E-003    0.123040249730574     
  9.000000000000001E-003    0.124434284132623     
  9.100000000000002E-003    0.125808599252456     
  9.200000000000002E-003    0.127161973363840     
  9.300000000000001E-003    0.128493212528092     
  9.400000000000002E-003    0.129801095564869     
  9.500000000000001E-003    0.131084405568439     
  9.600000000000001E-003    0.132341923742164     
  9.700000000000002E-003    0.133572424286130     
  9.800000000000001E-003    0.134774679246536     
  9.900000000000001E-003    0.135947460729223     
  1.000000000000000E-002    0.137089570820388     
  1.010000000000000E-002    0.138199775599676     
  1.020000000000000E-002    0.139276869709598     
  1.030000000000000E-002    0.140319633418815     
  1.040000000000000E-002    0.141326888586647     
  1.050000000000000E-002    0.142297428953049     
  1.060000000000000E-002    0.143230082823929     
  1.070000000000000E-002    0.144123691042789     
  1.080000000000000E-002    0.144977112517932     
  1.090000000000000E-002    0.145789208451507     
  1.100000000000000E-002    0.146558880725752     
  1.110000000000000E-002    0.147285050805964     
  1.120000000000000E-002    0.147966641951529     
  1.130000000000000E-002    0.148602625532219     
  1.140000000000000E-002    0.149191978295900     
  1.150000000000000E-002    0.149733725470237     
  1.160000000000000E-002    0.150226907580917     
  1.170000000000000E-002    0.150670590902743     
  1.180000000000000E-002    0.151063867051036     
  1.190000000000000E-002    0.151405878235753     
  1.200000000000000E-002    0.151695782508456     
  1.210000000000000E-002    0.151932771982529     
  1.220000000000000E-002    0.152116085446880     
  1.230000000000000E-002    0.152245008706630     
  1.240000000000000E-002    0.152318835894442     
  1.250000000000000E-002    0.152336934598203     
  1.260000000000000E-002    0.152298703629022     
  1.270000000000000E-002    0.152203578868946     
  1.280000000000000E-002    0.152051068075320     
  1.290000000000000E-002    0.151840698520335     
  1.300000000000000E-002    0.151572073143643     
  1.310000000000000E-002    0.151244830882549     
  1.320000000000000E-002    0.150858653589733     
  1.330000000000000E-002    0.150413289201154     
  1.340000000000000E-002    0.149908536547985     
  1.350000000000000E-002    0.149344233913902     
  1.360000000000000E-002    0.148720282364784     
  1.370000000000000E-002    0.148036629968584     
  1.380000000000000E-002    0.147293281124573     
  1.390000000000000E-002    0.146490292427013     
  1.400000000000000E-002    0.145627763567643     
  1.410000000000000E-002    0.144705873311184     
  1.420000000000000E-002    0.143724845169532     
  1.430000000000000E-002    0.142684952761210     
  1.440000000000000E-002    0.141586546416323     
  1.450000000000000E-002    0.140430007045561     
  1.460000000000000E-002    0.139215785973205     
  1.470000000000000E-002    0.137944394451326     
  1.480000000000000E-002    0.136616400980881     
  1.490000000000000E-002    0.135232422238790     
  1.500000000000000E-002    0.133793129156941     
  1.510000000000000E-002    0.132299249363616     
  1.520000000000000E-002    0.130751555532649     
  1.530000000000000E-002    0.129150878436214     
  1.540000000000000E-002    0.127498085843241     
  1.550000000000000E-002    0.125794100068472     
  1.560000000000000E-002    0.124039888666206     
  1.570000000000000E-002    0.122236458274114     
  1.580000000000000E-002    0.120384858366102     
  1.590000000000000E-002    0.118486177549586     
  1.600000000000000E-002    0.116541550404153     
  1.610000000000000E-002    0.114552137383052     
  1.620000000000000E-002    0.112519141470355     
  1.630000000000000E-002    0.110443798948420     
  1.640000000000000E-002    0.108327376086086     
  1.650000000000000E-002    0.106171157661486     
  1.660000000000000E-002    0.103976470441097     
  1.670000000000000E-002    0.101744642261091     
  1.680000000000000E-002    9.947703305646538E-002
  1.690000000000000E-002    9.717501814792137E-002
  1.700000000000000E-002    9.483996577960407E-002
  1.710000000000000E-002    9.247326371181910E-002
  1.720000000000000E-002    9.007630529691971E-002
  1.730000000000000E-002    8.765047480318566E-002
  1.740000000000000E-002    8.519714735468699E-002
  1.750000000000000E-002    8.271769974910412E-002
  1.760000000000000E-002    8.021349657891022E-002
  1.770000000000000E-002    7.768587606850122E-002
  1.780000000000000E-002    7.513616087813907E-002
  1.790000000000000E-002    7.256565738408119E-002
  1.800000000000000E-002    6.997563134702012E-002
  1.810000000000000E-002    6.736731885212853E-002
  1.820000000000000E-002    6.474191424398659E-002
  1.830000000000000E-002    6.210057407293962E-002
  1.840000000000000E-002    5.944440821982656E-002
  1.850000000000000E-002    5.677446526409667E-002
  1.860000000000000E-002    5.409174235519802E-002
  1.870000000000000E-002    5.139716903543221E-002