 -4.000000000000000E-002    0.000000000000000E+000
 -3.990000000000000E-002    0.000000000000000E+000
 -3.980000000000000E-002    0.000000000000000E+000
 -3.970000000000000E-002    0.000000000000000E+000
 -3.960000000000000E-002    0.000000000000000E+000
 -3.950000000000000E-002    0.000000000000000E+000
 -3.940000000000000E-002    0.000000000000000E+000
 -3.930000000000000E-002    0.000000000000000E+000
 -3.920000000000000E-002    0.000000000000000E+000
 -3.910000000000000E-002    0.000000000000000E+000
 -3.900000000000000E-002    0.000000000000000E+000
 -3.890000000000000E-002    0.000000000000000E+000
 -3.880000000000000E-002    0.000000000000000E+000
 -3.870000000000000E-002    0.000000000000000E+000
 -3.860000000000000E-002    0.000000000000000E+000
 -3.850000000000000E-002    0.000000000000000E+000
 -3.840000000000000E-002    0.000000000000000E+000
 -3.830000000000000E-002    0.000000000000000E+000
 -3.820000000000000E-002    0.000000000000000E+000
 -3.810000000000000E-002    0.000000000000000E+000
 -3.800000000000000E-002    0.000000000000000E+000
 -3.790000000000000E-002    0.000000000000000E+000
 -3.780000000000000E-002    0.000000000000000E+000
 -3.770000000000000E-002    0.000000000000000E+000
 -3.760000000000000E-002    0.000000000000000E+000
 -3.750000000000000E-002    0.000000000000000E+000
 -3.740000000000000E-002    0.000000000000000E+000
 -3.730000000000000E-002    0.000000000000000E+000
 -3.720000000000000E-002    0.000000000000000E+000
 -3.710000000000000E-002    0.000000000000000E+000
 -3.700000000000000E-002    0.000000000000000E+000
 -3.690000000000000E-002    0.000000000000000E+000
 -3.680000000000000E-002    0.000000000000000E+000
 -3.670000000000000E-002    0.000000000000000E+000
 -3.660000000000000E-002    0.000000000000000E+000
 -3.650000000000000E-002    0.000000000000000E+000
 -3.640000000000000E-002    0.000000000000000E+000
 -3.630000000000000E-002    0.000000000000000E+000
 -3.620000000000000E-002    0.000000000000000E+000
 -3.610000000000000E-002    0.000000000000000E+000
 -3.600000000000000E-002    0.000000000000000E+000
 -3.590000000000000E-002    0.000000000000000E+000
 -3.580000000000000E-002    0.000000000000000E+000
 -3.570000000000000E-002    0.000000000000000E+000
 -3.560000000000000E-002    0.000000000000000E+000
 -3.550000000000000E-002    0.000000000000000E+000
 -3.540000000000000E-002    0.000000000000000E+000
 -3.530000000000000E-002    0.000000000000000E+000
 -3.520000000000000E-002    0.000000000000000E+000
 -3.510000000000000E-002    0.000000000000000E+000
 -3.500000000000000E-002    0.000000000000000E+000
 -3.490000000000000E-002    0.000000000000000E+000
 -3.480000000000000E-002    0.000000000000000E+000
 -3.470000000000000E-002    0.000000000000000E+000
 -3.460000000000000E-002    0.000000000000000E+000
 -3.450000000000000E-002    0.000000000000000E+000
 -3.440000000000000E-002    0.000000000000000E+000
 -3.430000000000000E-002    0.000000000000000E+000
 -3.420000000000000E-002    0.000000000000000E+000
 -3.410000000000000E-002    0.000000000000000E+000
 -3.400000000000000E-002    0.000000000000000E+000
 -3.390000000000000E-002    0.000000000000000E+000
 -3.380000000000000E-002    0.000000000000000E+000
 -3.370000000000000E-002    0.000000000000000E+000
 -3.360000000000000E-002    0.000000000000000E+000
 -3.350000000000000E-002    0.000000000000000E+000
 -3.340000000000000E-002    0.000000000000000E+000
 -3.330000000000000E-002    0.000000000000000E+000
 -3.320000000000000E-002    0.000000000000000E+000
 -3.310000000000000E-002    0.000000000000000E+000
 -3.300000000000000E-002    0.000000000000000E+000
 -3.290000000000000E-002    0.000000000000000E+000
 -3.280000000000000E-002    0.000000000000000E+000
 -3.270000000000000E-002    0.000000000000000E+000
 -3.260000000000000E-002    0.000000000000000E+000
 -3.250000000000000E-002    0.000000000000000E+000
 -3.240000000000000E-002    0.000000000000000E+000
 -3.230000000000000E-002    0.000000000000000E+000
 -3.220000000000000E-002    0.000000000000000E+000
 -3.210000000000000E-002    0.000000000000000E+000
 -3.200000000000000E-002    0.000000000000000E+000
 -3.190000000000000E-002    0.000000000000000E+000
 -3.180000000000000E-002    0.000000000000000E+000
 -3.170000000000000E-002    0.000000000000000E+000
 -3.160000000000000E-002    0.000000000000000E+000
 -3.150000000000000E-002    0.000000000000000E+000
 -3.140000000000000E-002    0.000000000000000E+000
 -3.130000000000000E-002    0.000000000000000E+000
 -3.120000000000000E-002    0.000000000000000E+000
 -3.110000000000000E-002    0.000000000000000E+000
 -3.100000000000000E-002    0.000000000000000E+000
 -3.090000000000000E-002    0.000000000000000E+000
 -3.080000000000000E-002    0.000000000000000E+000
 -3.070000000000000E-002    0.000000000000000E+000
 -3.060000000000000E-002    0.000000000000000E+000
 -3.050000000000000E-002    0.000000000000000E+000
 -3.040000000000000E-002    0.000000000000000E+000
 -3.030000000000000E-002    0.000000000000000E+000
 -3.020000000000000E-002    0.000000000000000E+000
 -3.010000000000000E-002    0.000000000000000E+000
 -3.000000000000000E-002    0.000000000000000E+000
 -2.990000000000000E-002    0.000000000000000E+000
 -2.980000000000000E-002    0.000000000000000E+000
 -2.970000000000000E-002    0.000000000000000E+000
 -2.960000000000000E-002    0.000000000000000E+000
 -2.950000000000000E-002    0.000000000000000E+000
 -2.940000000000000E-002    0.000000000000000E+000
 -2.930000000000000E-002    0.000000000000000E+000
 -2.920000000000000E-002    0.000000000000000E+000
 -2.910000000000000E-002    0.000000000000000E+000
 -2.900000000000000E-002    0.000000000000000E+000
 -2.890000000000000E-002    0.000000000000000E+000
 -2.880000000000000E-002    0.000000000000000E+000
 -2.870000000000000E-002    0.000000000000000E+000
 -2.860000000000000E-002    0.000000000000000E+000
 -2.850000000000000E-002    0.000000000000000E+000
 -2.840000000000000E-002    0.000000000000000E+000
 -2.830000000000000E-002    0.000000000000000E+000
 -2.820000000000000E-002    0.000000000000000E+000
 -2.810000000000000E-002    0.000000000000000E+000
 -2.800000000000000E-002    0.000000000000000E+000
 -2.790000000000000E-002    0.000000000000000E+000
 -2.780000000000000E-002    0.000000000000000E+000
 -2.770000000000000E-002    0.000000000000000E+000
 -2.760000000000000E-002    0.000000000000000E+000
 -2.750000000000000E-002    0.000000000000000E+000
 -2.740000000000000E-002    0.000000000000000E+000
 -2.730000000000000E-002    0.000000000000000E+000
 -2.720000000000000E-002    0.000000000000000E+000
 -2.710000000000000E-002    0.000000000000000E+000
 -2.700000000000000E-002    0.000000000000000E+000
 -2.690000000000000E-002    0.000000000000000E+000
 -2.680000000000000E-002    0.000000000000000E+000
 -2.670000000000000E-002    0.000000000000000E+000
 -2.660000000000000E-002    0.000000000000000E+000
 -2.650000000000000E-002    0.000000000000000E+000
 -2.640000000000000E-002    0.000000000000000E+000
 -2.630000000000000E-002    0.000000000000000E+000
 -2.620000000000000E-002    0.000000000000000E+000
 -2.610000000000000E-002    0.000000000000000E+000
 -2.600000000000000E-002    0.000000000000000E+000
 -2.590000000000000E-002    0.000000000000000E+000
 -2.580000000000000E-002    0.000000000000000E+000
 -2.570000000000000E-002    0.000000000000000E+000
 -2.560000000000000E-002    0.000000000000000E+000
 -2.550000000000000E-002    0.000000000000000E+000
 -2.540000000000000E-002    0.000000000000000E+000
 -2.530000000000000E-002    0.000000000000000E+000
 -2.520000000000000E-002    0.000000000000000E+000
 -2.510000000000000E-002    0.000000000000000E+000
 -2.500000000000000E-002    0.000000000000000E+000
 -2.490000000000000E-002    0.000000000000000E+000
 -2.480000000000000E-002    0.000000000000000E+000
 -2.470000000000000E-002    0.000000000000000E+000
 -2.460000000000000E-002    0.000000000000000E+000
 -2.450000000000000E-002    0.000000000000000E+000
 -2.440000000000000E-002    0.000000000000000E+000
 -2.430000000000000E-002    0.000000000000000E+000
 -2.420000000000000E-002    0.000000000000000E+000
 -2.410000000000000E-002    0.000000000000000E+000
 -2.400000000000000E-002    0.000000000000000E+000
 -2.390000000000000E-002    0.000000000000000E+000
 -2.380000000000000E-002    0.000000000000000E+000
 -2.370000000000000E-002    0.000000000000000E+000
 -2.360000000000000E-002    0.000000000000000E+000
 -2.350000000000000E-002    0.000000000000000E+000
 -2.340000000000000E-002    0.000000000000000E+000
 -2.330000000000000E-002    0.000000000000000E+000
 -2.320000000000000E-002    0.000000000000000E+000
 -2.310000000000000E-002    0.000000000000000E+000
 -2.300000000000000E-002    0.000000000000000E+000
 -2.290000000000000E-002    0.000000000000000E+000
 -2.280000000000000E-002    0.000000000000000E+000
 -2.270000000000000E-002    0.000000000000000E+000
 -2.260000000000000E-002    0.000000000000000E+000
 -2.250000000000000E-002    0.000000000000000E+000
 -2.240000000000000E-002    0.000000000000000E+000
 -2.230000000000000E-002    0.000000000000000E+000
 -2.220000000000000E-002    0.000000000000000E+000
 -2.210000000000000E-002    0.000000000000000E+000
 -2.200000000000000E-002    0.000000000000000E+000
 -2.190000000000000E-002    0.000000000000000E+000
 -2.180000000000000E-002    0.000000000000000E+000
 -2.170000000000000E-002    0.000000000000000E+000
 -2.160000000000000E-002    0.000000000000000E+000
 -2.150000000000000E-002    0.000000000000000E+000
 -2.140000000000000E-002    0.000000000000000E+000
 -2.130000000000000E-002    0.000000000000000E+000
 -2.120000000000000E-002    0.000000000000000E+000
 -2.110000000000000E-002    0.000000000000000E+000
 -2.100000000000000E-002    0.000000000000000E+000
 -2.090000000000000E-002    0.000000000000000E+000
 -2.080000000000000E-002    0.000000000000000E+000
 -2.070000000000000E-002    0.000000000000000E+000
 -2.060000000000000E-002    0.000000000000000E+000
 -2.050000000000000E-002    0.000000000000000E+000
 -2.040000000000000E-002    0.000000000000000E+000
 -2.030000000000000E-002    0.000000000000000E+000
 -2.020000000000000E-002    0.000000000000000E+000
 -2.010000000000000E-002    0.000000000000000E+000
 -2.000000000000000E-002    0.000000000000000E+000
 -1.990000000000000E-002    0.000000000000000E+000
 -1.980000000000000E-002    0.000000000000000E+000
 -1.970000000000000E-002    0.000000000000000E+000
 -1.960000000000000E-002    0.000000000000000E+000
 -1.950000000000000E-002    0.000000000000000E+000
 -1.940000000000000E-002   -1.924390591266381E-047
 -1.930000000000000E-002   -4.490244712954889E-047
 -1.920000000000000E-002   -2.349758647888378E-046
 -1.910000000000000E-002   -4.250492824481268E-046
 -1.900000000000000E-002   -6.151227001074157E-046
 -1.890000000000000E-002   -7.859522118540409E-046
 -1.880000000000000E-002   -9.311231823837809E-046
 -1.870000000000000E-002   -9.249087597338990E-046
 -1.860000000000000E-002   -7.093770135120643E-046
 -1.850000000000000E-002   -1.650155144054220E-046
 -1.840000000000000E-002    8.045954798036866E-046
 -1.830000000000000E-002    2.322256062154141E-045
 -1.820000000000000E-002    5.505468773126181E-045
 -1.810000000000000E-002    9.108077461352973E-045
 -1.800000000000000E-002    1.178016957568713E-044
 -1.790000000000000E-002    1.416909571437687E-044
 -1.780000000000000E-002    1.468375303883610E-044
 -1.770000000000000E-002    1.366598251122269E-044
 -1.760000000000000E-002    9.861903200759822E-045
 -1.750000000000000E-002    7.599010992101603E-046
 -1.740000000000000E-002   -1.378672338961107E-044
 -1.730000000000000E-002   -3.402554796630709E-044
 -1.720000000000000E-002   -5.958289823045453E-044
 -1.710000000000000E-002   -8.977795524654237E-044
 -1.700000000000000E-002   -1.209991727178307E-043
 -1.690000000000000E-002   -1.485502096986812E-043
 -1.680000000000000E-002   -1.663044898008174E-043
 -1.670000000000000E-002   -1.661128950187617E-043
 -1.660000000000000E-002   -1.359779398635865E-043
 -1.650000000000000E-002   -6.578476507715763E-044
 -1.640000000000000E-002    5.530705742151343E-044
 -1.630000000000000E-002    2.328192322790965E-043
 -1.620000000000000E-002    4.678404232222560E-043
 -1.610000000000000E-002    7.498943772620235E-043
 -1.600000000000000E-002    1.056202424487476E-042
 -1.590000000000000E-002    1.346149282240669E-042
 -1.580000000000000E-002    1.559788018631688E-042
 -1.570000000000000E-002    1.621577376989298E-042
 -1.560000000000000E-002    1.440779444555270E-042
 -1.550000000000000E-002    9.195456870213575E-043
 -1.540000000000000E-002   -3.096268784459749E-044
 -1.530000000000000E-002   -1.471167342644921E-042
 -1.520000000000000E-002   -3.409653695109863E-042
 -1.510000000000000E-002   -5.776482484002802E-042
 -1.500000000000000E-002   -8.389801080644039E-042
 -1.490000000000000E-002   -1.093677904820351E-041
 -1.480000000000000E-002   -1.295462666492517E-041
 -1.470000000000000E-002   -1.384075230923455E-041
 -1.460000000000000E-002   -1.288096532219229E-041
 -1.450000000000000E-002   -9.316062323460644E-042
 -1.440000000000000E-002   -2.449292124812559E-042
 -1.430000000000000E-002    8.206334891445689E-042
 -1.420000000000000E-002    2.274491362626549E-041
 -1.410000000000000E-002    4.065857267881542E-041
 -1.400000000000000E-002    6.063453070316761E-041
 -1.390000000000000E-002    8.038470406877061E-041
 -1.380000000000000E-002    9.655879635918645E-041
 -1.370000000000000E-002    1.048007198016941E-040
 -1.360000000000000E-002    9.999006164790384E-041
 -1.350000000000000E-002    7.673081123653051E-041
 -1.340000000000000E-002    3.011810474965001E-041
 -1.330000000000000E-002   -4.322754260721934E-041
 -1.320000000000000E-002   -1.438859897599190E-040
 -1.310000000000000E-002   -2.682455903730597E-040
 -1.300000000000000E-002   -4.071586486385010E-040
 -1.290000000000000E-002   -5.448895272870207E-040
 -1.280000000000000E-002   -6.586755736901342E-040
 -1.270000000000000E-002   -7.192370083280762E-040
 -1.260000000000000E-002   -6.925916965141065E-040
 -1.250000000000000E-002   -5.434629770243107E-040
 -1.240000000000000E-002   -2.404360746175700E-040
 -1.230000000000000E-002    2.372034763815869E-040
 -1.220000000000000E-002    8.913162438857926E-040
 -1.210000000000000E-002    1.696194191123891E-039
 -1.200000000000000E-002    2.590464746740666E-039
 -1.190000000000000E-002    3.471198382983688E-039
 -1.180000000000000E-002    4.192162007997553E-039
 -1.170000000000000E-002    4.568315286978862E-039
 -1.160000000000000E-002    4.388542277598526E-039
 -1.150000000000000E-002    3.438145850403059E-039
 -1.140000000000000E-002    1.531686425770196E-039
 -1.130000000000000E-002   -1.444659023904558E-039
 -1.120000000000000E-002   -5.483960220901536E-039
 -1.110000000000000E-002   -1.040762331684823E-038
 -1.100000000000000E-002   -1.582013059972764E-038
 -1.090000000000000E-002   -2.107909097798384E-038
 -1.080000000000000E-002   -2.529191931885394E-038
 -1.070000000000000E-002   -2.735091977238384E-038
 -1.060000000000000E-002   -2.601738227527202E-038
 -1.050000000000000E-002   -2.006189092283950E-038
 -1.040000000000000E-002   -8.462067436803729E-039
 -1.030000000000000E-002    9.349651925425001E-039
 -1.020000000000000E-002    3.320666807122325E-038
 -1.010000000000000E-002    6.192833684688614E-038
 -1.000000000000000E-002    9.308354251525158E-038
 -9.899999999999999E-003    1.228528272041934E-037
 -9.800000000000000E-003    1.460511675503832E-037
 -9.699999999999999E-003    1.563734610926546E-037
 -9.599999999999999E-003    1.469151244040984E-037
 -9.500000000000000E-003    1.109979253775502E-037
 -9.399999999999999E-003    4.329596845913365E-038
 -9.299999999999999E-003   -5.879260734544101E-038
 -9.200000000000000E-003   -1.936424481355759E-037
 -9.099999999999999E-003   -3.539467458196906E-037
 -8.999999999999999E-003   -5.255563366913190E-037
 -8.900000000000000E-003   -6.869079306089465E-037
 -8.799999999999999E-003   -8.093629743973883E-037
 -8.699999999999999E-003   -8.587641355102202E-037
 -8.600000000000000E-003   -7.984497226423740E-037
 -8.499999999999999E-003   -5.938355223886817E-037
 -8.399999999999999E-003   -2.184761351288870E-037
 -8.300000000000000E-003    3.387427923604074E-037
 -8.199999999999999E-003    1.065936954400583E-036
 -8.100000000000000E-003    1.921060726985300E-036
 -8.000000000000000E-003    2.826529327304524E-036
 -7.899999999999999E-003    3.667120768078825E-036
 -7.800000000000000E-003    4.292727864814228E-036
 -7.699999999999999E-003    4.527390159914626E-036
 -7.599999999999999E-003    4.185629968926792E-036
 -7.499999999999999E-003    3.096398304869936E-036
 -7.399999999999999E-003    1.133918734578769E-036
 -7.299999999999999E-003   -1.746597218833503E-036
 -7.199999999999999E-003   -5.471857454030422E-036
 -7.100000000000000E-003   -9.817019861103705E-036
 -6.999999999999999E-003   -1.438215225356242E-035
 -6.899999999999999E-003   -1.858576400716369E-035
 -6.800000000000000E-003   -2.168263968146540E-035
 -6.699999999999999E-003   -2.281223863952790E-035
 -6.599999999999999E-003   -2.108168919038090E-035
 -6.499999999999999E-003   -1.568376004545113E-035
 -6.399999999999999E-003   -6.045183443379000E-036
 -6.299999999999999E-003    8.005406900795320E-036
 -6.199999999999999E-003    2.606738362024529E-035
 -6.100000000000000E-003    4.701985509332554E-035
 -5.999999999999999E-003    6.892452674682518E-035
 -5.899999999999999E-003    8.901190168631758E-035
 -5.800000000000000E-003    1.037822294341700E-034
 -5.699999999999999E-003    1.092470034182200E-034
 -5.599999999999999E-003    1.013253797166570E-034
 -5.499999999999999E-003    7.639255049788226E-035
 -5.399999999999999E-003    3.195415812703651E-035
 -5.299999999999999E-003   -3.260638775678738E-035
 -5.199999999999999E-003   -1.152894020037040E-034
 -5.099999999999999E-003   -2.108577361232650E-034
 -4.999999999999999E-003   -3.104615290542246E-034
 -4.899999999999999E-003   -4.016460062090306E-034
 -4.799999999999999E-003   -4.688710770724938E-034
 -4.699999999999999E-003   -4.946417723194982E-034
 -4.599999999999999E-003   -4.612947495873091E-034
 -4.499999999999999E-003   -3.534083146370964E-034
 -4.399999999999999E-003   -1.607032584597159E-034
 -4.299999999999999E-003    1.188105959334985E-034
 -4.199999999999999E-003    4.758040083041880E-034
 -4.099999999999999E-003    8.871778604215306E-034
 -3.999999999999999E-003    1.314726472341044E-033
 -3.899999999999999E-003    1.705465868049019E-033
 -3.799999999999999E-003    1.994123004517503E-033
 -3.699999999999999E-003    2.108138445142839E-033
 -3.599999999999999E-003    1.975296140242343E-033
 -3.499999999999999E-003    1.533761482917954E-033
 -3.399999999999999E-003    7.439033650487649E-034
 -3.299999999999999E-003   -3.991746984047710E-034
 -3.199999999999999E-003   -1.853908812242631E-033
 -3.099999999999999E-003   -3.523234230202299E-033
 -2.999999999999999E-003   -5.250329000601043E-033
 -2.899999999999999E-003   -6.821235757899712E-033
 -2.799999999999999E-003   -7.976147494545214E-033
 -2.699999999999999E-003   -8.430502524752038E-033
 -2.599999999999999E-003   -7.906023813608221E-033
 -2.499999999999999E-003   -6.170499267775246E-033
 -2.399999999999999E-003   -3.083519982296314E-033
 -2.299999999999999E-003    1.356292131952201E-033
 -2.199999999999999E-003    6.968604344390249E-033
 -2.099999999999999E-003    1.336049845885217E-032
 -1.999999999999999E-003    1.991523096834233E-032
 -1.899999999999999E-003    2.580812087960035E-032
 -1.799999999999999E-003    3.005558489142919E-032
 -1.699999999999999E-003    3.160056178109280E-032
 -1.599999999999999E-003    2.943355609484925E-032
 -1.499999999999999E-003    2.274334595925485E-032
 -1.399999999999999E-003    1.108558786547310E-032
 -1.299999999999999E-003   -5.448471295395245E-033
 -1.199999999999999E-003   -2.608622496543968E-032
 -1.099999999999999E-003   -4.927762319014305E-032
 -9.999999999999989E-004   -7.267658292220745E-032
 -8.999999999999990E-004   -9.322521460044812E-032
 -7.999999999999990E-004   -1.073595518091834E-031
 -6.999999999999989E-004   -1.113442201688360E-031
 -5.999999999999990E-004   -1.017279282853274E-031
 -4.999999999999989E-004   -7.589274088398054E-032
 -3.999999999999989E-004   -3.264934574306087E-032
 -2.999999999999989E-004    2.718972999113420E-032
 -1.999999999999989E-004    1.003436605413699E-031
 -9.999999999999892E-005    1.807982075027578E-031
  1.084202172485504E-018    2.598362547704846E-031
  1.000000000000011E-004    3.264450460854775E-031
  2.000000000000011E-004    3.681527512931472E-031
  3.000000000000011E-004    3.723033105012662E-031
  4.000000000000011E-004    3.277213529094281E-031
  5.000000000000011E-004    2.266512079194315E-031
  6.000000000000011E-004    6.678392158782833E-032
  7.000000000000011E-004   -1.468792288340175E-031
  8.000000000000011E-004   -4.006275870670061E-031
  9.000000000000012E-004   -6.714293327692027E-031
  1.000000000000001E-003   -9.274142685613994E-031
  1.100000000000001E-003   -1.129696332360657E-030
  1.200000000000001E-003   -1.235667495739712E-030
  1.300000000000001E-003   -1.203731623263080E-030
  1.400000000000001E-003   -9.992419604237789E-031
  1.500000000000001E-003   -6.011749745948475E-031
  1.600000000000001E-003   -8.841967591365915E-033
  1.700000000000001E-003    7.522617824953748E-031
  1.800000000000001E-003    1.626507475332252E-030
  1.900000000000001E-003    2.527151350650083E-030
  2.000000000000001E-003    3.339289510050675E-030
  2.100000000000001E-003    3.927453354846491E-030
  2.200000000000001E-003    4.148119969856750E-030
  2.300000000000001E-003    3.866826388910762E-030
  2.400000000000001E-003    2.978868278950111E-030
  2.500000000000001E-003    1.431795315423586E-030
  2.600000000000001E-003   -7.528167207012202E-031
  2.700000000000001E-003   -3.461442156305317E-030
  2.800000000000001E-003   -6.478000646015422E-030
  2.900000000000001E-003   -9.484019335083316E-030
  3.000000000000001E-003   -1.207252216133313E-029
  3.100000000000001E-003   -1.377758905081426E-029
  3.200000000000001E-003   -1.411996136821924E-029
  3.300000000000001E-003   -1.266706327271675E-029
  3.400000000000001E-003   -9.103423216964793E-030
  3.500000000000001E-003   -3.305024352253144E-030
  3.600000000000001E-003    4.591166390610311E-030
  3.700000000000001E-003    1.413297957120853E-029
  3.800000000000001E-003    2.452543738092699E-029
  3.900000000000001E-003    3.464061219424044E-029
  4.000000000000001E-003    4.307378585665507E-029
  4.100000000000001E-003    4.825107175024370E-029
  4.200000000000001E-003    4.858829458803824E-029
  4.300000000000001E-003    4.269417119156230E-029
  4.400000000000001E-003    2.960323625651587E-029
  4.500000000000001E-003    9.016231525074469E-030
  4.600000000000002E-003   -1.848121024714076E-029
  4.700000000000001E-003   -5.125556178385449E-029
  4.800000000000001E-003   -8.655383470636218E-029
  4.900000000000002E-003   -1.205566959918352E-028
  5.000000000000001E-003   -1.485822140457986E-028
  5.100000000000001E-003   -1.654534625838841E-028
  5.200000000000001E-003   -1.660257683576795E-028
  5.300000000000002E-003   -1.458477295593983E-028
  5.400000000000001E-003   -1.019064484589832E-028
  5.500000000000001E-003   -3.338411493845882E-029
  5.600000000000002E-003    5.766718308794284E-029
  5.700000000000001E-003    1.658386019167973E-028
  5.800000000000001E-003    2.821750433415533E-028
  5.900000000000002E-003    3.943822700603904E-028
  6.000000000000001E-003    4.875049506372003E-028
  6.100000000000001E-003    5.451089784921871E-028
  6.200000000000002E-003    5.509465230911638E-028
  6.300000000000002E-003    4.910161067123433E-028
  6.400000000000001E-003    3.558587722314300E-028
  6.500000000000001E-003    1.428632160696783E-028
  6.600000000000002E-003   -1.417049123597130E-028
  6.700000000000001E-003   -4.812689000747054E-028
  6.800000000000001E-003   -8.484250742597072E-028
  6.900000000000002E-003   -1.205632781437529E-027
  7.000000000000001E-003   -1.507317112456711E-027
  7.100000000000001E-003   -1.703466701256599E-027
  7.200000000000002E-003   -1.744642379108826E-027
  7.300000000000002E-003   -1.588120132807946E-027
  7.400000000000001E-003   -1.204684237706384E-027
  7.500000000000001E-003   -5.853931388849856E-028
  7.600000000000002E-003    2.525150767299038E-028
  7.700000000000001E-003    1.261502315930278E-027
  7.800000000000001E-003    2.362315141033666E-027
  7.900000000000001E-003    3.446075920104599E-027
  8.000000000000002E-003    4.380443805481847E-027
  8.100000000000001E-003    5.020033270300478E-027
  8.200000000000001E-003    5.220810014047221E-027
  8.300000000000002E-003    4.857629013301398E-027
  8.400000000000001E-003    3.843510723384015E-027
  8.500000000000002E-003    2.148719684255919E-027
  8.600000000000002E-003   -1.827030828884523E-028
  8.700000000000001E-003   -3.021520089519310E-027
  8.800000000000002E-003   -6.149512407546449E-027
  8.900000000000002E-003   -9.265491332737676E-027
  9.000000000000001E-003   -1.200256135185350E-026
  9.100000000000002E-003   -1.395704889757222E-026
  9.200000000000002E-003   -1.472820048674280E-026
  9.300000000000001E-003   -1.396625610700974E-026
  9.400000000000002E-003   -1.142496111011538E-026
  9.500000000000001E-003   -7.013199966679997E-027
  9.600000000000001E-003   -8.393868068924897E-028
  9.700000000000002E-003    6.758267798116850E-027
  9.800000000000001E-003    1.520225995971426E-026
  9.900000000000001E-003    2.369265648666257E-026
  1.000000000000000E-002    3.125393685454519E-026
  1.010000000000000E-002    3.681259581749570E-026
  1.020000000000000E-002    3.930277221314654E-026
  1.030000000000000E-002    3.779324348710791E-026
  1.040000000000000E-002    3.162514321083759E-026
  1.050000000000000E-002    2.054626875276170E-026
  1.060000000000000E-002    4.825275630485447E-027
  1.070000000000000E-002   -1.467200028044605E-026
  1.080000000000000E-002   -3.646100471106585E-026
  1.090000000000000E-002   -5.848559770859344E-026
  1.100000000000000E-002   -7.824238064049688E-026
  1.110000000000000E-002   -9.298327969035902E-026
  1.120000000000000E-002   -9.998835914388401E-026
  1.130000000000000E-002   -9.689072407391142E-026
  1.140000000000000E-002   -8.202561818412076E-026
  1.150000000000000E-002   -5.476713200279588E-026
  1.160000000000000E-002   -1.581012334887547E-026
  1.170000000000000E-002    3.264712940318285E-026
  1.180000000000000E-002    8.686109496396809E-026
  1.190000000000000E-002    1.416751078125346E-025
  1.200000000000000E-002    1.908443964161535E-025
  1.210000000000000E-002    2.275539817935381E-025
  1.220000000000000E-002    2.451062058508426E-025
  1.230000000000000E-002    2.377300169931990E-025
  1.240000000000000E-002    2.014400910829922E-025
  1.250000000000000E-002    1.348539515321108E-025
  1.260000000000000E-002    3.986191013682236E-026
  1.270000000000000E-002   -7.795811909013663E-026
  1.280000000000000E-002   -2.092800269060213E-025
  1.290000000000000E-002   -3.413991414831359E-025
  1.300000000000000E-002   -4.590718636696239E-025
  1.310000000000000E-002   -5.458171708322440E-025
  1.320000000000000E-002   -5.856150270719870E-025
  1.330000000000000E-002   -5.648773935661404E-025
  1.340000000000000E-002   -4.745109538259501E-025
  1.350000000000000E-002   -3.118453043993926E-025
  1.360000000000000E-002   -8.217269469959119E-026
  1.370000000000000E-002    2.003573420848853E-025
  1.380000000000000E-002    5.127168725783848E-025
  1.390000000000000E-002    8.240213717755599E-025
  1.400000000000000E-002    1.097671294806203E-024
  1.410000000000000E-002    1.294573275052844E-024
  1.420000000000000E-002    1.377264342822995E-024
  1.430000000000000E-002    1.314622521838743E-024
  1.440000000000000E-002    1.086718428725828E-024
  1.450000000000000E-002    6.892609753827365E-025
  1.460000000000000E-002    1.370362892398561E-025
  1.470000000000000E-002   -5.342546180474502E-025
  1.480000000000000E-002   -1.268276535489593E-024
  1.490000000000000E-002   -1.990821415222876E-024
  1.500000000000000E-002   -2.615188352071888E-024
  1.510000000000000E-002   -3.050034669643565E-024
  1.520000000000000E-002   -3.209233613439264E-024
  1.530000000000000E-002   -3.022948944997627E-024
  1.540000000000000E-002   -2.448848577336956E-024
  1.550000000000000E-002   -1.482163465692395E-024
  1.560000000000000E-002   -1.631940577005691E-025
  1.570000000000000E-002    1.419087355398114E-024
  1.580000000000000E-002    3.128481184541941E-024
  1.590000000000000E-002    4.788809031996428E-024
  1.600000000000000E-002    6.197179876447671E-024
  1.610000000000000E-002    7.142816923560951E-024
  1.620000000000000E-002    7.430255648424836E-024
  1.630000000000000E-002    6.904988721259746E-024
  1.640000000000000E-002    5.479000314685495E-024
  1.650000000000000E-002    3.153178837745352E-024
  1.660000000000000E-002    3.342036474937964E-026
  1.670000000000000E-002   -3.662605386659573E-024
  1.680000000000000E-002   -7.610504600618720E-024
  1.690000000000000E-002   -1.139756824477358E-023
  1.700000000000000E-002   -1.455479717022140E-023
  1.710000000000000E-002   -1.660125793098865E-023
  1.720000000000000E-002   -1.709781182985363E-023
  1.730000000000000E-002   -1.570564337496058E-023
  1.740000000000000E-002   -1.224363091903379E-023
  1.750000000000000E-002   -6.737675122530604E-024
  1.760000000000000E-002    5.451666564218169E-025
  1.770000000000000E-002    9.084418940240530E-024
  1.780000000000000E-002    1.812109456698473E-023
  1.790000000000000E-002    2.670286596471972E-023
  1.800000000000000E-002    3.375960412414265E-023
  1.810000000000000E-002    3.820590527467281E-023
  1.820000000000000E-002    3.906351484422578E-023
  1.830000000000000E-002    3.559296845476855E-023
  1.840000000000000E-002    2.742089051789540E-023
  1.850000000000000E-002    1.464750142289164E-023
  1.860000000000000E-002   -2.081518249981861E-024
  1.870000000000000E-002   -2.155329487091992E-023