 -4.000000000000000E-002    0.000000000000000E+000
 -3.990000000000000E-002    0.000000000000000E+000
 -3.980000000000000E-002    0.000000000000000E+000
 -3.970000000000000E-002    0.000000000000000E+000
 -3.960000000000000E-002    0.000000000000000E+000
 -3.950000000000000E-002    0.000000000000000E+000
 -3.940000000000000E-002    0.000000000000000E+000
 -3.930000000000000E-002    0.000000000000000E+000
 -3.920000000000000E-002    0.000000000000000E+000
 -3.910000000000000E-002    0.000000000000000E+000
 -3.900000000000000E-002    0.000000000000000E+000
 -3.890000000000000E-002    0.000000000000000E+000
 -3.880000000000000E-002    0.000000000000000E+000
 -3.870000000000000E-002    0.000000000000000E+000
 -3.860000000000000E-002    0.000000000000000E+000
 -3.850000000000000E-002    0.000000000000000E+000
 -3.840000000000000E-002    0.000000000000000E+000
 -3.830000000000000E-002    0.000000000000000E+000
 -3.820000000000000E-002    0.000000000000000E+000
 -3.810000000000000E-002    0.000000000000000E+000
 -3.800000000000000E-002    0.000000000000000E+000
 -3.790000000000000E-002    0.000000000000000E+000
 -3.780000000000000E-002    0.000000000000000E+000
 -3.770000000000000E-002    0.000000000000000E+000
 -3.760000000000000E-002    0.000000000000000E+000
 -3.750000000000000E-002    0.000000000000000E+000
 -3.740000000000000E-002    0.000000000000000E+000
 -3.730000000000000E-002    0.000000000000000E+000
 -3.720000000000000E-002    0.000000000000000E+000
 -3.710000000000000E-002    0.000000000000000E+000
 -3.700000000000000E-002    0.000000000000000E+000
 -3.690000000000000E-002    0.000000000000000E+000
 -3.680000000000000E-002    0.000000000000000E+000
 -3.670000000000000E-002    0.000000000000000E+000
 -3.660000000000000E-002    0.000000000000000E+000
 -3.650000000000000E-002    0.000000000000000E+000
 -3.640000000000000E-002    0.000000000000000E+000
 -3.630000000000000E-002    0.000000000000000E+000
 -3.620000000000000E-002    0.000000000000000E+000
 -3.610000000000000E-002    0.000000000000000E+000
 -3.600000000000000E-002    0.000000000000000E+000
 -3.590000000000000E-002    0.000000000000000E+000
 -3.580000000000000E-002    0.000000000000000E+000
 -3.570000000000000E-002    0.000000000000000E+000
 -3.560000000000000E-002    0.000000000000000E+000
 -3.550000000000000E-002    0.000000000000000E+000
 -3.540000000000000E-002    0.000000000000000E+000
 -3.530000000000000E-002    0.000000000000000E+000
 -3.520000000000000E-002    0.000000000000000E+000
 -3.510000000000000E-002    0.000000000000000E+000
 -3.500000000000000E-002    0.000000000000000E+000
 -3.490000000000000E-002    0.000000000000000E+000
 -3.480000000000000E-002    0.000000000000000E+000
 -3.470000000000000E-002    0.000000000000000E+000
 -3.460000000000000E-002    0.000000000000000E+000
 -3.450000000000000E-002    0.000000000000000E+000
 -3.440000000000000E-002    0.000000000000000E+000
 -3.430000000000000E-002    0.000000000000000E+000
 -3.420000000000000E-002    0.000000000000000E+000
 -3.410000000000000E-002    0.000000000000000E+000
 -3.400000000000000E-002    0.000000000000000E+000
 -3.390000000000000E-002    0.000000000000000E+000
 -3.380000000000000E-002    0.000000000000000E+000
 -3.370000000000000E-002    0.000000000000000E+000
 -3.360000000000000E-002    0.000000000000000E+000
 -3.350000000000000E-002    0.000000000000000E+000
 -3.340000000000000E-002    0.000000000000000E+000
 -3.330000000000000E-002    0.000000000000000E+000
 -3.320000000000000E-002    0.000000000000000E+000
 -3.310000000000000E-002    0.000000000000000E+000
 -3.300000000000000E-002    0.000000000000000E+000
 -3.290000000000000E-002    0.000000000000000E+000
 -3.280000000000000E-002    0.000000000000000E+000
 -3.270000000000000E-002    0.000000000000000E+000
 -3.260000000000000E-002    0.000000000000000E+000
 -3.250000000000000E-002    0.000000000000000E+000
 -3.240000000000000E-002    0.000000000000000E+000
 -3.230000000000000E-002    0.000000000000000E+000
 -3.220000000000000E-002    0.000000000000000E+000
 -3.210000000000000E-002    0.000000000000000E+000
 -3.200000000000000E-002    0.000000000000000E+000
 -3.190000000000000E-002    0.000000000000000E+000
 -3.180000000000000E-002    0.000000000000000E+000
 -3.170000000000000E-002    0.000000000000000E+000
 -3.160000000000000E-002    0.000000000000000E+000
 -3.150000000000000E-002    0.000000000000000E+000
 -3.140000000000000E-002    0.000000000000000E+000
 -3.130000000000000E-002    0.000000000000000E+000
 -3.120000000000000E-002    0.000000000000000E+000
 -3.110000000000000E-002    0.000000000000000E+000
 -3.100000000000000E-002    0.000000000000000E+000
 -3.090000000000000E-002    0.000000000000000E+000
 -3.080000000000000E-002    0.000000000000000E+000
 -3.070000000000000E-002    0.000000000000000E+000
 -3.060000000000000E-002    0.000000000000000E+000
 -3.050000000000000E-002    0.000000000000000E+000
 -3.040000000000000E-002    0.000000000000000E+000
 -3.030000000000000E-002    0.000000000000000E+000
 -3.020000000000000E-002    0.000000000000000E+000
 -3.010000000000000E-002    0.000000000000000E+000
 -3.000000000000000E-002    0.000000000000000E+000
 -2.990000000000000E-002    0.000000000000000E+000
 -2.980000000000000E-002    0.000000000000000E+000
 -2.970000000000000E-002    0.000000000000000E+000
 -2.960000000000000E-002    0.000000000000000E+000
 -2.950000000000000E-002    0.000000000000000E+000
 -2.940000000000000E-002    0.000000000000000E+000
 -2.930000000000000E-002    0.000000000000000E+000
 -2.920000000000000E-002    0.000000000000000E+000
 -2.910000000000000E-002    0.000000000000000E+000
 -2.900000000000000E-002    0.000000000000000E+000
 -2.890000000000000E-002    0.000000000000000E+000
 -2.880000000000000E-002    0.000000000000000E+000
 -2.870000000000000E-002    0.000000000000000E+000
 -2.860000000000000E-002    0.000000000000000E+000
 -2.850000000000000E-002    0.000000000000000E+000
 -2.840000000000000E-002    0.000000000000000E+000
 -2.830000000000000E-002    0.000000000000000E+000
 -2.820000000000000E-002    0.000000000000000E+000
 -2.810000000000000E-002    0.000000000000000E+000
 -2.800000000000000E-002    0.000000000000000E+000
 -2.790000000000000E-002    0.000000000000000E+000
 -2.780000000000000E-002    0.000000000000000E+000
 -2.770000000000000E-002    0.000000000000000E+000
 -2.760000000000000E-002    0.000000000000000E+000
 -2.750000000000000E-002    0.000000000000000E+000
 -2.740000000000000E-002    0.000000000000000E+000
 -2.730000000000000E-002    0.000000000000000E+000
 -2.720000000000000E-002    0.000000000000000E+000
 -2.710000000000000E-002    0.000000000000000E+000
 -2.700000000000000E-002    0.000000000000000E+000
 -2.690000000000000E-002    0.000000000000000E+000
 -2.680000000000000E-002    0.000000000000000E+000
 -2.670000000000000E-002    0.000000000000000E+000
 -2.660000000000000E-002    0.000000000000000E+000
 -2.650000000000000E-002    0.000000000000000E+000
 -2.640000000000000E-002    0.000000000000000E+000
 -2.630000000000000E-002    0.000000000000000E+000
 -2.620000000000000E-002    0.000000000000000E+000
 -2.610000000000000E-002    0.000000000000000E+000
 -2.600000000000000E-002    0.000000000000000E+000
 -2.590000000000000E-002    0.000000000000000E+000
 -2.580000000000000E-002    0.000000000000000E+000
 -2.570000000000000E-002    0.000000000000000E+000
 -2.560000000000000E-002    0.000000000000000E+000
 -2.550000000000000E-002    0.000000000000000E+000
 -2.540000000000000E-002    0.000000000000000E+000
 -2.530000000000000E-002    0.000000000000000E+000
 -2.520000000000000E-002    0.000000000000000E+000
 -2.510000000000000E-002    0.000000000000000E+000
 -2.500000000000000E-002    0.000000000000000E+000
 -2.490000000000000E-002    0.000000000000000E+000
 -2.480000000000000E-002    0.000000000000000E+000
 -2.470000000000000E-002    0.000000000000000E+000
 -2.460000000000000E-002    0.000000000000000E+000
 -2.450000000000000E-002    0.000000000000000E+000
 -2.440000000000000E-002    0.000000000000000E+000
 -2.430000000000000E-002    0.000000000000000E+000
 -2.420000000000000E-002    0.000000000000000E+000
 -2.410000000000000E-002    0.000000000000000E+000
 -2.400000000000000E-002    0.000000000000000E+000
 -2.390000000000000E-002    0.000000000000000E+000
 -2.380000000000000E-002    0.000000000000000E+000
 -2.370000000000000E-002    0.000000000000000E+000
 -2.360000000000000E-002    0.000000000000000E+000
 -2.350000000000000E-002    0.000000000000000E+000
 -2.340000000000000E-002    0.000000000000000E+000
 -2.330000000000000E-002    0.000000000000000E+000
 -2.320000000000000E-002    0.000000000000000E+000
 -2.310000000000000E-002    0.000000000000000E+000
 -2.300000000000000E-002    0.000000000000000E+000
 -2.290000000000000E-002    0.000000000000000E+000
 -2.280000000000000E-002    0.000000000000000E+000
 -2.270000000000000E-002    0.000000000000000E+000
 -2.260000000000000E-002    0.000000000000000E+000
 -2.250000000000000E-002    0.000000000000000E+000
 -2.240000000000000E-002    0.000000000000000E+000
 -2.230000000000000E-002    0.000000000000000E+000
 -2.220000000000000E-002    0.000000000000000E+000
 -2.210000000000000E-002    0.000000000000000E+000
 -2.200000000000000E-002    0.000000000000000E+000
 -2.190000000000000E-002    0.000000000000000E+000
 -2.180000000000000E-002    0.000000000000000E+000
 -2.170000000000000E-002    0.000000000000000E+000
 -2.160000000000000E-002    0.000000000000000E+000
 -2.150000000000000E-002    0.000000000000000E+000
 -2.140000000000000E-002    0.000000000000000E+000
 -2.130000000000000E-002    0.000000000000000E+000
 -2.120000000000000E-002    0.000000000000000E+000
 -2.110000000000000E-002    0.000000000000000E+000
 -2.100000000000000E-002    0.000000000000000E+000
 -2.090000000000000E-002    0.000000000000000E+000
 -2.080000000000000E-002    0.000000000000000E+000
 -2.070000000000000E-002    0.000000000000000E+000
 -2.060000000000000E-002    0.000000000000000E+000
 -2.050000000000000E-002    0.000000000000000E+000
 -2.040000000000000E-002    0.000000000000000E+000
 -2.030000000000000E-002    0.000000000000000E+000
 -2.020000000000000E-002    0.000000000000000E+000
 -2.010000000000000E-002    0.000000000000000E+000
 -2.000000000000000E-002    0.000000000000000E+000
 -1.990000000000000E-002    0.000000000000000E+000
 -1.980000000000000E-002    0.000000000000000E+000
 -1.970000000000000E-002    0.000000000000000E+000
 -1.960000000000000E-002    0.000000000000000E+000
 -1.950000000000000E-002    0.000000000000000E+000
 -1.940000000000000E-002    0.000000000000000E+000
 -1.930000000000000E-002    0.000000000000000E+000
 -1.920000000000000E-002    0.000000000000000E+000
 -1.910000000000000E-002    0.000000000000000E+000
 -1.900000000000000E-002    0.000000000000000E+000
 -1.890000000000000E-002    0.000000000000000E+000
 -1.880000000000000E-002    0.000000000000000E+000
 -1.870000000000000E-002    0.000000000000000E+000
 -1.860000000000000E-002    0.000000000000000E+000
 -1.850000000000000E-002    0.000000000000000E+000
 -1.840000000000000E-002    0.000000000000000E+000
 -1.830000000000000E-002    0.000000000000000E+000
 -1.820000000000000E-002    0.000000000000000E+000
 -1.810000000000000E-002    0.000000000000000E+000
 -1.800000000000000E-002    0.000000000000000E+000
 -1.790000000000000E-002    0.000000000000000E+000
 -1.780000000000000E-002    0.000000000000000E+000
 -1.770000000000000E-002    0.000000000000000E+000
 -1.760000000000000E-002    0.000000000000000E+000
 -1.750000000000000E-002    0.000000000000000E+000
 -1.740000000000000E-002    0.000000000000000E+000
 -1.730000000000000E-002    0.000000000000000E+000
 -1.720000000000000E-002    0.000000000000000E+000
 -1.710000000000000E-002    0.000000000000000E+000
 -1.700000000000000E-002    0.000000000000000E+000
 -1.690000000000000E-002    0.000000000000000E+000
 -1.680000000000000E-002    0.000000000000000E+000
 -1.670000000000000E-002    0.000000000000000E+000
 -1.660000000000000E-002    0.000000000000000E+000
 -1.650000000000000E-002    0.000000000000000E+000
 -1.640000000000000E-002    0.000000000000000E+000
 -1.630000000000000E-002    0.000000000000000E+000
 -1.620000000000000E-002    0.000000000000000E+000
 -1.610000000000000E-002    0.000000000000000E+000
 -1.600000000000000E-002    0.000000000000000E+000
 -1.590000000000000E-002    0.000000000000000E+000
 -1.580000000000000E-002    0.000000000000000E+000
 -1.570000000000000E-002    0.000000000000000E+000
 -1.560000000000000E-002    0.000000000000000E+000
 -1.550000000000000E-002    0.000000000000000E+000
 -1.540000000000000E-002    0.000000000000000E+000
 -1.530000000000000E-002    0.000000000000000E+000
 -1.520000000000000E-002    0.000000000000000E+000
 -1.510000000000000E-002    0.000000000000000E+000
 -1.500000000000000E-002    0.000000000000000E+000
 -1.490000000000000E-002    0.000000000000000E+000
 -1.480000000000000E-002    0.000000000000000E+000
 -1.470000000000000E-002    0.000000000000000E+000
 -1.460000000000000E-002    0.000000000000000E+000
 -1.450000000000000E-002    0.000000000000000E+000
 -1.440000000000000E-002    0.000000000000000E+000
 -1.430000000000000E-002    0.000000000000000E+000
 -1.420000000000000E-002    0.000000000000000E+000
 -1.410000000000000E-002    0.000000000000000E+000
 -1.400000000000000E-002    0.000000000000000E+000
 -1.390000000000000E-002    0.000000000000000E+000
 -1.380000000000000E-002    0.000000000000000E+000
 -1.370000000000000E-002    0.000000000000000E+000
 -1.360000000000000E-002    0.000000000000000E+000
 -1.350000000000000E-002    0.000000000000000E+000
 -1.340000000000000E-002    0.000000000000000E+000
 -1.330000000000000E-002    0.000000000000000E+000
 -1.320000000000000E-002    0.000000000000000E+000
 -1.310000000000000E-002    0.000000000000000E+000
 -1.300000000000000E-002    0.000000000000000E+000
 -1.290000000000000E-002    0.000000000000000E+000
 -1.280000000000000E-002    0.000000000000000E+000
 -1.270000000000000E-002    0.000000000000000E+000
 -1.260000000000000E-002    0.000000000000000E+000
 -1.250000000000000E-002    0.000000000000000E+000
 -1.240000000000000E-002    0.000000000000000E+000
 -1.230000000000000E-002    0.000000000000000E+000
 -1.220000000000000E-002    0.000000000000000E+000
 -1.210000000000000E-002    0.000000000000000E+000
 -1.200000000000000E-002    0.000000000000000E+000
 -1.190000000000000E-002    0.000000000000000E+000
 -1.180000000000000E-002    0.000000000000000E+000
 -1.170000000000000E-002    0.000000000000000E+000
 -1.160000000000000E-002    0.000000000000000E+000
 -1.150000000000000E-002    0.000000000000000E+000
 -1.140000000000000E-002    0.000000000000000E+000
 -1.130000000000000E-002    0.000000000000000E+000
 -1.120000000000000E-002    0.000000000000000E+000
 -1.110000000000000E-002    0.000000000000000E+000
 -1.100000000000000E-002    0.000000000000000E+000
 -1.090000000000000E-002    0.000000000000000E+000
 -1.080000000000000E-002    0.000000000000000E+000
 -1.070000000000000E-002    0.000000000000000E+000
 -1.060000000000000E-002    0.000000000000000E+000
 -1.050000000000000E-002    0.000000000000000E+000
 -1.040000000000000E-002    0.000000000000000E+000
 -1.030000000000000E-002    0.000000000000000E+000
 -1.020000000000000E-002    0.000000000000000E+000
 -1.010000000000000E-002    0.000000000000000E+000
 -1.000000000000000E-002    0.000000000000000E+000
 -9.899999999999999E-003    0.000000000000000E+000
 -9.800000000000000E-003    0.000000000000000E+000
 -9.699999999999999E-003    0.000000000000000E+000
 -9.599999999999999E-003    0.000000000000000E+000
 -9.500000000000000E-003    0.000000000000000E+000
 -9.399999999999999E-003    0.000000000000000E+000
 -9.299999999999999E-003    0.000000000000000E+000
 -9.200000000000000E-003    0.000000000000000E+000
 -9.099999999999999E-003    0.000000000000000E+000
 -8.999999999999999E-003    0.000000000000000E+000
 -8.900000000000000E-003    0.000000000000000E+000
 -8.799999999999999E-003    0.000000000000000E+000
 -8.699999999999999E-003    0.000000000000000E+000
 -8.600000000000000E-003    0.000000000000000E+000
 -8.499999999999999E-003    0.000000000000000E+000
 -8.399999999999999E-003    0.000000000000000E+000
 -8.300000000000000E-003    0.000000000000000E+000
 -8.199999999999999E-003    0.000000000000000E+000
 -8.100000000000000E-003    0.000000000000000E+000
 -8.000000000000000E-003    0.000000000000000E+000
 -7.899999999999999E-003    0.000000000000000E+000
 -7.800000000000000E-003    0.000000000000000E+000
 -7.699999999999999E-003    0.000000000000000E+000
 -7.599999999999999E-003    0.000000000000000E+000
 -7.499999999999999E-003    0.000000000000000E+000
 -7.399999999999999E-003    0.000000000000000E+000
 -7.299999999999999E-003    0.000000000000000E+000
 -7.199999999999999E-003    0.000000000000000E+000
 -7.100000000000000E-003    0.000000000000000E+000
 -6.999999999999999E-003    0.000000000000000E+000
 -6.899999999999999E-003    0.000000000000000E+000
 -6.800000000000000E-003    0.000000000000000E+000
 -6.699999999999999E-003    0.000000000000000E+000
 -6.599999999999999E-003    0.000000000000000E+000
 -6.499999999999999E-003    0.000000000000000E+000
 -6.399999999999999E-003    0.000000000000000E+000
 -6.299999999999999E-003    0.000000000000000E+000
 -6.199999999999999E-003    0.000000000000000E+000
 -6.100000000000000E-003    0.000000000000000E+000
 -5.999999999999999E-003    0.000000000000000E+000
 -5.899999999999999E-003    0.000000000000000E+000
 -5.800000000000000E-003    0.000000000000000E+000
 -5.699999999999999E-003    0.000000000000000E+000
 -5.599999999999999E-003    0.000000000000000E+000
 -5.499999999999999E-003    0.000000000000000E+000
 -5.399999999999999E-003    0.000000000000000E+000
 -5.299999999999999E-003    0.000000000000000E+000
 -5.199999999999999E-003    0.000000000000000E+000
 -5.099999999999999E-003    0.000000000000000E+000
 -4.999999999999999E-003    0.000000000000000E+000
 -4.899999999999999E-003    0.000000000000000E+000
 -4.799999999999999E-003    0.000000000000000E+000
 -4.699999999999999E-003    0.000000000000000E+000
 -4.599999999999999E-003    0.000000000000000E+000
 -4.499999999999999E-003    0.000000000000000E+000
 -4.399999999999999E-003    0.000000000000000E+000
 -4.299999999999999E-003    0.000000000000000E+000
 -4.199999999999999E-003    0.000000000000000E+000
 -4.099999999999999E-003    0.000000000000000E+000
 -3.999999999999999E-003    0.000000000000000E+000
 -3.899999999999999E-003    0.000000000000000E+000
 -3.799999999999999E-003    0.000000000000000E+000
 -3.699999999999999E-003    0.000000000000000E+000
 -3.599999999999999E-003    0.000000000000000E+000
 -3.499999999999999E-003    0.000000000000000E+000
 -3.399999999999999E-003    0.000000000000000E+000
 -3.299999999999999E-003    0.000000000000000E+000
 -3.199999999999999E-003    0.000000000000000E+000
 -3.099999999999999E-003    0.000000000000000E+000
 -2.999999999999999E-003    0.000000000000000E+000
 -2.899999999999999E-003    0.000000000000000E+000
 -2.799999999999999E-003    0.000000000000000E+000
 -2.699999999999999E-003    0.000000000000000E+000
 -2.599999999999999E-003    0.000000000000000E+000
 -2.499999999999999E-003    0.000000000000000E+000
 -2.399999999999999E-003    0.000000000000000E+000
 -2.299999999999999E-003    0.000000000000000E+000
 -2.199999999999999E-003    0.000000000000000E+000
 -2.099999999999999E-003    0.000000000000000E+000
 -1.999999999999999E-003    0.000000000000000E+000
 -1.899999999999999E-003    0.000000000000000E+000
 -1.799999999999999E-003    0.000000000000000E+000
 -1.699999999999999E-003    0.000000000000000E+000
 -1.599999999999999E-003    0.000000000000000E+000
 -1.499999999999999E-003    0.000000000000000E+000
 -1.399999999999999E-003    0.000000000000000E+000
 -1.299999999999999E-003    0.000000000000000E+000
 -1.199999999999999E-003    6.414635304221270E-048
 -1.099999999999999E-003    3.207317652110635E-047
 -9.999999999999989E-004    5.773171773799143E-047
 -8.999999999999990E-004    8.339025895487650E-047
 -7.999999999999990E-004    8.339025895487650E-047
 -6.999999999999989E-004    8.339025895487650E-047
 -5.999999999999990E-004    5.773171773799143E-047
 -4.999999999999989E-004   -2.002126543393647E-049
 -3.999999999999989E-004   -8.379068426355523E-047
 -2.999999999999989E-004   -3.638692088362813E-046
 -1.999999999999989E-004   -7.244112334400271E-046
 -9.999999999999892E-005   -1.091367893347994E-045
  1.084202172485504E-018   -1.548690564971567E-045
  1.000000000000011E-004   -1.903178859073259E-045
  2.000000000000011E-004   -1.986930022830304E-045
  3.000000000000011E-004   -1.909914878673139E-045
  4.000000000000011E-004   -1.180305204533071E-045
  5.000000000000011E-004    9.363875166870371E-047
  6.000000000000011E-004    1.879910550962525E-045
  7.000000000000011E-004    5.268643628292069E-045
  8.000000000000011E-004    8.982518369471718E-045
  9.000000000000012E-004    1.282077029800181E-044
  1.000000000000001E-003    1.584480610392756E-044
  1.100000000000001E-003    1.721190937095026E-044
  1.200000000000001E-003    1.713523001283732E-044
  1.300000000000001E-003    1.389999542679231E-044
  1.400000000000001E-003    7.633254912345326E-045
  1.500000000000001E-003   -1.085581642579851E-045
  1.600000000000001E-003   -1.380891413850630E-044
  1.700000000000001E-003   -2.965612332140508E-044
  1.800000000000001E-003   -4.838320049616378E-044
  1.900000000000001E-003   -6.760682436572427E-044
  2.000000000000001E-003   -8.436562235277221E-044
  2.100000000000001E-003   -9.602910691101279E-044
  2.200000000000001E-003   -9.850898038912332E-044
  2.300000000000001E-003   -8.849497949410321E-044
  2.400000000000001E-003   -6.159295728025401E-044
  2.500000000000001E-003   -1.529671330118139E-044
  2.600000000000001E-003    5.109182703262440E-044
  2.700000000000001E-003    1.371383814059269E-043
  2.800000000000001E-003    2.366430421661548E-043
  2.900000000000001E-003    3.428366293594691E-043
  3.000000000000001E-003    4.419574490223061E-043
  3.100000000000001E-003    5.173644692172227E-043
  3.200000000000001E-003    5.497505363065263E-043
  3.300000000000001E-003    5.167625262760364E-043
  3.400000000000001E-003    3.993103430698172E-043
  3.500000000000001E-003    1.817985847493140E-043
  3.600000000000001E-003   -1.449953488404514E-043
  3.700000000000001E-003   -5.751650284425947E-043
  3.800000000000001E-003   -1.089656370414111E-042
  3.900000000000001E-003   -1.649647377870931E-042
  4.000000000000001E-003   -2.193562491068480E-042
  4.100000000000001E-003   -2.641504236987327E-042
  4.200000000000001E-003   -2.896624719988256E-042
  4.300000000000001E-003   -2.851362507864738E-042
  4.400000000000001E-003   -2.400637737353722E-042
  4.500000000000001E-003   -1.457455486420457E-042
  4.600000000000002E-003    3.064647547184216E-044
  4.700000000000001E-003    2.059860827068662E-042
  4.800000000000001E-003    4.551787596964392E-042
  4.900000000000002E-003    7.336038384174645E-042
  5.000000000000001E-003    1.013992948825918E-041
  5.100000000000001E-003    1.259177936960796E-041
  5.200000000000001E-003    1.423358416778434E-041
  5.300000000000002E-003    1.455564406949575E-041
  5.400000000000001E-003    1.304393172193481E-041
  5.500000000000001E-003    9.251435072924693E-042
  5.600000000000002E-003    2.882942557057543E-042
  5.700000000000001E-003   -6.112512808843963E-042
  5.800000000000001E-003   -1.744954023519187E-041
  5.900000000000002E-003   -3.042894912162150E-041
  6.000000000000001E-003   -4.388770574457761E-041
  6.100000000000001E-003   -5.619742253027493E-041
  6.200000000000002E-003   -6.532494303976657E-041
  6.300000000000002E-003   -6.896351013393777E-041
  6.400000000000001E-003   -6.475916188198973E-041
  6.500000000000001E-003   -5.060302261679464E-041
  6.600000000000002E-003   -2.500114660324631E-041
  6.700000000000001E-003    1.251750682602253E-041
  6.800000000000001E-003    6.099714722676985E-041
  6.900000000000002E-003    1.177069934321827E-040
  7.000000000000001E-003    1.779170847115085E-040
  7.100000000000001E-003    2.348681822108195E-040
  7.200000000000002E-003    2.800085517634362E-040
  7.300000000000002E-003    3.035425246361539E-040
  7.400000000000001E-003    2.953317379523073E-040
  7.500000000000001E-003    2.461314935897742E-040
  7.600000000000002E-003    1.491057799652469E-040
  7.700000000000001E-003    1.513519685455765E-042
  7.800000000000001E-003   -1.936178913879755E-040
  7.900000000000001E-003   -4.260514602313799E-040
  8.000000000000002E-003   -6.774045099702885E-040
  8.100000000000001E-003   -9.210046614255953E-040
  8.200000000000001E-003   -1.122800762911800E-039
  8.300000000000002E-003   -1.243546828829386E-039
  8.400000000000001E-003   -1.242353207689112E-039
  8.500000000000002E-003   -1.081564599546563E-039
  8.600000000000002E-003   -7.327194097897333E-040
  8.700000000000001E-003   -1.831163393426718E-040
  8.800000000000002E-003    5.576884251719553E-040
  8.900000000000002E-003    1.452352894933235E-039
  9.000000000000001E-003    2.432230555983514E-039
  9.100000000000002E-003    3.396920239083873E-039
  9.200000000000002E-003    4.217892782588545E-039
  9.300000000000001E-003    4.746926553047364E-039
  9.400000000000002E-003    4.829650601842096E-039
  9.500000000000001E-003    4.323931576037590E-039
  9.600000000000001E-003    3.122065747838345E-039
  9.700000000000002E-003    1.174949593503021E-039
  9.800000000000001E-003   -1.484416368098169E-039
  9.900000000000001E-003   -4.721420347811103E-039
  1.000000000000000E-002   -8.288086910095916E-039
  1.010000000000000E-002   -1.182289591410399E-038
  1.020000000000000E-002   -1.486552168711402E-038
  1.030000000000000E-002   -1.688881893336824E-038
  1.040000000000000E-002   -1.734870300722996E-038
  1.050000000000000E-002   -1.575036649803984E-038
  1.060000000000000E-002   -1.172663014014753E-038
  1.070000000000000E-002   -5.121387372584691E-039
  1.080000000000000E-002    3.931547886148241E-039
  1.090000000000000E-002    1.494598494825209E-038
  1.100000000000000E-002    2.705019503213075E-038
  1.110000000000000E-002    3.899553225665080E-038
  1.120000000000000E-002    4.921722588874350E-038
  1.130000000000000E-002    5.595347310418597E-038
  1.140000000000000E-002    5.742282198294365E-038
  1.150000000000000E-002    5.205196779416420E-038
  1.160000000000000E-002    3.873705093125939E-038
  1.170000000000000E-002    1.711249205989391E-038
  1.180000000000000E-002   -1.220664878874065E-038
  1.190000000000000E-002   -4.744845046853442E-038
  1.200000000000000E-002   -8.561526318831828E-038
  1.210000000000000E-002   -1.225599532601719E-037
  1.220000000000000E-002   -1.532352572124382E-037
  1.230000000000000E-002   -1.721281753651229E-037
  1.240000000000000E-002   -1.738692032895253E-037
  1.250000000000000E-002   -1.539796867999089E-037
  1.260000000000000E-002   -1.096919333442070E-037
  1.270000000000000E-002   -4.074967928543573E-038
  1.280000000000000E-002    4.992500579634133E-038
  1.290000000000000E-002    1.558238675652477E-037
  1.300000000000000E-002    2.668260128486419E-037
  1.310000000000000E-002    3.696544449481430E-037
  1.320000000000000E-002    4.488771569012252E-037
  1.330000000000000E-002    4.884542745270421E-037
  1.340000000000000E-002    4.737582103343558E-037
  1.350000000000000E-002    3.939079933618493E-037
  1.360000000000000E-002    2.441754903183318E-037
  1.370000000000000E-002    2.814702770109083E-038
  1.380000000000000E-002   -2.407222366009060E-037
  1.390000000000000E-002   -5.385331853337950E-037
  1.400000000000000E-002   -8.316770278648270E-037
  1.410000000000000E-002   -1.079109421959730E-036
  1.420000000000000E-002   -1.236237981107982E-036
  1.430000000000000E-002   -1.260285827002854E-036
  1.440000000000000E-002   -1.116750384942389E-036
  1.450000000000000E-002   -7.863209485841980E-037
  1.460000000000000E-002   -2.713880417134183E-037
  1.470000000000000E-002    3.988883542632124E-037
  1.480000000000000E-002    1.166048797023014E-036
  1.490000000000000E-002    1.943361526670108E-036
  1.500000000000000E-002    2.621179486970711E-036
  1.510000000000000E-002    3.076980950124506E-036
  1.520000000000000E-002    3.189864609275579E-036
  1.530000000000000E-002    2.858565475545843E-036
  1.540000000000000E-002    2.021304370818473E-036
  1.550000000000000E-002    6.750690028534537E-037
  1.560000000000000E-002   -1.108623777249763E-036
  1.570000000000000E-002   -3.174711751027085E-036
  1.580000000000000E-002   -5.285422849895751E-036
  1.590000000000000E-002   -7.133464473757170E-036
  1.600000000000000E-002   -8.368938153444974E-036
  1.610000000000000E-002   -8.639732653227973E-036
  1.620000000000000E-002   -7.643111077932351E-036
  1.630000000000000E-002   -5.183976708867172E-036
  1.640000000000000E-002   -1.233111405752879E-036
  1.650000000000000E-002    4.023116384002433E-036
  1.660000000000000E-002    1.015113310387669E-035
  1.670000000000000E-002    1.646614864566658E-035
  1.680000000000000E-002    2.206383101421508E-035
  1.690000000000000E-002    2.589277707739493E-035
  1.700000000000000E-002    2.686835509265249E-035
  1.710000000000000E-002    2.402270241641839E-035
  1.720000000000000E-002    1.667902408036383E-035
  1.730000000000000E-002    4.631657249053615E-036
  1.740000000000000E-002   -1.169247252192881E-035
  1.750000000000000E-002   -3.111926983879904E-035
  1.760000000000000E-002   -5.168892139121577E-035
  1.770000000000000E-002   -7.071956864644501E-035
  1.780000000000000E-002   -8.499180880892798E-035
  1.790000000000000E-002   -9.106047515189672E-035
  1.800000000000000E-002   -8.568384277894964E-035
  1.810000000000000E-002   -6.634117818542532E-035
  1.820000000000000E-002   -3.178931667926461E-035
  1.830000000000000E-002    1.740954134231240E-035
  1.840000000000000E-002    7.847061528136275E-035
  1.850000000000000E-002    1.461677021813112E-034
  1.860000000000000E-002    2.128960416473207E-034
  1.870000000000000E-002    2.690827120584845E-034