 -4.000000000000000E-002    0.000000000000000E+000
 -3.990000000000000E-002    0.000000000000000E+000
 -3.980000000000000E-002    0.000000000000000E+000
 -3.970000000000000E-002    0.000000000000000E+000
 -3.960000000000000E-002    0.000000000000000E+000
 -3.950000000000000E-002    0.000000000000000E+000
 -3.940000000000000E-002    0.000000000000000E+000
 -3.930000000000000E-002    0.000000000000000E+000
 -3.920000000000000E-002    0.000000000000000E+000
 -3.910000000000000E-002    0.000000000000000E+000
 -3.900000000000000E-002    0.000000000000000E+000
 -3.890000000000000E-002    0.000000000000000E+000
 -3.880000000000000E-002    0.000000000000000E+000
 -3.870000000000000E-002    0.000000000000000E+000
 -3.860000000000000E-002    0.000000000000000E+000
 -3.850000000000000E-002    0.000000000000000E+000
 -3.840000000000000E-002    0.000000000000000E+000
 -3.830000000000000E-002    0.000000000000000E+000
 -3.820000000000000E-002    0.000000000000000E+000
 -3.810000000000000E-002    0.000000000000000E+000
 -3.800000000000000E-002    0.000000000000000E+000
 -3.790000000000000E-002    0.000000000000000E+000
 -3.780000000000000E-002    0.000000000000000E+000
 -3.770000000000000E-002    0.000000000000000E+000
 -3.760000000000000E-002    0.000000000000000E+000
 -3.750000000000000E-002    0.000000000000000E+000
 -3.740000000000000E-002    0.000000000000000E+000
 -3.730000000000000E-002    0.000000000000000E+000
 -3.720000000000000E-002    0.000000000000000E+000
 -3.710000000000000E-002    0.000000000000000E+000
 -3.700000000000000E-002    0.000000000000000E+000
 -3.690000000000000E-002    0.000000000000000E+000
 -3.680000000000000E-002    0.000000000000000E+000
 -3.670000000000000E-002    0.000000000000000E+000
 -3.660000000000000E-002    0.000000000000000E+000
 -3.650000000000000E-002    0.000000000000000E+000
 -3.640000000000000E-002    0.000000000000000E+000
 -3.630000000000000E-002    0.000000000000000E+000
 -3.620000000000000E-002    0.000000000000000E+000
 -3.610000000000000E-002    0.000000000000000E+000
 -3.600000000000000E-002    0.000000000000000E+000
 -3.590000000000000E-002    0.000000000000000E+000
 -3.580000000000000E-002    0.000000000000000E+000
 -3.570000000000000E-002    0.000000000000000E+000
 -3.560000000000000E-002    0.000000000000000E+000
 -3.550000000000000E-002    0.000000000000000E+000
 -3.540000000000000E-002    0.000000000000000E+000
 -3.530000000000000E-002    0.000000000000000E+000
 -3.520000000000000E-002    0.000000000000000E+000
 -3.510000000000000E-002    0.000000000000000E+000
 -3.500000000000000E-002    0.000000000000000E+000
 -3.490000000000000E-002    0.000000000000000E+000
 -3.480000000000000E-002    0.000000000000000E+000
 -3.470000000000000E-002    0.000000000000000E+000
 -3.460000000000000E-002    0.000000000000000E+000
 -3.450000000000000E-002    0.000000000000000E+000
 -3.440000000000000E-002    0.000000000000000E+000
 -3.430000000000000E-002    0.000000000000000E+000
 -3.420000000000000E-002    0.000000000000000E+000
 -3.410000000000000E-002    0.000000000000000E+000
 -3.400000000000000E-002    0.000000000000000E+000
 -3.390000000000000E-002    0.000000000000000E+000
 -3.380000000000000E-002    0.000000000000000E+000
 -3.370000000000000E-002    0.000000000000000E+000
 -3.360000000000000E-002    0.000000000000000E+000
 -3.350000000000000E-002    0.000000000000000E+000
 -3.340000000000000E-002    0.000000000000000E+000
 -3.330000000000000E-002    0.000000000000000E+000
 -3.320000000000000E-002    0.000000000000000E+000
 -3.310000000000000E-002    0.000000000000000E+000
 -3.300000000000000E-002   -6.414635304221270E-048
 -3.290000000000000E-002   -1.282927060844254E-047
 -3.280000000000000E-002   -1.924390591266381E-047
 -3.270000000000000E-002   -2.565854121688508E-047
 -3.260000000000000E-002   -2.565854121688508E-047
 -3.250000000000000E-002   -1.282927060844254E-047
 -3.240000000000000E-002    9.474869330970984E-048
 -3.230000000000000E-002    4.438085017955166E-047
 -3.220000000000000E-002    9.261048154163608E-047
 -3.210000000000000E-002    1.441277766297456E-046
 -3.200000000000000E-002    2.984794492397348E-046
 -3.190000000000000E-002    5.593268933857289E-046
 -3.180000000000000E-002    9.413706412384584E-046
 -3.170000000000000E-002    1.336949521861456E-045
 -3.160000000000000E-002    2.312665031586770E-045
 -3.150000000000000E-002    2.627612343048757E-045
 -3.140000000000000E-002    3.029202466234972E-045
 -3.130000000000000E-002    3.097078403149835E-045
 -3.120000000000000E-002    2.330314958687076E-045
 -3.110000000000000E-002   -4.270250678674732E-046
 -3.100000000000000E-002   -6.562323179124657E-045
 -3.090000000000000E-002   -1.938936434308315E-044
 -3.080000000000000E-002   -4.035820777663921E-044
 -3.070000000000000E-002   -7.416610005778214E-044
 -3.060000000000000E-002   -1.251128199263929E-043
 -3.050000000000000E-002   -1.939916847242773E-043
 -3.040000000000000E-002   -2.815016596549564E-043
 -3.030000000000000E-002   -3.791252176087387E-043
 -3.020000000000000E-002   -4.684522307665008E-043
 -3.010000000000000E-002   -5.111569709829645E-043
 -3.000000000000000E-002   -4.420832187813204E-043
 -2.990000000000000E-002   -1.609757568474467E-043
 -2.980000000000000E-002    4.776519227837095E-043
 -2.970000000000000E-002    1.665389676489489E-042
 -2.960000000000000E-002    3.635351736341122E-042
 -2.950000000000000E-002    6.633889901444563E-042
 -2.940000000000000E-002    1.086594022233001E-041
 -2.930000000000000E-002    1.640267412879132E-041
 -2.920000000000000E-002    2.302363648048176E-041
 -2.910000000000000E-002    3.000480110988182E-041
 -2.900000000000000E-002    3.582818808294994E-041
 -2.890000000000000E-002    3.783693180040320E-041
 -2.880000000000000E-002    3.186857913676361E-041
 -2.870000000000000E-002    1.194325728000428E-041
 -2.860000000000000E-002   -2.986974056735893E-041
 -2.850000000000000E-002   -1.032135446468477E-040
 -2.840000000000000E-002   -2.185665090212096E-040
 -2.830000000000000E-002   -3.854055885314435E-040
 -2.820000000000000E-002   -6.090209860563206E-040
 -2.810000000000000E-002   -8.856422170130125E-040
 -2.800000000000000E-002   -1.195612134283048E-039
 -2.790000000000000E-002   -1.494631013785493E-039
 -2.780000000000000E-002   -1.703544453947592E-039
 -2.770000000000000E-002   -1.697902349290189E-039
 -2.760000000000000E-002   -1.299497198295767E-039
 -2.750000000000000E-002   -2.734359472922361E-040
 -2.740000000000000E-002    1.664245020499693E-039
 -2.730000000000000E-002    4.821898378057878E-039
 -2.720000000000000E-002    9.482886054889392E-039
 -2.710000000000000E-002    1.582358223322924E-038
 -2.700000000000000E-002    2.379218694110583E-038
 -2.690000000000000E-002    3.294554991493315E-038
 -2.680000000000000E-002    4.224839199898971E-038
 -2.670000000000000E-002    4.985084058643671E-038
 -2.660000000000000E-002    5.287620229466056E-038
 -2.650000000000000E-002    4.727216920146809E-038
 -2.640000000000000E-002    2.780252557546837E-038
 -2.630000000000000E-002   -1.171865558297046E-038
 -2.620000000000000E-002   -7.782901060969980E-038
 -2.610000000000000E-002   -1.763258799029680E-037
 -2.600000000000000E-002   -3.105653708694694E-037
 -2.590000000000000E-002   -4.790848453706928E-037
 -2.580000000000000E-002   -6.725783257727599E-037
 -2.570000000000000E-002   -8.704026366721805E-037
 -2.560000000000000E-002   -1.037011411076700E-036
 -2.550000000000000E-002   -1.118992011303148E-036
 -2.540000000000000E-002   -1.043694133769319E-036
 -2.530000000000000E-002   -7.207601818069631E-037
 -2.520000000000000E-002   -4.814342800216242E-038
 -2.510000000000000E-002    1.075714572291590E-036
 -2.500000000000000E-002    2.732003205939653E-036
 -2.490000000000000E-002    4.953017920590063E-036
 -2.480000000000000E-002    7.685110640284487E-036
 -2.470000000000000E-002    1.074504947037260E-035
 -2.460000000000000E-002    1.377413002574883E-035
 -2.450000000000000E-002    1.619756237538577E-035
 -2.440000000000000E-002    1.720005588203357E-035
 -2.430000000000000E-002    1.573220939209117E-035
 -2.420000000000000E-002    1.056471340928882E-035
 -2.410000000000000E-002    4.088693786441583E-037
 -2.400000000000000E-002   -1.588031916240142E-035
 -2.390000000000000E-002   -3.900836194975572E-035
 -2.380000000000000E-002   -6.885375645805833E-035
 -2.370000000000000E-002   -1.040086621653518E-034
 -2.360000000000000E-002   -1.412916665361036E-034
 -2.350000000000000E-002   -1.753071644831198E-034
 -2.340000000000000E-002   -1.981597586576430E-034
 -2.330000000000000E-002   -1.994646672536454E-034
 -2.320000000000000E-002   -1.668176286247990E-034
 -2.310000000000000E-002   -8.689605550734432E-035
 -2.300000000000000E-002    5.265800462743807E-035
 -2.290000000000000E-002    2.604866944384010E-034
 -2.280000000000000E-002    5.379148741182987E-034
 -2.270000000000000E-002    8.746893744682691E-034
 -2.260000000000000E-002    1.244468397565048E-033
 -2.250000000000000E-002    1.600733995501232E-033
 -2.240000000000000E-002    1.874095236133682E-033
 -2.230000000000000E-002    1.972202760131484E-033
 -2.220000000000000E-002    1.783682842108825E-033
 -2.210000000000000E-002    1.187522175255059E-033
 -2.200000000000000E-002    6.912523927277699E-035
 -2.190000000000000E-002   -1.656305141566133E-033
 -2.180000000000000E-002   -4.013326906823405E-033
 -2.170000000000000E-002   -6.930428612824874E-033
 -2.160000000000000E-002   -1.020227281106558E-032
 -2.150000000000000E-002   -1.345556937227711E-032
 -2.140000000000000E-002   -1.612631801824090E-032
 -2.130000000000000E-002   -1.745812234335751E-032
 -2.120000000000000E-002   -1.653247369053249E-032
 -2.110000000000000E-002   -1.234195762642406E-032
 -2.100000000000000E-002   -3.915168606582078E-033
 -2.090000000000000E-002    9.501837542014570E-033
 -2.080000000000000E-002    2.821054831198413E-032
 -2.070000000000000E-002    5.178440434674986E-032
 -2.060000000000000E-002    7.877888580972368E-032
 -2.050000000000000E-002    1.064685690458630E-031
 -2.040000000000000E-002    1.306676533353725E-031
 -2.030000000000000E-002    1.457032130295959E-031
 -2.020000000000000E-002    1.446190183950556E-031
 -2.010000000000000E-002    1.196843052551177E-031
 -2.000000000000000E-002    6.326955642985372E-032
 -1.990000000000000E-002   -3.088204114195054E-032
 -1.980000000000000E-002   -1.660078178223032E-031
 -1.970000000000000E-002   -3.403957051917740E-031
 -1.960000000000000E-002   -5.453485261406053E-031
 -1.950000000000000E-002   -7.633176759389385E-031
 -1.940000000000000E-002   -9.665784327695693E-031
 -1.930000000000000E-002   -1.116899550189536E-030
 -1.920000000000000E-002   -1.166699111547303E-030
 -1.910000000000000E-002   -1.062170333019773E-030
 -1.900000000000000E-002   -7.487525326385157E-031
 -1.890000000000000E-002   -1.791295644637124E-031
 -1.880000000000000E-002    6.763817113425142E-031
 -1.870000000000000E-002    1.817611733706194E-030
 -1.860000000000000E-002    3.201582371260198E-030
 -1.850000000000000E-002    4.730456584798108E-030
 -1.840000000000000E-002    6.242623606884626E-030
 -1.830000000000000E-002    7.509557948408681E-030
 -1.820000000000000E-002    8.241372835775281E-030
 -1.810000000000000E-002    8.103773881417806E-030
 -1.800000000000000E-002    6.748642237256952E-030
 -1.790000000000000E-002    3.859201530143158E-030
 -1.780000000000000E-002   -7.909749068112656E-031
 -1.770000000000000E-002   -7.268267276402257E-030
 -1.760000000000000E-002   -1.540462754376255E-029
 -1.750000000000000E-002   -2.472754264274541E-029
 -1.740000000000000E-002   -3.440636449915179E-029
 -1.730000000000000E-002   -4.322916421896436E-029
 -1.720000000000000E-002   -4.962551020542919E-029
 -1.710000000000000E-002   -5.174959627569118E-029
 -1.700000000000000E-002   -4.763483215778166E-029
 -1.690000000000000E-002   -3.542523308079915E-029
 -1.680000000000000E-002   -1.367907978838907E-029
 -1.670000000000000E-002    1.827103350259293E-029
 -1.660000000000000E-002    5.993237230227040E-029
 -1.650000000000000E-002    1.092859038529582E-028
 -1.640000000000000E-002    1.624992028739453E-028
 -1.630000000000000E-002    2.137885379993081E-028
 -1.620000000000000E-002    2.555041208762531E-028
 -1.610000000000000E-002    2.785080752018834E-028
 -1.600000000000000E-002    2.728975620506015E-028
 -1.590000000000000E-002    2.290954114416301E-028
 -1.580000000000000E-002    1.392862007602428E-028
 -1.570000000000000E-002   -8.801679490121668E-031
 -1.560000000000000E-002   -1.904626113368769E-028
 -1.550000000000000E-002   -4.214926573657562E-028
 -1.540000000000000E-002   -6.776023600058888E-028
 -1.530000000000000E-002   -9.333344954770514E-028
 -1.520000000000000E-002   -1.154467709294535E-027
 -1.510000000000000E-002   -1.299662782621526E-027
 -1.500000000000000E-002   -1.323653727047786E-027
 -1.490000000000000E-002   -1.182069832589765E-027
 -1.480000000000000E-002   -8.377757518162620E-028
 -1.470000000000000E-002   -2.683661671395177E-028
 -1.460000000000000E-002    5.258311910305060E-028
 -1.450000000000000E-002    1.514179031286335E-027
 -1.440000000000000E-002    2.629764085045328E-027
 -1.430000000000000E-002    3.766401216638555E-027
 -1.420000000000000E-002    4.780001826444895E-027
 -1.410000000000000E-002    5.495553902490588E-027
 -1.400000000000000E-002    5.720616311192226E-027
 -1.390000000000000E-002    5.265583326788548E-027
 -1.380000000000000E-002    3.970182215558171E-027
 -1.370000000000000E-002    1.734599672275306E-027
 -1.360000000000000E-002   -1.447519833180726E-027
 -1.350000000000000E-002   -5.458067973671906E-027
 -1.340000000000000E-002   -1.003034258652236E-026
 -1.330000000000000E-002   -1.473723690734608E-026
 -1.320000000000000E-002   -1.899727507831025E-026
 -1.310000000000000E-002   -2.210333508850909E-026
 -1.300000000000000E-002   -2.327734745636530E-026
 -1.290000000000000E-002   -2.175174411764163E-026
 -1.280000000000000E-002   -1.687509519818924E-026
 -1.270000000000000E-002   -8.235258699727775E-027
 -1.260000000000000E-002    4.210975075923999E-027
 -1.250000000000000E-002    2.001716273932007E-026
 -1.240000000000000E-002    3.815422856092519E-026
 -1.230000000000000E-002    5.696614731430590E-026
 -1.220000000000000E-002    7.419510634404522E-026
 -1.210000000000000E-002    8.709378948546719E-026
 -1.200000000000000E-002    9.263667280964981E-026
 -1.190000000000000E-002    8.783177323999864E-026
 -1.180000000000000E-002    7.012237080820194E-026
 -1.170000000000000E-002    3.785248759561776E-026
 -1.160000000000000E-002   -9.246138985252554E-027
 -1.150000000000000E-002   -6.960281452671437E-026
 -1.140000000000000E-002   -1.394621341535054E-025
 -1.130000000000000E-002   -2.127198600290406E-025
 -1.120000000000000E-002   -2.810149039198975E-025
 -1.110000000000000E-002   -3.341400650525709E-025
 -1.100000000000000E-002   -3.608106194035993E-025
 -1.090000000000000E-002   -3.497948201360749E-025
 -1.080000000000000E-002   -2.913633001991142E-025
 -1.070000000000000E-002   -1.789632524751096E-025
 -1.060000000000000E-002   -1.096484120908975E-026
 -1.050000000000000E-002    2.077232607786296E-025
 -1.040000000000000E-002    4.644131304313537E-025
 -1.030000000000000E-002    7.380339692969206E-025
 -1.020000000000000E-002    9.994225380948745E-025
 -1.010000000000000E-002    1.212714852288968E-024
 -1.000000000000000E-002    1.337971205735493E-024
 -9.899999999999999E-003    1.335033550131292E-024
 -9.800000000000000E-003    1.168472417879284E-024
 -9.699999999999999E-003    8.132873475482084E-025
 -9.599999999999999E-003    2.608512496595950E-025
 -9.500000000000000E-003   -4.755852538926613E-025
 -9.399999999999999E-003   -1.356636884333244E-024
 -9.299999999999999E-003   -2.314639223244063E-024
 -9.200000000000000E-003   -3.254442255645763E-024
 -9.099999999999999E-003   -4.057822180955014E-024
 -8.999999999999999E-003   -4.591898530584175E-024
 -8.900000000000000E-003   -4.721565349196797E-024
 -8.799999999999999E-003   -4.325417587914850E-024
 -8.699999999999999E-003   -3.314111593639574E-024
 -8.600000000000000E-003   -1.649497086493334E-024
 -8.499999999999999E-003    6.376404099018921E-025
 -8.399999999999999E-003    3.433777839783029E-024
 -8.300000000000000E-003    6.535495775146757E-024
 -8.199999999999999E-003    9.651500110651621E-024
 -8.100000000000000E-003    1.241589411858250E-023
 -8.000000000000000E-003    1.441386422834503E-023
 -7.899999999999999E-003    1.521967902971879E-023
 -7.800000000000000E-003    1.444541059160757E-023
 -7.699999999999999E-003    1.179700413609609E-023
 -7.599999999999999E-003    7.132631620718290E-024
 -7.499999999999999E-003    5.167446322569371E-025
 -7.399999999999999E-003   -7.737839505027116E-024
 -7.299999999999999E-003   -1.704784045914019E-023
 -7.199999999999999E-003   -2.656497289289356E-023
 -7.100000000000000E-003   -3.521477757842212E-023
 -6.999999999999999E-003   -4.177215689991130E-023
 -6.899999999999999E-003   -4.497306865124382E-023
 -6.800000000000000E-003   -4.365735920180058E-023
 -6.699999999999999E-003   -3.693264114621677E-023
 -6.599999999999999E-003   -2.434424430248539E-023
 -6.499999999999999E-003   -6.031949128593158E-024
 -6.399999999999999E-003    1.714863505809714E-023
 -6.299999999999999E-003    4.356297049213269E-023
 -6.199999999999999E-003    7.081418964956721E-023
 -6.100000000000000E-003    9.585539359954367E-023
 -5.999999999999999E-003    1.152066010965138E-022
 -5.899999999999999E-003    1.252738137572041E-022
 -5.800000000000000E-003    1.227548811720742E-022
 -5.699999999999999E-003    1.051031198693041E-022
 -5.599999999999999E-003    7.100565728964187E-023
 -5.499999999999999E-003    2.082187056203610E-023
 -5.399999999999999E-003   -4.307998789508884E-023
 -5.299999999999999E-003   -1.161516253585924E-022
 -5.199999999999999E-003   -1.917172668907828E-022
 -5.099999999999999E-003   -2.612937432411966E-022
 -4.999999999999999E-003   -3.151998921924409E-022
 -4.899999999999999E-003   -3.434462551774983E-022
 -4.799999999999999E-003   -3.368622089839346E-022
 -4.699999999999999E-003   -2.883765881787707E-022
 -4.599999999999999E-003   -1.943337329992532E-022
 -4.499999999999999E-003   -5.569461014115146E-023
 -4.399999999999999E-003    1.210454145152793E-022
 -4.299999999999999E-003    3.233947130851309E-022
 -4.199999999999999E-003    5.330144352017283E-022
 -4.099999999999999E-003    7.265950089782570E-022
 -3.999999999999999E-003    8.775148559621317E-022
 -3.899999999999999E-003    9.582557601908773E-022
 -3.799999999999999E-003    9.434536109806573E-022
 -3.699999999999999E-003    8.133607807605013E-022
 -3.599999999999999E-003    5.574032822899555E-022
 -3.499999999999999E-003    1.774315273512430E-022
 -3.399999999999999E-003   -3.097809070754702E-022
 -3.299999999999999E-003   -8.712444295566423E-022
 -3.199999999999999E-003   -1.458074910883532E-021
 -3.099999999999999E-003   -2.007734621337653E-021
 -2.999999999999999E-003   -2.448336612640678E-021
 -2.899999999999999E-003   -2.704948372097480E-021
 -2.799999999999999E-003   -2.707579228478140E-021
 -2.699999999999999E-003   -2.400283755552503E-021
 -2.599999999999999E-003   -1.750556860936119E-021
 -2.499999999999999E-003   -7.580008207053464E-022
 -2.399999999999999E-003    5.388834727069360E-022
 -2.299999999999999E-003    2.058941519181749E-021
 -2.199999999999999E-003    3.678698918893262E-021
 -2.099999999999999E-003    5.237578610861466E-021
 -1.999999999999999E-003    6.548380645476562E-021
 -1.899999999999999E-003    7.412908599577339E-021
 -1.799999999999999E-003    7.641974967860771E-021
 -1.699999999999999E-003    7.078410875579807E-021
 -1.599999999999999E-003    5.621062873101505E-021
 -1.499999999999999E-003    3.247257722925268E-021
 -1.399999999999999E-003    3.091189781801937E-023
 -1.299999999999999E-003   -3.846586481415159E-021
 -1.199999999999999E-003   -8.095365445404363E-021
 -1.099999999999999E-003   -1.232792268642338E-020
 -9.999999999999989E-004   -1.608289509296115E-020
 -8.999999999999990E-004   -1.886157351013811E-020
 -7.999999999999990E-004   -2.017545574235528E-020
 -6.999999999999989E-004   -1.960166946607227E-020
 -5.999999999999990E-004   -1.684155232813795E-020
 -4.999999999999989E-004   -1.177647208312680E-020
 -3.999999999999989E-004   -4.514210660079247E-021
 -2.999999999999989E-004    4.580973583511335E-021
 -1.999999999999989E-004    1.488090418621597E-020
 -9.999999999999892E-005    2.551356941587719E-020
  1.084202172485504E-018    3.541349912215586E-020
  1.000000000000011E-004    4.340236612779745E-020
  2.000000000000011E-004    4.829621904239112E-020
  3.000000000000011E-004    4.903239183184603E-020
  4.000000000000011E-004    4.480554808193755E-020
  5.000000000000011E-004    3.519952283210933E-020
  6.000000000000011E-004    2.029978581479063E-020
  7.000000000000011E-004    7.707387458269978E-022
  8.000000000000011E-004   -2.211657067815295E-020
  9.000000000000012E-004   -4.651805567487981E-020
  1.000000000000001E-003   -7.011824736502264E-020
  1.100000000000001E-003   -9.030039659317431E-020
  1.200000000000001E-003   -1.043780839117967E-019
  1.300000000000001E-003   -1.098733722681590E-019
  1.400000000000001E-003   -1.048187208303260E-019
  1.500000000000001E-003   -8.805361382807205E-020
  1.600000000000001E-003   -5.948260072493315E-020
  1.700000000000001E-003   -2.025985056121946E-020
  1.800000000000001E-003    2.713198631582118E-020
  1.900000000000001E-003    7.893498086873850E-020
  2.000000000000001E-003    1.303167770451679E-019
  2.100000000000001E-003    1.757219099147080E-019
  2.200000000000001E-003    2.093588003877428E-019
  2.300000000000001E-003    2.257921979202418E-019
  2.400000000000001E-003    2.205923421135752E-019
  2.500000000000001E-003    1.909793425649581E-019
  2.600000000000001E-003    1.363909378584816E-019
  2.700000000000001E-003    5.889867789077389E-020
  2.800000000000001E-003   -3.659740560700159E-020
  2.900000000000001E-003   -1.424535576800969E-019
  3.000000000000001E-003   -2.486817366337115E-019
  3.100000000000001E-003   -3.436714419127433E-019
  3.200000000000001E-003   -4.152061482598654E-019
  3.300000000000001E-003   -4.517100669985021E-019
  3.400000000000001E-003   -4.436260527219535E-019
  3.500000000000001E-003   -3.847935014175324E-019
  3.600000000000001E-003   -2.736753543056009E-019
  3.700000000000001E-003   -1.142743656523783E-019
  3.800000000000001E-003    8.341139423267780E-020
  3.900000000000001E-003    3.035183914302571E-019
  4.000000000000001E-003    5.251140219273904E-019
  4.100000000000001E-003    7.236774264092574E-019
  4.200000000000001E-003    8.732164648502562E-019
  4.300000000000001E-003    9.488874471633811E-019
  4.400000000000001E-003    9.299162791870149E-019
  4.500000000000001E-003    8.025476577430568E-019
  4.600000000000002E-003    5.627070671009038E-019
  4.700000000000001E-003    2.180380266449198E-019
  4.800000000000001E-003   -2.110067827840713E-019
  4.900000000000002E-003   -6.912893255724030E-019
  5.000000000000001E-003   -1.178511197225583E-018
  5.100000000000001E-003   -1.620192518496910E-018
  5.200000000000001E-003   -1.960021554719751E-018
  5.300000000000002E-003   -2.143319861482188E-018
  5.400000000000001E-003   -2.123215718111371E-018
  5.500000000000001E-003   -1.866975156877527E-018
  5.600000000000002E-003   -1.361832472613661E-018
  5.700000000000001E-003   -6.196226792675583E-019
  5.800000000000001E-003    3.204723878301395E-019
  5.900000000000002E-003    1.391652619198147E-018
  6.000000000000001E-003    2.502118790428937E-018
  6.100000000000001E-003    3.540761295172065E-018
  6.200000000000002E-003    4.385786366707798E-018
  6.300000000000002E-003    4.915833881765754E-018
  6.400000000000001E-003    5.022795781188885E-018
  6.500000000000001E-003    4.625246363011592E-018
  6.600000000000002E-003    3.681169208518597E-018
  6.700000000000001E-003    2.198539576793417E-018
  6.800000000000001E-003    2.423314350641765E-019
  6.900000000000002E-003   -2.063329127916565E-018
  7.000000000000001E-003   -4.538829105081795E-018
  7.100000000000001E-003   -6.959016861665169E-018
  7.200000000000002E-003   -9.069381604982245E-018
  7.300000000000002E-003   -1.060767328329123E-017
  7.400000000000001E-003   -1.132957042733760E-017
  7.500000000000001E-003   -1.103631303760456E-017
  7.600000000000002E-003   -9.601748529254631E-018
  7.700000000000001E-003   -6.995928934746338E-018
  7.800000000000001E-003   -3.302321684965005E-018
  7.900000000000001E-003    1.274038916284836E-018
  8.000000000000002E-003    6.409609374718656E-018
  8.100000000000001E-003    1.167788440960340E-017
  8.200000000000001E-003    1.657761201293134E-017
  8.300000000000002E-003    2.057258948354162E-017
  8.400000000000001E-003    2.314061179236047E-017
  8.500000000000002E-003    2.382784121699654E-017
  8.600000000000002E-003    2.230383879633644E-017
  8.700000000000001E-003    1.841173607784961E-017
  8.800000000000002E-003    1.220778931397635E-017
  8.900000000000002E-003    3.984827402703836E-018
  9.000000000000001E-003   -5.724957305058651E-018
  9.100000000000002E-003   -1.617094097250810E-017
  9.200000000000002E-003   -2.642984391189990E-017
  9.300000000000001E-003   -3.547497648187501E-017
  9.400000000000002E-003   -4.226508798930391E-017
  9.500000000000001E-003   -4.584641861508541E-017
  9.600000000000001E-003   -4.545932163626905E-017
  9.700000000000002E-003   -4.063928755216131E-017
  9.800000000000001E-003   -3.130138016833483E-017
  9.900000000000001E-003   -1.779734873982928E-017
  1.000000000000000E-002   -9.361006224380161E-019
  1.010000000000000E-002    1.803922787116386E-017
  1.020000000000000E-002    3.752105042342225E-017
  1.030000000000000E-002    5.565258158189265E-017
  1.040000000000000E-002    7.048298469125347E-017
  1.050000000000000E-002    8.015153083009204E-017
  1.060000000000000E-002    8.308580642158316E-017
  1.070000000000000E-002    7.819566466711133E-017
  1.080000000000000E-002    6.504247822855073E-017
  1.090000000000000E-002    4.396357485558351E-017
  1.100000000000000E-002    1.613336322984074E-017
  1.110000000000000E-002   -1.645296250490437E-017
  1.120000000000000E-002   -5.108114714566944E-017
  1.130000000000000E-002   -8.450528888947165E-017
  1.140000000000000E-002   -1.132126931437567E-016
  1.150000000000000E-002   -1.337485504853651E-016
  1.160000000000000E-002   -1.430747594306818E-016
  1.170000000000000E-002   -1.389304199753917E-016
  1.180000000000000E-002   -1.201573462213963E-016
  1.190000000000000E-002   -8.695278603019062E-017
  1.200000000000000E-002   -4.101458170393912E-017
  1.210000000000000E-002    1.444971626065452E-017
  1.220000000000000E-002    7.486735211683528E-017
  1.230000000000000E-002    1.346027708009660E-016
  1.240000000000000E-002    1.874066222994323E-016
  1.250000000000000E-002    2.269830732675304E-016
  1.260000000000000E-002    2.476320462958175E-016
  1.270000000000000E-002    2.449096115099399E-016
  1.280000000000000E-002    2.162407608172964E-016
  1.290000000000000E-002    1.614157327399421E-016
  1.300000000000000E-002    8.290406668585382E-017
  1.310000000000000E-002   -1.406765479698909E-017
  1.320000000000000E-002   -1.217128975547707E-016
  1.330000000000000E-002   -2.301699350793060E-016
  1.340000000000000E-002   -3.282604014182063E-016
  1.350000000000000E-002   -4.044776275062382E-016
  1.360000000000000E-002   -4.481318583631532E-016
  1.370000000000000E-002   -4.505531860288327E-016
  1.380000000000000E-002   -4.062368031994771E-016
  1.390000000000000E-002   -3.138052313714049E-016
  1.400000000000000E-002   -1.766661569498820E-016
  1.410000000000000E-002   -3.260536972178473E-018
  1.420000000000000E-002    1.931741070067103E-016
  1.430000000000000E-002    3.953624195200026E-016
  1.440000000000000E-002    5.832568084747064E-016
  1.450000000000000E-002    7.357433960708519E-016
  1.460000000000000E-002    8.326688325538005E-016
  1.470000000000000E-002    8.570182452688771E-016
  1.480000000000000E-002    7.970413864989698E-016
  1.490000000000000E-002    6.481037652738356E-016
  1.500000000000000E-002    4.140391189314846E-016
  1.510000000000000E-002    1.078062813050181E-016
  1.520000000000000E-002   -2.487026546432637E-016
  1.530000000000000E-002   -6.257853175718210E-016
  1.540000000000000E-002   -9.879818245244062E-016
  1.550000000000000E-002   -1.296960713044968E-015
  1.560000000000000E-002   -1.515044899605959E-015
  1.570000000000000E-002   -1.609096875913903E-015
  1.580000000000000E-002   -1.554411904005671E-015
  1.590000000000000E-002   -1.338224999877542E-015
  1.600000000000000E-002   -9.624315515797928E-016
  1.610000000000000E-002   -4.451512748660411E-016
  1.620000000000000E-002    1.791579297402842E-016
  1.630000000000000E-002    8.612193304480225E-016
  1.640000000000000E-002    1.540128963414308E-015
  1.650000000000000E-002    2.148090721512898E-015
  1.660000000000000E-002    2.616400614092132E-015
  1.670000000000000E-002    2.882218203712797E-015
  1.680000000000000E-002    2.895536962020644E-015
  1.690000000000000E-002    2.625671281955331E-015
  1.700000000000000E-002    2.066554270260045E-015
  1.710000000000000E-002    1.240173257640112E-015
  1.720000000000000E-002    1.975902916619860E-016
  1.730000000000000E-002   -9.828419247711681E-016
  1.740000000000000E-002   -2.200190258049844E-015
  1.750000000000000E-002   -3.338451652687151E-015
  1.760000000000000E-002   -4.276414328914253E-015
  1.770000000000000E-002   -4.899148009093676E-015
  1.780000000000000E-002   -5.110152054332606E-015
  1.790000000000000E-002   -4.843014495101470E-015
  1.800000000000000E-002   -4.071358139298129E-015
  1.810000000000000E-002   -2.815886893532522E-015
  1.820000000000000E-002   -1.147507354225571E-015
  1.830000000000000E-002    8.142213605713875E-016
  1.840000000000000E-002    2.907660928630581E-015
  1.850000000000000E-002    4.940590761708187E-015
  1.860000000000000E-002    6.705996117063905E-015
  1.870000000000000E-002    8.001049798908886E-015