 -4.000000000000000E-002    0.000000000000000E+000
 -3.990000000000000E-002    0.000000000000000E+000
 -3.980000000000000E-002    0.000000000000000E+000
 -3.970000000000000E-002    0.000000000000000E+000
 -3.960000000000000E-002    0.000000000000000E+000
 -3.950000000000000E-002    7.372793067333628E-022
 -3.940000000000000E-002    7.694578480891462E-021
 -3.930000000000000E-002    4.322352837646984E-020
 -3.920000000000000E-002    1.727070263330107E-019
 -3.910000000000000E-002    5.475529208132554E-019
 -3.900000000000000E-002    1.456799159255202E-018
 -3.890000000000000E-002    3.357156278107607E-018
 -3.880000000000000E-002    6.817968344865032E-018
 -3.870000000000000E-002    1.227776457106176E-017
 -3.860000000000000E-002    1.947529849530959E-017
 -3.850000000000000E-002    2.641026159453062E-017
 -3.840000000000000E-002    2.773704693970410E-017
 -3.830000000000000E-002    1.262547678128760E-017
 -3.820000000000000E-002   -3.763558308928657E-017
 -3.810000000000000E-002   -1.516695685915567E-016
 -3.800000000000000E-002   -3.686182381968466E-016
 -3.790000000000000E-002   -7.358205995736405E-016
 -3.780000000000000E-002   -1.301727921148426E-015
 -3.770000000000000E-002   -2.102152343782590E-015
 -3.760000000000000E-002   -3.138344390721492E-015
 -3.750000000000000E-002   -4.346430981505575E-015
 -3.740000000000000E-002   -5.559500985471106E-015
 -3.730000000000000E-002   -6.466182865595661E-015
 -3.720000000000000E-002   -6.572628728133586E-015
 -3.710000000000000E-002   -5.178141528119165E-015
 -3.700000000000000E-002   -1.377607009221990E-015
 -3.690000000000000E-002    5.894426772248984E-015
 -3.680000000000000E-002    1.776341379109053E-014
 -3.670000000000000E-002    3.524680989853570E-014
 -3.660000000000000E-002    5.901376185113173E-014
 -3.650000000000000E-002    8.907844132590056E-014
 -3.640000000000000E-002    1.244466395698747E-013
 -3.630000000000000E-002    1.627517113043197E-013
 -3.620000000000000E-002    1.999326381441451E-013
 -3.610000000000000E-002    2.300216383965676E-013
 -3.600000000000000E-002    2.451175237084433E-013
 -3.590000000000000E-002    2.356232230213639E-013
 -3.580000000000000E-002    1.908133625447950E-013
 -3.570000000000000E-002    9.977493460141945E-014
 -3.560000000000000E-002   -4.727411380801364E-014
 -3.550000000000000E-002   -2.573349413666124E-013
 -3.540000000000000E-002   -5.327534430541168E-013
 -3.530000000000000E-002   -8.692890718911033E-013
 -3.520000000000000E-002   -1.254355195246520E-012
 -3.510000000000000E-002   -1.665699621363136E-012
 -3.500000000000000E-002   -2.070816450151280E-012
 -3.490000000000000E-002   -2.427361353815739E-012
 -3.480000000000000E-002   -2.684795641936064E-012
 -3.470000000000000E-002   -2.787386260000285E-012
 -3.460000000000000E-002   -2.678555159432141E-012
 -3.450000000000000E-002   -2.306413066674693E-012
 -3.440000000000000E-002   -1.630126921512933E-012
 -3.430000000000000E-002   -6.266028575737149E-013
 -3.420000000000000E-002    7.031876418761027E-013
 -3.410000000000000E-002    2.329005102722877E-012
 -3.400000000000000E-002    4.188060415227278E-012
 -3.390000000000000E-002    6.184380799050119E-012
 -3.380000000000000E-002    8.191393911829901E-012
 -3.370000000000000E-002    1.005803440877890E-011
 -3.360000000000000E-002    1.161835531008232E-011
 -3.350000000000000E-002    1.270419790232038E-011
 -3.340000000000000E-002    1.316010275881081E-011
 -3.330000000000000E-002    1.285921292142917E-011
 -3.320000000000000E-002    1.171866367613751E-011
 -3.310000000000000E-002    9.712736196209888E-012
 -3.300000000000000E-002    6.882053888414970E-012
 -3.290000000000000E-002    3.337288466050235E-012
 -3.280000000000000E-002   -7.437834578770037E-013
 -3.270000000000000E-002   -5.126464668465630E-012
 -3.260000000000000E-002   -9.536426539281636E-012
 -3.250000000000000E-002   -1.368318022049739E-011
 -3.240000000000000E-002   -1.728799008100974E-011
 -3.230000000000000E-002   -2.011374512487393E-011
 -3.220000000000000E-002   -2.199377957374061E-011
 -3.210000000000000E-002   -2.285630190559058E-011
 -3.200000000000000E-002   -2.274113260117905E-011
 -3.190000000000000E-002   -2.180582494581234E-011
 -3.180000000000000E-002   -2.031900129856523E-011
 -3.170000000000000E-002   -1.863979634657264E-011
 -3.160000000000000E-002   -1.718366139810694E-011
 -3.150000000000000E-002   -1.637622745008169E-011
 -3.140000000000000E-002   -1.659845524494284E-011
 -3.130000000000000E-002   -1.812766141464242E-011
 -3.120000000000000E-002   -2.108003715204869E-011
 -3.110000000000000E-002   -2.536099962484886E-011
 -3.100000000000000E-002   -3.062975337006859E-011
 -3.090000000000000E-002   -3.628394985551930E-011
 -3.080000000000000E-002   -4.146929189884753E-011
 -3.070000000000000E-002   -4.511701700940404E-011
 -3.060000000000000E-002   -4.601015546330907E-011
 -3.050000000000000E-002   -4.287681878127572E-011
 -3.040000000000000E-002   -3.450592559969077E-011
 -3.030000000000000E-002   -1.987820884378856E-011
 -3.020000000000000E-002    1.697042631837739E-012
 -3.010000000000000E-002    3.045097780825033E-011
 -3.000000000000000E-002    6.604239053832804E-011
 -2.990000000000000E-002    1.074758486511716E-010
 -2.980000000000000E-002    1.530624112167980E-010
 -2.970000000000000E-002    2.004326571375352E-010
 -2.960000000000000E-002    2.466086714150959E-010
 -2.950000000000000E-002    2.881375100392077E-010
 -2.940000000000000E-002    3.212837788979472E-010
 -2.930000000000000E-002    3.422738962652455E-010
 -2.920000000000000E-002    3.475791802084261E-010
 -2.910000000000000E-002    3.342197265721895E-010
 -2.900000000000000E-002    3.000673873911648E-010
 -2.890000000000000E-002    2.441227926319105E-010
 -2.880000000000000E-002    1.667403907786257E-010
 -2.870000000000000E-002    6.977638482103541E-011
 -2.860000000000000E-002   -4.336240326242727E-011
 -2.850000000000000E-002   -1.677853744644072E-010
 -2.840000000000000E-002   -2.973098452770961E-010
 -2.830000000000000E-002   -4.247765479409304E-010
 -2.820000000000000E-002   -5.424791824854495E-010
 -2.810000000000000E-002   -6.426837674480468E-010
 -2.800000000000000E-002   -7.182071401093207E-010
 -2.790000000000000E-002   -7.630111102167846E-010
 -2.780000000000000E-002   -7.727642570903416E-010
 -2.770000000000000E-002   -7.453199683909894E-010
 -2.760000000000000E-002   -6.810600345843936E-010
 -2.750000000000000E-002   -5.830594499108459E-010
 -2.740000000000000E-002   -4.570392871844391E-010
 -2.730000000000000E-002   -3.110887481689972E-010
 -2.720000000000000E-002   -1.551572486384747E-010
 -2.710000000000000E-002   -3.381147861237411E-013
 -2.700000000000000E-002    1.420130696861543E-010
 -2.690000000000000E-002    2.612622253108742E-010
 -2.680000000000000E-002    3.485038273309559E-010
 -2.670000000000000E-002    3.974996541667559E-010
 -2.660000000000000E-002    4.054572441454955E-010
 -2.650000000000000E-002    3.735588196773940E-010
 -2.640000000000000E-002    3.071669768260293E-010
 -2.630000000000000E-002    2.156558454063854E-010
 -2.620000000000000E-002    1.118469302259795E-010
 -2.610000000000000E-002    1.106421584737294E-011
 -2.600000000000000E-002   -7.013938647270417E-011
 -2.590000000000000E-002   -1.154957884205478E-010
 -2.580000000000000E-002   -1.106554344848532E-010
 -2.570000000000000E-002   -4.479750077472859E-011
 -2.560000000000000E-002    8.793754991220392E-011
 -2.550000000000000E-002    2.873451037790686E-010
 -2.540000000000000E-002    5.465180500296016E-010
 -2.530000000000000E-002    8.517760056250815E-010
 -2.520000000000000E-002    1.183218939255252E-009
 -2.510000000000000E-002    1.515909701638642E-009
 -2.500000000000000E-002    1.821628494638069E-009
 -2.490000000000000E-002    2.071084250407029E-009
 -2.480000000000000E-002    2.236414607423163E-009
 -2.470000000000000E-002    2.293764382902438E-009
 -2.460000000000000E-002    2.225707286968697E-009
 -2.450000000000000E-002    2.023274806561098E-009
 -2.440000000000000E-002    1.687368821513771E-009
 -2.430000000000000E-002    1.229382725076598E-009
 -2.420000000000000E-002    6.709125221170327E-010
 -2.410000000000000E-002    4.251799960402115E-011
 -2.400000000000000E-002   -6.184170852117482E-010
 -2.390000000000000E-002   -1.270587093525933E-009
 -2.380000000000000E-002   -1.872211833736812E-009
 -2.370000000000000E-002   -2.384733664938392E-009
 -2.360000000000000E-002   -2.776436344313107E-009
 -2.350000000000000E-002   -3.025629284169317E-009
 -2.340000000000000E-002   -3.123059640317719E-009
 -2.330000000000000E-002   -3.073264777218238E-009
 -2.320000000000000E-002   -2.894654909098693E-009
 -2.310000000000000E-002   -2.618220456142557E-009
 -2.300000000000000E-002   -2.284884764011255E-009
 -2.290000000000000E-002   -1.941649629050763E-009
 -2.280000000000000E-002   -1.636811886505206E-009
 -2.270000000000000E-002   -1.414639833050276E-009
 -2.260000000000000E-002   -1.309974331340565E-009
 -2.250000000000000E-002   -1.343274752485731E-009
 -2.240000000000000E-002   -1.516625169574709E-009
 -2.230000000000000E-002   -1.811166229220446E-009
 -2.220000000000000E-002   -2.186332574331786E-009
 -2.210000000000000E-002   -2.581128806665831E-009
 -2.200000000000000E-002   -2.917517764104226E-009
 -2.190000000000000E-002   -3.105799660147683E-009
 -2.180000000000000E-002   -3.051671806289592E-009
 -2.170000000000000E-002   -2.664480074978443E-009
 -2.160000000000000E-002   -1.866021995011151E-009
 -2.150000000000000E-002   -5.991735924728101E-010
 -2.140000000000000E-002    1.164453756224225E-009
 -2.130000000000000E-002    3.418565888702984E-009
 -2.120000000000000E-002    6.118611703842480E-009
 -2.110000000000000E-002    9.181075134242621E-009
 -2.100000000000000E-002    1.248590112138631E-008
 -2.090000000000000E-002    1.588208536615416E-008
 -2.080000000000000E-002    1.919614574675278E-008
 -2.070000000000000E-002    2.224295538805343E-008
 -2.060000000000000E-002    2.483815009656517E-008
 -2.050000000000000E-002    2.681115001390086E-008
 -2.040000000000000E-002    2.801771633695025E-008
 -2.030000000000000E-002    2.835096134171018E-008
 -2.020000000000000E-002    2.774980084000569E-008
 -2.010000000000000E-002    2.620403121933082E-008
 -2.000000000000000E-002    2.375549853666635E-008
 -1.990000000000000E-002    2.049514316848366E-008
 -1.980000000000000E-002    1.655613149818208E-008
 -1.970000000000000E-002    1.210364057685650E-008
 -1.960000000000000E-002    7.322253588087934E-009
 -1.950000000000000E-002    2.402199870350787E-009
 -1.940000000000000E-002   -2.474132641834127E-009
 -1.930000000000000E-002   -7.143890129319851E-009
 -1.920000000000000E-002   -1.147223416093229E-008
 -1.910000000000000E-002   -1.535645432735217E-008
 -1.900000000000000E-002   -1.872480818319849E-008
 -1.890000000000000E-002   -2.152976641998412E-008
 -1.880000000000000E-002   -2.373580584535441E-008
 -1.870000000000000E-002   -2.530249976985688E-008
 -1.860000000000000E-002   -2.616410034288483E-008
 -1.850000000000000E-002   -2.620730227335982E-008
 -1.840000000000000E-002   -2.524925482869108E-008
 -1.830000000000000E-002   -2.301780662095612E-008
 -1.820000000000000E-002   -1.913596765579659E-008
 -1.810000000000000E-002   -1.311264420292255E-008
 -1.800000000000000E-002   -4.340444759838882E-009
 -1.790000000000000E-002    7.898436620272540E-009
 -1.780000000000000E-002    2.441846339793386E-008
 -1.770000000000000E-002    4.611016548262421E-008
 -1.760000000000000E-002    7.391403066676630E-008
 -1.750000000000000E-002    1.087912957085551E-007
 -1.740000000000000E-002    1.516941638840737E-007
 -1.730000000000000E-002    2.035384810934848E-007
 -1.720000000000000E-002    2.651814712506193E-007
 -1.710000000000000E-002    3.374071917146432E-007
 -1.700000000000000E-002    4.209212860681413E-007
 -1.690000000000000E-002    5.163563665566310E-007
 -1.680000000000000E-002    6.242878838346975E-007
 -1.670000000000000E-002    7.452598139656536E-007
 -1.660000000000000E-002    8.798183765845292E-007
 -1.650000000000000E-002    1.028550083197294E-006
 -1.640000000000000E-002    1.192122481543147E-006
 -1.630000000000000E-002    1.371323017345840E-006
 -1.620000000000000E-002    1.567091947982611E-006
 -1.610000000000000E-002    1.780547715845342E-006
 -1.600000000000000E-002    2.013001125444366E-006
 -1.590000000000000E-002    2.265956386558949E-006
 -1.580000000000000E-002    2.541100170908801E-006
 -1.570000000000000E-002    2.840279354530536E-006
 -1.560000000000000E-002    3.165467026891914E-006
 -1.550000000000000E-002    3.518723773096755E-006
 -1.540000000000000E-002    3.902155234064079E-006
 -1.530000000000000E-002    4.317870424780770E-006
 -1.520000000000000E-002    4.767945841597552E-006
 -1.510000000000000E-002    5.254400134496727E-006
 -1.500000000000000E-002    5.779177962814913E-006
 -1.490000000000000E-002    6.344153001595037E-006
 -1.480000000000000E-002    6.951139985490125E-006
 -1.470000000000000E-002    7.601926595463128E-006
 -1.460000000000000E-002    8.298315910396418E-006
 -1.450000000000000E-002    9.042174072381654E-006
 -1.440000000000000E-002    9.835491136356510E-006
 -1.430000000000000E-002    1.068043349430038E-005
 -1.420000000000000E-002    1.157939636614028E-005
 -1.410000000000000E-002    1.253505100043368E-005
 -1.400000000000000E-002    1.355037565058172E-005
 -1.390000000000000E-002    1.462867045617448E-005
 -1.380000000000000E-002    1.577356406890591E-005
 -1.370000000000000E-002    1.698899861791557E-005
 -1.360000000000000E-002    1.827920393993794E-005
 -1.350000000000000E-002    1.964866648304097E-005
 -1.340000000000000E-002    2.110208719629887E-005
 -1.330000000000000E-002    2.264433798483653E-005
 -1.320000000000000E-002    2.428042741782657E-005
 -1.310000000000000E-002    2.601547237678312E-005
 -1.300000000000000E-002    2.785468497128662E-005
 -1.290000000000000E-002    2.980336894895391E-005
 -1.280000000000000E-002    3.186694522879027E-005
 -1.270000000000000E-002    3.405098304096527E-005
 -1.260000000000000E-002    3.636124974182042E-005
 -1.250000000000000E-002    3.880378268479163E-005
 -1.240000000000000E-002    4.138496084084426E-005
 -1.230000000000000E-002    4.411158271348082E-005
 -1.220000000000000E-002    4.699093506347462E-005
 -1.210000000000000E-002    5.003088646066269E-005
 -1.200000000000000E-002    5.323991726691456E-005
 -1.190000000000000E-002    5.662718397822112E-005
 -1.180000000000000E-002    6.020253078360871E-005
 -1.170000000000000E-002    6.397651831804950E-005
 -1.160000000000000E-002    6.796039399790678E-005
 -1.150000000000000E-002    7.216606809440648E-005
 -1.140000000000000E-002    7.660608574312520E-005
 -1.130000000000000E-002    8.129356111607697E-005
 -1.120000000000000E-002    8.624215023679438E-005
 -1.110000000000000E-002    9.146598574848191E-005
 -1.100000000000000E-002    9.697966828392688E-005
 -1.090000000000000E-002    1.027982179861435E-004
 -1.080000000000000E-002    1.089370895395235E-004
 -1.070000000000000E-002    1.154121970258057E-004
 -1.060000000000000E-002    1.222399635527734E-004
 -1.050000000000000E-002    1.294373603966568E-004
 -1.040000000000000E-002    1.370220465757328E-004
 -1.030000000000000E-002    1.450124176001409E-004
 -1.020000000000000E-002    1.534277815145566E-004
 -1.010000000000000E-002    1.622884289921495E-004
 -1.000000000000000E-002    1.716157952930517E-004
 -9.899999999999999E-003    1.814325322142628E-004
 -9.800000000000000E-003    1.917626341550141E-004
 -9.699999999999999E-003    2.026315075798688E-004
 -9.599999999999999E-003    2.140660313795761E-004
 -9.500000000000000E-003    2.260945375119646E-004
 -9.399999999999999E-003    2.387468758617202E-004
 -9.299999999999999E-003    2.520543711554354E-004
 -9.200000000000000E-003    2.660497620346752E-004
 -9.099999999999999E-003    2.807672002525455E-004
 -8.999999999999999E-003    2.962421553405824E-004
 -8.900000000000000E-003    3.125114273292324E-004
 -8.799999999999999E-003    3.296130460700848E-004
 -8.699999999999999E-003    3.475863007633632E-004
 -8.600000000000000E-003    3.664717871399637E-004
 -8.499999999999999E-003    3.863113569880198E-004
 -8.399999999999999E-003    4.071482357894900E-004
 -8.300000000000000E-003    4.290271608311178E-004
 -8.199999999999999E-003    4.519944591519984E-004
 -8.100000000000000E-003    4.760982107108442E-004
 -8.000000000000000E-003    5.013883322121427E-004
 -7.899999999999999E-003    5.279168549271840E-004
 -7.800000000000000E-003    5.557380165352979E-004
 -7.699999999999999E-003    5.849084415593654E-004
 -7.599999999999999E-003    6.154871761871020E-004
 -7.499999999999999E-003    6.475358349921756E-004
 -7.399999999999999E-003    6.811187381846585E-004
 -7.299999999999999E-003    7.163029042029545E-004
 -7.199999999999999E-003    7.531580219568888E-004
 -7.100000000000000E-003    7.917565835718288E-004
 -6.999999999999999E-003    8.321737707067587E-004
 -6.899999999999999E-003    8.744875739188459E-004
 -6.800000000000000E-003    9.187785856089746E-004
 -6.699999999999999E-003    9.651303356032632E-004
 -6.599999999999999E-003    1.013628921259797E-003
 -6.499999999999999E-003    1.064363468655164E-003
 -6.399999999999999E-003    1.117425820273191E-003
 -6.299999999999999E-003    1.172910922879116E-003
 -6.199999999999999E-003    1.230916958672036E-003
 -6.100000000000000E-003    1.291545142924666E-003
 -5.999999999999999E-003    1.354900169523705E-003
 -5.899999999999999E-003    1.421090368699447E-003
 -5.800000000000000E-003    1.490227644100847E-003
 -5.699999999999999E-003    1.562427792446512E-003
 -5.599999999999999E-003    1.637810481575462E-003
 -5.499999999999999E-003    1.716499425538596E-003
 -5.399999999999999E-003    1.798622344096243E-003
 -5.299999999999999E-003    1.884311058661269E-003
 -5.199999999999999E-003    1.973701657528529E-003
 -5.099999999999999E-003    2.066934047812825E-003
 -4.999999999999999E-003    2.164152570774528E-003
 -4.899999999999999E-003    2.265505641959434E-003
 -4.799999999999999E-003    2.371145570542991E-003
 -4.699999999999999E-003    2.481229452897583E-003
 -4.599999999999999E-003    2.595918252912786E-003
 -4.499999999999999E-003    2.715377310614681E-003
 -4.399999999999999E-003    2.839776729268616E-003
 -4.299999999999999E-003    2.969290985865665E-003
 -4.199999999999999E-003    3.104099301589280E-003
 -4.099999999999999E-003    3.244385978508588E-003
 -3.999999999999999E-003    3.390340244178863E-003
 -3.899999999999999E-003    3.542156445479583E-003
 -3.799999999999999E-003    3.700034672343119E-003
 -3.699999999999999E-003    3.864180189785465E-003
 -3.599999999999999E-003    4.034804020432094E-003
 -3.499999999999999E-003    4.212122488549564E-003
 -3.399999999999999E-003    4.396357931044783E-003
 -3.299999999999999E-003    4.587737770444620E-003
 -3.199999999999999E-003    4.786495071545856E-003
 -3.099999999999999E-003    4.992868771837917E-003
 -2.999999999999999E-003    5.207103533958202E-003
 -2.899999999999999E-003    5.429447788157201E-003
 -2.799999999999999E-003    5.660156606952862E-003
 -2.699999999999999E-003    5.899489357017814E-003
 -2.599999999999999E-003    6.147710956704498E-003
 -2.499999999999999E-003    6.405091393553152E-003
 -2.399999999999999E-003    6.671905081527697E-003
 -2.299999999999999E-003    6.948431728364464E-003
 -2.199999999999999E-003    7.234956135672974E-003
 -2.099999999999999E-003    7.531768052710244E-003
 -1.999999999999999E-003    7.839162158179817E-003
 -1.899999999999999E-003    8.157438114124532E-003
 -1.799999999999999E-003    8.486900964811776E-003
 -1.699999999999999E-003    8.827861157545459E-003
 -1.599999999999999E-003    9.180633287789463E-003
 -1.499999999999999E-003    9.545538289828839E-003
 -1.399999999999999E-003    9.922900859064762E-003
 -1.299999999999999E-003    1.031305032394724E-002
 -1.199999999999999E-003    1.071632229253787E-002
 -1.099999999999999E-003    1.113305587467726E-002
 -9.999999999999989E-004    1.156359430416098E-002
 -8.999999999999990E-004    1.200828562252713E-002
 -7.999999999999990E-004    1.246748130783855E-002
 -6.999999999999989E-004    1.294153594740406E-002
 -5.999999999999990E-004    1.343080812219682E-002
 -4.999999999999989E-004    1.393565915808824E-002
 -3.999999999999989E-004    1.445645369319511E-002
 -2.999999999999989E-004    1.499355918540032E-002
 -1.999999999999989E-004    1.554734344854118E-002
 -9.999999999999892E-005    1.611817734608211E-002
  1.084202172485504E-018    1.670643314870802E-002
  1.000000000000011E-004    1.731248441419503E-002
  2.000000000000011E-004    1.793670710605873E-002
  3.000000000000011E-004    1.857947485581759E-002
  4.000000000000011E-004    1.924116637921101E-002
  5.000000000000011E-004    1.992215432489624E-002
  6.000000000000011E-004    2.062281500638783E-002
  7.000000000000011E-004    2.134352423394981E-002
  8.000000000000011E-004    2.208465549383424E-002
  9.000000000000012E-004    2.284657724436816E-002
  1.000000000000001E-003    2.362966152783187E-002
  1.100000000000001E-003    2.443427243174887E-002
  1.200000000000001E-003    2.526077240337885E-002
  1.300000000000001E-003    2.610951928750900E-002
  1.400000000000001E-003    2.698086901006248E-002
  1.500000000000001E-003    2.787517008734781E-002
  1.600000000000001E-003    2.879276412846604E-002
  1.700000000000001E-003    2.973398942681631E-002
  1.800000000000001E-003    3.069917477477619E-002
  1.900000000000001E-003    3.168864492739477E-002
  2.000000000000001E-003    3.270271229531790E-002
  2.100000000000001E-003    3.374168221196278E-002
  2.200000000000001E-003    3.480584877935579E-002
  2.300000000000001E-003    3.589549958569268E-002
  2.400000000000001E-003    3.701091063859464E-002
  2.500000000000001E-003    3.815234073180686E-002
  2.600000000000001E-003    3.932003942641935E-002
  2.700000000000001E-003    4.051424240661035E-002
  2.800000000000001E-003    4.173516953212834E-002
  2.900000000000001E-003    4.298302610084749E-002
  3.000000000000001E-003    4.425800122832096E-002
  3.100000000000001E-003    4.556026732622170E-002
  3.200000000000001E-003    4.688997574661330E-002
  3.300000000000001E-003    4.824725789255306E-002
  3.400000000000001E-003    4.963222690133322E-002
  3.500000000000001E-003    5.104497599041703E-002
  3.600000000000001E-003    5.248557095420014E-002
  3.700000000000001E-003    5.395405697459019E-002
  3.800000000000001E-003    5.545045507185371E-002
  3.900000000000001E-003    5.697476111166454E-002
  4.000000000000001E-003    5.852694180259867E-002
  4.100000000000001E-003    6.010694165376466E-002
  4.200000000000001E-003    6.171467680719758E-002
  4.300000000000001E-003    6.335002640124507E-002
  4.400000000000001E-003    6.501285014190035E-002
  4.500000000000001E-003    6.670296854022643E-002
  4.600000000000002E-003    6.842017208829623E-002
  4.700000000000001E-003    7.016422227413599E-002
  4.800000000000001E-003    7.193483920687377E-002
  4.900000000000002E-003    7.373170381871508E-002
  5.000000000000001E-003    7.555447214099524E-002
  5.100000000000001E-003    7.740275139206260E-002
  5.200000000000001E-003    7.927610939790553E-002
  5.300000000000002E-003    8.117408402972230E-002
  5.400000000000001E-003    8.309615876070110E-002
  5.500000000000001E-003    8.504178209068938E-002
  5.600000000000002E-003    8.701035912608206E-002
  5.700000000000001E-003    8.900124493423554E-002
  5.800000000000001E-003    9.101374701871891E-002
  5.900000000000002E-003    9.304714166857367E-002
  6.000000000000001E-003    9.510063996487321E-002
  6.100000000000001E-003    9.717341095552004E-002
  6.200000000000002E-003    9.926457226253194E-002
  6.300000000000002E-003    0.101373199029472     
  6.400000000000001E-003    0.103498300393285     
  6.500000000000001E-003    0.105638846628847     
  6.600000000000002E-003    0.107793749917384     
  6.700000000000001E-003    0.109961866885113     
  6.800000000000001E-003    0.112142000628279     
  6.900000000000002E-003    0.114332895566383     
  7.000000000000001E-003    0.116533245678418     
  7.100000000000001E-003    0.118741676305925     
  7.200000000000002E-003    0.120956767633571     
  7.300000000000002E-003    0.123177040848735     
  7.400000000000001E-003    0.125400948176816     
  7.500000000000001E-003    0.127626898312931     
  7.600000000000002E-003    0.129853226290849     
  7.700000000000001E-003    0.132078207416120     
  7.800000000000001E-003    0.134300057385711     
  7.900000000000001E-003    0.136516951300732     
  8.000000000000002E-003    0.138726975407307     
  8.100000000000001E-003    0.140928172622278     
  8.200000000000001E-003    0.143118507752244     
  8.300000000000002E-003    0.145295908195953     
  8.400000000000001E-003    0.147458225364997     
  8.500000000000002E-003    0.149603261794245     
  8.600000000000002E-003    0.151728742953462     
  8.700000000000001E-003    0.153832344400703     
  8.800000000000002E-003    0.155911680492437     
  8.900000000000002E-003    0.157964304636166     
  9.000000000000001E-003    0.159987714919796     
  9.100000000000002E-003    0.161979348002819     
  9.200000000000002E-003    0.163936586409048     
  9.300000000000001E-003    0.165856742235399     
  9.400000000000002E-003    0.167737096361578     
  9.500000000000001E-003    0.169574857881384     
  9.600000000000001E-003    0.171367198400527     
  9.700000000000002E-003    0.173111223069580     
  9.800000000000001E-003    0.174803982053151     
  9.900000000000001E-003    0.176442489094757     
  1.000000000000000E-002    0.178023698827254     
  1.010000000000000E-002    0.179544536280952     
  1.020000000000000E-002    0.181001875886470     
  1.030000000000000E-002    0.182392532422750     
  1.040000000000000E-002    0.183713289916103     
  1.050000000000000E-002    0.184960903763918     
  1.060000000000000E-002    0.186132087551326     
  1.070000000000000E-002    0.187223502126617     
  1.080000000000000E-002    0.188231812836507     
  1.090000000000000E-002    0.189153623334605     
  1.100000000000000E-002    0.189985528693928     
  1.110000000000000E-002    0.190724085540847     
  1.120000000000000E-002    0.191365823077539     
  1.130000000000000E-002    0.191907272557078     
  1.140000000000000E-002    0.192344942889823     
  1.150000000000000E-002    0.192675314445263     
  1.160000000000000E-002    0.192894879004835     
  1.170000000000000E-002    0.193000093376718     
  1.180000000000000E-002    0.192987435267037     
  1.190000000000000E-002    0.192853367878382     
  1.200000000000000E-002    0.192594367086018     
  1.210000000000000E-002    0.192206917112058     
  1.220000000000000E-002    0.191687491343346     
  1.230000000000000E-002    0.191032603370228     
  1.240000000000000E-002    0.190238777146208     
  1.250000000000000E-002    0.189302554495321     
  1.260000000000000E-002    0.188220501062312     
  1.270000000000000E-002    0.186989214607297     
  1.280000000000000E-002    0.185605335419068     
  1.290000000000000E-002    0.184065524207759     
  1.300000000000000E-002    0.182366498623780     
  1.310000000000000E-002    0.180505034140819     
  1.320000000000000E-002    0.178477916747591     
  1.330000000000000E-002    0.176282034333745     
  1.340000000000000E-002    0.173914300343017     
  1.350000000000000E-002    0.171371702320393     
  1.360000000000000E-002    0.168651284548022     
  1.370000000000000E-002    0.165750184881494     
  1.380000000000000E-002    0.162665615407945     
  1.390000000000000E-002    0.159394861125244     
  1.400000000000000E-002    0.155935294402940     
  1.410000000000000E-002    0.152284382882064     
  1.420000000000000E-002    0.148439678007209     
  1.430000000000000E-002    0.144398845823027     
  1.440000000000000E-002    0.140159655954711     
  1.450000000000000E-002    0.135719988112171     
  1.460000000000000E-002    0.131077824874599     
  1.470000000000000E-002    0.126231261892170     
  1.480000000000000E-002    0.121178550693063     
  1.490000000000000E-002    0.115918030286609     
  1.500000000000000E-002    0.110448186219011     
  1.510000000000000E-002    0.104767644023087     
  1.520000000000000E-002    9.887515790829583E-002
  1.530000000000000E-002    9.276963628939830E-002
  1.540000000000000E-002    8.645012173942249E-002
  1.550000000000000E-002    7.991581510557506E-002
  1.560000000000000E-002    7.316606668222661E-002
  1.570000000000000E-002    6.620039255201014E-002
  1.580000000000000E-002    5.901846579729322E-002
  1.590000000000000E-002    5.162012928196585E-002
  1.600000000000000E-002    4.400538455258680E-002
  1.610000000000000E-002    3.617442039845387E-002
  1.620000000000000E-002    2.812759559686742E-002
  1.630000000000000E-002    1.986544583721928E-002
  1.640000000000000E-002    1.138868856372896E-002
  1.650000000000000E-002    2.698229605253363E-003
  1.660000000000000E-002   -6.204836639884385E-003
  1.670000000000000E-002   -1.531923056362666E-002
  1.680000000000000E-002   -2.464348344883801E-002
  1.690000000000000E-002   -3.417593190462649E-002
  1.700000000000000E-002   -4.391471598674863E-002
  1.710000000000000E-002   -5.385777926120226E-002
  1.720000000000000E-002   -6.400287818252126E-002
  1.730000000000000E-002   -7.434755579890512E-002
  1.740000000000000E-002   -8.488915734630863E-002
  1.750000000000000E-002   -9.562483884132827E-002
  1.760000000000000E-002   -0.106551546835675     
  1.770000000000000E-002   -0.117666028863815     
  1.780000000000000E-002   -0.128964834831052     
  1.790000000000000E-002   -0.140444290090073     
  1.800000000000000E-002   -0.152100544301844     
  1.810000000000000E-002   -0.163929530016310     
  1.820000000000000E-002   -0.175926979654165     
  1.830000000000000E-002   -0.188088444878316     
  1.840000000000000E-002   -0.200409242295709     
  1.850000000000000E-002   -0.212884519345530     
  1.860000000000000E-002   -0.225509209073372     
  1.870000000000000E-002   -0.238278062878460     