 -4.000000000000000E-002    0.000000000000000E+000
 -3.990000000000000E-002    0.000000000000000E+000
 -3.980000000000000E-002    0.000000000000000E+000
 -3.970000000000000E-002    0.000000000000000E+000
 -3.960000000000000E-002    0.000000000000000E+000
 -3.950000000000000E-002    0.000000000000000E+000
 -3.940000000000000E-002    0.000000000000000E+000
 -3.930000000000000E-002    0.000000000000000E+000
 -3.920000000000000E-002    0.000000000000000E+000
 -3.910000000000000E-002   -1.149694959507324E-032
 -3.900000000000000E-002   -1.943148527928491E-031
 -3.890000000000000E-002   -1.694698607381955E-030
 -3.880000000000000E-002   -1.010650102350695E-029
 -3.870000000000000E-002   -4.601499372540939E-029
 -3.860000000000000E-002   -1.688969130336406E-028
 -3.850000000000000E-002   -5.127343401920248E-028
 -3.840000000000000E-002   -1.289781649197108E-027
 -3.830000000000000E-002   -2.593894506480450E-027
 -3.820000000000000E-002   -3.552208223654406E-027
 -3.810000000000000E-002    1.449308306355207E-028
 -3.800000000000000E-002    2.205774981667918E-026
 -3.790000000000000E-002    9.663377299058340E-026
 -3.780000000000000E-002    2.991338640691212E-025
 -3.770000000000000E-002    7.739793030693056E-025
 -3.760000000000000E-002    1.764150494051748E-024
 -3.750000000000000E-002    3.617518596911031E-024
 -3.740000000000000E-002    6.715421168425921E-024
 -3.730000000000000E-002    1.122034412438065E-023
 -3.720000000000000E-002    1.647397591194466E-023
 -3.710000000000000E-002    1.980393727984803E-023
 -3.700000000000000E-002    1.444301672800475E-023
 -3.690000000000000E-002   -1.371940257402053E-023
 -3.680000000000000E-002   -9.067508831507906E-023
 -3.670000000000000E-002   -2.598324736957943E-022
 -3.660000000000000E-002   -5.874677851895161E-022
 -3.650000000000000E-002   -1.165764124540957E-021
 -3.640000000000000E-002   -2.109336775514296E-021
 -3.630000000000000E-002   -3.538955943699122E-021
 -3.620000000000000E-002   -5.544006342215063E-021
 -3.610000000000000E-002   -8.113572249734018E-021
 -3.600000000000000E-002   -1.102616991003331E-020
 -3.590000000000000E-002   -1.369132371065046E-020
 -3.580000000000000E-002   -1.494437554745498E-020
 -3.570000000000000E-002   -1.281062482188572E-020
 -3.560000000000000E-002   -4.277210670759706E-021
 -3.550000000000000E-002    1.485817552873337E-020
 -3.540000000000000E-002    4.995663727085458E-020
 -3.530000000000000E-002    1.071833508181645E-019
 -3.520000000000000E-002    1.926574132364705E-019
 -3.510000000000000E-002    3.109241836636489E-019
 -3.500000000000000E-002    4.625976607963103E-019
 -3.490000000000000E-002    6.410974909476490E-019
 -3.480000000000000E-002    8.285567196947145E-019
 -3.470000000000000E-002    9.912123865951387E-019
 -3.460000000000000E-002    1.074895986715842E-018
 -3.450000000000000E-002    1.001626929501570E-018
 -3.440000000000000E-002    6.687002469266430E-019
 -3.430000000000000E-002   -4.797878212424842E-020
 -3.420000000000000E-002   -1.284353180776305E-018
 -3.410000000000000E-002   -3.170573127187321E-018
 -3.400000000000000E-002   -5.803788755757095E-018
 -3.390000000000000E-002   -9.210886410116818E-018
 -3.380000000000000E-002   -1.330223928104597E-017
 -3.370000000000000E-002   -1.781969225745865E-017
 -3.360000000000000E-002   -2.228470589917131E-017
 -3.350000000000000E-002   -2.595548762919337E-017
 -3.340000000000000E-002   -2.780484596373802E-017
 -3.330000000000000E-002   -2.653259581211768E-017
 -3.320000000000000E-002   -2.062712799037400E-017
 -3.310000000000000E-002   -8.489649952557495E-018
 -3.300000000000000E-002    1.136972201437907E-017
 -3.290000000000000E-002    4.006201200246276E-017
 -3.280000000000000E-002    7.798426684502389E-017
 -3.270000000000000E-002    1.244421129252206E-016
 -3.260000000000000E-002    1.772684292530282E-016
 -3.250000000000000E-002    2.324930857402662E-016
 -3.240000000000000E-002    2.841323855876240E-016
 -3.230000000000000E-002    3.241760233843011E-016
 -3.220000000000000E-002    3.428490673914299E-016
 -3.210000000000000E-002    3.292155053203275E-016
 -3.200000000000000E-002    2.721631719401231E-016
 -3.190000000000000E-002    1.617691760349671E-016
 -3.180000000000000E-002   -9.011317355695419E-018
 -3.170000000000000E-002   -2.424557975917069E-016
 -3.160000000000000E-002   -5.341788031393784E-016
 -3.150000000000000E-002   -8.714906503378411E-016
 -3.140000000000000E-002   -1.232317599705633E-015
 -3.130000000000000E-002   -1.585013895647462E-015
 -3.120000000000000E-002   -1.889370134047935E-015
 -3.110000000000000E-002   -2.099048003073062E-015
 -3.100000000000000E-002   -2.165539012809431E-015
 -3.090000000000000E-002   -2.043557260660070E-015
 -3.080000000000000E-002   -1.697542095510815E-015
 -3.070000000000000E-002   -1.108689773659054E-015
 -3.060000000000000E-002   -2.816810110136186E-016
 -3.050000000000000E-002    7.499252082251212E-016
 -3.040000000000000E-002    1.920779182173713E-015
 -3.030000000000000E-002    3.134433215587641E-015
 -3.020000000000000E-002    4.268564519789049E-015
 -3.010000000000000E-002    5.185263273518979E-015
 -3.000000000000000E-002    5.746357416211724E-015
 -2.990000000000000E-002    5.832971370318868E-015
 -2.980000000000000E-002    5.367688770271459E-015
 -2.970000000000000E-002    4.336828233429114E-015
 -2.960000000000000E-002    2.809591154114044E-015
 -2.950000000000000E-002    9.503506279951487E-016
 -2.940000000000000E-002   -9.797335057781458E-016
 -2.930000000000000E-002   -2.635178715104630E-015
 -2.920000000000000E-002   -3.615099620808687E-015
 -2.910000000000000E-002   -3.509278132441641E-015
 -2.900000000000000E-002   -1.959862224417135E-015
 -2.890000000000000E-002    1.265448182348499E-015
 -2.880000000000000E-002    6.195697527689638E-015
 -2.870000000000000E-002    1.258405075048238E-014
 -2.860000000000000E-002    1.985180961394297E-014
 -2.850000000000000E-002    2.706170706276458E-014
 -2.840000000000000E-002    3.293263768026668E-014
 -2.830000000000000E-002    3.590583895899094E-014
 -2.820000000000000E-002    3.426850024123861E-014
 -2.810000000000000E-002    2.633483447387929E-014
 -2.800000000000000E-002    1.067728809739145E-014
 -2.790000000000000E-002   -1.360788162108147E-014
 -2.780000000000000E-002   -4.662481710273332E-014
 -2.770000000000000E-002   -8.742378459277968E-014
 -2.760000000000000E-002   -1.338053371132170E-013
 -2.750000000000000E-002   -1.822220404836957E-013
 -2.740000000000000E-002   -2.278143487587181E-013
 -2.730000000000000E-002   -2.646100794163285E-013
 -2.720000000000000E-002   -2.859040372358160E-013
 -2.710000000000000E-002   -2.848168535181733E-013
 -2.700000000000000E-002   -2.550111641964660E-013
 -2.690000000000000E-002   -1.915191664575856E-013
 -2.680000000000000E-002   -9.161334013788234E-014
 -2.670000000000000E-002    4.436835907399666E-014
 -2.660000000000000E-002    2.123445872113753E-013
 -2.650000000000000E-002    4.040669560141465E-013
 -2.640000000000000E-002    6.070503191368360E-013
 -2.630000000000000E-002    8.049374025342808E-013
 -2.620000000000000E-002    9.783454401301277E-013
 -2.610000000000000E-002    1.106198759227455E-012
 -2.600000000000000E-002    1.167497562068223E-012
 -2.590000000000000E-002    1.143417036960912E-012
 -2.580000000000000E-002    1.019574561042809E-012
 -2.570000000000000E-002    7.882556285323941E-013
 -2.560000000000000E-002    4.503567108803315E-013
 -2.550000000000000E-002    1.679228968837018E-014
 -2.540000000000000E-002   -4.908727086957787E-013
 -2.530000000000000E-002   -1.040760144573474E-012
 -2.520000000000000E-002   -1.592108204141861E-012
 -2.510000000000000E-002   -2.097821328486225E-012
 -2.500000000000000E-002   -2.508049646362715E-012
 -2.490000000000000E-002   -2.774589587197823E-012
 -2.480000000000000E-002   -2.855770656596506E-012
 -2.470000000000000E-002   -2.721401142679059E-012
 -2.460000000000000E-002   -2.357265374188391E-012
 -2.450000000000000E-002   -1.768647566824510E-012
 -2.440000000000000E-002   -9.823798474554216E-013
 -2.430000000000000E-002   -4.699720147927187E-014
 -2.420000000000000E-002    9.692785579661856E-013
 -2.410000000000000E-002    1.982811354179082E-012
 -2.400000000000000E-002    2.900942667712025E-012
 -2.390000000000000E-002    3.630125661027015E-012
 -2.380000000000000E-002    4.085192423241285E-012
 -2.370000000000000E-002    4.198939793947198E-012
 -2.360000000000000E-002    3.931092853799099E-012
 -2.350000000000000E-002    3.275634906527450E-012
 -2.340000000000000E-002    2.265542622843938E-012
 -2.330000000000000E-002    9.741040575135987E-013
 -2.320000000000000E-002   -4.877473284710808E-013
 -2.310000000000000E-002   -1.978311445001409E-012
 -2.300000000000000E-002   -3.336036203508661E-012
 -2.290000000000000E-002   -4.393856552967438E-012
 -2.280000000000000E-002   -4.995916007023737E-012
 -2.270000000000000E-002   -5.015259666945508E-012
 -2.260000000000000E-002   -4.370820788523736E-012
 -2.250000000000000E-002   -3.041881485873015E-012
 -2.240000000000000E-002   -1.078237025883410E-012
 -2.230000000000000E-002    1.395505480112333E-012
 -2.220000000000000E-002    4.182645737110391E-012
 -2.210000000000000E-002    7.024720978191501E-012
 -2.200000000000000E-002    9.619370682436686E-012
 -2.190000000000000E-002    1.164487846764134E-011
 -2.180000000000000E-002    1.278979458408793E-011
 -2.170000000000000E-002    1.278534939487286E-011
 -2.160000000000000E-002    1.143783398877139E-011
 -2.150000000000000E-002    8.657783384872324E-012
 -2.140000000000000E-002    4.482750000757246E-012
 -2.130000000000000E-002   -9.093006920101423E-013
 -2.120000000000000E-002   -7.198401124323958E-012
 -2.110000000000000E-002   -1.393436321889430E-011
 -2.100000000000000E-002   -2.056242181890881E-011
 -2.090000000000000E-002   -2.646197166671271E-011
 -2.080000000000000E-002   -3.099628949033470E-011
 -2.070000000000000E-002   -3.356989270048756E-011
 -2.060000000000000E-002   -3.368903644131737E-011
 -2.050000000000000E-002   -3.102008449843006E-011
 -2.040000000000000E-002   -2.544002967046007E-011
 -2.030000000000000E-002   -1.707353600735896E-011
 -2.020000000000000E-002   -6.311472504331373E-012
 -2.010000000000000E-002    6.193005117422404E-012
 -2.000000000000000E-002    1.955309207545406E-011
 -1.990000000000000E-002    3.270200074216910E-011
 -1.980000000000000E-002    4.446961881326817E-011
 -1.970000000000000E-002    5.367780965661948E-011
 -1.960000000000000E-002    5.924771800832988E-011
 -1.950000000000000E-002    6.031060000689660E-011
 -1.940000000000000E-002    5.631224669521738E-011
 -1.930000000000000E-002    4.710057321904960E-011
 -1.920000000000000E-002    3.298617085619126E-011
 -1.910000000000000E-002    1.476694175042033E-011
 -1.900000000000000E-002   -6.289830494676890E-012
 -1.890000000000000E-002   -2.851141420686798E-011
 -1.880000000000000E-002   -4.992917418935106E-011
 -1.870000000000000E-002   -6.842891725415604E-011
 -1.860000000000000E-002   -8.193287843762323E-011
 -1.850000000000000E-002   -8.860003396185215E-011
 -1.840000000000000E-002   -8.702791461230112E-011
 -1.830000000000000E-002   -7.643718687400057E-011
 -1.820000000000000E-002   -5.681913677038210E-011
 -1.810000000000000E-002   -2.902774876078365E-011
 -1.800000000000000E-002    5.199258681595704E-012
 -1.790000000000000E-002    4.330098634019767E-011
 -1.780000000000000E-002    8.203950894789972E-011
 -1.770000000000000E-002    1.177279975561072E-010
 -1.760000000000000E-002    1.465285502059698E-010
 -1.750000000000000E-002    1.647994546630695E-010
 -1.740000000000000E-002    1.694643927886833E-010
 -1.730000000000000E-002    1.583701420141633E-010
 -1.720000000000000E-002    1.305972319901385E-010
 -1.710000000000000E-002    8.668780851862719E-011
 -1.700000000000000E-002    2.875898840941703E-011
 -1.690000000000000E-002   -3.952218350954213E-011
 -1.680000000000000E-002   -1.131155918981000E-010
 -1.670000000000000E-002   -1.859363062782606E-010
 -1.660000000000000E-002   -2.513191513187211E-010
 -1.650000000000000E-002   -3.025888729666945E-010
 -1.640000000000000E-002   -3.336915638034714E-010
 -1.630000000000000E-002   -3.398320247008662E-010
 -1.620000000000000E-002   -3.180545640425352E-010
 -1.610000000000000E-002   -2.677042052807311E-010
 -1.600000000000000E-002   -1.907103326646452E-010
 -1.590000000000000E-002   -9.164615258197528E-011
 -1.580000000000000E-002    2.246466771637722E-011
 -1.570000000000000E-002    1.426004946654390E-010
 -1.560000000000000E-002    2.584337531526622E-010
 -1.550000000000000E-002    3.592174158091931E-010
 -1.540000000000000E-002    4.347955220693433E-010
 -1.530000000000000E-002    4.766482883081734E-010
 -1.520000000000000E-002    4.788698723680739E-010
 -1.510000000000000E-002    4.389731497311970E-010
 -1.500000000000000E-002    3.584238517039930E-010
 -1.490000000000000E-002    2.428240613340510E-010
 -1.480000000000000E-002    1.016933527168396E-010
 -1.470000000000000E-002   -5.216730701307870E-011
 -1.460000000000000E-002   -2.037031260385413E-010
 -1.450000000000000E-002   -3.369552227865580E-010
 -1.440000000000000E-002   -4.366241540636194E-010
 -1.430000000000000E-002   -4.897061590810415E-010
 -1.420000000000000E-002   -4.870413734768429E-010
 -1.410000000000000E-002   -4.246061187028807E-010
 -1.400000000000000E-002   -3.043939024046493E-010
 -1.390000000000000E-002   -1.347571003094280E-010
 -1.380000000000000E-002    6.987459885262716E-011
 -1.370000000000000E-002    2.899256433420343E-010
 -1.360000000000000E-002    5.022190292581591E-010
 -1.350000000000000E-002    6.820296989696534E-010
 -1.340000000000000E-002    8.054822606610016E-010
 -1.330000000000000E-002    8.520784297128756E-010
 -1.320000000000000E-002    8.071086955849650E-010
 -1.310000000000000E-002    6.636932526824013E-010
 -1.300000000000000E-002    4.242142277056234E-010
 -1.290000000000000E-002    1.009433869409956E-010
 -1.280000000000000E-002   -2.842636528415942E-010
 -1.270000000000000E-002   -7.012526055623926E-010
 -1.260000000000000E-002   -1.113784276138334E-009
 -1.250000000000000E-002   -1.482529014813042E-009
 -1.240000000000000E-002   -1.768603209878708E-009
 -1.230000000000000E-002   -1.937338207799075E-009
 -1.220000000000000E-002   -1.961924270562797E-009
 -1.210000000000000E-002   -1.826561279744621E-009
 -1.200000000000000E-002   -1.528769559957351E-009
 -1.190000000000000E-002   -1.080575820853414E-009
 -1.180000000000000E-002   -5.083822528818788E-010
 -1.170000000000000E-002    1.485540650882333E-010
 -1.160000000000000E-002    8.409706458069819E-010
 -1.150000000000000E-002    1.513580322065206E-009
 -1.140000000000000E-002    2.109859955241987E-009
 -1.130000000000000E-002    2.577227070558266E-009
 -1.120000000000000E-002    2.872114170813442E-009
 -1.110000000000000E-002    2.964442150199986E-009
 -1.100000000000000E-002    2.841017266540047E-009
 -1.090000000000000E-002    2.507462210702708E-009
 -1.080000000000000E-002    1.988416334458276E-009
 -1.070000000000000E-002    1.325898962855317E-009
 -1.060000000000000E-002    5.759067857810008E-010
 -1.050000000000000E-002   -1.965015318885348E-010
 -1.040000000000000E-002   -9.232163359098583E-010
 -1.030000000000000E-002   -1.539638360823951E-009
 -1.020000000000000E-002   -1.991157502147776E-009
 -1.010000000000000E-002   -2.238900634380842E-009
 -1.000000000000000E-002   -2.264133720266900E-009
 -9.899999999999999E-003   -2.070818008795458E-009
 -9.800000000000000E-003   -1.685973262844793E-009
 -9.699999999999999E-003   -1.157711116928527E-009
 -9.599999999999999E-003   -5.510258301961062E-010
 -9.500000000000000E-003    5.834049173325785E-011
 -9.399999999999999E-003    5.914306507660177E-010
 -9.299999999999999E-003    9.743136551242905E-010
 -9.200000000000000E-003    1.146240119318584E-009
 -9.099999999999999E-003    1.066886938215387E-009
 -8.999999999999999E-003    7.219220249471723E-010
 -8.900000000000000E-003    1.262481728856385E-010
 -8.799999999999999E-003   -6.755129341137571E-010
 -8.699999999999999E-003   -1.611484229099244E-009
 -8.600000000000000E-003   -2.587846731361906E-009
 -8.499999999999999E-003   -3.496623347075189E-009
 -8.399999999999999E-003   -4.225296761185239E-009
 -8.300000000000000E-003   -4.667407555962074E-009
 -8.199999999999999E-003   -4.733162050588335E-009
 -8.100000000000000E-003   -4.359024653968229E-009
 -8.000000000000000E-003   -3.515327239132189E-009
 -7.899999999999999E-003   -2.211087818008910E-009
 -7.800000000000000E-003   -4.954562469139175E-010
 -7.699999999999999E-003    1.544484565991298E-009
 -7.599999999999999E-003    3.789500909282709E-009
 -7.499999999999999E-003    6.097162428848256E-009
 -7.399999999999999E-003    8.313244773622443E-009
 -7.299999999999999E-003    1.028458428844550E-008
 -7.199999999999999E-003    1.187223393683318E-008
 -7.100000000000000E-003    1.296367932324941E-008
 -6.999999999999999E-003    1.348293617879168E-008
 -6.899999999999999E-003    1.339750187640103E-008
 -6.800000000000000E-003    1.272139911740729E-008
 -6.699999999999999E-003    1.151390756776146E-008
 -6.599999999999999E-003    9.873961127280228E-009
 -6.499999999999999E-003    7.930611567939355E-009
 -6.399999999999999E-003    5.830351415116973E-009
 -6.299999999999999E-003    3.722422873919828E-009
 -6.199999999999999E-003    1.743467794675159E-009
 -6.100000000000000E-003    3.007109043860195E-012
 -5.999999999999999E-003   -1.428779252827558E-009
 -5.899999999999999E-003   -2.529651032243771E-009
 -5.800000000000000E-003   -3.329238458247831E-009
 -5.699999999999999E-003   -3.907646865528433E-009
 -5.599999999999999E-003   -4.388521204284006E-009
 -5.499999999999999E-003   -4.926870823308223E-009
 -5.399999999999999E-003   -5.692415890865425E-009
 -5.299999999999999E-003   -6.849664303901108E-009
 -5.199999999999999E-003   -8.536271130656733E-009
 -5.099999999999999E-003   -1.084142273702486E-008
 -4.999999999999999E-003   -1.378607198571878E-008
 -4.899999999999999E-003   -1.730673408679924E-008
 -4.799999999999999E-003   -2.124432011832169E-008
 -4.699999999999999E-003   -2.533905604897917E-008
 -4.599999999999999E-003   -2.923204656035229E-008
 -4.499999999999999E-003   -3.247349780695571E-008
 -4.399999999999999E-003   -3.453697764184793E-008
 -4.299999999999999E-003   -3.483857597359395E-008
 -4.199999999999999E-003   -3.275934466515112E-008
 -4.099999999999999E-003   -2.766906492095514E-008
 -3.999999999999999E-003   -1.894922379118961E-008
 -3.899999999999999E-003   -6.013079822168500E-009
 -3.799999999999999E-003    1.167903034228718E-008
 -3.699999999999999E-003    3.461077712602837E-008
 -3.599999999999999E-003    6.320810538472061E-008
 -3.499999999999999E-003    9.784518533071557E-008
 -3.399999999999999E-003    1.388576458818555E-007
 -3.299999999999999E-003    1.865619263314817E-007
 -3.199999999999999E-003    2.412792665211707E-007
 -3.099999999999999E-003    3.033621077835944E-007
 -2.999999999999999E-003    3.732205009225614E-007
 -2.899999999999999E-003    4.513460849483921E-007
 -2.799999999999999E-003    5.383312959931936E-007
 -2.699999999999999E-003    6.348816548835972E-007
 -2.599999999999999E-003    7.418202201890931E-007
 -2.499999999999999E-003    8.600833646310021E-007
 -2.399999999999999E-003    9.907076109654511E-007
 -2.299999999999999E-003    1.134809781729251E-006
 -2.199999999999999E-003    1.293560972886231E-006
 -2.099999999999999E-003    1.468157908818024E-006
 -1.999999999999999E-003    1.659793432298565E-006
 -1.899999999999999E-003    1.869630960275323E-006
 -1.799999999999999E-003    2.098784129979014E-006
 -1.699999999999999E-003    2.348304380038779E-006
 -1.599999999999999E-003    2.619179912039498E-006
 -1.499999999999999E-003    2.912345332937854E-006
 -1.399999999999999E-003    3.228701853143619E-006
 -1.299999999999999E-003    3.569149297398453E-006
 -1.199999999999999E-003    3.934624231682952E-006
 -1.099999999999999E-003    4.326144753182675E-006
 -9.999999999999989E-004    4.744855950221503E-006
 -8.999999999999990E-004    5.192072724193271E-006
 -7.999999999999990E-004    5.669318091389884E-006
 -6.999999999999989E-004    6.178350173893987E-006
 -5.999999999999990E-004    6.721179133403641E-006
 -4.999999999999989E-004    7.300068236842179E-006
 -3.999999999999989E-004    7.917523935100636E-006
 -2.999999999999989E-004    8.576271317227368E-006
 -1.999999999999989E-004    9.279217977945603E-006
 -9.999999999999892E-005    1.002941501193115E-005
  1.084202172485504E-018    1.083001083976009E-005
  1.000000000000011E-004    1.168420850435045E-005
  2.000000000000011E-004    1.259522761186472E-005
  3.000000000000011E-004    1.356628414261173E-005
  4.000000000000011E-004    1.460057180499455E-005
  5.000000000000011E-004    1.570127103643189E-005
  6.000000000000011E-004    1.687156954630013E-005
  7.000000000000011E-004    1.811470060615891E-005
  8.000000000000011E-004    1.943399632652913E-005
  9.000000000000012E-004    2.083294597703059E-005
  1.000000000000001E-003    2.231527019878649E-005
  1.100000000000001E-003    2.388498366669719E-005
  1.200000000000001E-003    2.554646819618664E-005
  1.300000000000001E-003    2.730451565889811E-005
  1.400000000000001E-003    2.916438046546118E-005
  1.500000000000001E-003    3.113179609316305E-005
  1.600000000000001E-003    3.321297950479935E-005
  1.700000000000001E-003    3.541462265524001E-005
  1.800000000000001E-003    3.774386876485902E-005
  1.900000000000001E-003    4.020825850459703E-005
  2.000000000000001E-003    4.281571061628989E-005
  2.100000000000001E-003    4.557444705363635E-005
  2.200000000000001E-003    4.849297360564643E-005
  2.300000000000001E-003    5.158003088817385E-005
  2.400000000000001E-003    5.484459711820896E-005
  2.500000000000001E-003    5.829587046126778E-005
  2.600000000000001E-003    6.194331119364858E-005
  2.700000000000001E-003    6.579666869779289E-005
  2.800000000000001E-003    6.986605776620878E-005
  2.900000000000001E-003    7.416202006006851E-005
  3.000000000000001E-003    7.869561592978624E-005
  3.100000000000001E-003    8.347851312763679E-005
  3.200000000000001E-003    8.852306884408536E-005
  3.300000000000001E-003    9.384241297103928E-005
  3.400000000000001E-003    9.945050822865489E-005
  3.500000000000001E-003    1.053622091569181E-004
  3.600000000000001E-003    1.115932612512193E-004
  3.700000000000001E-003    1.181603544455393E-004
  3.800000000000001E-003    1.250810640644789E-004
  3.900000000000001E-003    1.323738537782644E-004
  4.000000000000001E-003    1.400580758813226E-004
  4.100000000000001E-003    1.481538641172500E-004
  4.200000000000001E-003    1.566821846863616E-004
  4.300000000000001E-003    1.656647447204910E-004
  4.400000000000001E-003    1.751240272421688E-004
  4.500000000000001E-003    1.850833020831752E-004
  4.600000000000002E-003    1.955666350042637E-004
  4.700000000000001E-003    2.065989693745998E-004
  4.800000000000001E-003    2.182061686619649E-004
  4.900000000000002E-003    2.304151837876713E-004
  5.000000000000001E-003    2.432540515821022E-004
  5.100000000000001E-003    2.567520736499272E-004
  5.200000000000001E-003    2.709399404011775E-004
  5.300000000000002E-003    2.858497604234734E-004
  5.400000000000001E-003    3.015152350106360E-004
  5.500000000000001E-003    3.179717081763121E-004
  5.600000000000002E-003    3.352561875288966E-004
  5.700000000000001E-003    3.534074458026967E-004
  5.800000000000001E-003    3.724659617984870E-004
  5.900000000000002E-003    3.924740340431223E-004
  6.000000000000001E-003    4.134756425492545E-004
  6.100000000000001E-003    4.355165790931514E-004
  6.200000000000002E-003    4.586443020431197E-004
  6.300000000000002E-003    4.829079754472728E-004
  6.400000000000001E-003    5.083585516369825E-004
  6.500000000000001E-003    5.350487345869484E-004
  6.600000000000002E-003    5.630329738148246E-004
  6.700000000000001E-003    5.923675901883291E-004
  6.800000000000001E-003    6.231109197349638E-004
  6.900000000000002E-003    6.553233418948707E-004
  7.000000000000001E-003    6.890673407075649E-004
  7.100000000000001E-003    7.244078445855903E-004
  7.200000000000002E-003    7.614121292750952E-004
  7.300000000000002E-003    8.001501949190455E-004
  7.400000000000001E-003    8.406946387834167E-004
  7.500000000000001E-003    8.831210877273995E-004
  7.600000000000002E-003    9.275078664932960E-004
  7.700000000000001E-003    9.739365932823124E-004
  7.800000000000001E-003    1.022491767115515E-003
  7.900000000000001E-003    1.073261132813355E-003
  8.000000000000002E-003    1.126335636770784E-003
  8.100000000000001E-003    1.181809283540504E-003
  8.200000000000001E-003    1.239779347909078E-003
  8.300000000000002E-003    1.300346261499713E-003
  8.400000000000001E-003    1.363613613041580E-003
  8.500000000000002E-003    1.429688374882059E-003
  8.600000000000002E-003    1.498680650922741E-003
  8.700000000000001E-003    1.570703942656786E-003
  8.800000000000002E-003    1.645875262642086E-003
  8.900000000000002E-003    1.724315067062035E-003
  9.000000000000001E-003    1.806147362053391E-003
  9.100000000000002E-003    1.891500003048211E-003
  9.200000000000002E-003    1.980504986456087E-003
  9.300000000000001E-003    2.073297982791659E-003
  9.400000000000002E-003    2.170019283748451E-003
  9.500000000000001E-003    2.270813323149309E-003
  9.600000000000001E-003    2.375828957077587E-003
  9.700000000000002E-003    2.485219590564157E-003
  9.800000000000001E-003    2.599143505804997E-003
  9.900000000000001E-003    2.717763475042236E-003
  1.000000000000000E-002    2.841247237663485E-003
  1.010000000000000E-002    2.969767004972288E-003
  1.020000000000000E-002    3.103500134266090E-003
  1.030000000000000E-002    3.242628387927768E-003
  1.040000000000000E-002    3.387338852023977E-003
  1.050000000000000E-002    3.537823005824459E-003
  1.060000000000000E-002    3.694277093154437E-003
  1.070000000000000E-002    3.856902494190146E-003
  1.080000000000000E-002    4.025905396836552E-003
  1.090000000000000E-002    4.201497222585574E-003
  1.100000000000000E-002    4.383894040916224E-003
  1.110000000000000E-002    4.573316786996124E-003
  1.120000000000000E-002    4.769992657974599E-003
  1.130000000000000E-002    4.974153132776989E-003
  1.140000000000000E-002    5.186035232199675E-003
  1.150000000000000E-002    5.405882112862279E-003
  1.160000000000000E-002    5.633941741918389E-003
  1.170000000000000E-002    5.870467842662256E-003
  1.180000000000000E-002    6.115719957390712E-003
  1.190000000000000E-002    6.369963472877566E-003
  1.200000000000000E-002    6.633468206010119E-003
  1.210000000000000E-002    6.906510626145657E-003
  1.220000000000000E-002    7.189372084887448E-003
  1.230000000000000E-002    7.482339034631450E-003
  1.240000000000000E-002    7.785703819859054E-003
  1.250000000000000E-002    8.099763807641869E-003
  1.260000000000000E-002    8.424820882753200E-003
  1.270000000000000E-002    8.761182883763253E-003
  1.280000000000000E-002    9.109161834267583E-003
  1.290000000000000E-002    9.469075460691574E-003
  1.300000000000000E-002    9.841245055607160E-003
  1.310000000000000E-002    1.022599706006896E-002
  1.320000000000000E-002    1.062366355984815E-002
  1.330000000000000E-002    1.103458025470251E-002
  1.340000000000000E-002    1.145908889449722E-002
  1.350000000000000E-002    1.189753382448759E-002
  1.360000000000000E-002    1.235026555458774E-002
  1.370000000000000E-002    1.281763795631807E-002
  1.380000000000000E-002    1.330000851483854E-002
  1.390000000000000E-002    1.379773966414899E-002
  1.400000000000000E-002    1.431119781336335E-002
  1.410000000000000E-002    1.484075213456635E-002
  1.420000000000000E-002    1.538677433223995E-002
  1.430000000000000E-002    1.594963877991136E-002
  1.440000000000000E-002    1.652972568825480E-002
  1.450000000000000E-002    1.712741316367633E-002
  1.460000000000000E-002    1.774308433969268E-002
  1.470000000000000E-002    1.837712240456096E-002
  1.480000000000000E-002    1.902991208480027E-002
  1.490000000000000E-002    1.970183962713586E-002
  1.500000000000000E-002    2.039329174534926E-002
  1.510000000000000E-002    2.110465648229458E-002
  1.520000000000000E-002    2.183632057767267E-002
  1.530000000000000E-002    2.258867154600582E-002
  1.540000000000000E-002    2.336209504908147E-002
  1.550000000000000E-002    2.415697679985031E-002
  1.560000000000000E-002    2.497369943774470E-002
  1.570000000000000E-002    2.581264462288092E-002
  1.580000000000000E-002    2.667419182699471E-002
  1.590000000000000E-002    2.755871690973848E-002
  1.600000000000000E-002    2.846659532941374E-002
  1.610000000000000E-002    2.939819263285350E-002
  1.620000000000000E-002    3.035387211956063E-002
  1.630000000000000E-002    3.133399625266457E-002
  1.640000000000000E-002    3.233891621837626E-002
  1.650000000000000E-002    3.336897858884647E-002
  1.660000000000000E-002    3.442452300967616E-002
  1.670000000000000E-002    3.550588191786056E-002
  1.680000000000000E-002    3.661337832202786E-002
  1.690000000000000E-002    3.774732717750214E-002
  1.700000000000000E-002    3.890803160273611E-002
  1.710000000000000E-002    4.009578748479195E-002
  1.720000000000000E-002    4.131087809609306E-002
  1.730000000000000E-002    4.255357482528451E-002
  1.740000000000000E-002    4.382413963133278E-002
  1.750000000000000E-002    4.512281286376515E-002
  1.760000000000000E-002    4.644983082611941E-002
  1.770000000000000E-002    4.780540816208797E-002
  1.780000000000000E-002    4.918974519464049E-002
  1.790000000000000E-002    5.060303015560384E-002
  1.800000000000000E-002    5.204542757104239E-002
  1.810000000000000E-002    5.351709064536703E-002
  1.820000000000000E-002    5.501814498751253E-002
  1.830000000000000E-002    5.654870333343012E-002
  1.840000000000000E-002    5.810885135359957E-002
  1.850000000000000E-002    5.969865874975637E-002
  1.860000000000000E-002    6.131817280739917E-002
  1.870000000000000E-002    6.296741060625850E-002