 -4.000000000000000E-002    0.000000000000000E+000
 -3.990000000000000E-002    0.000000000000000E+000
 -3.980000000000000E-002    0.000000000000000E+000
 -3.970000000000000E-002   -2.536572986260637E-014
 -3.960000000000000E-002   -1.658787394985513E-013
 -3.950000000000000E-002   -6.065066223311943E-013
 -3.940000000000000E-002   -1.623912814780970E-012
 -3.930000000000000E-002   -3.526799660249169E-012
 -3.920000000000000E-002   -6.530258142166865E-012
 -3.910000000000000E-002   -1.057231288789848E-011
 -3.900000000000000E-002   -1.510106487702191E-011
 -3.890000000000000E-002   -1.887859849201734E-011
 -3.880000000000000E-002   -1.985842548423891E-011
 -3.870000000000000E-002   -1.519305976179539E-011
 -3.860000000000000E-002   -1.415478184420042E-012
 -3.850000000000000E-002    2.518656051286486E-011
 -3.840000000000000E-002    6.801814476929780E-011
 -3.830000000000000E-002    1.294988550178681E-010
 -3.820000000000000E-002    2.103448081045324E-010
 -3.810000000000000E-002    3.089218453244902E-010
 -3.800000000000000E-002    4.207893650755151E-010
 -3.790000000000000E-002    5.385435105255025E-010
 -3.780000000000000E-002    6.520380153618707E-010
 -3.770000000000000E-002    7.490130140057723E-010
 -3.760000000000000E-002    8.161040247006083E-010
 -3.750000000000000E-002    8.401412116970704E-010
 -3.740000000000000E-002    8.095954121036446E-010
 -3.730000000000000E-002    7.159901229933793E-010
 -3.720000000000000E-002    5.550845676290042E-010
 -3.710000000000000E-002    3.276477046420630E-010
 -3.700000000000000E-002    3.968673125729701E-011
 -3.690000000000000E-002   -2.979403973939636E-010
 -3.680000000000000E-002   -6.705156435956377E-010
 -3.670000000000000E-002   -1.060956946492263E-009
 -3.660000000000000E-002   -1.451641925814795E-009
 -3.650000000000000E-002   -1.826327300945661E-009
 -3.640000000000000E-002   -2.171900692645735E-009
 -3.630000000000000E-002   -2.479717271237409E-009
 -3.620000000000000E-002   -2.746310859294281E-009
 -3.610000000000000E-002   -2.973352763346913E-009
 -3.600000000000000E-002   -3.166824494406566E-009
 -3.590000000000000E-002   -3.335479024518835E-009
 -3.580000000000000E-002   -3.488765514839675E-009
 -3.570000000000000E-002   -3.634467978693771E-009
 -3.560000000000000E-002   -3.776357507637988E-009
 -3.550000000000000E-002   -3.912163880006851E-009
 -3.540000000000000E-002   -4.032137013234331E-009
 -3.530000000000000E-002   -4.118400889437674E-009
 -3.520000000000000E-002   -4.145205972843971E-009
 -3.510000000000000E-002   -4.080079662118786E-009
 -3.500000000000000E-002   -3.885767837047988E-009
 -3.490000000000000E-002   -3.522780031927949E-009
 -3.480000000000000E-002   -2.952287607206787E-009
 -3.470000000000000E-002   -2.139113717373422E-009
 -3.460000000000000E-002   -1.054568077737727E-009
 -3.450000000000000E-002    3.210680909839632E-010
 -3.440000000000000E-002    1.996526750156542E-009
 -3.430000000000000E-002    3.968049416024369E-009
 -3.420000000000000E-002    6.218368254348587E-009
 -3.410000000000000E-002    8.716090746874960E-009
 -3.400000000000000E-002    1.141539463475335E-008
 -3.390000000000000E-002    1.425595384368455E-008
 -3.380000000000000E-002    1.716308481440659E-008
 -3.370000000000000E-002    2.004815236626004E-008
 -3.360000000000000E-002    2.280936412904796E-008
 -3.350000000000000E-002    2.533317191679177E-008
 -3.340000000000000E-002    2.749647400201633E-008
 -3.330000000000000E-002    2.916987706092202E-008
 -3.320000000000000E-002    3.022212555993172E-008
 -3.310000000000000E-002    3.052575274617548E-008
 -3.300000000000000E-002    2.996376384519383E-008
 -3.290000000000000E-002    2.843703619408209E-008
 -3.280000000000000E-002    2.587186217701425E-008
 -3.270000000000000E-002    2.222695865953050E-008
 -3.260000000000000E-002    1.749913143850740E-008
 -3.250000000000000E-002    1.172683927301774E-008
 -3.240000000000000E-002    4.990965215964447E-009
 -3.230000000000000E-002   -2.587623799965881E-009
 -3.220000000000000E-002   -1.085384838847516E-008
 -3.210000000000000E-002   -1.962720573370398E-008
 -3.200000000000000E-002   -2.871291217519324E-008
 -3.190000000000000E-002   -3.791425715961510E-008
 -3.180000000000000E-002   -4.704484437141894E-008
 -3.170000000000000E-002   -5.593914520485570E-008
 -3.160000000000000E-002   -6.445984728556618E-008
 -3.150000000000000E-002   -7.250078264382138E-008
 -3.140000000000000E-002   -7.998455969645599E-008
 -3.130000000000000E-002   -8.685466001133915E-008
 -3.120000000000000E-002   -9.306250687463224E-008
 -3.110000000000000E-002   -9.855071361155985E-008
 -3.100000000000000E-002   -1.032343854773760E-007
 -3.090000000000000E-002   -1.069830156004685E-007
 -3.080000000000000E-002   -1.096055861386291E-007
 -3.070000000000000E-002   -1.108417234447977E-007
 -3.060000000000000E-002   -1.103612076370093E-007
 -3.050000000000000E-002   -1.077735224291694E-007
 -3.040000000000000E-002   -1.026482185820417E-007
 -3.030000000000000E-002   -9.454554618219941E-008
 -3.020000000000000E-002   -8.305561509717029E-008
 -3.010000000000000E-002   -6.784312992573851E-008
 -3.000000000000000E-002   -4.869371375690425E-008
 -2.990000000000000E-002   -2.555710118831772E-008
 -2.980000000000000E-002    1.417615769114250E-009
 -2.970000000000000E-002    3.185927450944371E-008
 -2.960000000000000E-002    6.516823205321478E-008
 -2.950000000000000E-002    1.005286437166051E-007
 -2.940000000000000E-002    1.369399519895021E-007
 -2.930000000000000E-002    1.732665702194020E-007
 -2.920000000000000E-002    2.083022249258290E-007
 -2.910000000000000E-002    2.408442251620521E-007
 -2.900000000000000E-002    2.697710878414578E-007
 -2.890000000000000E-002    2.941164190152857E-007
 -2.880000000000000E-002    3.131322204396251E-007
 -2.870000000000000E-002    3.263347666732907E-007
 -2.860000000000000E-002    3.335285537250598E-007
 -2.850000000000000E-002    3.348055458052587E-007
 -2.840000000000000E-002    3.305193199216976E-007
 -2.830000000000000E-002    3.212370469186517E-007
 -2.820000000000000E-002    3.076742911944198E-007
 -2.810000000000000E-002    2.906200313733276E-007
 -2.800000000000000E-002    2.708607478091240E-007
 -2.790000000000000E-002    2.491129177931137E-007
 -2.780000000000000E-002    2.259727668143076E-007
 -2.770000000000000E-002    2.018904130755301E-007
 -2.760000000000000E-002    1.771732016725400E-007
 -2.750000000000000E-002    1.520197284647467E-007
 -2.740000000000000E-002    1.265823632426020E-007
 -2.730000000000000E-002    1.010526493399136E-007
 -2.720000000000000E-002    7.576068233813082E-008
 -2.710000000000000E-002    5.127730790540893E-008
 -2.700000000000000E-002    2.850672820234943E-008
 -2.690000000000000E-002    8.757443182299846E-009
 -2.680000000000000E-002   -6.219203032860434E-009
 -2.670000000000000E-002   -1.423048562313910E-008
 -2.660000000000000E-002   -1.268743650095091E-008
 -2.650000000000000E-002    1.307349516208945E-009
 -2.640000000000000E-002    3.083484473480051E-008
 -2.630000000000000E-002    7.900810180020250E-008
 -2.620000000000000E-002    1.488080423402737E-007
 -2.610000000000000E-002    2.429224091720886E-007
 -2.600000000000000E-002    3.636047662107204E-007
 -2.590000000000000E-002    5.125685258620790E-007
 -2.580000000000000E-002    6.909285147909755E-007
 -2.570000000000000E-002    8.991982293170785E-007
 -2.560000000000000E-002    1.137344031303409E-006
 -2.550000000000000E-002    1.404892807481082E-006
 -2.540000000000000E-002    1.701083978955474E-006
 -2.530000000000000E-002    2.025048920262113E-006
 -2.520000000000000E-002    2.376001699149507E-006
 -2.510000000000000E-002    2.753420666352001E-006
 -2.500000000000000E-002    3.157198715095966E-006
 -2.490000000000000E-002    3.587750867867019E-006
 -2.480000000000000E-002    4.046063078103752E-006
 -2.470000000000000E-002    4.533676790954987E-006
 -2.460000000000000E-002    5.052614705532654E-006
 -2.450000000000000E-002    5.605252376745299E-006
 -2.440000000000000E-002    6.194148620041549E-006
 -2.430000000000000E-002    6.821863829967963E-006
 -2.420000000000000E-002    7.490775753208179E-006
 -2.410000000000000E-002    8.202921350565942E-006
 -2.400000000000000E-002    8.959886282721782E-006
 -2.390000000000000E-002    9.762755377666776E-006
 -2.380000000000000E-002    1.061212640935132E-005
 -2.370000000000000E-002    1.150819999198000E-005
 -2.360000000000000E-002    1.245092260888160E-005
 -2.350000000000000E-002    1.344018890703279E-005
 -2.340000000000000E-002    1.447605879180789E-005
 -2.330000000000000E-002    1.555899213451038E-005
 -2.320000000000000E-002    1.669004884897878E-005
 -2.310000000000000E-002    1.787105643988848E-005
 -2.300000000000000E-002    1.910471804265790E-005
 -2.290000000000000E-002    2.039464266454608E-005
 -2.280000000000000E-002    2.174530976150988E-005
 -2.270000000000000E-002    2.316196302095422E-005
 -2.260000000000000E-002    2.465045109726462E-005
 -2.250000000000000E-002    2.621703001827224E-005
 -2.240000000000000E-002    2.786816070037354E-005
 -2.230000000000000E-002    2.961031930968534E-005
 -2.220000000000000E-002    3.144983198833582E-005
 -2.210000000000000E-002    3.339278161541003E-005
 -2.200000000000000E-002    3.544496835106697E-005
 -2.190000000000000E-002    3.761194364116113E-005
 -2.180000000000000E-002    3.989911525044451E-005
 -2.170000000000000E-002    4.231188861431655E-005
 -2.160000000000000E-002    4.485587071360684E-005
 -2.150000000000000E-002    4.753706393942768E-005
 -2.140000000000000E-002    5.036205880896809E-005
 -2.130000000000000E-002    5.333821899145406E-005
 -2.120000000000000E-002    5.647377651354034E-005
 -2.110000000000000E-002    5.977792002681556E-005
 -2.100000000000000E-002    6.326081628340121E-005
 -2.090000000000000E-002    6.693355525371397E-005
 -2.080000000000000E-002    7.080808324263707E-005
 -2.070000000000000E-002    7.489711933088743E-005
 -2.060000000000000E-002    7.921403822156394E-005
 -2.050000000000000E-002    8.377280097369348E-005
 -2.040000000000000E-002    8.858790617663705E-005
 -2.030000000000000E-002    9.367436888894851E-005
 -2.020000000000000E-002    9.904776784509630E-005
 -2.010000000000000E-002    1.047243257758292E-004
 -2.000000000000000E-002    1.107210275790254E-004
 -1.990000000000000E-002    1.170557226685538E-004
 -1.980000000000000E-002    1.237472767513656E-004
 -1.970000000000000E-002    1.308156930700516E-004
 -1.960000000000000E-002    1.382821633677956E-004
 -1.950000000000000E-002    1.461691212023810E-004
 -1.940000000000000E-002    1.545002140830558E-004
 -1.930000000000000E-002    1.633002279912998E-004
 -1.920000000000000E-002    1.725950475546162E-004
 -1.910000000000000E-002    1.824114786501193E-004
 -1.900000000000000E-002    1.927771965701226E-004
 -1.890000000000000E-002    2.037205985875344E-004
 -1.880000000000000E-002    2.152708423839332E-004
 -1.870000000000000E-002    2.274577803447805E-004
 -1.860000000000000E-002    2.403120851777345E-004
 -1.850000000000000E-002    2.538653674290068E-004
 -1.840000000000000E-002    2.681503481632166E-004
 -1.830000000000000E-002    2.832010564036038E-004
 -1.820000000000000E-002    2.990530864768446E-004
 -1.810000000000000E-002    3.157437430400968E-004
 -1.800000000000000E-002    3.333121714654084E-004
 -1.790000000000000E-002    3.517994727989977E-004
 -1.780000000000000E-002    3.712486522875451E-004
 -1.770000000000000E-002    3.917045980999117E-004
 -1.760000000000000E-002    4.132138809806033E-004
 -1.750000000000000E-002    4.358245953254205E-004
 -1.740000000000000E-002    4.595861367740287E-004
 -1.730000000000000E-002    4.845490245167720E-004
 -1.720000000000000E-002    5.107647262649633E-004
 -1.710000000000000E-002    5.382856654899288E-004
 -1.700000000000000E-002    5.671652972135246E-004
 -1.690000000000000E-002    5.974581069994005E-004
 -1.680000000000000E-002    6.292200456714148E-004
 -1.670000000000000E-002    6.625088212592570E-004
 -1.660000000000000E-002    6.973843048321727E-004
 -1.650000000000000E-002    7.339089903727538E-004
 -1.640000000000000E-002    7.721483148959195E-004
 -1.630000000000000E-002    8.121710639044774E-004
 -1.620000000000000E-002    8.540496936702712E-004
 -1.610000000000000E-002    8.978601514973061E-004
 -1.600000000000000E-002    9.436820660877960E-004
 -1.590000000000000E-002    9.915986243154299E-004
 -1.580000000000000E-002    1.041696150742741E-003
 -1.570000000000000E-002    1.094063867968173E-003
 -1.560000000000000E-002    1.148793575528619E-003
 -1.550000000000000E-002    1.205979345125950E-003
 -1.540000000000000E-002    1.265717367598746E-003
 -1.530000000000000E-002    1.328105964747013E-003
 -1.520000000000000E-002    1.393245560295059E-003
 -1.510000000000000E-002    1.461239137403749E-003
 -1.500000000000000E-002    1.532192508588108E-003
 -1.490000000000000E-002    1.606215037002982E-003
 -1.480000000000000E-002    1.683419905828109E-003
 -1.470000000000000E-002    1.763925440534104E-003
 -1.460000000000000E-002    1.847854716051186E-003
 -1.450000000000000E-002    1.935336972438128E-003
 -1.440000000000000E-002    2.026507010187624E-003
 -1.430000000000000E-002    2.121506083311394E-003
 -1.420000000000000E-002    2.220481107240025E-003
 -1.410000000000000E-002    2.323584841549796E-003
 -1.400000000000000E-002    2.430975049259784E-003
 -1.390000000000000E-002    2.542814474999743E-003
 -1.380000000000000E-002    2.659269925006570E-003
 -1.370000000000000E-002    2.780512038325746E-003
 -1.360000000000000E-002    2.906714853408958E-003
 -1.350000000000000E-002    3.038055741715847E-003
 -1.340000000000000E-002    3.174715446799149E-003
 -1.330000000000000E-002    3.316878656859663E-003
 -1.320000000000000E-002    3.464734183531185E-003
 -1.310000000000000E-002    3.618475852734896E-003
 -1.300000000000000E-002    3.778302993839252E-003
 -1.290000000000000E-002    3.944421415979192E-003
 -1.280000000000000E-002    4.117043906922826E-003
 -1.270000000000000E-002    4.296390890407760E-003
 -1.260000000000000E-002    4.482690810328197E-003
 -1.250000000000000E-002    4.676179936260370E-003
 -1.240000000000000E-002    4.877102020921816E-003
 -1.230000000000000E-002    5.085708850481544E-003
 -1.220000000000000E-002    5.302259008533660E-003
 -1.210000000000000E-002    5.527016859875425E-003
 -1.200000000000000E-002    5.760252637069118E-003
 -1.190000000000000E-002    6.002241588269496E-003
 -1.180000000000000E-002    6.253263553238101E-003
 -1.170000000000000E-002    6.513603808088323E-003
 -1.160000000000000E-002    6.783550436810656E-003
 -1.150000000000000E-002    7.063398716280541E-003
 -1.140000000000000E-002    7.353448163418359E-003
 -1.130000000000000E-002    7.654004877501417E-003
 -1.120000000000000E-002    7.965380759862932E-003
 -1.110000000000000E-002    8.287896638623565E-003
 -1.100000000000000E-002    8.621881008038748E-003
 -1.090000000000000E-002    8.967671041641220E-003
 -1.080000000000000E-002    9.325611922229943E-003
 -1.070000000000000E-002    9.696058566423008E-003
 -1.060000000000000E-002    1.007937308590222E-002
 -1.050000000000000E-002    1.047592629135704E-002
 -1.040000000000000E-002    1.088609472095386E-002
 -1.030000000000000E-002    1.131026081255313E-002
 -1.020000000000000E-002    1.174881241712256E-002
 -1.010000000000000E-002    1.220214157235774E-002
 -1.000000000000000E-002    1.267064365376324E-002
 -9.899999999999999E-003    1.315471776724485E-002
 -9.800000000000000E-003    1.365476619360851E-002
 -9.699999999999999E-003    1.417119517291247E-002
 -9.599999999999999E-003    1.470441343875816E-002
 -9.500000000000000E-003    1.525483696108183E-002
 -9.399999999999999E-003    1.582288600289077E-002
 -9.299999999999999E-003    1.640898662487781E-002
 -9.200000000000000E-003    1.701357139782925E-002
 -9.099999999999999E-003    1.763708033549697E-002
 -8.999999999999999E-003    1.827995857294374E-002
 -8.900000000000000E-003    1.894265999302702E-002
 -8.799999999999999E-003    1.962564185158681E-002
 -8.699999999999999E-003    2.032936886700024E-002
 -8.600000000000000E-003    2.105430679596536E-002
 -8.499999999999999E-003    2.180092608859453E-002
 -8.399999999999999E-003    2.256969808720442E-002
 -8.300000000000000E-003    2.336109575893147E-002
 -8.199999999999999E-003    2.417558991258417E-002
 -8.100000000000000E-003    2.501365022587025E-002
 -8.000000000000000E-003    2.587574931624349E-002
 -7.899999999999999E-003    2.676235520383541E-002
 -7.800000000000000E-003    2.767393714802420E-002
 -7.699999999999999E-003    2.861096281516242E-002
 -7.599999999999999E-003    2.957390220726411E-002
 -7.499999999999999E-003    3.056322462708911E-002
 -7.399999999999999E-003    3.157940148672656E-002
 -7.299999999999999E-003    3.262290160302849E-002
 -7.199999999999999E-003    3.369419451044566E-002
 -7.100000000000000E-003    3.479375142286972E-002
 -6.999999999999999E-003    3.592203942947303E-002
 -6.899999999999999E-003    3.707952754571003E-002
 -6.800000000000000E-003    3.826667711289504E-002
 -6.699999999999999E-003    3.948394353225237E-002
 -6.599999999999999E-003    4.073177462907821E-002
 -6.499999999999999E-003    4.201061160022086E-002
 -6.399999999999999E-003    4.332088606839112E-002
 -6.299999999999999E-003    4.466301558731414E-002
 -6.199999999999999E-003    4.603740778518390E-002
 -6.100000000000000E-003    4.744445661877641E-002
 -5.999999999999999E-003    4.888454909379975E-002
 -5.899999999999999E-003    5.035805660401679E-002
 -5.800000000000000E-003    5.186533693165572E-002
 -5.699999999999999E-003    5.340673462909737E-002
 -5.599999999999999E-003    5.498258613287581E-002
 -5.499999999999999E-003    5.659320798340935E-002
 -5.399999999999999E-003    5.823891085052148E-002
 -5.299999999999999E-003    5.991998003025333E-002
 -5.199999999999999E-003    6.163669825837645E-002
 -5.099999999999999E-003    6.338931333689818E-002
 -4.999999999999999E-003    6.517806706694114E-002
 -4.899999999999999E-003    6.700317000519102E-002
 -4.799999999999999E-003    6.886480759789390E-002
 -4.699999999999999E-003    7.076314424503594E-002
 -4.599999999999999E-003    7.269831458415456E-002
 -4.499999999999999E-003    7.467042819286306E-002
 -4.399999999999999E-003    7.667955875718099E-002
 -4.299999999999999E-003    7.872574928659519E-002
 -4.199999999999999E-003    8.080900861314289E-002
 -4.099999999999999E-003    8.292932077357959E-002
 -3.999999999999999E-003    8.508662962983021E-002
 -3.899999999999999E-003    8.728084827226405E-002
 -3.799999999999999E-003    8.951185041741594E-002
 -3.699999999999999E-003    9.177947907426647E-002
 -3.599999999999999E-003    9.408353346031295E-002
 -3.499999999999999E-003    9.642378142769575E-002
 -3.399999999999999E-003    9.879994160935079E-002
 -3.299999999999999E-003    0.101211693434350     
 -3.199999999999999E-003    0.103658679010192     
 -3.099999999999999E-003    0.106140477986919     
 -2.999999999999999E-003    0.108656631256481     
 -2.899999999999999E-003    0.111206629868052     
 -2.799999999999999E-003    0.113789904796050     
 -2.699999999999999E-003    0.116405826436869     
 -2.599999999999999E-003    0.119053738038072     
 -2.499999999999999E-003    0.121732881051847     
 -2.399999999999999E-003    0.124442464986649     
 -2.299999999999999E-003    0.127181638002766     
 -2.199999999999999E-003    0.129949475408449     
 -2.099999999999999E-003    0.132744995663044     
 -1.999999999999999E-003    0.135567142277992     
 -1.899999999999999E-003    0.138414818060811     
 -1.799999999999999E-003    0.141286832541657     
 -1.699999999999999E-003    0.144181938916434     
 -1.599999999999999E-003    0.147098809466361     
 -1.499999999999999E-003    0.150036056157016     
 -1.399999999999999E-003    0.152992202098704     
 -1.299999999999999E-003    0.155965706183509     
 -1.199999999999999E-003    0.158954946347397     
 -1.099999999999999E-003    0.161958226700063     
 -9.999999999999989E-004    0.164973741946915     
 -8.999999999999990E-004    0.167999625673673     
 -7.999999999999990E-004    0.171033904347580     
 -6.999999999999989E-004    0.174074534658474     
 -5.999999999999990E-004    0.177119378480157     
 -4.999999999999989E-004    0.180166210303582     
 -3.999999999999989E-004    0.183212706253212     
 -2.999999999999989E-004    0.186256441405046     
 -1.999999999999989E-004    0.189294911260411     
 -9.999999999999892E-005    0.192325515499916     
  1.084202172485504E-018    0.195345544031388     
  1.000000000000011E-004    0.198352208077601     
  2.000000000000011E-004    0.201342613956805     
  3.000000000000011E-004    0.204313764262324     
  4.000000000000011E-004    0.207262563408958     
  5.000000000000011E-004    0.210185808327018     
  6.000000000000011E-004    0.213080222270635     
  7.000000000000011E-004    0.215942381944666     
  8.000000000000011E-004    0.218768766934087     
  9.000000000000012E-004    0.221555775542748     
  1.000000000000001E-003    0.224299681787717     
  1.100000000000001E-003    0.226996655993318     
  1.200000000000001E-003    0.229642752662038     
  1.300000000000001E-003    0.232233913696101     
  1.400000000000001E-003    0.234765972357101     
  1.500000000000001E-003    0.237234669586613     
  1.600000000000001E-003    0.239635630775702     
  1.700000000000001E-003    0.241964369759275     
  1.800000000000001E-003    0.244216286869448     
  1.900000000000001E-003    0.246386672646456     
  2.000000000000001E-003    0.248470724413110     
  2.100000000000001E-003    0.250463533152049     
  2.200000000000001E-003    0.252360068373660     
  2.300000000000001E-003    0.254155208856836     
  2.400000000000001E-003    0.255843722754246     
  2.500000000000001E-003    0.257420291296291     
  2.600000000000001E-003    0.258879465990934     
  2.700000000000001E-003    0.260215705019086     
  2.800000000000001E-003    0.261423374694566     
  2.900000000000001E-003    0.262496737663112     
  3.000000000000001E-003    0.263429959525429     
  3.100000000000001E-003    0.264217099729824     
  3.200000000000001E-003    0.264852151402867     
  3.300000000000001E-003    0.265328996964517     
  3.400000000000001E-003    0.265641413803827     
  3.500000000000001E-003    0.265783134663336     
  3.600000000000001E-003    0.265747781076988     
  3.700000000000001E-003    0.265528901391683     
  3.800000000000001E-003    0.265119982765808     
  3.900000000000001E-003    0.264514430646576     
  4.000000000000001E-003    0.263705599418382     
  4.100000000000001E-003    0.262686782680179     
  4.200000000000001E-003    0.261451206354354     
  4.300000000000001E-003    0.259992032411852     
  4.400000000000001E-003    0.258302389981488     
  4.500000000000001E-003    0.256375378859711     
  4.600000000000002E-003    0.254204022018559     
  4.700000000000001E-003    0.251781338024646     
  4.800000000000001E-003    0.249100307312610     
  4.900000000000002E-003    0.246153869289866     
  5.000000000000001E-003    0.242934960882220     
  5.100000000000001E-003    0.239436504536375     
  5.200000000000001E-003    0.235651421324462     
  5.300000000000002E-003    0.231572641566210     
  5.400000000000001E-003    0.227193080542680     
  5.500000000000001E-003    0.222505686353487     
  5.600000000000002E-003    0.217503432105969     
  5.700000000000001E-003    0.212179331657521     
  5.800000000000001E-003    0.206526421911770     
  5.900000000000002E-003    0.200537806725363     
  6.000000000000001E-003    0.194206648159590     
  6.100000000000001E-003    0.187526173439986     
  6.200000000000002E-003    0.180489681071110     
  6.300000000000002E-003    0.173090564607779     
  6.400000000000001E-003    0.165322305375180     
  6.500000000000001E-003    0.157178481227144     
  6.600000000000002E-003    0.148652784120795     
  6.700000000000001E-003    0.139739033057559     
  6.800000000000001E-003    0.130431161742873     
  6.900000000000002E-003    0.120723253210055     
  7.000000000000001E-003    0.110609539397034     
  7.100000000000001E-003    0.100084412847584     
  7.200000000000002E-003    8.914244424234409E-002
  7.300000000000002E-003    7.777837895136595E-002
  7.400000000000001E-003    6.598716674993640E-002
  7.500000000000001E-003    5.376396833871883E-002
  7.600000000000002E-003    4.110416145339277E-002
  7.700000000000001E-003    2.800336483009976E-002
  7.800000000000001E-003    1.445743586594320E-002
  7.900000000000001E-003    4.624979080012775E-004
  8.000000000000002E-003   -1.398505581350280E-002
  8.100000000000001E-003   -2.888856541237346E-002
  8.200000000000001E-003   -4.425108558850937E-002
  8.300000000000002E-003   -6.007533554963880E-002
  8.400000000000001E-003   -7.636376356361045E-002
  8.500000000000002E-003   -9.311846177790312E-002
  8.600000000000002E-003   -0.110341202333527     
  8.700000000000001E-003   -0.128033385914540     
  8.800000000000002E-003   -0.146196108092909     
  8.900000000000002E-003   -0.164830050702662     
  9.000000000000001E-003   -0.183935499441518     
  9.100000000000002E-003   -0.203512371720418     
  9.200000000000002E-003   -0.223560162585644     
  9.300000000000001E-003   -0.244077955467509     
  9.400000000000002E-003   -0.265064379068244     
  9.500000000000001E-003   -0.286517618768083     
  9.600000000000001E-003   -0.308435393876917     
  9.700000000000002E-003   -0.330814974137494     
  9.800000000000001E-003   -0.353653147739797     
  9.900000000000001E-003   -0.376946183653148     
  1.000000000000000E-002   -0.400689872319074     
  1.010000000000000E-002   -0.424879472467286     
  1.020000000000000E-002   -0.449509807547510     
  1.030000000000000E-002   -0.474575034191326     
  1.040000000000000E-002   -0.500068902156802     
  1.050000000000000E-002   -0.525984603193962     
  1.060000000000000E-002   -0.552314720761634     
  1.070000000000000E-002   -0.579051357628062     
  1.080000000000000E-002   -0.606185969578758     
  1.090000000000000E-002   -0.633709481565212     
  1.100000000000000E-002   -0.661612222285455     
  1.110000000000000E-002   -0.689883961653143     
  1.120000000000000E-002   -0.718513909119125     
  1.130000000000000E-002   -0.747490533130538     
  1.140000000000000E-002   -0.776801810890895     
  1.150000000000000E-002   -0.806435044416704     
  1.160000000000000E-002   -0.836377010074888     
  1.170000000000000E-002   -0.866613821536309     
  1.180000000000000E-002   -0.897130986820188     
  1.190000000000000E-002   -0.927913360272709     
  1.200000000000000E-002   -0.958945240471765     
  1.210000000000000E-002   -0.990210348931089     
  1.220000000000000E-002    -1.02169162554062     
  1.230000000000000E-002    -1.05337160351122     
  1.240000000000000E-002    -1.08523206805047     
  1.250000000000000E-002    -1.11725439108893     
  1.260000000000000E-002    -1.14941911157728     
  1.270000000000000E-002    -1.18170634287614     
  1.280000000000000E-002    -1.21409554950188     
  1.290000000000000E-002    -1.24656560196598     
  1.300000000000000E-002    -1.27909491002533     
  1.310000000000000E-002    -1.31166115281672     
  1.320000000000000E-002    -1.34424150108936     
  1.330000000000000E-002    -1.37681268292480     
  1.340000000000000E-002    -1.40935063638918     
  1.350000000000000E-002    -1.44183110131830     
  1.360000000000000E-002    -1.47422916299835     
  1.370000000000000E-002    -1.50651934140395     
  1.380000000000000E-002    -1.53867577096684     
  1.390000000000000E-002    -1.57067207367952     
  1.400000000000000E-002    -1.60248152492697     
  1.410000000000000E-002    -1.63407682621599     
  1.420000000000000E-002    -1.66543039114392     
  1.430000000000000E-002    -1.69651422363883     
  1.440000000000000E-002    -1.72729994922861     
  1.450000000000000E-002    -1.75775889724470     
  1.460000000000000E-002    -1.78786198057470     
  1.470000000000000E-002    -1.81757983030181     
  1.480000000000000E-002    -1.84688299561955     
  1.490000000000000E-002    -1.87574129077626     
  1.500000000000000E-002    -1.90412496956562     
  1.510000000000000E-002    -1.93200350670971     
  1.520000000000000E-002    -1.95934663667774     
  1.530000000000000E-002    -1.98612366858740     
  1.540000000000000E-002    -2.01230388013618     
  1.550000000000000E-002    -2.03785660262579     
  1.560000000000000E-002    -2.06275086362907     
  1.570000000000000E-002    -2.08695574532371     
  1.580000000000000E-002    -2.11044045751642     
  1.590000000000000E-002    -2.13317418333405     
  1.600000000000000E-002    -2.15512636888164     
  1.610000000000000E-002    -2.17626608100387     
  1.620000000000000E-002    -2.19656315490670     
  1.630000000000000E-002    -2.21598715485432     
  1.640000000000000E-002    -2.23450798275029     
  1.650000000000000E-002    -2.25209588599523     
  1.660000000000000E-002    -2.26872149084292     
  1.670000000000000E-002    -2.28435550103211     
  1.680000000000000E-002    -2.29896906067837     
  1.690000000000000E-002    -2.31253388883162     
  1.700000000000000E-002    -2.32502177529123     
  1.710000000000000E-002    -2.33640549479517     
  1.720000000000000E-002    -2.34665785497100     
  1.730000000000000E-002    -2.35575238740476     
  1.740000000000000E-002    -2.36366330676274     
  1.750000000000000E-002    -2.37036538158804     
  1.760000000000000E-002    -2.37583397341463     
  1.770000000000000E-002    -2.38004506406798     
  1.780000000000000E-002    -2.38297576448347     
  1.790000000000000E-002    -2.38460347161014     
  1.800000000000000E-002    -2.38490665829750     
  1.810000000000000E-002    -2.38386467093194     
  1.820000000000000E-002    -2.38145763095363     
  1.830000000000000E-002    -2.37766675535058     
  1.840000000000000E-002    -2.37247394676507     
  1.850000000000000E-002    -2.36586237716478     
  1.860000000000000E-002    -2.35781612353290     
  1.870000000000000E-002    -2.34832013064078     