 -4.000000000000000E-002    0.000000000000000E+000
 -3.990000000000000E-002    0.000000000000000E+000
 -3.980000000000000E-002    0.000000000000000E+000
 -3.970000000000000E-002    0.000000000000000E+000
 -3.960000000000000E-002    0.000000000000000E+000
 -3.950000000000000E-002    0.000000000000000E+000
 -3.940000000000000E-002    0.000000000000000E+000
 -3.930000000000000E-002    0.000000000000000E+000
 -3.920000000000000E-002    0.000000000000000E+000
 -3.910000000000000E-002    0.000000000000000E+000
 -3.900000000000000E-002    0.000000000000000E+000
 -3.890000000000000E-002    0.000000000000000E+000
 -3.880000000000000E-002    0.000000000000000E+000
 -3.870000000000000E-002    0.000000000000000E+000
 -3.860000000000000E-002    0.000000000000000E+000
 -3.850000000000000E-002    0.000000000000000E+000
 -3.840000000000000E-002    0.000000000000000E+000
 -3.830000000000000E-002    0.000000000000000E+000
 -3.820000000000000E-002    0.000000000000000E+000
 -3.810000000000000E-002    0.000000000000000E+000
 -3.800000000000000E-002    0.000000000000000E+000
 -3.790000000000000E-002    0.000000000000000E+000
 -3.780000000000000E-002    0.000000000000000E+000
 -3.770000000000000E-002    0.000000000000000E+000
 -3.760000000000000E-002    0.000000000000000E+000
 -3.750000000000000E-002    0.000000000000000E+000
 -3.740000000000000E-002    0.000000000000000E+000
 -3.730000000000000E-002    0.000000000000000E+000
 -3.720000000000000E-002    0.000000000000000E+000
 -3.710000000000000E-002    0.000000000000000E+000
 -3.700000000000000E-002    0.000000000000000E+000
 -3.690000000000000E-002    0.000000000000000E+000
 -3.680000000000000E-002    0.000000000000000E+000
 -3.670000000000000E-002    0.000000000000000E+000
 -3.660000000000000E-002    0.000000000000000E+000
 -3.650000000000000E-002    0.000000000000000E+000
 -3.640000000000000E-002    0.000000000000000E+000
 -3.630000000000000E-002    0.000000000000000E+000
 -3.620000000000000E-002    0.000000000000000E+000
 -3.610000000000000E-002    0.000000000000000E+000
 -3.600000000000000E-002    0.000000000000000E+000
 -3.590000000000000E-002    0.000000000000000E+000
 -3.580000000000000E-002    0.000000000000000E+000
 -3.570000000000000E-002    0.000000000000000E+000
 -3.560000000000000E-002    0.000000000000000E+000
 -3.550000000000000E-002    0.000000000000000E+000
 -3.540000000000000E-002    0.000000000000000E+000
 -3.530000000000000E-002    0.000000000000000E+000
 -3.520000000000000E-002    0.000000000000000E+000
 -3.510000000000000E-002    0.000000000000000E+000
 -3.500000000000000E-002    0.000000000000000E+000
 -3.490000000000000E-002    0.000000000000000E+000
 -3.480000000000000E-002    0.000000000000000E+000
 -3.470000000000000E-002    0.000000000000000E+000
 -3.460000000000000E-002    0.000000000000000E+000
 -3.450000000000000E-002    0.000000000000000E+000
 -3.440000000000000E-002    0.000000000000000E+000
 -3.430000000000000E-002    0.000000000000000E+000
 -3.420000000000000E-002    0.000000000000000E+000
 -3.410000000000000E-002    0.000000000000000E+000
 -3.400000000000000E-002    0.000000000000000E+000
 -3.390000000000000E-002    0.000000000000000E+000
 -3.380000000000000E-002    0.000000000000000E+000
 -3.370000000000000E-002    0.000000000000000E+000
 -3.360000000000000E-002    0.000000000000000E+000
 -3.350000000000000E-002    0.000000000000000E+000
 -3.340000000000000E-002    0.000000000000000E+000
 -3.330000000000000E-002    0.000000000000000E+000
 -3.320000000000000E-002    0.000000000000000E+000
 -3.310000000000000E-002    0.000000000000000E+000
 -3.300000000000000E-002    0.000000000000000E+000
 -3.290000000000000E-002    0.000000000000000E+000
 -3.280000000000000E-002    0.000000000000000E+000
 -3.270000000000000E-002    0.000000000000000E+000
 -3.260000000000000E-002    0.000000000000000E+000
 -3.250000000000000E-002    0.000000000000000E+000
 -3.240000000000000E-002    0.000000000000000E+000
 -3.230000000000000E-002    0.000000000000000E+000
 -3.220000000000000E-002    0.000000000000000E+000
 -3.210000000000000E-002    0.000000000000000E+000
 -3.200000000000000E-002    0.000000000000000E+000
 -3.190000000000000E-002    0.000000000000000E+000
 -3.180000000000000E-002    0.000000000000000E+000
 -3.170000000000000E-002    0.000000000000000E+000
 -3.160000000000000E-002    3.868802447966698E-047
 -3.150000000000000E-002    2.842460799291295E-047
 -3.140000000000000E-002    1.483139715183619E-048
 -3.130000000000000E-002    1.286931313931041E-046
 -3.120000000000000E-002    2.777128831053769E-046
 -3.110000000000000E-002    3.228155428892652E-046
 -3.100000000000000E-002   -3.792520250100553E-046
 -3.090000000000000E-002   -8.609554851801996E-047
 -3.080000000000000E-002   -4.735973051996315E-046
 -3.070000000000000E-002   -2.813159504093674E-046
 -3.060000000000000E-002   -2.354774620570235E-046
 -3.050000000000000E-002   -6.736939477068425E-046
 -3.040000000000000E-002   -2.454890112656171E-045
 -3.030000000000000E-002   -5.464933922241181E-045
 -3.020000000000000E-002   -1.172497610832625E-044
 -3.010000000000000E-002   -2.015107641719558E-044
 -3.000000000000000E-002   -3.400928178232323E-044
 -2.990000000000000E-002   -5.174197679725891E-044
 -2.980000000000000E-002   -7.418551515794307E-044
 -2.970000000000000E-002   -9.889916234213649E-044
 -2.960000000000000E-002   -1.200234312120751E-043
 -2.950000000000000E-002   -1.286646681222110E-043
 -2.940000000000000E-002   -1.061779965446201E-043
 -2.930000000000000E-002   -2.695964048779866E-044
 -2.920000000000000E-002    1.482081624535188E-043
 -2.910000000000000E-002    4.675971574787779E-043
 -2.900000000000000E-002    9.892650567990551E-043
 -2.890000000000000E-002    1.773976895313798E-042
 -2.880000000000000E-002    2.866838900273974E-042
 -2.870000000000000E-002    4.278284198667251E-042
 -2.860000000000000E-002    5.936845278536983E-042
 -2.850000000000000E-002    7.636630965390706E-042
 -2.840000000000000E-002    8.963927270518033E-042
 -2.830000000000000E-002    9.206495894116748E-042
 -2.820000000000000E-002    7.266948260726712E-042
 -2.810000000000000E-002    1.586738137918210E-042
 -2.800000000000000E-002   -9.876641348720390E-042
 -2.790000000000000E-002   -2.957111867765571E-041
 -2.780000000000000E-002   -6.010099679684009E-041
 -2.770000000000000E-002   -1.037212517345792E-040
 -2.760000000000000E-002   -1.614825026153405E-040
 -2.750000000000000E-002   -2.319279796226831E-040
 -2.740000000000000E-002   -3.092989573994506E-040
 -2.730000000000000E-002   -3.812466110800736E-040
 -2.720000000000000E-002   -4.262005192117751E-040
 -2.710000000000000E-002   -4.107367167989863E-040
 -2.700000000000000E-002   -2.875339354555613E-040
 -2.690000000000000E-002    5.095293504189932E-042
 -2.680000000000000E-002    5.407796258278918E-040
 -2.670000000000000E-002    1.398018408991358E-039
 -2.660000000000000E-002    2.646452280086395E-039
 -2.650000000000000E-002    4.324429307370398E-039
 -2.640000000000000E-002    6.406194992798673E-039
 -2.630000000000000E-002    8.758110537103400E-039
 -2.620000000000000E-002    1.108532610356138E-038
 -2.610000000000000E-002    1.287340629229944E-038
 -2.600000000000000E-002    1.333393708479555E-038
 -2.590000000000000E-002    1.136867047692588E-038
 -2.580000000000000E-002    5.573419212569698E-039
 -2.570000000000000E-002   -5.690702423681993E-039
 -2.560000000000000E-002   -2.412568853667476E-038
 -2.550000000000000E-002   -5.119019732964948E-038
 -2.540000000000000E-002   -8.762794239390552E-038
 -2.530000000000000E-002   -1.328145114510501E-037
 -2.520000000000000E-002   -1.839327266595102E-037
 -2.510000000000000E-002   -2.350295333885673E-037
 -2.500000000000000E-002   -2.760670912173106E-037
 -2.490000000000000E-002   -2.921564466589176E-037
 -2.480000000000000E-002   -2.632511824611867E-037
 -2.470000000000000E-002   -1.646648268995876E-037
 -2.460000000000000E-002    3.115371730094229E-038
 -2.450000000000000E-002    3.511232927532598E-037
 -2.440000000000000E-002    8.159012642702381E-037
 -2.430000000000000E-002    1.431869855996922E-036
 -2.420000000000000E-002    2.180808118071112E-036
 -2.410000000000000E-002    3.007814393794072E-036
 -2.400000000000000E-002    3.808740800260999E-036
 -2.390000000000000E-002    4.419293721302032E-036
 -2.380000000000000E-002    4.608915195183744E-036
 -2.370000000000000E-002    4.083558669708328E-036
 -2.360000000000000E-002    2.502234196259307E-036
 -2.350000000000000E-002   -4.875571181675407E-037
 -2.340000000000000E-002   -5.190963373286765E-036
 -2.330000000000000E-002   -1.178071897417314E-035
 -2.320000000000000E-002   -2.018658243589746E-035
 -2.310000000000000E-002   -2.996514875548395E-035
 -2.300000000000000E-002   -4.016316776589251E-035
 -2.290000000000000E-002   -4.919635161717339E-035
 -2.280000000000000E-002   -5.477531213044097E-035
 -2.270000000000000E-002   -5.391965412818896E-035
 -2.260000000000000E-002   -4.310795927823931E-035
 -2.250000000000000E-002   -1.861322099770159E-035
 -2.240000000000000E-002    2.293404015415831E-035
 -2.230000000000000E-002    8.373055294756798E-035
 -2.220000000000000E-002    1.637427583662180E-034
 -2.210000000000000E-002    2.594661850392188E-034
 -2.200000000000000E-002    3.626288550604635E-034
 -2.190000000000000E-002    4.590443154710018E-034
 -2.180000000000000E-002    5.279072556645881E-034
 -2.170000000000000E-002    5.419003568764374E-034
 -2.160000000000000E-002    4.685373380501690E-034
 -2.150000000000000E-002    2.731644898400633E-034
 -2.140000000000000E-002   -7.602118824544421E-035
 -2.130000000000000E-002   -6.007640707881441E-034
 -2.120000000000000E-002   -1.303466262719514E-033
 -2.110000000000000E-002   -2.156391268231989E-033
 -2.100000000000000E-002   -3.090472688383181E-033
 -2.090000000000000E-002   -3.985503144895510E-033
 -2.080000000000000E-002   -4.664156354126543E-033
 -2.070000000000000E-002   -4.892905343999953E-033
 -2.060000000000000E-002   -4.393227066235528E-033
 -2.050000000000000E-002   -2.866465415177961E-033
 -2.040000000000000E-002   -3.503494557047276E-035
 -2.030000000000000E-002    4.298840412041013E-033
 -2.020000000000000E-002    1.017808328425953E-032
 -2.010000000000000E-002    1.740399337733962E-032
 -2.000000000000000E-002    2.544678746636260E-032
 -1.990000000000000E-002    3.336724655619629E-032
 -1.980000000000000E-002    3.976829769912268E-032
 -1.970000000000000E-002    4.279938229337417E-032
 -1.960000000000000E-002    4.023885850386670E-032
 -1.950000000000000E-002    2.967875601682305E-032
 -1.940000000000000E-002    8.830654887749624E-033
 -1.930000000000000E-002   -2.403948664674611E-032
 -1.920000000000000E-002   -6.955728583021968E-032
 -1.910000000000000E-002   -1.266009819207877E-031
 -1.900000000000000E-002   -1.916415031191740E-031
 -1.890000000000000E-002   -2.581588365674205E-031
 -1.880000000000000E-002   -3.162648960362166E-031
 -1.870000000000000E-002   -3.526892602960683E-031
 -1.860000000000000E-002   -3.512970034285015E-031
 -1.850000000000000E-002   -2.942999893323235E-031
 -1.840000000000000E-002   -1.642857425636719E-031
 -1.830000000000000E-002    5.288982891661135E-032
 -1.820000000000000E-002    3.644099190657857E-031
 -1.810000000000000E-002    7.662291956413784E-031
 -1.800000000000000E-002    1.238640255854068E-030
 -1.790000000000000E-002    1.742291980240656E-030
 -1.780000000000000E-002    2.215469792572922E-030
 -1.770000000000000E-002    2.573610820682585E-030
 -1.760000000000000E-002    2.712086197679161E-030
 -1.750000000000000E-002    2.513231679692779E-030
 -1.740000000000000E-002    1.858354137678782E-030
 -1.730000000000000E-002    6.450116366495243E-031
 -1.720000000000000E-002   -1.190851059816603E-030
 -1.710000000000000E-002   -3.649203511371322E-030
 -1.700000000000000E-002   -6.639059128052261E-030
 -1.690000000000000E-002   -9.953969328483997E-030
 -1.680000000000000E-002   -1.325450798257555E-029
 -1.670000000000000E-002   -1.606319250559196E-029
 -1.660000000000000E-002   -1.777759922825064E-029
 -1.650000000000000E-002   -1.770707220999229E-029
 -1.640000000000000E-002   -1.513697986411154E-029
 -1.630000000000000E-002   -9.422035562079840E-030
 -1.620000000000000E-002   -1.064166484128784E-031
 -1.610000000000000E-002    1.293639459186449E-029
 -1.600000000000000E-002    2.935673646918702E-029
 -1.590000000000000E-002    4.819352707338898E-029
 -1.580000000000000E-002    6.777473357466183E-029
 -1.570000000000000E-002    8.568156063447415E-029
 -1.560000000000000E-002    9.880587627032105E-029
 -1.550000000000000E-002    1.035275758667956E-028
 -1.540000000000000E-002    9.603145969910953E-029
 -1.530000000000000E-002    7.277032974660865E-029
 -1.520000000000000E-002    3.106214584489436E-029
 -1.510000000000000E-002   -3.021491359252471E-029
 -1.500000000000000E-002   -1.098922844087480E-028
 -1.490000000000000E-002   -2.038374572997272E-028
 -1.480000000000000E-002   -3.044531787669649E-028
 -1.470000000000000E-002   -4.004828800148619E-028
 -1.460000000000000E-002   -4.772605510642068E-028
 -1.450000000000000E-002   -5.175282480444967E-028
 -1.440000000000000E-002   -5.029076266938478E-028
 -1.430000000000000E-002   -4.160496993986125E-028
 -1.420000000000000E-002   -2.433995692019476E-028
 -1.410000000000000E-002    2.159833326052192E-029
 -1.400000000000000E-002    3.751512904685527E-028
 -1.390000000000000E-002    8.000445972567491E-028
 -1.380000000000000E-002    1.263371862947595E-027
 -1.370000000000000E-002    1.715662594085021E-027
 -1.360000000000000E-002    2.092009639907556E-027
 -1.350000000000000E-002    2.315724542059191E-027
 -1.340000000000000E-002    2.304872100017741E-027
 -1.330000000000000E-002    1.981745985492641E-027
 -1.320000000000000E-002    1.284972281474720E-027
 -1.310000000000000E-002    1.834289116679188E-028
 -1.300000000000000E-002   -1.309329285243528E-027
 -1.290000000000000E-002   -3.121974139321296E-027
 -1.280000000000000E-002   -5.115890547948742E-027
 -1.270000000000000E-002   -7.081748560920956E-027
 -1.260000000000000E-002   -8.744644475279602E-027
 -1.250000000000000E-002   -9.779919570113994E-027
 -1.240000000000000E-002   -9.840983521704551E-027
 -1.230000000000000E-002   -8.599243941931847E-027
 -1.220000000000000E-002   -5.794610268932701E-027
 -1.210000000000000E-002   -1.293090825345276E-027
 -1.200000000000000E-002    4.854094679724410E-027
 -1.190000000000000E-002    1.235745089706177E-026
 -1.180000000000000E-002    2.065134518226158E-026
 -1.170000000000000E-002    2.888132650099223E-026
 -1.160000000000000E-002    3.592637600239602E-026
 -1.150000000000000E-002    4.046409992405609E-026
 -1.140000000000000E-002    4.108361080612757E-026
 -1.130000000000000E-002    3.644588651067552E-026
 -1.120000000000000E-002    2.548484415423391E-026
 -1.110000000000000E-002    7.634953118646213E-027
 -1.100000000000000E-002   -1.693696656104288E-026
 -1.090000000000000E-002   -4.712530347620893E-026
 -1.080000000000000E-002   -8.073987498950640E-026
 -1.070000000000000E-002   -1.144587406918550E-025
 -1.060000000000000E-002   -1.439158787414069E-025
 -1.050000000000000E-002   -1.639528101869593E-025
 -1.040000000000000E-002   -1.690505755782220E-025
 -1.030000000000000E-002   -1.539394349576633E-025
 -1.020000000000000E-002   -1.143587684327115E-025
 -1.010000000000000E-002   -4.791270675995567E-026
 -1.000000000000000E-002    4.506219508713834E-026
 -9.899999999999999E-003    1.607272045030567E-025
 -9.800000000000000E-003    2.911978156559788E-025
 -9.699999999999999E-003    4.243633990398545E-025
 -9.599999999999999E-003    5.441983561378431E-025
 -9.500000000000000E-003    6.316661049409857E-025
 -9.399999999999999E-003    6.662694652354223E-025
 -9.299999999999999E-003    6.282323174566878E-025
 -9.200000000000000E-003    5.012101447958476E-025
 -9.099999999999999E-003    2.753325588471817E-025
 -8.999999999999999E-003   -4.971969894127594E-026
 -8.900000000000000E-003   -4.619859078045756E-025
 -8.799999999999999E-003   -9.352904509502617E-025
 -8.699999999999999E-003   -1.428566296778105E-024
 -8.600000000000000E-003   -1.886869015694735E-024
 -8.499999999999999E-003   -2.244415344669683E-024
 -8.399999999999999E-003   -2.429812291666936E-024
 -8.300000000000000E-003   -2.373402747979753E-024
 -8.199999999999999E-003   -2.016377416973545E-024
 -8.100000000000000E-003   -1.320969144877579E-024
 -8.000000000000000E-003   -2.807370454186614E-025
 -7.899999999999999E-003    1.070330309291892E-024
 -7.800000000000000E-003    2.651346366062315E-024
 -7.699999999999999E-003    4.332199590982622E-024
 -7.599999999999999E-003    5.936730087788418E-024
 -7.499999999999999E-003    7.252451991271946E-024
 -7.399999999999999E-003    8.047289271782279E-024
 -7.299999999999999E-003    8.093028212905321E-024
 -7.199999999999999E-003    7.194286398959589E-024
 -7.100000000000000E-003    5.220778919918503E-024
 -6.999999999999999E-003    2.139695788105369E-024
 -6.899999999999999E-003   -1.955830083971971E-024
 -6.800000000000000E-003   -6.826678248720623E-024
 -6.699999999999999E-003   -1.208073274896384E-023
 -6.599999999999999E-003   -1.718303684325389E-023
 -6.499999999999999E-003   -2.148608738842158E-023
 -6.399999999999999E-003   -2.428149917414415E-023
 -6.299999999999999E-003   -2.487184985669693E-023
 -6.199999999999999E-003   -2.265874707663148E-023
 -6.100000000000000E-003   -1.724012250418775E-023
 -5.999999999999999E-003   -8.506889628650541E-024
 -5.899999999999999E-003    3.273168005829497E-024
 -5.800000000000000E-003    1.739783698151221E-023
 -5.699999999999999E-003    3.271272013594881E-023
 -5.599999999999999E-003    4.764510858032778E-023
 -5.499999999999999E-003    6.029761594900399E-023
 -5.399999999999999E-003    6.860435844439764E-023
 -5.299999999999999E-003    7.054511792884387E-023
 -5.199999999999999E-003    6.440477954387239E-023
 -5.099999999999999E-003    4.905664889999518E-023
 -4.999999999999999E-003    2.424002350042896E-023
 -4.899999999999999E-003   -9.203580402380427E-024
 -4.799999999999999E-003   -4.917480473268669E-023
 -4.699999999999999E-003   -9.227958565150607E-023
 -4.599999999999999E-003   -1.339436733628455E-022
 -4.499999999999999E-003   -1.686999051147599E-022
 -4.399999999999999E-003   -1.906531118567858E-022
 -4.299999999999999E-003   -1.941071024988498E-022
 -4.199999999999999E-003   -1.743136053477530E-022
 -4.099999999999999E-003   -1.282797387564718E-022
 -3.999999999999999E-003   -5.554778582273313E-023
 -3.899999999999999E-003    4.115508348714416E-023
 -3.799999999999999E-003    1.555073223016367E-022
 -3.699999999999999E-003    2.775295382792080E-022
 -3.599999999999999E-003    3.939553362849720E-022
 -3.499999999999999E-003    4.890900395945685E-022
 -3.399999999999999E-003    5.461656603804187E-022
 -3.299999999999999E-003    5.491397259724510E-022
 -3.199999999999999E-003    4.848211795000909E-022
 -3.099999999999999E-003    3.451379200058083E-022
 -2.999999999999999E-003    1.293046134026715E-022
 -2.899999999999999E-003   -1.543964249083930E-022
 -2.799999999999999E-003   -4.875229654290604E-022
 -2.699999999999999E-003   -8.413576259961265E-022
 -2.599999999999999E-003   -1.178002276188616E-021
 -2.499999999999999E-003   -1.452823324345296E-021
 -2.399999999999999E-003   -1.618255198666138E-021
 -2.299999999999999E-003   -1.628809025552911E-021
 -2.199999999999999E-003   -1.446957817993837E-021
 -2.099999999999999E-003   -1.049388949231178E-021
 -1.999999999999999E-003   -4.329631720900862E-022
 -1.899999999999999E-003    3.803922180894539E-022
 -1.799999999999999E-003    1.340665575454230E-021
 -1.699999999999999E-003    2.369382312582358E-021
 -1.599999999999999E-003    3.362479588123436E-021
 -1.499999999999999E-003    4.196800551720664E-021
 -1.399999999999999E-003    4.740215986897900E-021
 -1.299999999999999E-003    4.864968825763232E-021
 -1.199999999999999E-003    4.463367620040438E-021
 -1.099999999999999E-003    3.464496007049495E-021
 -9.999999999999989E-004    1.850217759481378E-021
 -8.999999999999990E-004   -3.315253513688697E-022
 -7.999999999999990E-004   -2.958218968263281E-021
 -6.999999999999989E-004   -5.831053075379939E-021
 -5.999999999999990E-004   -8.681561137368511E-021
 -4.999999999999989E-004   -1.118754904783540E-020
 -3.999999999999989E-004   -1.299839743186715E-020
 -2.999999999999989E-004   -1.376869829147891E-020
 -1.999999999999989E-004   -1.319808635236653E-020
 -9.999999999999892E-005   -1.107395499302055E-020
  1.084202172485504E-018   -7.312753861215013E-021
  1.000000000000011E-004   -1.994935506864570E-021
  2.000000000000011E-004    4.611678824837716E-021
  3.000000000000011E-004    1.204497077054494E-020
  4.000000000000011E-004    1.966201555232366E-020
  5.000000000000011E-004    2.667535245457010E-020
  6.000000000000011E-004    3.221231088063341E-020
  7.000000000000011E-004    3.539507000098942E-020
  8.000000000000011E-004    3.543633560128035E-020
  9.000000000000012E-004    3.174287266737360E-020
  1.000000000000001E-003    2.401664223717085E-020
  1.100000000000001E-003    1.234190202646328E-020
  1.200000000000001E-003   -2.754170022888718E-021
  1.300000000000001E-003   -2.027886666675744E-020
  1.400000000000001E-003   -3.879879841910388E-020
  1.500000000000001E-003   -5.651792679274647E-020
  1.600000000000001E-003   -7.140972168151920E-020
  1.700000000000001E-003   -8.139813643597598E-020
  1.800000000000001E-003   -8.457601498447386E-020
  1.900000000000001E-003   -7.944305918618029E-020
  2.000000000000001E-003   -6.514029688616883E-020
  2.100000000000001E-003   -4.165418798294791E-020
  2.200000000000001E-003   -9.962413353826785E-021
  2.300000000000001E-003    2.790507145175637E-020
  2.400000000000001E-003    6.891106248910792E-020
  2.500000000000001E-003    1.091753632760899E-019
  2.600000000000001E-003    1.442603750397437E-019
  2.700000000000001E-003    1.695664375531751E-019
  2.800000000000001E-003    1.808116088828869E-019
  2.900000000000001E-003    1.745562409834362E-019
  3.000000000000001E-003    1.487213141483084E-019
  3.100000000000001E-003    1.030412797091304E-019
  3.200000000000001E-003    3.938976219880356E-020
  3.300000000000001E-003   -3.807957961820899E-020
  3.400000000000001E-003   -1.230237349787968E-019
  3.500000000000001E-003   -2.072608646555765E-019
  3.600000000000001E-003   -2.813841928885118E-019
  3.700000000000001E-003   -3.356144856433351E-019
  3.800000000000001E-003   -3.608339352506964E-019
  3.900000000000001E-003   -3.497157035890211E-019
  4.000000000000001E-003   -2.978376759699497E-019
  4.100000000000001E-003   -2.046519261152265E-019
  4.200000000000001E-003   -7.417740225113284E-020
  4.300000000000001E-003    8.470835625589423E-020
  4.400000000000001E-003    2.584773479084146E-019
  4.500000000000001E-003    4.297180777322531E-019
  4.600000000000002E-003    5.784672777607186E-019
  4.700000000000001E-003    6.840494492923367E-019
  4.800000000000001E-003    7.273006300503076E-019
  4.900000000000002E-003    6.929895891198389E-019
  5.000000000000001E-003    5.721960701624880E-019
  5.100000000000001E-003    3.643717384987857E-019
  5.200000000000001E-003    7.879952798287426E-020
  5.300000000000002E-003   -2.648123121303720E-019
  5.400000000000001E-003   -6.368100354738970E-019
  5.500000000000001E-003   -9.992729069155563E-019
  5.600000000000002E-003   -1.308899505102524E-018
  5.700000000000001E-003   -1.520978065033504E-018
  5.800000000000001E-003   -1.594176145901522E-018
  5.900000000000002E-003   -1.495752889250930E-018
  6.000000000000001E-003   -1.206678620695318E-018
  6.100000000000001E-003   -7.260820751713028E-019
  6.200000000000002E-003   -7.441928425225009E-020
  6.300000000000002E-003    7.051954976250611E-019
  6.400000000000001E-003    1.547945519493549E-018
  6.500000000000001E-003    2.370819030157726E-018
  6.600000000000002E-003    3.078702329379792E-018
  6.700000000000001E-003    3.572805561268831E-018
  6.800000000000001E-003    3.760879564040569E-018
  6.900000000000002E-003    3.568391770961949E-018
  7.000000000000001E-003    2.949603095837639E-018
  7.100000000000001E-003    1.897320871015893E-018
  7.200000000000002E-003    4.500573413309950E-019
  7.300000000000002E-003   -1.304592998337120E-018
  7.400000000000001E-003   -3.231323815852560E-018
  7.500000000000001E-003   -5.153836658321446E-018
  7.600000000000002E-003   -6.867028795982169E-018
  7.700000000000001E-003   -8.154201803566868E-018
  7.800000000000001E-003   -8.808220778399488E-018
  7.900000000000001E-003   -8.654996995272329E-018
  8.000000000000002E-003   -7.577127516717734E-018
  8.100000000000001E-003   -5.535214751345766E-018
  8.200000000000001E-003   -2.584249196682902E-018
  8.300000000000002E-003    1.117437746054600E-018
  8.400000000000001E-003    5.308715140354791E-018
  8.500000000000002E-003    9.637059585765538E-018
  8.600000000000002E-003    1.368126096714155E-017
  8.700000000000001E-003    1.698469592414903E-017
  8.800000000000002E-003    1.909727349533729E-017
  8.900000000000002E-003    1.962291866733376E-017
  9.000000000000001E-003    1.826841276027796E-017
  9.100000000000002E-003    1.488873763358550E-017
  9.200000000000002E-003    9.523645332849094E-018
  9.300000000000001E-003    2.420403658757294E-018
  9.400000000000002E-003   -5.961621843888304E-018
  9.500000000000001E-003   -1.496761423427442E-017
  9.600000000000001E-003   -2.378643894857569E-017
  9.700000000000002E-003   -3.151137371038030E-017
  9.800000000000001E-003   -3.721915596149501E-017
  9.900000000000001E-003   -4.006169575318165E-017
  1.000000000000000E-002   -3.936275184309111E-017
  1.010000000000000E-002   -3.471023793128551E-017
  1.020000000000000E-002   -2.603401985734129E-017
  1.030000000000000E-002   -1.365924065317805E-017
  1.040000000000000E-002    1.673673235444341E-018
  1.050000000000000E-002    1.882882849909041E-017
  1.060000000000000E-002    3.633782771845584E-017
  1.070000000000000E-002    5.250512098640466E-017
  1.080000000000000E-002    6.555043107603706E-017
  1.090000000000000E-002    7.377864908036206E-017
  1.100000000000000E-002    7.576311992618343E-017
  1.110000000000000E-002    7.052522076629140E-017
  1.120000000000000E-002    5.769137633391745E-017
  1.130000000000000E-002    3.760821853206056E-017
  1.140000000000000E-002    1.139871403147503E-017
  1.150000000000000E-002   -1.905415921478709E-017
  1.160000000000000E-002   -5.120382240159335E-017
  1.170000000000000E-002   -8.201691381201220E-017
  1.180000000000000E-002   -1.082224850755229E-016
  1.190000000000000E-002   -1.266171706675038E-016
  1.200000000000000E-002   -1.344017993626291E-016
  1.210000000000000E-002   -1.295187151869928E-016
  1.220000000000000E-002   -1.109550673912231E-016
  1.230000000000000E-002   -7.897631015561703E-017
  1.240000000000000E-002   -3.525699221479197E-017
  1.250000000000000E-002    1.711766639669462E-017
  1.260000000000000E-002    7.379582580621072E-017
  1.270000000000000E-002    1.294519918322997E-016
  1.280000000000000E-002    1.782174499359483E-016
  1.290000000000000E-002    2.142206003841612E-016
  1.300000000000000E-002    2.321947760474296E-016
  1.310000000000000E-002    2.280993521818417E-016
  1.320000000000000E-002    1.996908026230832E-016
  1.330000000000000E-002    1.469785478620351E-016
  1.340000000000000E-002    7.250349360428858E-017
  1.350000000000000E-002   -1.861165881351005E-017
  1.360000000000000E-002   -1.188742645610428E-016
  1.370000000000000E-002   -2.189064616673482E-016
  1.380000000000000E-002   -3.081866564515749E-016
  1.390000000000000E-002   -3.760028132768596E-016
  1.400000000000000E-002   -4.125446553572048E-016
  1.410000000000000E-002   -4.100391500761970E-016
  1.420000000000000E-002   -3.638161595736461E-016
  1.430000000000000E-002   -2.731851283825412E-016
  1.440000000000000E-002   -1.420077281043035E-016
  1.450000000000000E-002    2.113080535365250E-017
  1.460000000000000E-002    2.032197346928791E-016
  1.470000000000000E-002    3.876182274724001E-016
  1.480000000000000E-002    5.553272911834310E-016
  1.490000000000000E-002    6.866665762282847E-016
  1.500000000000000E-002    7.632316189000005E-016
  1.510000000000000E-002    7.699649971485139E-016
  1.520000000000000E-002    6.971397708275411E-016
  1.530000000000000E-002    5.420396112781504E-016
  1.540000000000000E-002    3.101239692891953E-016
  1.550000000000000E-002    1.549337011039819E-017
  1.560000000000000E-002   -3.194796279079096E-016
  1.570000000000000E-002   -6.654200146606827E-016
  1.580000000000000E-002   -9.880994081745316E-016
  1.590000000000000E-002   -1.251352943568350E-015
  1.600000000000000E-002   -1.420558253510288E-015
  1.610000000000000E-002   -1.466384916153187E-015
  1.620000000000000E-002   -1.368464275329657E-015
  1.630000000000000E-002   -1.118591046710040E-015
  1.640000000000000E-002   -7.230692782633771E-016
  1.650000000000000E-002   -2.038585308306702E-016
  1.660000000000000E-002    4.017448282374960E-016
  1.670000000000000E-002    1.043035565801502E-015
  1.680000000000000E-002    1.659436151999768E-015
  1.690000000000000E-002    2.185469653733196E-015
  1.700000000000000E-002    2.556838051342253E-015
  1.710000000000000E-002    2.717112467461466E-015
  1.720000000000000E-002    2.624424187966686E-015
  1.730000000000000E-002    2.257473301577579E-015
  1.740000000000000E-002    1.620157957303898E-015
  1.750000000000000E-002    7.441867842172970E-016
  1.760000000000000E-002   -3.108306784154439E-016
  1.770000000000000E-002   -1.460124735165069E-015
  1.780000000000000E-002   -2.599389693327001E-015
  1.790000000000000E-002   -3.613056548703099E-015
  1.800000000000000E-002   -4.384681154225200E-015
  1.810000000000000E-002   -4.808636059376487E-015
  1.820000000000000E-002   -4.802059831383118E-015
  1.830000000000000E-002   -4.315885679849098E-015
  1.840000000000000E-002   -3.343708927180571E-015
  1.850000000000000E-002   -1.927345575447550E-015
  1.860000000000000E-002   -1.581342169972843E-016
  1.870000000000000E-002    1.826639397969150E-015